<event>
 4   0  0.5803570E-01  0.9118800E+02  0.7818609E-02  0.1379984E+01
      -11   -1    0    0    0    0  0.00000000000E+00  0.00000000000E+00  0.35740347158E-01  0.35744000000E-01  0.51099999109E-03 0.  1.
       11   -1    0    0    0    0 -0.00000000000E+00 -0.00000000000E+00 -0.35740347158E-01  0.35744000000E-01  0.51099999109E-03 0. -1.
       22    1    1    2    0    0  0.28624693495E-02  0.18664350286E-01  0.30341092309E-01  0.35737005818E-01  0.00000000000E+00 0.  1.
  9000001    1    1    2    0    0 -0.28624693495E-02 -0.18664350286E-01 -0.30341092309E-01  0.35750994182E-01  0.10000000475E-02 0. -1.
</event>
<event>
 4   0  0.5803570E-01  0.9118800E+02  0.7818609E-02  0.1379984E+01
      -11   -1    0    0    0    0  0.00000000000E+00  0.00000000000E+00  0.35740347158E-01  0.35744000000E-01  0.51099999109E-03 0.  1.
       11   -1    0    0    0    0 -0.00000000000E+00 -0.00000000000E+00 -0.35740347158E-01  0.35744000000E-01  0.51099999109E-03 0. -1.
       22    1    1    2    0    0 -0.11117528056E-01  0.11046194239E-01  0.32117218865E-01  0.35737005818E-01  0.00000000000E+00 0.  1.
  9000001    1    1    2    0    0  0.11117528056E-01 -0.11046194239E-01 -0.32117218865E-01  0.35750994182E-01  0.10000000475E-02 0. -1.
</event>
<event>
 4   0  0.5803570E-01  0.9118800E+02  0.7818609E-02  0.1379984E+01
      -11   -1    0    0    0    0  0.00000000000E+00  0.00000000000E+00  0.35740347158E-01  0.35744000000E-01  0.51099999109E-03 0.  1.
       11   -1    0    0    0    0 -0.00000000000E+00 -0.00000000000E+00 -0.35740347158E-01  0.35744000000E-01  0.51099999109E-03 0. -1.
       22    1    1    2    0    0 -0.12419886873E-01  0.19978626797E-01  0.26902313399E-01  0.35737005818E-01  0.00000000000E+00 0.  1.
  9000001    1    1    2    0    0  0.12419886873E-01 -0.19978626797E-01 -0.26902313399E-01  0.35750994182E-01  0.10000000475E-02 0. -1.
</event>
<event>
 4   0  0.5803570E-01  0.9118800E+02  0.7818609E-02  0.1379984E+01
      -11   -1    0    0    0    0  0.00000000000E+00  0.00000000000E+00  0.35740347158E-01  0.35744000000E-01  0.51099999109E-03 0. -1.
       11   -1    0    0    0    0 -0.00000000000E+00 -0.00000000000E+00 -0.35740347158E-01  0.35744000000E-01  0.51099999109E-03 0.  1.
       22    1    1    2    0    0  0.14255548093E-02 -0.54384854787E-02 -0.35291985692E-01  0.35737005818E-01  0.00000000000E+00 0.  1.
  9000001    1    1    2    0    0 -0.14255548093E-02  0.54384854787E-02  0.35291985692E-01  0.35750994182E-01  0.10000000475E-02 0. -1.
</event>
<event>
 4   0  0.5803570E-01  0.9118800E+02  0.7818609E-02  0.1379984E+01
      -11   -1    0    0    0    0  0.00000000000E+00  0.00000000000E+00  0.35740347158E-01  0.35744000000E-01  0.51099999109E-03 0.  1.
       11   -1    0    0    0    0 -0.00000000000E+00 -0.00000000000E+00 -0.35740347158E-01  0.35744000000E-01  0.51099999109E-03 0. -1.
       22    1    1    2    0    0 -0.15666824516E-02  0.60706510784E-02 -0.35182755527E-01  0.35737005818E-01  0.00000000000E+00 0. -1.
  9000001    1    1    2    0    0  0.15666824516E-02 -0.60706510784E-02  0.35182755527E-01  0.35750994182E-01  0.10000000475E-02 0.  1.
</event>
<event>
 4   0  0.5803570E-01  0.9118800E+02  0.7818609E-02  0.1379984E+01
      -11   -1    0    0    0    0  0.00000000000E+00  0.00000000000E+00  0.35740347158E-01  0.35744000000E-01  0.51099999109E-03 0.  1.
       11   -1    0    0    0    0 -0.00000000000E+00 -0.00000000000E+00 -0.35740347158E-01  0.35744000000E-01  0.51099999109E-03 0. -1.
       22    1    1    2    0    0  0.46024105332E-02  0.28021149191E-02 -0.35328452473E-01  0.35737005818E-01  0.00000000000E+00 0. -1.
  9000001    1    1    2    0    0 -0.46024105332E-02 -0.28021149191E-02  0.35328452473E-01  0.35750994182E-01  0.10000000475E-02 0.  1.
</event>
<event>
 4   0  0.5803570E-01  0.9118800E+02  0.7818609E-02  0.1379984E+01
      -11   -1    0    0    0    0  0.00000000000E+00  0.00000000000E+00  0.35740347158E-01  0.35744000000E-01  0.51099999109E-03 0. -1.
       11   -1    0    0    0    0 -0.00000000000E+00 -0.00000000000E+00 -0.35740347158E-01  0.35744000000E-01  0.51099999109E-03 0.  1.
       22    1    1    2    0    0  0.19000657158E-03 -0.46701633308E-02 -0.35430030438E-01  0.35737005818E-01  0.00000000000E+00 0.  1.
  9000001    1    1    2    0    0 -0.19000657158E-03  0.46701633308E-02  0.35430030438E-01  0.35750994182E-01  0.10000000475E-02 0. -1.
</event>
<event>
 4   0  0.5803570E-01  0.9118800E+02  0.7818609E-02  0.1379984E+01
      -11   -1    0    0    0    0  0.00000000000E+00  0.00000000000E+00  0.35740347158E-01  0.35744000000E-01  0.51099999109E-03 0. -1.
       11   -1    0    0    0    0 -0.00000000000E+00 -0.00000000000E+00 -0.35740347158E-01  0.35744000000E-01  0.51099999109E-03 0.  1.
       22    1    1    2    0    0  0.45851637919E-02  0.34561437874E-02  0.35272722152E-01  0.35737005818E-01  0.00000000000E+00 0. -1.
  9000001    1    1    2    0    0 -0.45851637919E-02 -0.34561437874E-02 -0.35272722152E-01  0.35750994182E-01  0.10000000475E-02 0.  1.
</event>
<event>
 4   0  0.5803570E-01  0.9118800E+02  0.7818609E-02  0.1379984E+01
      -11   -1    0    0    0    0  0.00000000000E+00  0.00000000000E+00  0.35740347158E-01  0.35744000000E-01  0.51099999109E-03 0. -1.
       11   -1    0    0    0    0 -0.00000000000E+00 -0.00000000000E+00 -0.35740347158E-01  0.35744000000E-01  0.51099999109E-03 0.  1.
       22    1    1    2    0    0  0.13003042519E-01  0.31971340254E-01 -0.92675710146E-02  0.35737005818E-01  0.00000000000E+00 0.  1.
  9000001    1    1    2    0    0 -0.13003042519E-01 -0.31971340254E-01  0.92675710146E-02  0.35750994182E-01  0.10000000475E-02 0. -1.
</event>
<event>
 4   0  0.5803570E-01  0.9118800E+02  0.7818609E-02  0.1379984E+01
      -11   -1    0    0    0    0  0.00000000000E+00  0.00000000000E+00  0.35740347158E-01  0.35744000000E-01  0.51099999109E-03 0. -1.
       11   -1    0    0    0    0 -0.00000000000E+00 -0.00000000000E+00 -0.35740347158E-01  0.35744000000E-01  0.51099999109E-03 0.  1.
       22    1    1    2    0    0  0.23147810564E-01  0.15944162940E-01 -0.22070254170E-01  0.35737005818E-01  0.00000000000E+00 0.  1.
  9000001    1    1    2    0    0 -0.23147810564E-01 -0.15944162940E-01  0.22070254170E-01  0.35750994182E-01  0.10000000475E-02 0. -1.
</event>
<event>
 4   0  0.5803570E-01  0.9118800E+02  0.7818609E-02  0.1379984E+01
      -11   -1    0    0    0    0  0.00000000000E+00  0.00000000000E+00  0.35740347158E-01  0.35744000000E-01  0.51099999109E-03 0.  1.
       11   -1    0    0    0    0 -0.00000000000E+00 -0.00000000000E+00 -0.35740347158E-01  0.35744000000E-01  0.51099999109E-03 0. -1.
       22    1    1    2    0    0  0.12992691582E-02 -0.70068521208E-02 -0.35019273377E-01  0.35737005818E-01  0.00000000000E+00 0. -1.
  9000001    1    1    2    0    0 -0.12992691582E-02  0.70068521208E-02  0.35019273377E-01  0.35750994182E-01  0.10000000475E-02 0.  1.
</event>
<event>
 4   0  0.5803570E-01  0.9118800E+02  0.7818609E-02  0.1379984E+01
      -11   -1    0    0    0    0  0.00000000000E+00  0.00000000000E+00  0.35740347158E-01  0.35744000000E-01  0.51099999109E-03 0. -1.
       11   -1    0    0    0    0 -0.00000000000E+00 -0.00000000000E+00 -0.35740347158E-01  0.35744000000E-01  0.51099999109E-03 0.  1.
       22    1    1    2    0    0  0.27325586576E-02 -0.11447771574E-01 -0.33743373187E-01  0.35737005818E-01  0.00000000000E+00 0.  1.
  9000001    1    1    2    0    0 -0.27325586576E-02  0.11447771574E-01  0.33743373187E-01  0.35750994182E-01  0.10000000475E-02 0. -1.
</event>
<event>
 4   0  0.5803570E-01  0.9118800E+02  0.7818609E-02  0.1379984E+01
      -11   -1    0    0    0    0  0.00000000000E+00  0.00000000000E+00  0.35740347158E-01  0.35744000000E-01  0.51099999109E-03 0.  1.
       11   -1    0    0    0    0 -0.00000000000E+00 -0.00000000000E+00 -0.35740347158E-01  0.35744000000E-01  0.51099999109E-03 0. -1.
       22    1    1    2    0    0  0.48115527996E-02 -0.19621305597E-01  0.29478583941E-01  0.35737005818E-01  0.00000000000E+00 0.  1.
  9000001    1    1    2    0    0 -0.48115527996E-02  0.19621305597E-01 -0.29478583941E-01  0.35750994182E-01  0.10000000475E-02 0. -1.
</event>
<event>
 4   0  0.5803570E-01  0.9118800E+02  0.7818609E-02  0.1379984E+01
      -11   -1    0    0    0    0  0.00000000000E+00  0.00000000000E+00  0.35740347158E-01  0.35744000000E-01  0.51099999109E-03 0. -1.
       11   -1    0    0    0    0 -0.00000000000E+00 -0.00000000000E+00 -0.35740347158E-01  0.35744000000E-01  0.51099999109E-03 0.  1.
       22    1    1    2    0    0 -0.58828768410E-03  0.90410282486E-02  0.34569456326E-01  0.35737005818E-01  0.00000000000E+00 0. -1.
  9000001    1    1    2    0    0  0.58828768410E-03 -0.90410282486E-02 -0.34569456326E-01  0.35750994182E-01  0.10000000475E-02 0.  1.
</event>
<event>
 4   0  0.5803570E-01  0.9118800E+02  0.7818609E-02  0.1379984E+01
      -11   -1    0    0    0    0  0.00000000000E+00  0.00000000000E+00  0.35740347158E-01  0.35744000000E-01  0.51099999109E-03 0. -1.
       11   -1    0    0    0    0 -0.00000000000E+00 -0.00000000000E+00 -0.35740347158E-01  0.35744000000E-01  0.51099999109E-03 0.  1.
       22    1    1    2    0    0  0.55985436345E-02 -0.48484124623E-02 -0.34961161174E-01  0.35737005818E-01  0.00000000000E+00 0.  1.
  9000001    1    1    2    0    0 -0.55985436345E-02  0.48484124623E-02  0.34961161174E-01  0.35750994182E-01  0.10000000475E-02 0. -1.
</event>
<event>
 4   0  0.5803570E-01  0.9118800E+02  0.7818609E-02  0.1379984E+01
      -11   -1    0    0    0    0  0.00000000000E+00  0.00000000000E+00  0.35740347158E-01  0.35744000000E-01  0.51099999109E-03 0. -1.
       11   -1    0    0    0    0 -0.00000000000E+00 -0.00000000000E+00 -0.35740347158E-01  0.35744000000E-01  0.51099999109E-03 0.  1.
       22    1    1    2    0    0  0.15507911726E-03 -0.83769511162E-02  0.34740987685E-01  0.35737005818E-01  0.00000000000E+00 0. -1.
  9000001    1    1    2    0    0 -0.15507911726E-03  0.83769511162E-02 -0.34740987685E-01  0.35750994182E-01  0.10000000475E-02 0.  1.
</event>
<event>
 4   0  0.5803570E-01  0.9118800E+02  0.7818609E-02  0.1379984E+01
      -11   -1    0    0    0    0  0.00000000000E+00  0.00000000000E+00  0.35740347158E-01  0.35744000000E-01  0.51099999109E-03 0. -1.
       11   -1    0    0    0    0 -0.00000000000E+00 -0.00000000000E+00 -0.35740347158E-01  0.35744000000E-01  0.51099999109E-03 0.  1.
       22    1    1    2    0    0 -0.16043409414E-01  0.10507797838E-01  0.30155078906E-01  0.35737005818E-01  0.00000000000E+00 0. -1.
  9000001    1    1    2    0    0  0.16043409414E-01 -0.10507797838E-01 -0.30155078906E-01  0.35750994182E-01  0.10000000475E-02 0.  1.
</event>
<event>
 4   0  0.5803570E-01  0.9118800E+02  0.7818609E-02  0.1379984E+01
      -11   -1    0    0    0    0  0.00000000000E+00  0.00000000000E+00  0.35740347158E-01  0.35744000000E-01  0.51099999109E-03 0.  1.
       11   -1    0    0    0    0 -0.00000000000E+00 -0.00000000000E+00 -0.35740347158E-01  0.35744000000E-01  0.51099999109E-03 0. -1.
       22    1    1    2    0    0  0.76448196382E-02  0.14634395873E-01  0.31694238830E-01  0.35737005818E-01  0.00000000000E+00 0.  1.
  9000001    1    1    2    0    0 -0.76448196382E-02 -0.14634395873E-01 -0.31694238830E-01  0.35750994182E-01  0.10000000475E-02 0. -1.
</event>
<event>
 4   0  0.5803570E-01  0.9118800E+02  0.7818609E-02  0.1379984E+01
      -11   -1    0    0    0    0  0.00000000000E+00  0.00000000000E+00  0.35740347158E-01  0.35744000000E-01  0.51099999109E-03 0. -1.
       11   -1    0    0    0    0 -0.00000000000E+00 -0.00000000000E+00 -0.35740347158E-01  0.35744000000E-01  0.51099999109E-03 0.  1.
       22    1    1    2    0    0  0.29621506180E-03 -0.42725743383E-02 -0.35479444049E-01  0.35737005818E-01  0.00000000000E+00 0.  1.
  9000001    1    1    2    0    0 -0.29621506180E-03  0.42725743383E-02  0.35479444049E-01  0.35750994182E-01  0.10000000475E-02 0. -1.
</event>
<event>
 4   0  0.5803570E-01  0.9118800E+02  0.7818609E-02  0.1379984E+01
      -11   -1    0    0    0    0  0.00000000000E+00  0.00000000000E+00  0.35740347158E-01  0.35744000000E-01  0.51099999109E-03 0.  1.
       11   -1    0    0    0    0 -0.00000000000E+00 -0.00000000000E+00 -0.35740347158E-01  0.35744000000E-01  0.51099999109E-03 0. -1.
       22    1    1    2    0    0 -0.72980502569E-02 -0.33607514793E-01 -0.97163262992E-02  0.35737005818E-01  0.00000000000E+00 0. -1.
  9000001    1    1    2    0    0  0.72980502569E-02  0.33607514793E-01  0.97163262992E-02  0.35750994182E-01  0.10000000475E-02 0.  1.
</event>
<event>
 4   0  0.5803570E-01  0.9118800E+02  0.7818609E-02  0.1379984E+01
      -11   -1    0    0    0    0  0.00000000000E+00  0.00000000000E+00  0.35740347158E-01  0.35744000000E-01  0.51099999109E-03 0. -1.
       11   -1    0    0    0    0 -0.00000000000E+00 -0.00000000000E+00 -0.35740347158E-01  0.35744000000E-01  0.51099999109E-03 0.  1.
       22    1    1    2    0    0  0.14933634113E-02 -0.30581973393E-02  0.35574581932E-01  0.35737005818E-01  0.00000000000E+00 0. -1.
  9000001    1    1    2    0    0 -0.14933634113E-02  0.30581973393E-02 -0.35574581932E-01  0.35750994182E-01  0.10000000475E-02 0.  1.
</event>
<event>
 4   0  0.5803570E-01  0.9118800E+02  0.7818609E-02  0.1379984E+01
      -11   -1    0    0    0    0  0.00000000000E+00  0.00000000000E+00  0.35740347158E-01  0.35744000000E-01  0.51099999109E-03 0. -1.
       11   -1    0    0    0    0 -0.00000000000E+00 -0.00000000000E+00 -0.35740347158E-01  0.35744000000E-01  0.51099999109E-03 0.  1.
       22    1    1    2    0    0 -0.99973311547E-02 -0.31088199579E-01 -0.14515881014E-01  0.35737005818E-01  0.00000000000E+00 0.  1.
  9000001    1    1    2    0    0  0.99973311547E-02  0.31088199579E-01  0.14515881014E-01  0.35750994182E-01  0.10000000475E-02 0. -1.
</event>
<event>
 4   0  0.5803570E-01  0.9118800E+02  0.7818609E-02  0.1379984E+01
      -11   -1    0    0    0    0  0.00000000000E+00  0.00000000000E+00  0.35740347158E-01  0.35744000000E-01  0.51099999109E-03 0.  1.
       11   -1    0    0    0    0 -0.00000000000E+00 -0.00000000000E+00 -0.35740347158E-01  0.35744000000E-01  0.51099999109E-03 0.  1.
       22    1    1    2    0    0  0.10113633156E-02 -0.82655814070E-02 -0.34753286077E-01  0.35737005818E-01  0.00000000000E+00 0.  1.
  9000001    1    1    2    0    0 -0.10113633156E-02  0.82655814070E-02  0.34753286077E-01  0.35750994182E-01  0.10000000475E-02 0.  1.
</event>
<event>
 4   0  0.5803570E-01  0.9118800E+02  0.7818609E-02  0.1379984E+01
      -11   -1    0    0    0    0  0.00000000000E+00  0.00000000000E+00  0.35740347158E-01  0.35744000000E-01  0.51099999109E-03 0. -1.
       11   -1    0    0    0    0 -0.00000000000E+00 -0.00000000000E+00 -0.35740347158E-01  0.35744000000E-01  0.51099999109E-03 0.  1.
       22    1    1    2    0    0  0.87452579082E-02 -0.10914552093E-01 -0.32886571752E-01  0.35737005818E-01  0.00000000000E+00 0.  1.
  9000001    1    1    2    0    0 -0.87452579082E-02  0.10914552093E-01  0.32886571752E-01  0.35750994182E-01  0.10000000475E-02 0. -1.
</event>
<event>
 4   0  0.5803570E-01  0.9118800E+02  0.7818609E-02  0.1379984E+01
      -11   -1    0    0    0    0  0.00000000000E+00  0.00000000000E+00  0.35740347158E-01  0.35744000000E-01  0.51099999109E-03 0.  1.
       11   -1    0    0    0    0 -0.00000000000E+00 -0.00000000000E+00 -0.35740347158E-01  0.35744000000E-01  0.51099999109E-03 0. -1.
       22    1    1    2    0    0 -0.56624010588E-02 -0.42191795565E-02  0.35032403900E-01  0.35737005818E-01  0.00000000000E+00 0.  1.
  9000001    1    1    2    0    0  0.56624010588E-02  0.42191795565E-02 -0.35032403900E-01  0.35750994182E-01  0.10000000475E-02 0. -1.
</event>
<event>
 4   0  0.5803570E-01  0.9118800E+02  0.7818609E-02  0.1379984E+01
      -11   -1    0    0    0    0  0.00000000000E+00  0.00000000000E+00  0.35740347158E-01  0.35744000000E-01  0.51099999109E-03 0.  1.
       11   -1    0    0    0    0 -0.00000000000E+00 -0.00000000000E+00 -0.35740347158E-01  0.35744000000E-01  0.51099999109E-03 0. -1.
       22    1    1    2    0    0  0.11481882221E-01  0.73909748683E-02 -0.33025345661E-01  0.35737005818E-01  0.00000000000E+00 0. -1.
  9000001    1    1    2    0    0 -0.11481882221E-01 -0.73909748683E-02  0.33025345661E-01  0.35750994182E-01  0.10000000475E-02 0.  1.
</event>
<event>
 4   0  0.5803570E-01  0.9118800E+02  0.7818609E-02  0.1379984E+01
      -11   -1    0    0    0    0  0.00000000000E+00  0.00000000000E+00  0.35740347158E-01  0.35744000000E-01  0.51099999109E-03 0. -1.
       11   -1    0    0    0    0 -0.00000000000E+00 -0.00000000000E+00 -0.35740347158E-01  0.35744000000E-01  0.51099999109E-03 0.  1.
       22    1    1    2    0    0 -0.50372387666E-02  0.77488084953E-03  0.35371731229E-01  0.35737005818E-01  0.00000000000E+00 0. -1.
  9000001    1    1    2    0    0  0.50372387666E-02 -0.77488084953E-03 -0.35371731229E-01  0.35750994182E-01  0.10000000475E-02 0.  1.
</event>
<event>
 4   0  0.5803570E-01  0.9118800E+02  0.7818609E-02  0.1379984E+01
      -11   -1    0    0    0    0  0.00000000000E+00  0.00000000000E+00  0.35740347158E-01  0.35744000000E-01  0.51099999109E-03 0.  1.
       11   -1    0    0    0    0 -0.00000000000E+00 -0.00000000000E+00 -0.35740347158E-01  0.35744000000E-01  0.51099999109E-03 0. -1.
       22    1    1    2    0    0 -0.41695325457E-02  0.16675886009E-02  0.35453740726E-01  0.35737005818E-01  0.00000000000E+00 0.  1.
  9000001    1    1    2    0    0  0.41695325457E-02 -0.16675886009E-02 -0.35453740726E-01  0.35750994182E-01  0.10000000475E-02 0. -1.
</event>
<event>
 4   0  0.5803570E-01  0.9118800E+02  0.7818609E-02  0.1379984E+01
      -11   -1    0    0    0    0  0.00000000000E+00  0.00000000000E+00  0.35740347158E-01  0.35744000000E-01  0.51099999109E-03 0. -1.
       11   -1    0    0    0    0 -0.00000000000E+00 -0.00000000000E+00 -0.35740347158E-01  0.35744000000E-01  0.51099999109E-03 0.  1.
       22    1    1    2    0    0  0.23480970951E-01  0.21795633970E-01 -0.15834390670E-01  0.35737005818E-01  0.00000000000E+00 0.  1.
  9000001    1    1    2    0    0 -0.23480970951E-01 -0.21795633970E-01  0.15834390670E-01  0.35750994182E-01  0.10000000475E-02 0. -1.
</event>
<event>
 4   0  0.5803570E-01  0.9118800E+02  0.7818609E-02  0.1379984E+01
      -11   -1    0    0    0    0  0.00000000000E+00  0.00000000000E+00  0.35740347158E-01  0.35744000000E-01  0.51099999109E-03 0.  1.
       11   -1    0    0    0    0 -0.00000000000E+00 -0.00000000000E+00 -0.35740347158E-01  0.35744000000E-01  0.51099999109E-03 0. -1.
       22    1    1    2    0    0  0.83207232968E-02  0.26231348041E-01 -0.22799463341E-01  0.35737005818E-01  0.00000000000E+00 0. -1.
  9000001    1    1    2    0    0 -0.83207232968E-02 -0.26231348041E-01  0.22799463341E-01  0.35750994182E-01  0.10000000475E-02 0.  1.
</event>
<event>
 4   0  0.5803570E-01  0.9118800E+02  0.7818609E-02  0.1379984E+01
      -11   -1    0    0    0    0  0.00000000000E+00  0.00000000000E+00  0.35740347158E-01  0.35744000000E-01  0.51099999109E-03 0. -1.
       11   -1    0    0    0    0 -0.00000000000E+00 -0.00000000000E+00 -0.35740347158E-01  0.35744000000E-01  0.51099999109E-03 0.  1.
       22    1    1    2    0    0 -0.69210871102E-02 -0.16387022958E-02  0.35022090070E-01  0.35737005818E-01  0.00000000000E+00 0. -1.
  9000001    1    1    2    0    0  0.69210871102E-02  0.16387022958E-02 -0.35022090070E-01  0.35750994182E-01  0.10000000475E-02 0.  1.
</event>
<event>
 4   0  0.5803570E-01  0.9118800E+02  0.7818609E-02  0.1379984E+01
      -11   -1    0    0    0    0  0.00000000000E+00  0.00000000000E+00  0.35740347158E-01  0.35744000000E-01  0.51099999109E-03 0.  1.
       11   -1    0    0    0    0 -0.00000000000E+00 -0.00000000000E+00 -0.35740347158E-01  0.35744000000E-01  0.51099999109E-03 0. -1.
       22    1    1    2    0    0  0.64813784916E-02  0.15632379258E-01 -0.31476245590E-01  0.35737005818E-01  0.00000000000E+00 0. -1.
  9000001    1    1    2    0    0 -0.64813784916E-02 -0.15632379258E-01  0.31476245590E-01  0.35750994182E-01  0.10000000475E-02 0.  1.
</event>
<event>
 4   0  0.5803570E-01  0.9118800E+02  0.7818609E-02  0.1379984E+01
      -11   -1    0    0    0    0  0.00000000000E+00  0.00000000000E+00  0.35740347158E-01  0.35744000000E-01  0.51099999109E-03 0.  1.
       11   -1    0    0    0    0 -0.00000000000E+00 -0.00000000000E+00 -0.35740347158E-01  0.35744000000E-01  0.51099999109E-03 0. -1.
       22    1    1    2    0    0 -0.55828006466E-02  0.23548525553E-02 -0.35219605211E-01  0.35737005818E-01  0.00000000000E+00 0. -1.
  9000001    1    1    2    0    0  0.55828006466E-02 -0.23548525553E-02  0.35219605211E-01  0.35750994182E-01  0.10000000475E-02 0.  1.
</event>
<event>
 4   0  0.5803570E-01  0.9118800E+02  0.7818609E-02  0.1379984E+01
      -11   -1    0    0    0    0  0.00000000000E+00  0.00000000000E+00  0.35740347158E-01  0.35744000000E-01  0.51099999109E-03 0. -1.
       11   -1    0    0    0    0 -0.00000000000E+00 -0.00000000000E+00 -0.35740347158E-01  0.35744000000E-01  0.51099999109E-03 0.  1.
       22    1    1    2    0    0  0.25354992711E-02 -0.11908487435E-01 -0.33598999320E-01  0.35737005818E-01  0.00000000000E+00 0.  1.
  9000001    1    1    2    0    0 -0.25354992711E-02  0.11908487435E-01  0.33598999320E-01  0.35750994182E-01  0.10000000475E-02 0. -1.
</event>
<event>
 4   0  0.5803570E-01  0.9118800E+02  0.7818609E-02  0.1379984E+01
      -11   -1    0    0    0    0  0.00000000000E+00  0.00000000000E+00  0.35740347158E-01  0.35744000000E-01  0.51099999109E-03 0. -1.
       11   -1    0    0    0    0 -0.00000000000E+00 -0.00000000000E+00 -0.35740347158E-01  0.35744000000E-01  0.51099999109E-03 0.  1.
       22    1    1    2    0    0 -0.16405221346E-02  0.28280510414E-01 -0.21786578500E-01  0.35737005818E-01  0.00000000000E+00 0.  1.
  9000001    1    1    2    0    0  0.16405221346E-02 -0.28280510414E-01  0.21786578500E-01  0.35750994182E-01  0.10000000475E-02 0. -1.
</event>
<event>
 4   0  0.5803570E-01  0.9118800E+02  0.7818609E-02  0.1379984E+01
      -11   -1    0    0    0    0  0.00000000000E+00  0.00000000000E+00  0.35740347158E-01  0.35744000000E-01  0.51099999109E-03 0. -1.
       11   -1    0    0    0    0 -0.00000000000E+00 -0.00000000000E+00 -0.35740347158E-01  0.35744000000E-01  0.51099999109E-03 0.  1.
       22    1    1    2    0    0  0.13286687241E-01  0.96711890969E-02  0.31734297353E-01  0.35737005818E-01  0.00000000000E+00 0. -1.
  9000001    1    1    2    0    0 -0.13286687241E-01 -0.96711890969E-02 -0.31734297353E-01  0.35750994182E-01  0.10000000475E-02 0.  1.
</event>
<event>
 4   0  0.5803570E-01  0.9118800E+02  0.7818609E-02  0.1379984E+01
      -11   -1    0    0    0    0  0.00000000000E+00  0.00000000000E+00  0.35740347158E-01  0.35744000000E-01  0.51099999109E-03 0. -1.
       11   -1    0    0    0    0 -0.00000000000E+00 -0.00000000000E+00 -0.35740347158E-01  0.35744000000E-01  0.51099999109E-03 0.  1.
       22    1    1    2    0    0 -0.34055958531E-02  0.18749629623E-02  0.35524921051E-01  0.35737005818E-01  0.00000000000E+00 0. -1.
  9000001    1    1    2    0    0  0.34055958531E-02 -0.18749629623E-02 -0.35524921051E-01  0.35750994182E-01  0.10000000475E-02 0.  1.
</event>
<event>
 4   0  0.5803570E-01  0.9118800E+02  0.7818609E-02  0.1379984E+01
      -11   -1    0    0    0    0  0.00000000000E+00  0.00000000000E+00  0.35740347158E-01  0.35744000000E-01  0.51099999109E-03 0.  1.
       11   -1    0    0    0    0 -0.00000000000E+00 -0.00000000000E+00 -0.35740347158E-01  0.35744000000E-01  0.51099999109E-03 0. -1.
       22    1    1    2    0    0 -0.60623081676E-02  0.35191250345E-01 -0.13992511156E-02  0.35737005818E-01  0.00000000000E+00 0. -1.
  9000001    1    1    2    0    0  0.60623081676E-02 -0.35191250345E-01  0.13992511156E-02  0.35750994182E-01  0.10000000475E-02 0.  1.
</event>
<event>
 4   0  0.5803570E-01  0.9118800E+02  0.7818609E-02  0.1379984E+01
      -11   -1    0    0    0    0  0.00000000000E+00  0.00000000000E+00  0.35740347158E-01  0.35744000000E-01  0.51099999109E-03 0. -1.
       11   -1    0    0    0    0 -0.00000000000E+00 -0.00000000000E+00 -0.35740347158E-01  0.35744000000E-01  0.51099999109E-03 0.  1.
       22    1    1    2    0    0 -0.20754759153E-01 -0.27677308745E-01  0.89632660336E-02  0.35737005818E-01  0.00000000000E+00 0. -1.
  9000001    1    1    2    0    0  0.20754759153E-01  0.27677308745E-01 -0.89632660336E-02  0.35750994182E-01  0.10000000475E-02 0.  1.
</event>
<event>
 4   0  0.5803570E-01  0.9118800E+02  0.7818609E-02  0.1379984E+01
      -11   -1    0    0    0    0  0.00000000000E+00  0.00000000000E+00  0.35740347158E-01  0.35744000000E-01  0.51099999109E-03 0.  1.
       11   -1    0    0    0    0 -0.00000000000E+00 -0.00000000000E+00 -0.35740347158E-01  0.35744000000E-01  0.51099999109E-03 0. -1.
       22    1    1    2    0    0 -0.13939810647E-01  0.40101056748E-02 -0.32660898893E-01  0.35737005818E-01  0.00000000000E+00 0. -1.
  9000001    1    1    2    0    0  0.13939810647E-01 -0.40101056748E-02  0.32660898893E-01  0.35750994182E-01  0.10000000475E-02 0.  1.
</event>
<event>
 4   0  0.5803570E-01  0.9118800E+02  0.7818609E-02  0.1379984E+01
      -11   -1    0    0    0    0  0.00000000000E+00  0.00000000000E+00  0.35740347158E-01  0.35744000000E-01  0.51099999109E-03 0.  1.
       11   -1    0    0    0    0 -0.00000000000E+00 -0.00000000000E+00 -0.35740347158E-01  0.35744000000E-01  0.51099999109E-03 0. -1.
       22    1    1    2    0    0 -0.68203144066E-02 -0.83353728707E-02 -0.34075481734E-01  0.35737005818E-01  0.00000000000E+00 0. -1.
  9000001    1    1    2    0    0  0.68203144066E-02  0.83353728707E-02  0.34075481734E-01  0.35750994182E-01  0.10000000475E-02 0.  1.
</event>
<event>
 4   0  0.5803570E-01  0.9118800E+02  0.7818609E-02  0.1379984E+01
      -11   -1    0    0    0    0  0.00000000000E+00  0.00000000000E+00  0.35740347158E-01  0.35744000000E-01  0.51099999109E-03 0.  1.
       11   -1    0    0    0    0 -0.00000000000E+00 -0.00000000000E+00 -0.35740347158E-01  0.35744000000E-01  0.51099999109E-03 0. -1.
       22    1    1    2    0    0  0.66373240709E-02 -0.16273355804E-01  0.31116834751E-01  0.35737005818E-01  0.00000000000E+00 0.  1.
  9000001    1    1    2    0    0 -0.66373240709E-02  0.16273355804E-01 -0.31116834751E-01  0.35750994182E-01  0.10000000475E-02 0. -1.
</event>
<event>
 4   0  0.5803570E-01  0.9118800E+02  0.7818609E-02  0.1379984E+01
      -11   -1    0    0    0    0  0.00000000000E+00  0.00000000000E+00  0.35740347158E-01  0.35744000000E-01  0.51099999109E-03 0. -1.
       11   -1    0    0    0    0 -0.00000000000E+00 -0.00000000000E+00 -0.35740347158E-01  0.35744000000E-01  0.51099999109E-03 0.  1.
       22    1    1    2    0    0  0.12226632389E-01 -0.62869966237E-02  0.32986614236E-01  0.35737005818E-01  0.00000000000E+00 0. -1.
  9000001    1    1    2    0    0 -0.12226632389E-01  0.62869966237E-02 -0.32986614236E-01  0.35750994182E-01  0.10000000475E-02 0.  1.
</event>
<event>
 4   0  0.5803570E-01  0.9118800E+02  0.7818609E-02  0.1379984E+01
      -11   -1    0    0    0    0  0.00000000000E+00  0.00000000000E+00  0.35740347158E-01  0.35744000000E-01  0.51099999109E-03 0. -1.
       11   -1    0    0    0    0 -0.00000000000E+00 -0.00000000000E+00 -0.35740347158E-01  0.35744000000E-01  0.51099999109E-03 0.  1.
       22    1    1    2    0    0 -0.31074723098E-02 -0.34571906197E-02  0.35433388685E-01  0.35737005818E-01  0.00000000000E+00 0. -1.
  9000001    1    1    2    0    0  0.31074723098E-02  0.34571906197E-02 -0.35433388685E-01  0.35750994182E-01  0.10000000475E-02 0.  1.
</event>
<event>
 4   0  0.5803570E-01  0.9118800E+02  0.7818609E-02  0.1379984E+01
      -11   -1    0    0    0    0  0.00000000000E+00  0.00000000000E+00  0.35740347158E-01  0.35744000000E-01  0.51099999109E-03 0.  1.
       11   -1    0    0    0    0 -0.00000000000E+00 -0.00000000000E+00 -0.35740347158E-01  0.35744000000E-01  0.51099999109E-03 0. -1.
       22    1    1    2    0    0 -0.42514925497E-02  0.33209958786E-02  0.35327459325E-01  0.35737005818E-01  0.00000000000E+00 0.  1.
  9000001    1    1    2    0    0  0.42514925497E-02 -0.33209958786E-02 -0.35327459325E-01  0.35750994182E-01  0.10000000475E-02 0. -1.
</event>
<event>
 4   0  0.5803570E-01  0.9118800E+02  0.7818609E-02  0.1379984E+01
      -11   -1    0    0    0    0  0.00000000000E+00  0.00000000000E+00  0.35740347158E-01  0.35744000000E-01  0.51099999109E-03 0. -1.
       11   -1    0    0    0    0 -0.00000000000E+00 -0.00000000000E+00 -0.35740347158E-01  0.35744000000E-01  0.51099999109E-03 0.  1.
       22    1    1    2    0    0  0.25580313312E-02  0.85554950007E-02  0.34603375065E-01  0.35737005818E-01  0.00000000000E+00 0. -1.
  9000001    1    1    2    0    0 -0.25580313312E-02 -0.85554950007E-02 -0.34603375065E-01  0.35750994182E-01  0.10000000475E-02 0.  1.
</event>
<event>
 4   0  0.5803570E-01  0.9118800E+02  0.7818609E-02  0.1379984E+01
      -11   -1    0    0    0    0  0.00000000000E+00  0.00000000000E+00  0.35740347158E-01  0.35744000000E-01  0.51099999109E-03 0. -1.
       11   -1    0    0    0    0 -0.00000000000E+00 -0.00000000000E+00 -0.35740347158E-01  0.35744000000E-01  0.51099999109E-03 0.  1.
       22    1    1    2    0    0  0.39310602324E-02 -0.44941420382E-02 -0.35234685151E-01  0.35737005818E-01  0.00000000000E+00 0.  1.
  9000001    1    1    2    0    0 -0.39310602324E-02  0.44941420382E-02  0.35234685151E-01  0.35750994182E-01  0.10000000475E-02 0. -1.
</event>
<event>
 4   0  0.5803570E-01  0.9118800E+02  0.7818609E-02  0.1379984E+01
      -11   -1    0    0    0    0  0.00000000000E+00  0.00000000000E+00  0.35740347158E-01  0.35744000000E-01  0.51099999109E-03 0. -1.
       11   -1    0    0    0    0 -0.00000000000E+00 -0.00000000000E+00 -0.35740347158E-01  0.35744000000E-01  0.51099999109E-03 0.  1.
       22    1    1    2    0    0 -0.78987599735E-02  0.42528132782E-02 -0.34592726909E-01  0.35737005818E-01  0.00000000000E+00 0.  1.
  9000001    1    1    2    0    0  0.78987599735E-02 -0.42528132782E-02  0.34592726909E-01  0.35750994182E-01  0.10000000475E-02 0. -1.
</event>
<event>
 4   0  0.5803570E-01  0.9118800E+02  0.7818609E-02  0.1379984E+01
      -11   -1    0    0    0    0  0.00000000000E+00  0.00000000000E+00  0.35740347158E-01  0.35744000000E-01  0.51099999109E-03 0.  1.
       11   -1    0    0    0    0 -0.00000000000E+00 -0.00000000000E+00 -0.35740347158E-01  0.35744000000E-01  0.51099999109E-03 0. -1.
       22    1    1    2    0    0  0.90104292567E-02 -0.52285940030E-02  0.34184902431E-01  0.35737005818E-01  0.00000000000E+00 0.  1.
  9000001    1    1    2    0    0 -0.90104292567E-02  0.52285940030E-02 -0.34184902431E-01  0.35750994182E-01  0.10000000475E-02 0. -1.
</event>
<event>
 4   0  0.5803570E-01  0.9118800E+02  0.7818609E-02  0.1379984E+01
      -11   -1    0    0    0    0  0.00000000000E+00  0.00000000000E+00  0.35740347158E-01  0.35744000000E-01  0.51099999109E-03 0.  1.
       11   -1    0    0    0    0 -0.00000000000E+00 -0.00000000000E+00 -0.35740347158E-01  0.35744000000E-01  0.51099999109E-03 0. -1.
       22    1    1    2    0    0 -0.11649065432E-01 -0.82291117115E-02  0.32767584285E-01  0.35737005818E-01  0.00000000000E+00 0.  1.
  9000001    1    1    2    0    0  0.11649065432E-01  0.82291117115E-02 -0.32767584285E-01  0.35750994182E-01  0.10000000475E-02 0. -1.
</event>
<event>
 4   0  0.5803570E-01  0.9118800E+02  0.7818609E-02  0.1379984E+01
      -11   -1    0    0    0    0  0.00000000000E+00  0.00000000000E+00  0.35740347158E-01  0.35744000000E-01  0.51099999109E-03 0. -1.
       11   -1    0    0    0    0 -0.00000000000E+00 -0.00000000000E+00 -0.35740347158E-01  0.35744000000E-01  0.51099999109E-03 0.  1.
       22    1    1    2    0    0  0.10672071021E-02  0.80318934402E-02 -0.34806369268E-01  0.35737005818E-01  0.00000000000E+00 0.  1.
  9000001    1    1    2    0    0 -0.10672071021E-02 -0.80318934402E-02  0.34806369268E-01  0.35750994182E-01  0.10000000475E-02 0. -1.
</event>
<event>
 4   0  0.5803570E-01  0.9118800E+02  0.7818609E-02  0.1379984E+01
      -11   -1    0    0    0    0  0.00000000000E+00  0.00000000000E+00  0.35740347158E-01  0.35744000000E-01  0.51099999109E-03 0. -1.
       11   -1    0    0    0    0 -0.00000000000E+00 -0.00000000000E+00 -0.35740347158E-01  0.35744000000E-01  0.51099999109E-03 0.  1.
       22    1    1    2    0    0  0.20077855478E-01  0.27926392569E-01 -0.97020566039E-02  0.35737005818E-01  0.00000000000E+00 0.  1.
  9000001    1    1    2    0    0 -0.20077855478E-01 -0.27926392569E-01  0.97020566039E-02  0.35750994182E-01  0.10000000475E-02 0. -1.
</event>
<event>
 4   0  0.5803570E-01  0.9118800E+02  0.7818609E-02  0.1379984E+01
      -11   -1    0    0    0    0  0.00000000000E+00  0.00000000000E+00  0.35740347158E-01  0.35744000000E-01  0.51099999109E-03 0. -1.
       11   -1    0    0    0    0 -0.00000000000E+00 -0.00000000000E+00 -0.35740347158E-01  0.35744000000E-01  0.51099999109E-03 0.  1.
       22    1    1    2    0    0  0.60876967661E-03 -0.95169168516E-02  0.34441127711E-01  0.35737005818E-01  0.00000000000E+00 0. -1.
  9000001    1    1    2    0    0 -0.60876967661E-03  0.95169168516E-02 -0.34441127711E-01  0.35750994182E-01  0.10000000475E-02 0.  1.
</event>
<event>
 4   0  0.5803570E-01  0.9118800E+02  0.7818609E-02  0.1379984E+01
      -11   -1    0    0    0    0  0.00000000000E+00  0.00000000000E+00  0.35740347158E-01  0.35744000000E-01  0.51099999109E-03 0. -1.
       11   -1    0    0    0    0 -0.00000000000E+00 -0.00000000000E+00 -0.35740347158E-01  0.35744000000E-01  0.51099999109E-03 0.  1.
       22    1    1    2    0    0 -0.15227088064E-01  0.18566772204E-02 -0.32277269458E-01  0.35737005818E-01  0.00000000000E+00 0.  1.
  9000001    1    1    2    0    0  0.15227088064E-01 -0.18566772204E-02  0.32277269458E-01  0.35750994182E-01  0.10000000475E-02 0. -1.
</event>
<event>
 4   0  0.5803570E-01  0.9118800E+02  0.7818609E-02  0.1379984E+01
      -11   -1    0    0    0    0  0.00000000000E+00  0.00000000000E+00  0.35740347158E-01  0.35744000000E-01  0.51099999109E-03 0.  1.
       11   -1    0    0    0    0 -0.00000000000E+00 -0.00000000000E+00 -0.35740347158E-01  0.35744000000E-01  0.51099999109E-03 0. -1.
       22    1    1    2    0    0 -0.25624079713E-02 -0.86442281968E-02 -0.34580991442E-01  0.35737005818E-01  0.00000000000E+00 0. -1.
  9000001    1    1    2    0    0  0.25624079713E-02  0.86442281968E-02  0.34580991442E-01  0.35750994182E-01  0.10000000475E-02 0.  1.
</event>
<event>
 4   0  0.5803570E-01  0.9118800E+02  0.7818609E-02  0.1379984E+01
      -11   -1    0    0    0    0  0.00000000000E+00  0.00000000000E+00  0.35740347158E-01  0.35744000000E-01  0.51099999109E-03 0.  1.
       11   -1    0    0    0    0 -0.00000000000E+00 -0.00000000000E+00 -0.35740347158E-01  0.35744000000E-01  0.51099999109E-03 0. -1.
       22    1    1    2    0    0  0.54165757081E-02  0.48178277474E-02 -0.34994039896E-01  0.35737005818E-01  0.00000000000E+00 0. -1.
  9000001    1    1    2    0    0 -0.54165757081E-02 -0.48178277474E-02  0.34994039896E-01  0.35750994182E-01  0.10000000475E-02 0.  1.
</event>
<event>
 4   0  0.5803570E-01  0.9118800E+02  0.7818609E-02  0.1379984E+01
      -11   -1    0    0    0    0  0.00000000000E+00  0.00000000000E+00  0.35740347158E-01  0.35744000000E-01  0.51099999109E-03 0. -1.
       11   -1    0    0    0    0 -0.00000000000E+00 -0.00000000000E+00 -0.35740347158E-01  0.35744000000E-01  0.51099999109E-03 0.  1.
       22    1    1    2    0    0 -0.17920503002E-01  0.30825347186E-01  0.24056450028E-02  0.35737005818E-01  0.00000000000E+00 0.  1.
  9000001    1    1    2    0    0  0.17920503002E-01 -0.30825347186E-01 -0.24056450028E-02  0.35750994182E-01  0.10000000475E-02 0. -1.
</event>
<event>
 4   0  0.5803570E-01  0.9118800E+02  0.7818609E-02  0.1379984E+01
      -11   -1    0    0    0    0  0.00000000000E+00  0.00000000000E+00  0.35740347158E-01  0.35744000000E-01  0.51099999109E-03 0. -1.
       11   -1    0    0    0    0 -0.00000000000E+00 -0.00000000000E+00 -0.35740347158E-01  0.35744000000E-01  0.51099999109E-03 0.  1.
       22    1    1    2    0    0 -0.15833738851E-02  0.22573994902E-01  0.27659379353E-01  0.35737005818E-01  0.00000000000E+00 0. -1.
  9000001    1    1    2    0    0  0.15833738851E-02 -0.22573994902E-01 -0.27659379353E-01  0.35750994182E-01  0.10000000475E-02 0.  1.
</event>
<event>
 4   0  0.5803570E-01  0.9118800E+02  0.7818609E-02  0.1379984E+01
      -11   -1    0    0    0    0  0.00000000000E+00  0.00000000000E+00  0.35740347158E-01  0.35744000000E-01  0.51099999109E-03 0. -1.
       11   -1    0    0    0    0 -0.00000000000E+00 -0.00000000000E+00 -0.35740347158E-01  0.35744000000E-01  0.51099999109E-03 0.  1.
       22    1    1    2    0    0 -0.55804533121E-02 -0.12244998312E-01 -0.33106678209E-01  0.35737005818E-01  0.00000000000E+00 0.  1.
  9000001    1    1    2    0    0  0.55804533121E-02  0.12244998312E-01  0.33106678209E-01  0.35750994182E-01  0.10000000475E-02 0. -1.
</event>
<event>
 4   0  0.5803570E-01  0.9118800E+02  0.7818609E-02  0.1379984E+01
      -11   -1    0    0    0    0  0.00000000000E+00  0.00000000000E+00  0.35740347158E-01  0.35744000000E-01  0.51099999109E-03 0. -1.
       11   -1    0    0    0    0 -0.00000000000E+00 -0.00000000000E+00 -0.35740347158E-01  0.35744000000E-01  0.51099999109E-03 0.  1.
       22    1    1    2    0    0 -0.18507497632E-01  0.22701652004E-01 -0.20475378204E-01  0.35737005818E-01  0.00000000000E+00 0.  1.
  9000001    1    1    2    0    0  0.18507497632E-01 -0.22701652004E-01  0.20475378204E-01  0.35750994182E-01  0.10000000475E-02 0. -1.
</event>
<event>
 4   0  0.5803570E-01  0.9118800E+02  0.7818609E-02  0.1379984E+01
      -11   -1    0    0    0    0  0.00000000000E+00  0.00000000000E+00  0.35740347158E-01  0.35744000000E-01  0.51099999109E-03 0.  1.
       11   -1    0    0    0    0 -0.00000000000E+00 -0.00000000000E+00 -0.35740347158E-01  0.35744000000E-01  0.51099999109E-03 0. -1.
       22    1    1    2    0    0  0.26509327657E-01  0.13658916089E-01  0.19693225823E-01  0.35737005818E-01  0.00000000000E+00 0.  1.
  9000001    1    1    2    0    0 -0.26509327657E-01 -0.13658916089E-01 -0.19693225823E-01  0.35750994182E-01  0.10000000475E-02 0. -1.
</event>
<event>
 4   0  0.5803570E-01  0.9118800E+02  0.7818609E-02  0.1379984E+01
      -11   -1    0    0    0    0  0.00000000000E+00  0.00000000000E+00  0.35740347158E-01  0.35744000000E-01  0.51099999109E-03 0.  1.
       11   -1    0    0    0    0 -0.00000000000E+00 -0.00000000000E+00 -0.35740347158E-01  0.35744000000E-01  0.51099999109E-03 0. -1.
       22    1    1    2    0    0  0.14058239541E-01  0.45785304061E-02  0.32535158601E-01  0.35737005818E-01  0.00000000000E+00 0.  1.
  9000001    1    1    2    0    0 -0.14058239541E-01 -0.45785304061E-02 -0.32535158601E-01  0.35750994182E-01  0.10000000475E-02 0. -1.
</event>
<event>
 4   0  0.5803570E-01  0.9118800E+02  0.7818609E-02  0.1379984E+01
      -11   -1    0    0    0    0  0.00000000000E+00  0.00000000000E+00  0.35740347158E-01  0.35744000000E-01  0.51099999109E-03 0.  1.
       11   -1    0    0    0    0 -0.00000000000E+00 -0.00000000000E+00 -0.35740347158E-01  0.35744000000E-01  0.51099999109E-03 0. -1.
       22    1    1    2    0    0  0.12151956851E-01 -0.53450234079E-02 -0.33179726556E-01  0.35737005818E-01  0.00000000000E+00 0. -1.
  9000001    1    1    2    0    0 -0.12151956851E-01  0.53450234079E-02  0.33179726556E-01  0.35750994182E-01  0.10000000475E-02 0.  1.
</event>
<event>
 4   0  0.5803570E-01  0.9118800E+02  0.7818609E-02  0.1379984E+01
      -11   -1    0    0    0    0  0.00000000000E+00  0.00000000000E+00  0.35740347158E-01  0.35744000000E-01  0.51099999109E-03 0.  1.
       11   -1    0    0    0    0 -0.00000000000E+00 -0.00000000000E+00 -0.35740347158E-01  0.35744000000E-01  0.51099999109E-03 0. -1.
       22    1    1    2    0    0  0.19253599888E-01  0.92207746925E-02  0.28660247562E-01  0.35737005818E-01  0.00000000000E+00 0.  1.
  9000001    1    1    2    0    0 -0.19253599888E-01 -0.92207746925E-02 -0.28660247562E-01  0.35750994182E-01  0.10000000475E-02 0. -1.
</event>
<event>
 4   0  0.5803570E-01  0.9118800E+02  0.7818609E-02  0.1379984E+01
      -11   -1    0    0    0    0  0.00000000000E+00  0.00000000000E+00  0.35740347158E-01  0.35744000000E-01  0.51099999109E-03 0. -1.
       11   -1    0    0    0    0 -0.00000000000E+00 -0.00000000000E+00 -0.35740347158E-01  0.35744000000E-01  0.51099999109E-03 0.  1.
       22    1    1    2    0    0 -0.33477125470E-01 -0.21245239109E-02  0.12324855101E-01  0.35737005818E-01  0.00000000000E+00 0. -1.
  9000001    1    1    2    0    0  0.33477125470E-01  0.21245239109E-02 -0.12324855101E-01  0.35750994182E-01  0.10000000475E-02 0.  1.
</event>
<event>
 4   0  0.5803570E-01  0.9118800E+02  0.7818609E-02  0.1379984E+01
      -11   -1    0    0    0    0  0.00000000000E+00  0.00000000000E+00  0.35740347158E-01  0.35744000000E-01  0.51099999109E-03 0.  1.
       11   -1    0    0    0    0 -0.00000000000E+00 -0.00000000000E+00 -0.35740347158E-01  0.35744000000E-01  0.51099999109E-03 0. -1.
       22    1    1    2    0    0 -0.24929476811E-01  0.16491706841E-01  0.19587709827E-01  0.35737005818E-01  0.00000000000E+00 0.  1.
  9000001    1    1    2    0    0  0.24929476811E-01 -0.16491706841E-01 -0.19587709827E-01  0.35750994182E-01  0.10000000475E-02 0. -1.
</event>
<event>
 4   0  0.5803570E-01  0.9118800E+02  0.7818609E-02  0.1379984E+01
      -11   -1    0    0    0    0  0.00000000000E+00  0.00000000000E+00  0.35740347158E-01  0.35744000000E-01  0.51099999109E-03 0. -1.
       11   -1    0    0    0    0 -0.00000000000E+00 -0.00000000000E+00 -0.35740347158E-01  0.35744000000E-01  0.51099999109E-03 0.  1.
       22    1    1    2    0    0 -0.30961194329E-02  0.24304677308E-02 -0.35519578488E-01  0.35737005818E-01  0.00000000000E+00 0.  1.
  9000001    1    1    2    0    0  0.30961194329E-02 -0.24304677308E-02  0.35519578488E-01  0.35750994182E-01  0.10000000475E-02 0. -1.
</event>
<event>
 4   0  0.5803570E-01  0.9118800E+02  0.7818609E-02  0.1379984E+01
      -11   -1    0    0    0    0  0.00000000000E+00  0.00000000000E+00  0.35740347158E-01  0.35744000000E-01  0.51099999109E-03 0. -1.
       11   -1    0    0    0    0 -0.00000000000E+00 -0.00000000000E+00 -0.35740347158E-01  0.35744000000E-01  0.51099999109E-03 0.  1.
       22    1    1    2    0    0 -0.28132304500E-01 -0.21586578097E-01 -0.44414721035E-02  0.35737005818E-01  0.00000000000E+00 0.  1.
  9000001    1    1    2    0    0  0.28132304500E-01  0.21586578097E-01  0.44414721035E-02  0.35750994182E-01  0.10000000475E-02 0. -1.
</event>
<event>
 4   0  0.5803570E-01  0.9118800E+02  0.7818609E-02  0.1379984E+01
      -11   -1    0    0    0    0  0.00000000000E+00  0.00000000000E+00  0.35740347158E-01  0.35744000000E-01  0.51099999109E-03 0. -1.
       11   -1    0    0    0    0 -0.00000000000E+00 -0.00000000000E+00 -0.35740347158E-01  0.35744000000E-01  0.51099999109E-03 0.  1.
       22    1    1    2    0    0 -0.36212038227E-02  0.18785835562E-02 -0.35503399718E-01  0.35737005818E-01  0.00000000000E+00 0.  1.
  9000001    1    1    2    0    0  0.36212038227E-02 -0.18785835562E-02  0.35503399718E-01  0.35750994182E-01  0.10000000475E-02 0. -1.
</event>
<event>
 4   0  0.5803570E-01  0.9118800E+02  0.7818609E-02  0.1379984E+01
      -11   -1    0    0    0    0  0.00000000000E+00  0.00000000000E+00  0.35740347158E-01  0.35744000000E-01  0.51099999109E-03 0.  1.
       11   -1    0    0    0    0 -0.00000000000E+00 -0.00000000000E+00 -0.35740347158E-01  0.35744000000E-01  0.51099999109E-03 0. -1.
       22    1    1    2    0    0  0.27050346219E-02 -0.13586460704E-01 -0.32942745151E-01  0.35737005818E-01  0.00000000000E+00 0. -1.
  9000001    1    1    2    0    0 -0.27050346219E-02  0.13586460704E-01  0.32942745151E-01  0.35750994182E-01  0.10000000475E-02 0.  1.
</event>
<event>
 4   0  0.5803570E-01  0.9118800E+02  0.7818609E-02  0.1379984E+01
      -11   -1    0    0    0    0  0.00000000000E+00  0.00000000000E+00  0.35740347158E-01  0.35744000000E-01  0.51099999109E-03 0.  1.
       11   -1    0    0    0    0 -0.00000000000E+00 -0.00000000000E+00 -0.35740347158E-01  0.35744000000E-01  0.51099999109E-03 0. -1.
       22    1    1    2    0    0  0.10942140194E-01 -0.32390769756E-02 -0.33866082342E-01  0.35737005818E-01  0.00000000000E+00 0. -1.
  9000001    1    1    2    0    0 -0.10942140194E-01  0.32390769756E-02  0.33866082342E-01  0.35750994182E-01  0.10000000475E-02 0.  1.
</event>
<event>
 4   0  0.8539670E-01  0.9118800E+02  0.7818609E-02  0.1379984E+01
      -11   -1    0    0    0    0  0.00000000000E+00  0.00000000000E+00  0.35740347158E-01  0.35744000000E-01  0.51099999109E-03 0. -1.
       11   -1    0    0    0    0 -0.00000000000E+00 -0.00000000000E+00 -0.35740347158E-01  0.35744000000E-01  0.51099999109E-03 0.  1.
       22    1    1    2    0    0  0.20583272170E-02  0.22257242801E-02 -0.35608187617E-01  0.35737005818E-01  0.00000000000E+00 0.  1.
  9000001    1    1    2    0    0 -0.20583272170E-02 -0.22257242801E-02  0.35608187617E-01  0.35750994182E-01  0.10000000475E-02 0. -1.
</event>
<event>
 4   0  0.5803570E-01  0.9118800E+02  0.7818609E-02  0.1379984E+01
      -11   -1    0    0    0    0  0.00000000000E+00  0.00000000000E+00  0.35740347158E-01  0.35744000000E-01  0.51099999109E-03 0.  1.
       11   -1    0    0    0    0 -0.00000000000E+00 -0.00000000000E+00 -0.35740347158E-01  0.35744000000E-01  0.51099999109E-03 0. -1.
       22    1    1    2    0    0  0.26654594068E-02 -0.16540540984E-01  0.31566428607E-01  0.35737005818E-01  0.00000000000E+00 0.  1.
  9000001    1    1    2    0    0 -0.26654594068E-02  0.16540540984E-01 -0.31566428607E-01  0.35750994182E-01  0.10000000475E-02 0. -1.
</event>
<event>
 4   0  0.5803570E-01  0.9118800E+02  0.7818609E-02  0.1379984E+01
      -11   -1    0    0    0    0  0.00000000000E+00  0.00000000000E+00  0.35740347158E-01  0.35744000000E-01  0.51099999109E-03 0.  1.
       11   -1    0    0    0    0 -0.00000000000E+00 -0.00000000000E+00 -0.35740347158E-01  0.35744000000E-01  0.51099999109E-03 0. -1.
       22    1    1    2    0    0  0.64692694680E-02  0.23813726886E-01 -0.25849343304E-01  0.35737005818E-01  0.00000000000E+00 0. -1.
  9000001    1    1    2    0    0 -0.64692694680E-02 -0.23813726886E-01  0.25849343304E-01  0.35750994182E-01  0.10000000475E-02 0.  1.
</event>
<event>
 4   0  0.5803570E-01  0.9118800E+02  0.7818609E-02  0.1379984E+01
      -11   -1    0    0    0    0  0.00000000000E+00  0.00000000000E+00  0.35740347158E-01  0.35744000000E-01  0.51099999109E-03 0. -1.
       11   -1    0    0    0    0 -0.00000000000E+00 -0.00000000000E+00 -0.35740347158E-01  0.35744000000E-01  0.51099999109E-03 0.  1.
       22    1    1    2    0    0  0.13687123264E-01  0.33012046781E-01  0.31764125939E-04  0.35737005818E-01  0.00000000000E+00 0.  1.
  9000001    1    1    2    0    0 -0.13687123264E-01 -0.33012046781E-01 -0.31764125939E-04  0.35750994182E-01  0.10000000475E-02 0. -1.
</event>
<event>
 4   0  0.5803570E-01  0.9118800E+02  0.7818609E-02  0.1379984E+01
      -11   -1    0    0    0    0  0.00000000000E+00  0.00000000000E+00  0.35740347158E-01  0.35744000000E-01  0.51099999109E-03 0. -1.
       11   -1    0    0    0    0 -0.00000000000E+00 -0.00000000000E+00 -0.35740347158E-01  0.35744000000E-01  0.51099999109E-03 0.  1.
       22    1    1    2    0    0 -0.48763383030E-03 -0.26871120324E-01  0.23555014130E-01  0.35737005818E-01  0.00000000000E+00 0. -1.
  9000001    1    1    2    0    0  0.48763383030E-03  0.26871120324E-01 -0.23555014130E-01  0.35750994182E-01  0.10000000475E-02 0.  1.
</event>
<event>
 4   0  0.6649316E-01  0.9118800E+02  0.7818609E-02  0.1379984E+01
      -11   -1    0    0    0    0  0.00000000000E+00  0.00000000000E+00  0.35740347158E-01  0.35744000000E-01  0.51099999109E-03 0.  1.
       11   -1    0    0    0    0 -0.00000000000E+00 -0.00000000000E+00 -0.35740347158E-01  0.35744000000E-01  0.51099999109E-03 0. -1.
       22    1    1    2    0    0 -0.81179561638E-03 -0.30835767875E-02 -0.35594467645E-01  0.35737005818E-01  0.00000000000E+00 0. -1.
  9000001    1    1    2    0    0  0.81179561638E-03  0.30835767875E-02  0.35594467645E-01  0.35750994182E-01  0.10000000475E-02 0.  1.
</event>
<event>
 4   0  0.5803570E-01  0.9118800E+02  0.7818609E-02  0.1379984E+01
      -11   -1    0    0    0    0  0.00000000000E+00  0.00000000000E+00  0.35740347158E-01  0.35744000000E-01  0.51099999109E-03 0. -1.
       11   -1    0    0    0    0 -0.00000000000E+00 -0.00000000000E+00 -0.35740347158E-01  0.35744000000E-01  0.51099999109E-03 0.  1.
       22    1    1    2    0    0 -0.27274500336E-01 -0.13673364748E-01 -0.18608447350E-01  0.35737005818E-01  0.00000000000E+00 0.  1.
  9000001    1    1    2    0    0  0.27274500336E-01  0.13673364748E-01  0.18608447350E-01  0.35750994182E-01  0.10000000475E-02 0. -1.
</event>
<event>
 4   0  0.5803570E-01  0.9118800E+02  0.7818609E-02  0.1379984E+01
      -11   -1    0    0    0    0  0.00000000000E+00  0.00000000000E+00  0.35740347158E-01  0.35744000000E-01  0.51099999109E-03 0. -1.
       11   -1    0    0    0    0 -0.00000000000E+00 -0.00000000000E+00 -0.35740347158E-01  0.35744000000E-01  0.51099999109E-03 0.  1.
       22    1    1    2    0    0 -0.78338630521E-02  0.20505517186E-02 -0.34807462019E-01  0.35737005818E-01  0.00000000000E+00 0.  1.
  9000001    1    1    2    0    0  0.78338630521E-02 -0.20505517186E-02  0.34807462019E-01  0.35750994182E-01  0.10000000475E-02 0. -1.
</event>
<event>
 4   0  0.5803570E-01  0.9118800E+02  0.7818609E-02  0.1379984E+01
      -11   -1    0    0    0    0  0.00000000000E+00  0.00000000000E+00  0.35740347158E-01  0.35744000000E-01  0.51099999109E-03 0. -1.
       11   -1    0    0    0    0 -0.00000000000E+00 -0.00000000000E+00 -0.35740347158E-01  0.35744000000E-01  0.51099999109E-03 0.  1.
       22    1    1    2    0    0  0.52731476003E-02  0.55424742486E-02  0.34908573137E-01  0.35737005818E-01  0.00000000000E+00 0. -1.
  9000001    1    1    2    0    0 -0.52731476003E-02 -0.55424742486E-02 -0.34908573137E-01  0.35750994182E-01  0.10000000475E-02 0.  1.
</event>
<event>
 4   0  0.5803570E-01  0.9118800E+02  0.7818609E-02  0.1379984E+01
      -11   -1    0    0    0    0  0.00000000000E+00  0.00000000000E+00  0.35740347158E-01  0.35744000000E-01  0.51099999109E-03 0. -1.
       11   -1    0    0    0    0 -0.00000000000E+00 -0.00000000000E+00 -0.35740347158E-01  0.35744000000E-01  0.51099999109E-03 0.  1.
       22    1    1    2    0    0 -0.79838054181E-02 -0.14705336139E-02  0.34802729301E-01  0.35737005818E-01  0.00000000000E+00 0. -1.
  9000001    1    1    2    0    0  0.79838054181E-02  0.14705336139E-02 -0.34802729301E-01  0.35750994182E-01  0.10000000475E-02 0.  1.
</event>
<event>
 4   0  0.5803570E-01  0.9118800E+02  0.7818609E-02  0.1379984E+01
      -11   -1    0    0    0    0  0.00000000000E+00  0.00000000000E+00  0.35740347158E-01  0.35744000000E-01  0.51099999109E-03 0.  1.
       11   -1    0    0    0    0 -0.00000000000E+00 -0.00000000000E+00 -0.35740347158E-01  0.35744000000E-01  0.51099999109E-03 0. -1.
       22    1    1    2    0    0  0.30844609238E-01 -0.83879014379E-02 -0.15980825239E-01  0.35737005818E-01  0.00000000000E+00 0. -1.
  9000001    1    1    2    0    0 -0.30844609238E-01  0.83879014379E-02  0.15980825239E-01  0.35750994182E-01  0.10000000475E-02 0.  1.
</event>
<event>
 4   0  0.5803570E-01  0.9118800E+02  0.7818609E-02  0.1379984E+01
      -11   -1    0    0    0    0  0.00000000000E+00  0.00000000000E+00  0.35740347158E-01  0.35744000000E-01  0.51099999109E-03 0.  1.
       11   -1    0    0    0    0 -0.00000000000E+00 -0.00000000000E+00 -0.35740347158E-01  0.35744000000E-01  0.51099999109E-03 0. -1.
       22    1    1    2    0    0  0.97462589530E-02 -0.24817878971E-03  0.34381425633E-01  0.35737005818E-01  0.00000000000E+00 0.  1.
  9000001    1    1    2    0    0 -0.97462589530E-02  0.24817878971E-03 -0.34381425633E-01  0.35750994182E-01  0.10000000475E-02 0. -1.
</event>
<event>
 4   0  0.5803570E-01  0.9118800E+02  0.7818609E-02  0.1379984E+01
      -11   -1    0    0    0    0  0.00000000000E+00  0.00000000000E+00  0.35740347158E-01  0.35744000000E-01  0.51099999109E-03 0.  1.
       11   -1    0    0    0    0 -0.00000000000E+00 -0.00000000000E+00 -0.35740347158E-01  0.35744000000E-01  0.51099999109E-03 0. -1.
       22    1    1    2    0    0 -0.45716389090E-03 -0.30225947476E-02  0.35606017849E-01  0.35737005818E-01  0.00000000000E+00 0.  1.
  9000001    1    1    2    0    0  0.45716389090E-03  0.30225947476E-02 -0.35606017849E-01  0.35750994182E-01  0.10000000475E-02 0. -1.
</event>
<event>
 4   0  0.6895536E-01  0.9118800E+02  0.7818609E-02  0.1379984E+01
      -11   -1    0    0    0    0  0.00000000000E+00  0.00000000000E+00  0.35740347158E-01  0.35744000000E-01  0.51099999109E-03 0. -1.
       11   -1    0    0    0    0 -0.00000000000E+00 -0.00000000000E+00 -0.35740347158E-01  0.35744000000E-01  0.51099999109E-03 0.  1.
       22    1    1    2    0    0  0.25110290421E-02 -0.17214649765E-02 -0.35607090254E-01  0.35737005818E-01  0.00000000000E+00 0.  1.
  9000001    1    1    2    0    0 -0.25110290421E-02  0.17214649765E-02  0.35607090254E-01  0.35750994182E-01  0.10000000475E-02 0. -1.
</event>
<event>
 4   0  0.5803570E-01  0.9118800E+02  0.7818609E-02  0.1379984E+01
      -11   -1    0    0    0    0  0.00000000000E+00  0.00000000000E+00  0.35740347158E-01  0.35744000000E-01  0.51099999109E-03 0.  1.
       11   -1    0    0    0    0 -0.00000000000E+00 -0.00000000000E+00 -0.35740347158E-01  0.35744000000E-01  0.51099999109E-03 0. -1.
       22    1    1    2    0    0 -0.16403478704E-01  0.23678043339E-02  0.31661537770E-01  0.35737005818E-01  0.00000000000E+00 0.  1.
  9000001    1    1    2    0    0  0.16403478704E-01 -0.23678043339E-02 -0.31661537770E-01  0.35750994182E-01  0.10000000475E-02 0. -1.
</event>
<event>
 4   0  0.6516023E-01  0.9118800E+02  0.7818609E-02  0.1379984E+01
      -11   -1    0    0    0    0  0.00000000000E+00  0.00000000000E+00  0.35740347158E-01  0.35744000000E-01  0.51099999109E-03 0. -1.
       11   -1    0    0    0    0 -0.00000000000E+00 -0.00000000000E+00 -0.35740347158E-01  0.35744000000E-01  0.51099999109E-03 0.  1.
       22    1    1    2    0    0 -0.26185486859E-03 -0.33743733636E-02 -0.35576377293E-01  0.35737005818E-01  0.00000000000E+00 0.  1.
  9000001    1    1    2    0    0  0.26185486859E-03  0.33743733636E-02  0.35576377293E-01  0.35750994182E-01  0.10000000475E-02 0. -1.
</event>
<event>
 4   0  0.5803570E-01  0.9118800E+02  0.7818609E-02  0.1379984E+01
      -11   -1    0    0    0    0  0.00000000000E+00  0.00000000000E+00  0.35740347158E-01  0.35744000000E-01  0.51099999109E-03 0.  1.
       11   -1    0    0    0    0 -0.00000000000E+00 -0.00000000000E+00 -0.35740347158E-01  0.35744000000E-01  0.51099999109E-03 0. -1.
       22    1    1    2    0    0  0.15080320076E-01 -0.32473560956E-02 -0.32236194094E-01  0.35737005818E-01  0.00000000000E+00 0. -1.
  9000001    1    1    2    0    0 -0.15080320076E-01  0.32473560956E-02  0.32236194094E-01  0.35750994182E-01  0.10000000475E-02 0.  1.
</event>
<event>
 4   0  0.5803570E-01  0.9118800E+02  0.7818609E-02  0.1379984E+01
      -11   -1    0    0    0    0  0.00000000000E+00  0.00000000000E+00  0.35740347158E-01  0.35744000000E-01  0.51099999109E-03 0. -1.
       11   -1    0    0    0    0 -0.00000000000E+00 -0.00000000000E+00 -0.35740347158E-01  0.35744000000E-01  0.51099999109E-03 0.  1.
       22    1    1    2    0    0  0.98721776859E-02 -0.10726437655E-02 -0.34329624641E-01  0.35737005818E-01  0.00000000000E+00 0.  1.
  9000001    1    1    2    0    0 -0.98721776859E-02  0.10726437655E-02  0.34329624641E-01  0.35750994182E-01  0.10000000475E-02 0. -1.
</event>
<event>
 4   0  0.5803570E-01  0.9118800E+02  0.7818609E-02  0.1379984E+01
      -11   -1    0    0    0    0  0.00000000000E+00  0.00000000000E+00  0.35740347158E-01  0.35744000000E-01  0.51099999109E-03 0. -1.
       11   -1    0    0    0    0 -0.00000000000E+00 -0.00000000000E+00 -0.35740347158E-01  0.35744000000E-01  0.51099999109E-03 0.  1.
       22    1    1    2    0    0  0.24151813942E-01 -0.11156567807E-01 -0.23861149657E-01  0.35737005818E-01  0.00000000000E+00 0.  1.
  9000001    1    1    2    0    0 -0.24151813942E-01  0.11156567807E-01  0.23861149657E-01  0.35750994182E-01  0.10000000475E-02 0. -1.
</event>
<event>
 4   0  0.5803570E-01  0.9118800E+02  0.7818609E-02  0.1379984E+01
      -11   -1    0    0    0    0  0.00000000000E+00  0.00000000000E+00  0.35740347158E-01  0.35744000000E-01  0.51099999109E-03 0.  1.
       11   -1    0    0    0    0 -0.00000000000E+00 -0.00000000000E+00 -0.35740347158E-01  0.35744000000E-01  0.51099999109E-03 0. -1.
       22    1    1    2    0    0 -0.76542706748E-02 -0.76083533930E-02 -0.34068441173E-01  0.35737005818E-01  0.00000000000E+00 0. -1.
  9000001    1    1    2    0    0  0.76542706748E-02  0.76083533930E-02  0.34068441173E-01  0.35750994182E-01  0.10000000475E-02 0.  1.
</event>
<event>
 4   0  0.5803570E-01  0.9118800E+02  0.7818609E-02  0.1379984E+01
      -11   -1    0    0    0    0  0.00000000000E+00  0.00000000000E+00  0.35740347158E-01  0.35744000000E-01  0.51099999109E-03 0. -1.
       11   -1    0    0    0    0 -0.00000000000E+00 -0.00000000000E+00 -0.35740347158E-01  0.35744000000E-01  0.51099999109E-03 0.  1.
       22    1    1    2    0    0 -0.13961821676E-01  0.32643907329E-01  0.40714167908E-02  0.35737005818E-01  0.00000000000E+00 0.  1.
  9000001    1    1    2    0    0  0.13961821676E-01 -0.32643907329E-01 -0.40714167908E-02  0.35750994182E-01  0.10000000475E-02 0. -1.
</event>
<event>
 4   0  0.5803570E-01  0.9118800E+02  0.7818609E-02  0.1379984E+01
      -11   -1    0    0    0    0  0.00000000000E+00  0.00000000000E+00  0.35740347158E-01  0.35744000000E-01  0.51099999109E-03 0.  1.
       11   -1    0    0    0    0 -0.00000000000E+00 -0.00000000000E+00 -0.35740347158E-01  0.35744000000E-01  0.51099999109E-03 0. -1.
       22    1    1    2    0    0 -0.49748557822E-03 -0.44354332760E-02  0.35457199898E-01  0.35737005818E-01  0.00000000000E+00 0.  1.
  9000001    1    1    2    0    0  0.49748557822E-03  0.44354332760E-02 -0.35457199898E-01  0.35750994182E-01  0.10000000475E-02 0. -1.
</event>
<event>
 4   0  0.5803570E-01  0.9118800E+02  0.7818609E-02  0.1379984E+01
      -11   -1    0    0    0    0  0.00000000000E+00  0.00000000000E+00  0.35740347158E-01  0.35744000000E-01  0.51099999109E-03 0.  1.
       11   -1    0    0    0    0 -0.00000000000E+00 -0.00000000000E+00 -0.35740347158E-01  0.35744000000E-01  0.51099999109E-03 0. -1.
       22    1    1    2    0    0 -0.10592533496E-02  0.28220245767E-02  0.35609658023E-01  0.35737005818E-01  0.00000000000E+00 0.  1.
  9000001    1    1    2    0    0  0.10592533496E-02 -0.28220245767E-02 -0.35609658023E-01  0.35750994182E-01  0.10000000475E-02 0. -1.
</event>
<event>
 4   0  0.5803570E-01  0.9118800E+02  0.7818609E-02  0.1379984E+01
      -11   -1    0    0    0    0  0.00000000000E+00  0.00000000000E+00  0.35740347158E-01  0.35744000000E-01  0.51099999109E-03 0. -1.
       11   -1    0    0    0    0 -0.00000000000E+00 -0.00000000000E+00 -0.35740347158E-01  0.35744000000E-01  0.51099999109E-03 0.  1.
       22    1    1    2    0    0  0.15806473708E-01 -0.25148643857E-01  0.19870447552E-01  0.35737005818E-01  0.00000000000E+00 0. -1.
  9000001    1    1    2    0    0 -0.15806473708E-01  0.25148643857E-01 -0.19870447552E-01  0.35750994182E-01  0.10000000475E-02 0.  1.
</event>
<event>
 4   0  0.5803570E-01  0.9118800E+02  0.7818609E-02  0.1379984E+01
      -11   -1    0    0    0    0  0.00000000000E+00  0.00000000000E+00  0.35740347158E-01  0.35744000000E-01  0.51099999109E-03 0. -1.
       11   -1    0    0    0    0 -0.00000000000E+00 -0.00000000000E+00 -0.35740347158E-01  0.35744000000E-01  0.51099999109E-03 0.  1.
       22    1    1    2    0    0 -0.22316724817E-02 -0.33550812995E-02  0.35509106611E-01  0.35737005818E-01  0.00000000000E+00 0. -1.
  9000001    1    1    2    0    0  0.22316724817E-02  0.33550812995E-02 -0.35509106611E-01  0.35750994182E-01  0.10000000475E-02 0.  1.
</event>
<event>
 4   0  0.5803570E-01  0.9118800E+02  0.7818609E-02  0.1379984E+01
      -11   -1    0    0    0    0  0.00000000000E+00  0.00000000000E+00  0.35740347158E-01  0.35744000000E-01  0.51099999109E-03 0.  1.
       11   -1    0    0    0    0 -0.00000000000E+00 -0.00000000000E+00 -0.35740347158E-01  0.35744000000E-01  0.51099999109E-03 0. -1.
       22    1    1    2    0    0 -0.43801673127E-02 -0.61116852530E-02  0.34937015078E-01  0.35737005818E-01  0.00000000000E+00 0.  1.
  9000001    1    1    2    0    0  0.43801673127E-02  0.61116852530E-02 -0.34937015078E-01  0.35750994182E-01  0.10000000475E-02 0. -1.
</event>
<event>
 4   0  0.5803570E-01  0.9118800E+02  0.7818609E-02  0.1379984E+01
      -11   -1    0    0    0    0  0.00000000000E+00  0.00000000000E+00  0.35740347158E-01  0.35744000000E-01  0.51099999109E-03 0.  1.
       11   -1    0    0    0    0 -0.00000000000E+00 -0.00000000000E+00 -0.35740347158E-01  0.35744000000E-01  0.51099999109E-03 0. -1.
       22    1    1    2    0    0  0.18676858895E-01 -0.26575681478E-01 -0.14901063072E-01  0.35737005818E-01  0.00000000000E+00 0. -1.
  9000001    1    1    2    0    0 -0.18676858895E-01  0.26575681478E-01  0.14901063072E-01  0.35750994182E-01  0.10000000475E-02 0.  1.
</event>
<event>
 4   0  0.5803570E-01  0.9118800E+02  0.7818609E-02  0.1379984E+01
      -11   -1    0    0    0    0  0.00000000000E+00  0.00000000000E+00  0.35740347158E-01  0.35744000000E-01  0.51099999109E-03 0. -1.
       11   -1    0    0    0    0 -0.00000000000E+00 -0.00000000000E+00 -0.35740347158E-01  0.35744000000E-01  0.51099999109E-03 0.  1.
       22    1    1    2    0    0  0.97087448252E-02 -0.12693242642E-01  0.31964909667E-01  0.35737005818E-01  0.00000000000E+00 0. -1.
  9000001    1    1    2    0    0 -0.97087448252E-02  0.12693242642E-01 -0.31964909667E-01  0.35750994182E-01  0.10000000475E-02 0.  1.
</event>
<event>
 4   0  0.5803570E-01  0.9118800E+02  0.7818609E-02  0.1379984E+01
      -11   -1    0    0    0    0  0.00000000000E+00  0.00000000000E+00  0.35740347158E-01  0.35744000000E-01  0.51099999109E-03 0.  1.
       11   -1    0    0    0    0 -0.00000000000E+00 -0.00000000000E+00 -0.35740347158E-01  0.35744000000E-01  0.51099999109E-03 0. -1.
       22    1    1    2    0    0 -0.15220842191E-01 -0.14641316621E-01  0.28828655804E-01  0.35737005818E-01  0.00000000000E+00 0.  1.
  9000001    1    1    2    0    0  0.15220842191E-01  0.14641316621E-01 -0.28828655804E-01  0.35750994182E-01  0.10000000475E-02 0. -1.
</event>
<event>
 4   0  0.5803570E-01  0.9118800E+02  0.7818609E-02  0.1379984E+01
      -11   -1    0    0    0    0  0.00000000000E+00  0.00000000000E+00  0.35740347158E-01  0.35744000000E-01  0.51099999109E-03 0. -1.
       11   -1    0    0    0    0 -0.00000000000E+00 -0.00000000000E+00 -0.35740347158E-01  0.35744000000E-01  0.51099999109E-03 0.  1.
       22    1    1    2    0    0 -0.15574748024E-02  0.38062865806E-02 -0.35499578020E-01  0.35737005818E-01  0.00000000000E+00 0.  1.
  9000001    1    1    2    0    0  0.15574748024E-02 -0.38062865806E-02  0.35499578020E-01  0.35750994182E-01  0.10000000475E-02 0. -1.
</event>
<event>
 4   0  0.5803570E-01  0.9118800E+02  0.7818609E-02  0.1379984E+01
      -11   -1    0    0    0    0  0.00000000000E+00  0.00000000000E+00  0.35740347158E-01  0.35744000000E-01  0.51099999109E-03 0. -1.
       11   -1    0    0    0    0 -0.00000000000E+00 -0.00000000000E+00 -0.35740347158E-01  0.35744000000E-01  0.51099999109E-03 0.  1.
       22    1    1    2    0    0  0.15031935626E-02 -0.40092896555E-02 -0.35479565815E-01  0.35737005818E-01  0.00000000000E+00 0.  1.
  9000001    1    1    2    0    0 -0.15031935626E-02  0.40092896555E-02  0.35479565815E-01  0.35750994182E-01  0.10000000475E-02 0. -1.
</event>
<event>
 4   0  0.5803570E-01  0.9118800E+02  0.7818609E-02  0.1379984E+01
      -11   -1    0    0    0    0  0.00000000000E+00  0.00000000000E+00  0.35740347158E-01  0.35744000000E-01  0.51099999109E-03 0. -1.
       11   -1    0    0    0    0 -0.00000000000E+00 -0.00000000000E+00 -0.35740347158E-01  0.35744000000E-01  0.51099999109E-03 0.  1.
       22    1    1    2    0    0 -0.67585109696E-02  0.75357001459E-03  0.35084016968E-01  0.35737005818E-01  0.00000000000E+00 0. -1.
  9000001    1    1    2    0    0  0.67585109696E-02 -0.75357001459E-03 -0.35084016968E-01  0.35750994182E-01  0.10000000475E-02 0.  1.
</event>
<event>
 4   0  0.5803570E-01  0.9118800E+02  0.7818609E-02  0.1379984E+01
      -11   -1    0    0    0    0  0.00000000000E+00  0.00000000000E+00  0.35740347158E-01  0.35744000000E-01  0.51099999109E-03 0. -1.
       11   -1    0    0    0    0 -0.00000000000E+00 -0.00000000000E+00 -0.35740347158E-01  0.35744000000E-01  0.51099999109E-03 0.  1.
       22    1    1    2    0    0  0.49035642243E-02  0.11296888601E-01  0.33548009638E-01  0.35737005818E-01  0.00000000000E+00 0. -1.
  9000001    1    1    2    0    0 -0.49035642243E-02 -0.11296888601E-01 -0.33548009638E-01  0.35750994182E-01  0.10000000475E-02 0.  1.
</event>
<event>
 4   0  0.5803570E-01  0.9118800E+02  0.7818609E-02  0.1379984E+01
      -11   -1    0    0    0    0  0.00000000000E+00  0.00000000000E+00  0.35740347158E-01  0.35744000000E-01  0.51099999109E-03 0. -1.
       11   -1    0    0    0    0 -0.00000000000E+00 -0.00000000000E+00 -0.35740347158E-01  0.35744000000E-01  0.51099999109E-03 0.  1.
       22    1    1    2    0    0 -0.14312923740E-01 -0.12998794619E-01  0.30055035141E-01  0.35737005818E-01  0.00000000000E+00 0. -1.
  9000001    1    1    2    0    0  0.14312923740E-01  0.12998794619E-01 -0.30055035141E-01  0.35750994182E-01  0.10000000475E-02 0.  1.
</event>
<event>
 4   0  0.5803570E-01  0.9118800E+02  0.7818609E-02  0.1379984E+01
      -11   -1    0    0    0    0  0.00000000000E+00  0.00000000000E+00  0.35740347158E-01  0.35744000000E-01  0.51099999109E-03 0.  1.
       11   -1    0    0    0    0 -0.00000000000E+00 -0.00000000000E+00 -0.35740347158E-01  0.35744000000E-01  0.51099999109E-03 0. -1.
       22    1    1    2    0    0  0.28274758348E-02  0.11022861915E-02  0.35607919490E-01  0.35737005818E-01  0.00000000000E+00 0.  1.
  9000001    1    1    2    0    0 -0.28274758348E-02 -0.11022861915E-02 -0.35607919490E-01  0.35750994182E-01  0.10000000475E-02 0. -1.
</event>
<event>
 4   0  0.5803570E-01  0.9118800E+02  0.7818609E-02  0.1379984E+01
      -11   -1    0    0    0    0  0.00000000000E+00  0.00000000000E+00  0.35740347158E-01  0.35744000000E-01  0.51099999109E-03 0. -1.
       11   -1    0    0    0    0 -0.00000000000E+00 -0.00000000000E+00 -0.35740347158E-01  0.35744000000E-01  0.51099999109E-03 0.  1.
       22    1    1    2    0    0 -0.18570043538E-01 -0.31328838599E-02  0.30372225908E-01  0.35737005818E-01  0.00000000000E+00 0. -1.
  9000001    1    1    2    0    0  0.18570043538E-01  0.31328838599E-02 -0.30372225908E-01  0.35750994182E-01  0.10000000475E-02 0.  1.
</event>
<event>
 4   0  0.5803570E-01  0.9118800E+02  0.7818609E-02  0.1379984E+01
      -11   -1    0    0    0    0  0.00000000000E+00  0.00000000000E+00  0.35740347158E-01  0.35744000000E-01  0.51099999109E-03 0.  1.
       11   -1    0    0    0    0 -0.00000000000E+00 -0.00000000000E+00 -0.35740347158E-01  0.35744000000E-01  0.51099999109E-03 0. -1.
       22    1    1    2    0    0  0.16436290482E-01  0.51503300331E-02  0.31312234680E-01  0.35737005818E-01  0.00000000000E+00 0.  1.
  9000001    1    1    2    0    0 -0.16436290482E-01 -0.51503300331E-02 -0.31312234680E-01  0.35750994182E-01  0.10000000475E-02 0. -1.
</event>
<event>
 4   0  0.5803570E-01  0.9118800E+02  0.7818609E-02  0.1379984E+01
      -11   -1    0    0    0    0  0.00000000000E+00  0.00000000000E+00  0.35740347158E-01  0.35744000000E-01  0.51099999109E-03 0.  1.
       11   -1    0    0    0    0 -0.00000000000E+00 -0.00000000000E+00 -0.35740347158E-01  0.35744000000E-01  0.51099999109E-03 0. -1.
       22    1    1    2    0    0  0.49393431872E-02 -0.74080538779E-02  0.34610073844E-01  0.35737005818E-01  0.00000000000E+00 0.  1.
  9000001    1    1    2    0    0 -0.49393431872E-02  0.74080538779E-02 -0.34610073844E-01  0.35750994182E-01  0.10000000475E-02 0. -1.
</event>
<event>
 4   0  0.5803570E-01  0.9118800E+02  0.7818609E-02  0.1379984E+01
      -11   -1    0    0    0    0  0.00000000000E+00  0.00000000000E+00  0.35740347158E-01  0.35744000000E-01  0.51099999109E-03 0.  1.
       11   -1    0    0    0    0 -0.00000000000E+00 -0.00000000000E+00 -0.35740347158E-01  0.35744000000E-01  0.51099999109E-03 0. -1.
       22    1    1    2    0    0 -0.17696904185E-02 -0.47782498523E-02  0.35371883029E-01  0.35737005818E-01  0.00000000000E+00 0.  1.
  9000001    1    1    2    0    0  0.17696904185E-02  0.47782498523E-02 -0.35371883029E-01  0.35750994182E-01  0.10000000475E-02 0. -1.
</event>
<event>
 4   0  0.5803570E-01  0.9118800E+02  0.7818609E-02  0.1379984E+01
      -11   -1    0    0    0    0  0.00000000000E+00  0.00000000000E+00  0.35740347158E-01  0.35744000000E-01  0.51099999109E-03 0.  1.
       11   -1    0    0    0    0 -0.00000000000E+00 -0.00000000000E+00 -0.35740347158E-01  0.35744000000E-01  0.51099999109E-03 0. -1.
       22    1    1    2    0    0 -0.37371557367E-02  0.10617744684E-01  0.33918000379E-01  0.35737005818E-01  0.00000000000E+00 0.  1.
  9000001    1    1    2    0    0  0.37371557367E-02 -0.10617744684E-01 -0.33918000379E-01  0.35750994182E-01  0.10000000475E-02 0. -1.
</event>
<event>
 4   0  0.5803570E-01  0.9118800E+02  0.7818609E-02  0.1379984E+01
      -11   -1    0    0    0    0  0.00000000000E+00  0.00000000000E+00  0.35740347158E-01  0.35744000000E-01  0.51099999109E-03 0.  1.
       11   -1    0    0    0    0 -0.00000000000E+00 -0.00000000000E+00 -0.35740347158E-01  0.35744000000E-01  0.51099999109E-03 0. -1.
       22    1    1    2    0    0 -0.33320339104E-02  0.58821819900E-03  0.35576468828E-01  0.35737005818E-01  0.00000000000E+00 0.  1.
  9000001    1    1    2    0    0  0.33320339104E-02 -0.58821819900E-03 -0.35576468828E-01  0.35750994182E-01  0.10000000475E-02 0. -1.
</event>
<event>
 4   0  0.5803570E-01  0.9118800E+02  0.7818609E-02  0.1379984E+01
      -11   -1    0    0    0    0  0.00000000000E+00  0.00000000000E+00  0.35740347158E-01  0.35744000000E-01  0.51099999109E-03 0. -1.
       11   -1    0    0    0    0 -0.00000000000E+00 -0.00000000000E+00 -0.35740347158E-01  0.35744000000E-01  0.51099999109E-03 0.  1.
       22    1    1    2    0    0 -0.87883050416E-03 -0.34012078246E-02  0.35563928736E-01  0.35737005818E-01  0.00000000000E+00 0. -1.
  9000001    1    1    2    0    0  0.87883050416E-03  0.34012078246E-02 -0.35563928736E-01  0.35750994182E-01  0.10000000475E-02 0.  1.
</event>
<event>
 4   0  0.5803570E-01  0.9118800E+02  0.7818609E-02  0.1379984E+01
      -11   -1    0    0    0    0  0.00000000000E+00  0.00000000000E+00  0.35740347158E-01  0.35744000000E-01  0.51099999109E-03 0. -1.
       11   -1    0    0    0    0 -0.00000000000E+00 -0.00000000000E+00 -0.35740347158E-01  0.35744000000E-01  0.51099999109E-03 0.  1.
       22    1    1    2    0    0 -0.11181794030E-01  0.62314712250E-02  0.33365698457E-01  0.35737005818E-01  0.00000000000E+00 0. -1.
  9000001    1    1    2    0    0  0.11181794030E-01 -0.62314712250E-02 -0.33365698457E-01  0.35750994182E-01  0.10000000475E-02 0.  1.
</event>
<event>
 4   0  0.5803570E-01  0.9118800E+02  0.7818609E-02  0.1379984E+01
      -11   -1    0    0    0    0  0.00000000000E+00  0.00000000000E+00  0.35740347158E-01  0.35744000000E-01  0.51099999109E-03 0. -1.
       11   -1    0    0    0    0 -0.00000000000E+00 -0.00000000000E+00 -0.35740347158E-01  0.35744000000E-01  0.51099999109E-03 0.  1.
       22    1    1    2    0    0  0.31996751121E-01 -0.15896074006E-01  0.81014428884E-03  0.35737005818E-01  0.00000000000E+00 0. -1.
  9000001    1    1    2    0    0 -0.31996751121E-01  0.15896074006E-01 -0.81014428884E-03  0.35750994182E-01  0.10000000475E-02 0.  1.
</event>
<event>
 4   0  0.5803570E-01  0.9118800E+02  0.7818609E-02  0.1379984E+01
      -11   -1    0    0    0    0  0.00000000000E+00  0.00000000000E+00  0.35740347158E-01  0.35744000000E-01  0.51099999109E-03 0. -1.
       11   -1    0    0    0    0 -0.00000000000E+00 -0.00000000000E+00 -0.35740347158E-01  0.35744000000E-01  0.51099999109E-03 0.  1.
       22    1    1    2    0    0  0.99199384235E-03  0.14977743796E-01  0.32431724035E-01  0.35737005818E-01  0.00000000000E+00 0. -1.
  9000001    1    1    2    0    0 -0.99199384235E-03 -0.14977743796E-01 -0.32431724035E-01  0.35750994182E-01  0.10000000475E-02 0.  1.
</event>
<event>
 4   0  0.5803570E-01  0.9118800E+02  0.7818609E-02  0.1379984E+01
      -11   -1    0    0    0    0  0.00000000000E+00  0.00000000000E+00  0.35740347158E-01  0.35744000000E-01  0.51099999109E-03 0. -1.
       11   -1    0    0    0    0 -0.00000000000E+00 -0.00000000000E+00 -0.35740347158E-01  0.35744000000E-01  0.51099999109E-03 0.  1.
       22    1    1    2    0    0 -0.34656200177E-02 -0.32831422482E-02 -0.35416719777E-01  0.35737005818E-01  0.00000000000E+00 0.  1.
  9000001    1    1    2    0    0  0.34656200177E-02  0.32831422482E-02  0.35416719777E-01  0.35750994182E-01  0.10000000475E-02 0. -1.
</event>
<event>
 4   0  0.5803570E-01  0.9118800E+02  0.7818609E-02  0.1379984E+01
      -11   -1    0    0    0    0  0.00000000000E+00  0.00000000000E+00  0.35740347158E-01  0.35744000000E-01  0.51099999109E-03 0.  1.
       11   -1    0    0    0    0 -0.00000000000E+00 -0.00000000000E+00 -0.35740347158E-01  0.35744000000E-01  0.51099999109E-03 0. -1.
       22    1    1    2    0    0 -0.18664296866E-02  0.32133750646E-02  0.35543272863E-01  0.35737005818E-01  0.00000000000E+00 0.  1.
  9000001    1    1    2    0    0  0.18664296866E-02 -0.32133750646E-02 -0.35543272863E-01  0.35750994182E-01  0.10000000475E-02 0. -1.
</event>
<event>
 4   0  0.6789417E-01  0.9118800E+02  0.7818609E-02  0.1379984E+01
      -11   -1    0    0    0    0  0.00000000000E+00  0.00000000000E+00  0.35740347158E-01  0.35744000000E-01  0.51099999109E-03 0. -1.
       11   -1    0    0    0    0 -0.00000000000E+00 -0.00000000000E+00 -0.35740347158E-01  0.35744000000E-01  0.51099999109E-03 0. -1.
       22    1    1    2    0    0  0.27806573575E-02 -0.14013257233E-02 -0.35601092901E-01  0.35737005818E-01  0.00000000000E+00 0. -1.
  9000001    1    1    2    0    0 -0.27806573575E-02  0.14013257233E-02  0.35601092901E-01  0.35750994182E-01  0.10000000475E-02 0. -1.
</event>
<event>
 4   0  0.5803570E-01  0.9118800E+02  0.7818609E-02  0.1379984E+01
      -11   -1    0    0    0    0  0.00000000000E+00  0.00000000000E+00  0.35740347158E-01  0.35744000000E-01  0.51099999109E-03 0.  1.
       11   -1    0    0    0    0 -0.00000000000E+00 -0.00000000000E+00 -0.35740347158E-01  0.35744000000E-01  0.51099999109E-03 0. -1.
       22    1    1    2    0    0  0.15081860535E-01  0.28310934049E-01 -0.15753160983E-01  0.35737005818E-01  0.00000000000E+00 0. -1.
  9000001    1    1    2    0    0 -0.15081860535E-01 -0.28310934049E-01  0.15753160983E-01  0.35750994182E-01  0.10000000475E-02 0.  1.
</event>
<event>
 4   0  0.5803570E-01  0.9118800E+02  0.7818609E-02  0.1379984E+01
      -11   -1    0    0    0    0  0.00000000000E+00  0.00000000000E+00  0.35740347158E-01  0.35744000000E-01  0.51099999109E-03 0. -1.
       11   -1    0    0    0    0 -0.00000000000E+00 -0.00000000000E+00 -0.35740347158E-01  0.35744000000E-01  0.51099999109E-03 0.  1.
       22    1    1    2    0    0 -0.11655636899E-01  0.53018375488E-02 -0.33364205849E-01  0.35737005818E-01  0.00000000000E+00 0.  1.
  9000001    1    1    2    0    0  0.11655636899E-01 -0.53018375488E-02  0.33364205849E-01  0.35750994182E-01  0.10000000475E-02 0. -1.
</event>
<event>
 4   0  0.5803570E-01  0.9118800E+02  0.7818609E-02  0.1379984E+01
      -11   -1    0    0    0    0  0.00000000000E+00  0.00000000000E+00  0.35740347158E-01  0.35744000000E-01  0.51099999109E-03 0.  1.
       11   -1    0    0    0    0 -0.00000000000E+00 -0.00000000000E+00 -0.35740347158E-01  0.35744000000E-01  0.51099999109E-03 0. -1.
       22    1    1    2    0    0 -0.11026689710E-02  0.44488244146E-02  0.35441863204E-01  0.35737005818E-01  0.00000000000E+00 0.  1.
  9000001    1    1    2    0    0  0.11026689710E-02 -0.44488244146E-02 -0.35441863204E-01  0.35750994182E-01  0.10000000475E-02 0. -1.
</event>
<event>
 4   0  0.5803570E-01  0.9118800E+02  0.7818609E-02  0.1379984E+01
      -11   -1    0    0    0    0  0.00000000000E+00  0.00000000000E+00  0.35740347158E-01  0.35744000000E-01  0.51099999109E-03 0.  1.
       11   -1    0    0    0    0 -0.00000000000E+00 -0.00000000000E+00 -0.35740347158E-01  0.35744000000E-01  0.51099999109E-03 0. -1.
       22    1    1    2    0    0  0.85861376333E-02  0.65059400985E-02  0.34074691031E-01  0.35737005818E-01  0.00000000000E+00 0.  1.
  9000001    1    1    2    0    0 -0.85861376333E-02 -0.65059400985E-02 -0.34074691031E-01  0.35750994182E-01  0.10000000475E-02 0. -1.
</event>
<event>
 4   0  0.5803570E-01  0.9118800E+02  0.7818609E-02  0.1379984E+01
      -11   -1    0    0    0    0  0.00000000000E+00  0.00000000000E+00  0.35740347158E-01  0.35744000000E-01  0.51099999109E-03 0.  1.
       11   -1    0    0    0    0 -0.00000000000E+00 -0.00000000000E+00 -0.35740347158E-01  0.35744000000E-01  0.51099999109E-03 0. -1.
       22    1    1    2    0    0 -0.31075408081E-02  0.21405512092E-01 -0.28447861555E-01  0.35737005818E-01  0.00000000000E+00 0. -1.
  9000001    1    1    2    0    0  0.31075408081E-02 -0.21405512092E-01  0.28447861555E-01  0.35750994182E-01  0.10000000475E-02 0.  1.
</event>
<event>
 4   0  0.5803570E-01  0.9118800E+02  0.7818609E-02  0.1379984E+01
      -11   -1    0    0    0    0  0.00000000000E+00  0.00000000000E+00  0.35740347158E-01  0.35744000000E-01  0.51099999109E-03 0. -1.
       11   -1    0    0    0    0 -0.00000000000E+00 -0.00000000000E+00 -0.35740347158E-01  0.35744000000E-01  0.51099999109E-03 0.  1.
       22    1    1    2    0    0 -0.32340835143E-02  0.21358814688E-02 -0.35526219881E-01  0.35737005818E-01  0.00000000000E+00 0.  1.
  9000001    1    1    2    0    0  0.32340835143E-02 -0.21358814688E-02  0.35526219881E-01  0.35750994182E-01  0.10000000475E-02 0. -1.
</event>
<event>
 4   0  0.5803570E-01  0.9118800E+02  0.7818609E-02  0.1379984E+01
      -11   -1    0    0    0    0  0.00000000000E+00  0.00000000000E+00  0.35740347158E-01  0.35744000000E-01  0.51099999109E-03 0. -1.
       11   -1    0    0    0    0 -0.00000000000E+00 -0.00000000000E+00 -0.35740347158E-01  0.35744000000E-01  0.51099999109E-03 0.  1.
       22    1    1    2    0    0  0.29740410325E-01  0.97690334577E-02  0.17239708926E-01  0.35737005818E-01  0.00000000000E+00 0. -1.
  9000001    1    1    2    0    0 -0.29740410325E-01 -0.97690334577E-02 -0.17239708926E-01  0.35750994182E-01  0.10000000475E-02 0.  1.
</event>
<event>
 4   0  0.5803570E-01  0.9118800E+02  0.7818609E-02  0.1379984E+01
      -11   -1    0    0    0    0  0.00000000000E+00  0.00000000000E+00  0.35740347158E-01  0.35744000000E-01  0.51099999109E-03 0.  1.
       11   -1    0    0    0    0 -0.00000000000E+00 -0.00000000000E+00 -0.35740347158E-01  0.35744000000E-01  0.51099999109E-03 0. -1.
       22    1    1    2    0    0 -0.77837561373E-02  0.11446285664E-02  0.34860243125E-01  0.35737005818E-01  0.00000000000E+00 0.  1.
  9000001    1    1    2    0    0  0.77837561373E-02 -0.11446285664E-02 -0.34860243125E-01  0.35750994182E-01  0.10000000475E-02 0. -1.
</event>
<event>
 4   0  0.6349187E-01  0.9118800E+02  0.7818609E-02  0.1379984E+01
      -11   -1    0    0    0    0  0.00000000000E+00  0.00000000000E+00  0.35740347158E-01  0.35744000000E-01  0.51099999109E-03 0.  1.
       11   -1    0    0    0    0 -0.00000000000E+00 -0.00000000000E+00 -0.35740347158E-01  0.35744000000E-01  0.51099999109E-03 0. -1.
       22    1    1    2    0    0  0.26933820370E-02  0.16039182737E-02 -0.35599251737E-01  0.35737005818E-01  0.00000000000E+00 0. -1.
  9000001    1    1    2    0    0 -0.26933820370E-02 -0.16039182737E-02  0.35599251737E-01  0.35750994182E-01  0.10000000475E-02 0.  1.
</event>
<event>
 4   0  0.5803570E-01  0.9118800E+02  0.7818609E-02  0.1379984E+01
      -11   -1    0    0    0    0  0.00000000000E+00  0.00000000000E+00  0.35740347158E-01  0.35744000000E-01  0.51099999109E-03 0.  1.
       11   -1    0    0    0    0 -0.00000000000E+00 -0.00000000000E+00 -0.35740347158E-01  0.35744000000E-01  0.51099999109E-03 0. -1.
       22    1    1    2    0    0 -0.55149780882E-02 -0.79840610203E-02  0.34394379936E-01  0.35737005818E-01  0.00000000000E+00 0.  1.
  9000001    1    1    2    0    0  0.55149780882E-02  0.79840610203E-02 -0.34394379936E-01  0.35750994182E-01  0.10000000475E-02 0. -1.
</event>
<event>
 4   0  0.5803570E-01  0.9118800E+02  0.7818609E-02  0.1379984E+01
      -11   -1    0    0    0    0  0.00000000000E+00  0.00000000000E+00  0.35740347158E-01  0.35744000000E-01  0.51099999109E-03 0.  1.
       11   -1    0    0    0    0 -0.00000000000E+00 -0.00000000000E+00 -0.35740347158E-01  0.35744000000E-01  0.51099999109E-03 0. -1.
       22    1    1    2    0    0  0.12278013677E-01  0.86046065413E-02  0.32439862997E-01  0.35737005818E-01  0.00000000000E+00 0.  1.
  9000001    1    1    2    0    0 -0.12278013677E-01 -0.86046065413E-02 -0.32439862997E-01  0.35750994182E-01  0.10000000475E-02 0. -1.
</event>
<event>
 4   0  0.5803570E-01  0.9118800E+02  0.7818609E-02  0.1379984E+01
      -11   -1    0    0    0    0  0.00000000000E+00  0.00000000000E+00  0.35740347158E-01  0.35744000000E-01  0.51099999109E-03 0.  1.
       11   -1    0    0    0    0 -0.00000000000E+00 -0.00000000000E+00 -0.35740347158E-01  0.35744000000E-01  0.51099999109E-03 0. -1.
       22    1    1    2    0    0 -0.13448344202E-01  0.23776953995E-01 -0.23041963497E-01  0.35737005818E-01  0.00000000000E+00 0. -1.
  9000001    1    1    2    0    0  0.13448344202E-01 -0.23776953995E-01  0.23041963497E-01  0.35750994182E-01  0.10000000475E-02 0.  1.
</event>
<event>
 4   0  0.5803570E-01  0.9118800E+02  0.7818609E-02  0.1379984E+01
      -11   -1    0    0    0    0  0.00000000000E+00  0.00000000000E+00  0.35740347158E-01  0.35744000000E-01  0.51099999109E-03 0. -1.
       11   -1    0    0    0    0 -0.00000000000E+00 -0.00000000000E+00 -0.35740347158E-01  0.35744000000E-01  0.51099999109E-03 0.  1.
       22    1    1    2    0    0 -0.34578687533E-01 -0.38336830967E-02  0.81701179484E-02  0.35737005818E-01  0.00000000000E+00 0.  1.
  9000001    1    1    2    0    0  0.34578687533E-01  0.38336830967E-02 -0.81701179484E-02  0.35750994182E-01  0.10000000475E-02 0. -1.
</event>
<event>
 4   0  0.5803570E-01  0.9118800E+02  0.7818609E-02  0.1379984E+01
      -11   -1    0    0    0    0  0.00000000000E+00  0.00000000000E+00  0.35740347158E-01  0.35744000000E-01  0.51099999109E-03 0. -1.
       11   -1    0    0    0    0 -0.00000000000E+00 -0.00000000000E+00 -0.35740347158E-01  0.35744000000E-01  0.51099999109E-03 0.  1.
       22    1    1    2    0    0 -0.20942227629E-01  0.16119238544E-01  0.24056741999E-01  0.35737005818E-01  0.00000000000E+00 0. -1.
  9000001    1    1    2    0    0  0.20942227629E-01 -0.16119238544E-01 -0.24056741999E-01  0.35750994182E-01  0.10000000475E-02 0.  1.
</event>
<event>
 4   0  0.5803570E-01  0.9118800E+02  0.7818609E-02  0.1379984E+01
      -11   -1    0    0    0    0  0.00000000000E+00  0.00000000000E+00  0.35740347158E-01  0.35744000000E-01  0.51099999109E-03 0. -1.
       11   -1    0    0    0    0 -0.00000000000E+00 -0.00000000000E+00 -0.35740347158E-01  0.35744000000E-01  0.51099999109E-03 0.  1.
       22    1    1    2    0    0  0.24266018223E-02  0.96469770938E-02  0.34324641607E-01  0.35737005818E-01  0.00000000000E+00 0. -1.
  9000001    1    1    2    0    0 -0.24266018223E-02 -0.96469770938E-02 -0.34324641607E-01  0.35750994182E-01  0.10000000475E-02 0.  1.
</event>
<event>
 4   0  0.5803570E-01  0.9118800E+02  0.7818609E-02  0.1379984E+01
      -11   -1    0    0    0    0  0.00000000000E+00  0.00000000000E+00  0.35740347158E-01  0.35744000000E-01  0.51099999109E-03 0. -1.
       11   -1    0    0    0    0 -0.00000000000E+00 -0.00000000000E+00 -0.35740347158E-01  0.35744000000E-01  0.51099999109E-03 0.  1.
       22    1    1    2    0    0  0.49408761110E-02 -0.31494044032E-02  0.35253405226E-01  0.35737005818E-01  0.00000000000E+00 0. -1.
  9000001    1    1    2    0    0 -0.49408761110E-02  0.31494044032E-02 -0.35253405226E-01  0.35750994182E-01  0.10000000475E-02 0.  1.
</event>
<event>
 4   0  0.5803570E-01  0.9118800E+02  0.7818609E-02  0.1379984E+01
      -11   -1    0    0    0    0  0.00000000000E+00  0.00000000000E+00  0.35740347158E-01  0.35744000000E-01  0.51099999109E-03 0. -1.
       11   -1    0    0    0    0 -0.00000000000E+00 -0.00000000000E+00 -0.35740347158E-01  0.35744000000E-01  0.51099999109E-03 0.  1.
       22    1    1    2    0    0 -0.38836948028E-02 -0.43497392452E-02 -0.35258052528E-01  0.35737005818E-01  0.00000000000E+00 0.  1.
  9000001    1    1    2    0    0  0.38836948028E-02  0.43497392452E-02  0.35258052528E-01  0.35750994182E-01  0.10000000475E-02 0. -1.
</event>
<event>
 4   0  0.5803570E-01  0.9118800E+02  0.7818609E-02  0.1379984E+01
      -11   -1    0    0    0    0  0.00000000000E+00  0.00000000000E+00  0.35740347158E-01  0.35744000000E-01  0.51099999109E-03 0. -1.
       11   -1    0    0    0    0 -0.00000000000E+00 -0.00000000000E+00 -0.35740347158E-01  0.35744000000E-01  0.51099999109E-03 0.  1.
       22    1    1    2    0    0  0.41611536121E-02  0.15451413271E-02 -0.35460272472E-01  0.35737005818E-01  0.00000000000E+00 0.  1.
  9000001    1    1    2    0    0 -0.41611536121E-02 -0.15451413271E-02  0.35460272472E-01  0.35750994182E-01  0.10000000475E-02 0. -1.
</event>
<event>
 4   0  0.5803570E-01  0.9118800E+02  0.7818609E-02  0.1379984E+01
      -11   -1    0    0    0    0  0.00000000000E+00  0.00000000000E+00  0.35740347158E-01  0.35744000000E-01  0.51099999109E-03 0. -1.
       11   -1    0    0    0    0 -0.00000000000E+00 -0.00000000000E+00 -0.35740347158E-01  0.35744000000E-01  0.51099999109E-03 0.  1.
       22    1    1    2    0    0  0.59688578656E-02  0.17683935820E-01 -0.30475969789E-01  0.35737005818E-01  0.00000000000E+00 0.  1.
  9000001    1    1    2    0    0 -0.59688578656E-02 -0.17683935820E-01  0.30475969789E-01  0.35750994182E-01  0.10000000475E-02 0. -1.
</event>
<event>
 4   0  0.5803570E-01  0.9118800E+02  0.7818609E-02  0.1379984E+01
      -11   -1    0    0    0    0  0.00000000000E+00  0.00000000000E+00  0.35740347158E-01  0.35744000000E-01  0.51099999109E-03 0.  1.
       11   -1    0    0    0    0 -0.00000000000E+00 -0.00000000000E+00 -0.35740347158E-01  0.35744000000E-01  0.51099999109E-03 0. -1.
       22    1    1    2    0    0  0.21202936857E-01  0.91104022780E-02 -0.27286803108E-01  0.35737005818E-01  0.00000000000E+00 0. -1.
  9000001    1    1    2    0    0 -0.21202936857E-01 -0.91104022780E-02  0.27286803108E-01  0.35750994182E-01  0.10000000475E-02 0.  1.
</event>
<event>
 4   0  0.5803572E-01  0.9118800E+02  0.7818609E-02  0.1379984E+01
      -11   -1    0    0    0    0  0.00000000000E+00  0.00000000000E+00  0.35740347158E-01  0.35744000000E-01  0.51099999109E-03 0.  1.
       11   -1    0    0    0    0 -0.00000000000E+00 -0.00000000000E+00 -0.35740347158E-01  0.35744000000E-01  0.51099999109E-03 0. -1.
       22    1    1    2    0    0  0.13155984617E-02 -0.32370589529E-02 -0.35565773363E-01  0.35737005818E-01  0.00000000000E+00 0. -1.
  9000001    1    1    2    0    0 -0.13155984617E-02  0.32370589529E-02  0.35565773363E-01  0.35750994182E-01  0.10000000475E-02 0.  1.
</event>
<event>
 4   0  0.5803570E-01  0.9118800E+02  0.7818609E-02  0.1379984E+01
      -11   -1    0    0    0    0  0.00000000000E+00  0.00000000000E+00  0.35740347158E-01  0.35744000000E-01  0.51099999109E-03 0. -1.
       11   -1    0    0    0    0 -0.00000000000E+00 -0.00000000000E+00 -0.35740347158E-01  0.35744000000E-01  0.51099999109E-03 0.  1.
       22    1    1    2    0    0  0.49607353363E-02  0.14662924545E-01  0.32210609022E-01  0.35737005818E-01  0.00000000000E+00 0. -1.
  9000001    1    1    2    0    0 -0.49607353363E-02 -0.14662924545E-01 -0.32210609022E-01  0.35750994182E-01  0.10000000475E-02 0.  1.
</event>
<event>
 4   0  0.5803570E-01  0.9118800E+02  0.7818609E-02  0.1379984E+01
      -11   -1    0    0    0    0  0.00000000000E+00  0.00000000000E+00  0.35740347158E-01  0.35744000000E-01  0.51099999109E-03 0.  1.
       11   -1    0    0    0    0 -0.00000000000E+00 -0.00000000000E+00 -0.35740347158E-01  0.35744000000E-01  0.51099999109E-03 0. -1.
       22    1    1    2    0    0  0.57954892930E-02  0.42987637122E-02  0.35000950262E-01  0.35737005818E-01  0.00000000000E+00 0.  1.
  9000001    1    1    2    0    0 -0.57954892930E-02 -0.42987637122E-02 -0.35000950262E-01  0.35750994182E-01  0.10000000475E-02 0. -1.
</event>
<event>
 4   0  0.5803570E-01  0.9118800E+02  0.7818609E-02  0.1379984E+01
      -11   -1    0    0    0    0  0.00000000000E+00  0.00000000000E+00  0.35740347158E-01  0.35744000000E-01  0.51099999109E-03 0.  1.
       11   -1    0    0    0    0 -0.00000000000E+00 -0.00000000000E+00 -0.35740347158E-01  0.35744000000E-01  0.51099999109E-03 0. -1.
       22    1    1    2    0    0 -0.61126591820E-02  0.49148239773E-02 -0.34865649110E-01  0.35737005818E-01  0.00000000000E+00 0. -1.
  9000001    1    1    2    0    0  0.61126591820E-02 -0.49148239773E-02  0.34865649110E-01  0.35750994182E-01  0.10000000475E-02 0.  1.
</event>
<event>
 4   0  0.5803570E-01  0.9118800E+02  0.7818609E-02  0.1379984E+01
      -11   -1    0    0    0    0  0.00000000000E+00  0.00000000000E+00  0.35740347158E-01  0.35744000000E-01  0.51099999109E-03 0. -1.
       11   -1    0    0    0    0 -0.00000000000E+00 -0.00000000000E+00 -0.35740347158E-01  0.35744000000E-01  0.51099999109E-03 0.  1.
       22    1    1    2    0    0 -0.86450676835E-02 -0.37516860408E-03  0.34673558198E-01  0.35737005818E-01  0.00000000000E+00 0. -1.
  9000001    1    1    2    0    0  0.86450676835E-02  0.37516860408E-03 -0.34673558198E-01  0.35750994182E-01  0.10000000475E-02 0.  1.
</event>
<event>
 4   0  0.5803570E-01  0.9118800E+02  0.7818609E-02  0.1379984E+01
      -11   -1    0    0    0    0  0.00000000000E+00  0.00000000000E+00  0.35740347158E-01  0.35744000000E-01  0.51099999109E-03 0.  1.
       11   -1    0    0    0    0 -0.00000000000E+00 -0.00000000000E+00 -0.35740347158E-01  0.35744000000E-01  0.51099999109E-03 0. -1.
       22    1    1    2    0    0  0.59262699369E-02 -0.19488011662E-02 -0.35188280485E-01  0.35737005818E-01  0.00000000000E+00 0. -1.
  9000001    1    1    2    0    0 -0.59262699369E-02  0.19488011662E-02  0.35188280485E-01  0.35750994182E-01  0.10000000475E-02 0.  1.
</event>
<event>
 4   0  0.5803570E-01  0.9118800E+02  0.7818609E-02  0.1379984E+01
      -11   -1    0    0    0    0  0.00000000000E+00  0.00000000000E+00  0.35740347158E-01  0.35744000000E-01  0.51099999109E-03 0.  1.
       11   -1    0    0    0    0 -0.00000000000E+00 -0.00000000000E+00 -0.35740347158E-01  0.35744000000E-01  0.51099999109E-03 0. -1.
       22    1    1    2    0    0  0.12002036554E-01  0.24444402456E-01  0.23142080547E-01  0.35737005818E-01  0.00000000000E+00 0.  1.
  9000001    1    1    2    0    0 -0.12002036554E-01 -0.24444402456E-01 -0.23142080547E-01  0.35750994182E-01  0.10000000475E-02 0. -1.
</event>
<event>
 4   0  0.5803570E-01  0.9118800E+02  0.7818609E-02  0.1379984E+01
      -11   -1    0    0    0    0  0.00000000000E+00  0.00000000000E+00  0.35740347158E-01  0.35744000000E-01  0.51099999109E-03 0.  1.
       11   -1    0    0    0    0 -0.00000000000E+00 -0.00000000000E+00 -0.35740347158E-01  0.35744000000E-01  0.51099999109E-03 0. -1.
       22    1    1    2    0    0  0.91832259368E-03  0.96592052244E-02 -0.34394622006E-01  0.35737005818E-01  0.00000000000E+00 0. -1.
  9000001    1    1    2    0    0 -0.91832259368E-03 -0.96592052244E-02  0.34394622006E-01  0.35750994182E-01  0.10000000475E-02 0.  1.
</event>
<event>
 4   0  0.5803570E-01  0.9118800E+02  0.7818609E-02  0.1379984E+01
      -11   -1    0    0    0    0  0.00000000000E+00  0.00000000000E+00  0.35740347158E-01  0.35744000000E-01  0.51099999109E-03 0.  1.
       11   -1    0    0    0    0 -0.00000000000E+00 -0.00000000000E+00 -0.35740347158E-01  0.35744000000E-01  0.51099999109E-03 0. -1.
       22    1    1    2    0    0  0.57912933524E-02 -0.38977240687E-02  0.35048569918E-01  0.35737005818E-01  0.00000000000E+00 0.  1.
  9000001    1    1    2    0    0 -0.57912933524E-02  0.38977240687E-02 -0.35048569918E-01  0.35750994182E-01  0.10000000475E-02 0. -1.
</event>
<event>
 4   0  0.5803570E-01  0.9118800E+02  0.7818609E-02  0.1379984E+01
      -11   -1    0    0    0    0  0.00000000000E+00  0.00000000000E+00  0.35740347158E-01  0.35744000000E-01  0.51099999109E-03 0. -1.
       11   -1    0    0    0    0 -0.00000000000E+00 -0.00000000000E+00 -0.35740347158E-01  0.35744000000E-01  0.51099999109E-03 0.  1.
       22    1    1    2    0    0 -0.73362922417E-03 -0.70035018720E-02 -0.35036357324E-01  0.35737005818E-01  0.00000000000E+00 0.  1.
  9000001    1    1    2    0    0  0.73362922417E-03  0.70035018720E-02  0.35036357324E-01  0.35750994182E-01  0.10000000475E-02 0. -1.
</event>
<event>
 4   0  0.5803570E-01  0.9118800E+02  0.7818609E-02  0.1379984E+01
      -11   -1    0    0    0    0  0.00000000000E+00  0.00000000000E+00  0.35740347158E-01  0.35744000000E-01  0.51099999109E-03 0. -1.
       11   -1    0    0    0    0 -0.00000000000E+00 -0.00000000000E+00 -0.35740347158E-01  0.35744000000E-01  0.51099999109E-03 0.  1.
       22    1    1    2    0    0 -0.33075608845E-01  0.85841842005E-02  0.10461809882E-01  0.35737005818E-01  0.00000000000E+00 0. -1.
  9000001    1    1    2    0    0  0.33075608845E-01 -0.85841842005E-02 -0.10461809882E-01  0.35750994182E-01  0.10000000475E-02 0.  1.
</event>
<event>
 4   0  0.5803570E-01  0.9118800E+02  0.7818609E-02  0.1379984E+01
      -11   -1    0    0    0    0  0.00000000000E+00  0.00000000000E+00  0.35740347158E-01  0.35744000000E-01  0.51099999109E-03 0.  1.
       11   -1    0    0    0    0 -0.00000000000E+00 -0.00000000000E+00 -0.35740347158E-01  0.35744000000E-01  0.51099999109E-03 0. -1.
       22    1    1    2    0    0  0.14468739240E-01  0.98340421046E-03  0.32662242511E-01  0.35737005818E-01  0.00000000000E+00 0.  1.
  9000001    1    1    2    0    0 -0.14468739240E-01 -0.98340421046E-03 -0.32662242511E-01  0.35750994182E-01  0.10000000475E-02 0. -1.
</event>
<event>
 4   0  0.5803570E-01  0.9118800E+02  0.7818609E-02  0.1379984E+01
      -11   -1    0    0    0    0  0.00000000000E+00  0.00000000000E+00  0.35740347158E-01  0.35744000000E-01  0.51099999109E-03 0.  1.
       11   -1    0    0    0    0 -0.00000000000E+00 -0.00000000000E+00 -0.35740347158E-01  0.35744000000E-01  0.51099999109E-03 0. -1.
       22    1    1    2    0    0 -0.33744023396E-02  0.12665788210E-01 -0.33246425413E-01  0.35737005818E-01  0.00000000000E+00 0. -1.
  9000001    1    1    2    0    0  0.33744023396E-02 -0.12665788210E-01  0.33246425413E-01  0.35750994182E-01  0.10000000475E-02 0.  1.
</event>
<event>
 4   0  0.5803570E-01  0.9118800E+02  0.7818609E-02  0.1379984E+01
      -11   -1    0    0    0    0  0.00000000000E+00  0.00000000000E+00  0.35740347158E-01  0.35744000000E-01  0.51099999109E-03 0.  1.
       11   -1    0    0    0    0 -0.00000000000E+00 -0.00000000000E+00 -0.35740347158E-01  0.35744000000E-01  0.51099999109E-03 0. -1.
       22    1    1    2    0    0  0.20351696932E-02  0.25091437383E-02  0.35590671065E-01  0.35737005818E-01  0.00000000000E+00 0.  1.
  9000001    1    1    2    0    0 -0.20351696932E-02 -0.25091437383E-02 -0.35590671065E-01  0.35750994182E-01  0.10000000475E-02 0. -1.
</event>
<event>
 4   0  0.5803570E-01  0.9118800E+02  0.7818609E-02  0.1379984E+01
      -11   -1    0    0    0    0  0.00000000000E+00  0.00000000000E+00  0.35740347158E-01  0.35744000000E-01  0.51099999109E-03 0. -1.
       11   -1    0    0    0    0 -0.00000000000E+00 -0.00000000000E+00 -0.35740347158E-01  0.35744000000E-01  0.51099999109E-03 0.  1.
       22    1    1    2    0    0  0.78645797840E-03 -0.76204665414E-02 -0.34906210886E-01  0.35737005818E-01  0.00000000000E+00 0.  1.
  9000001    1    1    2    0    0 -0.78645797840E-03  0.76204665414E-02  0.34906210886E-01  0.35750994182E-01  0.10000000475E-02 0. -1.
</event>
<event>
 4   0  0.5803570E-01  0.9118800E+02  0.7818609E-02  0.1379984E+01
      -11   -1    0    0    0    0  0.00000000000E+00  0.00000000000E+00  0.35740347158E-01  0.35744000000E-01  0.51099999109E-03 0.  1.
       11   -1    0    0    0    0 -0.00000000000E+00 -0.00000000000E+00 -0.35740347158E-01  0.35744000000E-01  0.51099999109E-03 0. -1.
       22    1    1    2    0    0 -0.18394147742E-02  0.55574928160E-02 -0.35254282176E-01  0.35737005818E-01  0.00000000000E+00 0. -1.
  9000001    1    1    2    0    0  0.18394147742E-02 -0.55574928160E-02  0.35254282176E-01  0.35750994182E-01  0.10000000475E-02 0.  1.
</event>
<event>
 4   0  0.5803570E-01  0.9118800E+02  0.7818609E-02  0.1379984E+01
      -11   -1    0    0    0    0  0.00000000000E+00  0.00000000000E+00  0.35740347158E-01  0.35744000000E-01  0.51099999109E-03 0. -1.
       11   -1    0    0    0    0 -0.00000000000E+00 -0.00000000000E+00 -0.35740347158E-01  0.35744000000E-01  0.51099999109E-03 0.  1.
       22    1    1    2    0    0  0.67694944381E-02 -0.40949485300E-02 -0.34850235673E-01  0.35737005818E-01  0.00000000000E+00 0.  1.
  9000001    1    1    2    0    0 -0.67694944381E-02  0.40949485300E-02  0.34850235673E-01  0.35750994182E-01  0.10000000475E-02 0. -1.
</event>
<event>
 4   0  0.5803570E-01  0.9118800E+02  0.7818609E-02  0.1379984E+01
      -11   -1    0    0    0    0  0.00000000000E+00  0.00000000000E+00  0.35740347158E-01  0.35744000000E-01  0.51099999109E-03 0.  1.
       11   -1    0    0    0    0 -0.00000000000E+00 -0.00000000000E+00 -0.35740347158E-01  0.35744000000E-01  0.51099999109E-03 0. -1.
       22    1    1    2    0    0 -0.35313906278E-02 -0.55762856630E-03 -0.35557726523E-01  0.35737005818E-01  0.00000000000E+00 0. -1.
  9000001    1    1    2    0    0  0.35313906278E-02  0.55762856630E-03  0.35557726523E-01  0.35750994182E-01  0.10000000475E-02 0.  1.
</event>
<event>
 4   0  0.5803570E-01  0.9118800E+02  0.7818609E-02  0.1379984E+01
      -11   -1    0    0    0    0  0.00000000000E+00  0.00000000000E+00  0.35740347158E-01  0.35744000000E-01  0.51099999109E-03 0. -1.
       11   -1    0    0    0    0 -0.00000000000E+00 -0.00000000000E+00 -0.35740347158E-01  0.35744000000E-01  0.51099999109E-03 0.  1.
       22    1    1    2    0    0 -0.37186981512E-02 -0.35922932778E-02  0.35360999674E-01  0.35737005818E-01  0.00000000000E+00 0. -1.
  9000001    1    1    2    0    0  0.37186981512E-02  0.35922932778E-02 -0.35360999674E-01  0.35750994182E-01  0.10000000475E-02 0.  1.
</event>
<event>
 4   0  0.5803570E-01  0.9118800E+02  0.7818609E-02  0.1379984E+01
      -11   -1    0    0    0    0  0.00000000000E+00  0.00000000000E+00  0.35740347158E-01  0.35744000000E-01  0.51099999109E-03 0. -1.
       11   -1    0    0    0    0 -0.00000000000E+00 -0.00000000000E+00 -0.35740347158E-01  0.35744000000E-01  0.51099999109E-03 0.  1.
       22    1    1    2    0    0 -0.40535386668E-02 -0.16123514740E-01 -0.31634390805E-01  0.35737005818E-01  0.00000000000E+00 0.  1.
  9000001    1    1    2    0    0  0.40535386668E-02  0.16123514740E-01  0.31634390805E-01  0.35750994182E-01  0.10000000475E-02 0. -1.
</event>
<event>
 4   0  0.5803570E-01  0.9118800E+02  0.7818609E-02  0.1379984E+01
      -11   -1    0    0    0    0  0.00000000000E+00  0.00000000000E+00  0.35740347158E-01  0.35744000000E-01  0.51099999109E-03 0.  1.
       11   -1    0    0    0    0 -0.00000000000E+00 -0.00000000000E+00 -0.35740347158E-01  0.35744000000E-01  0.51099999109E-03 0. -1.
       22    1    1    2    0    0 -0.61078359512E-02 -0.28190246333E-02  0.35098162701E-01  0.35737005818E-01  0.00000000000E+00 0.  1.
  9000001    1    1    2    0    0  0.61078359512E-02  0.28190246333E-02 -0.35098162701E-01  0.35750994182E-01  0.10000000475E-02 0. -1.
</event>
<event>
 4   0  0.5803570E-01  0.9118800E+02  0.7818609E-02  0.1379984E+01
      -11   -1    0    0    0    0  0.00000000000E+00  0.00000000000E+00  0.35740347158E-01  0.35744000000E-01  0.51099999109E-03 0. -1.
       11   -1    0    0    0    0 -0.00000000000E+00 -0.00000000000E+00 -0.35740347158E-01  0.35744000000E-01  0.51099999109E-03 0.  1.
       22    1    1    2    0    0 -0.55087385838E-04  0.50752014733E-02  0.35374749190E-01  0.35737005818E-01  0.00000000000E+00 0. -1.
  9000001    1    1    2    0    0  0.55087385838E-04 -0.50752014733E-02 -0.35374749190E-01  0.35750994182E-01  0.10000000475E-02 0.  1.
</event>
<event>
 4   0  0.5803570E-01  0.9118800E+02  0.7818609E-02  0.1379984E+01
      -11   -1    0    0    0    0  0.00000000000E+00  0.00000000000E+00  0.35740347158E-01  0.35744000000E-01  0.51099999109E-03 0. -1.
       11   -1    0    0    0    0 -0.00000000000E+00 -0.00000000000E+00 -0.35740347158E-01  0.35744000000E-01  0.51099999109E-03 0.  1.
       22    1    1    2    0    0 -0.34178915846E-02  0.62803008417E-02  0.35014417364E-01  0.35737005818E-01  0.00000000000E+00 0. -1.
  9000001    1    1    2    0    0  0.34178915846E-02 -0.62803008417E-02 -0.35014417364E-01  0.35750994182E-01  0.10000000475E-02 0.  1.
</event>
<event>
 4   0  0.5803570E-01  0.9118800E+02  0.7818609E-02  0.1379984E+01
      -11   -1    0    0    0    0  0.00000000000E+00  0.00000000000E+00  0.35740347158E-01  0.35744000000E-01  0.51099999109E-03 0. -1.
       11   -1    0    0    0    0 -0.00000000000E+00 -0.00000000000E+00 -0.35740347158E-01  0.35744000000E-01  0.51099999109E-03 0.  1.
       22    1    1    2    0    0  0.10707165837E-02 -0.54611344764E-02  0.35301036261E-01  0.35737005818E-01  0.00000000000E+00 0. -1.
  9000001    1    1    2    0    0 -0.10707165837E-02  0.54611344764E-02 -0.35301036261E-01  0.35750994182E-01  0.10000000475E-02 0.  1.
</event>
<event>
 4   0  0.5803570E-01  0.9118800E+02  0.7818609E-02  0.1379984E+01
      -11   -1    0    0    0    0  0.00000000000E+00  0.00000000000E+00  0.35740347158E-01  0.35744000000E-01  0.51099999109E-03 0. -1.
       11   -1    0    0    0    0 -0.00000000000E+00 -0.00000000000E+00 -0.35740347158E-01  0.35744000000E-01  0.51099999109E-03 0.  1.
       22    1    1    2    0    0  0.30791141386E-01  0.46862399565E-03 -0.18133383264E-01  0.35737005818E-01  0.00000000000E+00 0.  1.
  9000001    1    1    2    0    0 -0.30791141386E-01 -0.46862399565E-03  0.18133383264E-01  0.35750994182E-01  0.10000000475E-02 0. -1.
</event>
<event>
 4   0  0.5803570E-01  0.9118800E+02  0.7818609E-02  0.1379984E+01
      -11   -1    0    0    0    0  0.00000000000E+00  0.00000000000E+00  0.35740347158E-01  0.35744000000E-01  0.51099999109E-03 0. -1.
       11   -1    0    0    0    0 -0.00000000000E+00 -0.00000000000E+00 -0.35740347158E-01  0.35744000000E-01  0.51099999109E-03 0.  1.
       22    1    1    2    0    0 -0.14698602428E-01  0.11570427043E-01  0.30450121339E-01  0.35737005818E-01  0.00000000000E+00 0. -1.
  9000001    1    1    2    0    0  0.14698602428E-01 -0.11570427043E-01 -0.30450121339E-01  0.35750994182E-01  0.10000000475E-02 0.  1.
</event>
<event>
 4   0  0.5803570E-01  0.9118800E+02  0.7818609E-02  0.1379984E+01
      -11   -1    0    0    0    0  0.00000000000E+00  0.00000000000E+00  0.35740347158E-01  0.35744000000E-01  0.51099999109E-03 0.  1.
       11   -1    0    0    0    0 -0.00000000000E+00 -0.00000000000E+00 -0.35740347158E-01  0.35744000000E-01  0.51099999109E-03 0. -1.
       22    1    1    2    0    0 -0.28443806534E-02 -0.22538094960E-02  0.35552263308E-01  0.35737005818E-01  0.00000000000E+00 0.  1.
  9000001    1    1    2    0    0  0.28443806534E-02  0.22538094960E-02 -0.35552263308E-01  0.35750994182E-01  0.10000000475E-02 0. -1.
</event>
<event>
 4   0  0.5803570E-01  0.9118800E+02  0.7818609E-02  0.1379984E+01
      -11   -1    0    0    0    0  0.00000000000E+00  0.00000000000E+00  0.35740347158E-01  0.35744000000E-01  0.51099999109E-03 0.  1.
       11   -1    0    0    0    0 -0.00000000000E+00 -0.00000000000E+00 -0.35740347158E-01  0.35744000000E-01  0.51099999109E-03 0. -1.
       22    1    1    2    0    0 -0.33591385280E-02 -0.23017023431E-02  0.35504252415E-01  0.35737005818E-01  0.00000000000E+00 0.  1.
  9000001    1    1    2    0    0  0.33591385280E-02  0.23017023431E-02 -0.35504252415E-01  0.35750994182E-01  0.10000000475E-02 0. -1.
</event>
<event>
 4   0  0.5803570E-01  0.9118800E+02  0.7818609E-02  0.1379984E+01
      -11   -1    0    0    0    0  0.00000000000E+00  0.00000000000E+00  0.35740347158E-01  0.35744000000E-01  0.51099999109E-03 0.  1.
       11   -1    0    0    0    0 -0.00000000000E+00 -0.00000000000E+00 -0.35740347158E-01  0.35744000000E-01  0.51099999109E-03 0. -1.
       22    1    1    2    0    0 -0.60752109292E-02  0.54938262869E-03  0.35212548555E-01  0.35737005818E-01  0.00000000000E+00 0.  1.
  9000001    1    1    2    0    0  0.60752109292E-02 -0.54938262869E-03 -0.35212548555E-01  0.35750994182E-01  0.10000000475E-02 0. -1.
</event>
<event>
 4   0  0.5803570E-01  0.9118800E+02  0.7818609E-02  0.1379984E+01
      -11   -1    0    0    0    0  0.00000000000E+00  0.00000000000E+00  0.35740347158E-01  0.35744000000E-01  0.51099999109E-03 0. -1.
       11   -1    0    0    0    0 -0.00000000000E+00 -0.00000000000E+00 -0.35740347158E-01  0.35744000000E-01  0.51099999109E-03 0.  1.
       22    1    1    2    0    0 -0.37353731003E-02 -0.47796040015E-02 -0.35218403687E-01  0.35737005818E-01  0.00000000000E+00 0.  1.
  9000001    1    1    2    0    0  0.37353731003E-02  0.47796040015E-02  0.35218403687E-01  0.35750994182E-01  0.10000000475E-02 0. -1.
</event>
<event>
 4   0  0.5803570E-01  0.9118800E+02  0.7818609E-02  0.1379984E+01
      -11   -1    0    0    0    0  0.00000000000E+00  0.00000000000E+00  0.35740347158E-01  0.35744000000E-01  0.51099999109E-03 0.  1.
       11   -1    0    0    0    0 -0.00000000000E+00 -0.00000000000E+00 -0.35740347158E-01  0.35744000000E-01  0.51099999109E-03 0. -1.
       22    1    1    2    0    0 -0.11471322641E-01 -0.30458274083E-01 -0.14759264265E-01  0.35737005818E-01  0.00000000000E+00 0.  1.
  9000001    1    1    2    0    0  0.11471322641E-01  0.30458274083E-01  0.14759264265E-01  0.35750994182E-01  0.10000000475E-02 0. -1.
</event>
<event>
 4   0  0.5803570E-01  0.9118800E+02  0.7818609E-02  0.1379984E+01
      -11   -1    0    0    0    0  0.00000000000E+00  0.00000000000E+00  0.35740347158E-01  0.35744000000E-01  0.51099999109E-03 0.  1.
       11   -1    0    0    0    0 -0.00000000000E+00 -0.00000000000E+00 -0.35740347158E-01  0.35744000000E-01  0.51099999109E-03 0. -1.
       22    1    1    2    0    0  0.24750089562E-01  0.23054971661E-01 -0.11534077043E-01  0.35737005818E-01  0.00000000000E+00 0. -1.
  9000001    1    1    2    0    0 -0.24750089562E-01 -0.23054971661E-01  0.11534077043E-01  0.35750994182E-01  0.10000000475E-02 0.  1.
</event>
<event>
 4   0  0.5803570E-01  0.9118800E+02  0.7818609E-02  0.1379984E+01
      -11   -1    0    0    0    0  0.00000000000E+00  0.00000000000E+00  0.35740347158E-01  0.35744000000E-01  0.51099999109E-03 0.  1.
       11   -1    0    0    0    0 -0.00000000000E+00 -0.00000000000E+00 -0.35740347158E-01  0.35744000000E-01  0.51099999109E-03 0. -1.
       22    1    1    2    0    0 -0.34706172944E-04  0.33942909444E-01  0.11180844281E-01  0.35737005818E-01  0.00000000000E+00 0.  1.
  9000001    1    1    2    0    0  0.34706172944E-04 -0.33942909444E-01 -0.11180844281E-01  0.35750994182E-01  0.10000000475E-02 0. -1.
</event>
<event>
 4   0  0.5803570E-01  0.9118800E+02  0.7818609E-02  0.1379984E+01
      -11   -1    0    0    0    0  0.00000000000E+00  0.00000000000E+00  0.35740347158E-01  0.35744000000E-01  0.51099999109E-03 0. -1.
       11   -1    0    0    0    0 -0.00000000000E+00 -0.00000000000E+00 -0.35740347158E-01  0.35744000000E-01  0.51099999109E-03 0.  1.
       22    1    1    2    0    0  0.14353565520E-01 -0.16079071831E-01  0.28505651910E-01  0.35737005818E-01  0.00000000000E+00 0.  1.
  9000001    1    1    2    0    0 -0.14353565520E-01  0.16079071831E-01 -0.28505651910E-01  0.35750994182E-01  0.10000000475E-02 0. -1.
</event>
<event>
 4   0  0.5803570E-01  0.9118800E+02  0.7818609E-02  0.1379984E+01
      -11   -1    0    0    0    0  0.00000000000E+00  0.00000000000E+00  0.35740347158E-01  0.35744000000E-01  0.51099999109E-03 0. -1.
       11   -1    0    0    0    0 -0.00000000000E+00 -0.00000000000E+00 -0.35740347158E-01  0.35744000000E-01  0.51099999109E-03 0.  1.
       22    1    1    2    0    0  0.48818543450E-02 -0.41466919883E-02  0.35158299569E-01  0.35737005818E-01  0.00000000000E+00 0. -1.
  9000001    1    1    2    0    0 -0.48818543450E-02  0.41466919883E-02 -0.35158299569E-01  0.35750994182E-01  0.10000000475E-02 0.  1.
</event>
<event>
 4   0  0.5803570E-01  0.9118800E+02  0.7818609E-02  0.1379984E+01
      -11   -1    0    0    0    0  0.00000000000E+00  0.00000000000E+00  0.35740347158E-01  0.35744000000E-01  0.51099999109E-03 0.  1.
       11   -1    0    0    0    0 -0.00000000000E+00 -0.00000000000E+00 -0.35740347158E-01  0.35744000000E-01  0.51099999109E-03 0. -1.
       22    1    1    2    0    0 -0.25074540818E-01  0.20654501956E-01  0.14892700782E-01  0.35737005818E-01  0.00000000000E+00 0.  1.
  9000001    1    1    2    0    0  0.25074540818E-01 -0.20654501956E-01 -0.14892700782E-01  0.35750994182E-01  0.10000000475E-02 0. -1.
</event>
<event>
 4   0  0.5803570E-01  0.9118800E+02  0.7818609E-02  0.1379984E+01
      -11   -1    0    0    0    0  0.00000000000E+00  0.00000000000E+00  0.35740347158E-01  0.35744000000E-01  0.51099999109E-03 0.  1.
       11   -1    0    0    0    0 -0.00000000000E+00 -0.00000000000E+00 -0.35740347158E-01  0.35744000000E-01  0.51099999109E-03 0. -1.
       22    1    1    2    0    0  0.85508671894E-02  0.66115487398E-02 -0.34063230593E-01  0.35737005818E-01  0.00000000000E+00 0. -1.
  9000001    1    1    2    0    0 -0.85508671894E-02 -0.66115487398E-02  0.34063230593E-01  0.35750994182E-01  0.10000000475E-02 0.  1.
</event>
<event>
 4   0  0.5803570E-01  0.9118800E+02  0.7818609E-02  0.1379984E+01
      -11   -1    0    0    0    0  0.00000000000E+00  0.00000000000E+00  0.35740347158E-01  0.35744000000E-01  0.51099999109E-03 0. -1.
       11   -1    0    0    0    0 -0.00000000000E+00 -0.00000000000E+00 -0.35740347158E-01  0.35744000000E-01  0.51099999109E-03 0.  1.
       22    1    1    2    0    0  0.12591530555E-01 -0.14481657106E-01  0.30147446834E-01  0.35737005818E-01  0.00000000000E+00 0. -1.
  9000001    1    1    2    0    0 -0.12591530555E-01  0.14481657106E-01 -0.30147446834E-01  0.35750994182E-01  0.10000000475E-02 0.  1.
</event>
<event>
 4   0  0.5803570E-01  0.9118800E+02  0.7818609E-02  0.1379984E+01
      -11   -1    0    0    0    0  0.00000000000E+00  0.00000000000E+00  0.35740347158E-01  0.35744000000E-01  0.51099999109E-03 0.  1.
       11   -1    0    0    0    0 -0.00000000000E+00 -0.00000000000E+00 -0.35740347158E-01  0.35744000000E-01  0.51099999109E-03 0. -1.
       22    1    1    2    0    0 -0.14385531369E-01 -0.54729663735E-02 -0.32252700835E-01  0.35737005818E-01  0.00000000000E+00 0. -1.
  9000001    1    1    2    0    0  0.14385531369E-01  0.54729663735E-02  0.32252700835E-01  0.35750994182E-01  0.10000000475E-02 0.  1.
</event>
<event>
 4   0  0.5803570E-01  0.9118800E+02  0.7818609E-02  0.1379984E+01
      -11   -1    0    0    0    0  0.00000000000E+00  0.00000000000E+00  0.35740347158E-01  0.35744000000E-01  0.51099999109E-03 0.  1.
       11   -1    0    0    0    0 -0.00000000000E+00 -0.00000000000E+00 -0.35740347158E-01  0.35744000000E-01  0.51099999109E-03 0. -1.
       22    1    1    2    0    0  0.59217746997E-02 -0.48152139942E-02 -0.34912460290E-01  0.35737005818E-01  0.00000000000E+00 0. -1.
  9000001    1    1    2    0    0 -0.59217746997E-02  0.48152139942E-02  0.34912460290E-01  0.35750994182E-01  0.10000000475E-02 0.  1.
</event>
<event>
 4   0  0.5803570E-01  0.9118800E+02  0.7818609E-02  0.1379984E+01
      -11   -1    0    0    0    0  0.00000000000E+00  0.00000000000E+00  0.35740347158E-01  0.35744000000E-01  0.51099999109E-03 0. -1.
       11   -1    0    0    0    0 -0.00000000000E+00 -0.00000000000E+00 -0.35740347158E-01  0.35744000000E-01  0.51099999109E-03 0.  1.
       22    1    1    2    0    0 -0.22570750925E-01 -0.27698958785E-01 -0.68005128608E-03  0.35737005818E-01  0.00000000000E+00 0.  1.
  9000001    1    1    2    0    0  0.22570750925E-01  0.27698958785E-01  0.68005128608E-03  0.35750994182E-01  0.10000000475E-02 0. -1.
</event>
<event>
 4   0  0.5803570E-01  0.9118800E+02  0.7818609E-02  0.1379984E+01
      -11   -1    0    0    0    0  0.00000000000E+00  0.00000000000E+00  0.35740347158E-01  0.35744000000E-01  0.51099999109E-03 0. -1.
       11   -1    0    0    0    0 -0.00000000000E+00 -0.00000000000E+00 -0.35740347158E-01  0.35744000000E-01  0.51099999109E-03 0.  1.
       22    1    1    2    0    0 -0.15131256738E-01 -0.63093964815E-02 -0.31754844834E-01  0.35737005818E-01  0.00000000000E+00 0.  1.
  9000001    1    1    2    0    0  0.15131256738E-01  0.63093964815E-02  0.31754844834E-01  0.35750994182E-01  0.10000000475E-02 0. -1.
</event>
<event>
 4   0  0.5803570E-01  0.9118800E+02  0.7818609E-02  0.1379984E+01
      -11   -1    0    0    0    0  0.00000000000E+00  0.00000000000E+00  0.35740347158E-01  0.35744000000E-01  0.51099999109E-03 0.  1.
       11   -1    0    0    0    0 -0.00000000000E+00 -0.00000000000E+00 -0.35740347158E-01  0.35744000000E-01  0.51099999109E-03 0. -1.
       22    1    1    2    0    0 -0.48796236414E-02  0.51858364793E-03 -0.35398501790E-01  0.35737005818E-01  0.00000000000E+00 0. -1.
  9000001    1    1    2    0    0  0.48796236414E-02 -0.51858364793E-03  0.35398501790E-01  0.35750994182E-01  0.10000000475E-02 0.  1.
</event>
<event>
 4   0  0.5803570E-01  0.9118800E+02  0.7818609E-02  0.1379984E+01
      -11   -1    0    0    0    0  0.00000000000E+00  0.00000000000E+00  0.35740347158E-01  0.35744000000E-01  0.51099999109E-03 0.  1.
       11   -1    0    0    0    0 -0.00000000000E+00 -0.00000000000E+00 -0.35740347158E-01  0.35744000000E-01  0.51099999109E-03 0. -1.
       22    1    1    2    0    0 -0.33753904633E-01 -0.93163167959E-02 -0.71423909351E-02  0.35737005818E-01  0.00000000000E+00 0. -1.
  9000001    1    1    2    0    0  0.33753904633E-01  0.93163167959E-02  0.71423909351E-02  0.35750994182E-01  0.10000000475E-02 0.  1.
</event>
<event>
 4   0  0.5803570E-01  0.9118800E+02  0.7818609E-02  0.1379984E+01
      -11   -1    0    0    0    0  0.00000000000E+00  0.00000000000E+00  0.35740347158E-01  0.35744000000E-01  0.51099999109E-03 0.  1.
       11   -1    0    0    0    0 -0.00000000000E+00 -0.00000000000E+00 -0.35740347158E-01  0.35744000000E-01  0.51099999109E-03 0. -1.
       22    1    1    2    0    0 -0.14998641100E-01  0.99569342613E-03 -0.32421951586E-01  0.35737005818E-01  0.00000000000E+00 0. -1.
  9000001    1    1    2    0    0  0.14998641100E-01 -0.99569342613E-03  0.32421951586E-01  0.35750994182E-01  0.10000000475E-02 0.  1.
</event>
<event>
 4   0  0.5803570E-01  0.9118800E+02  0.7818609E-02  0.1379984E+01
      -11   -1    0    0    0    0  0.00000000000E+00  0.00000000000E+00  0.35740347158E-01  0.35744000000E-01  0.51099999109E-03 0. -1.
       11   -1    0    0    0    0 -0.00000000000E+00 -0.00000000000E+00 -0.35740347158E-01  0.35744000000E-01  0.51099999109E-03 0.  1.
       22    1    1    2    0    0 -0.97047168140E-02  0.28137768948E-01 -0.19779231913E-01  0.35737005818E-01  0.00000000000E+00 0.  1.
  9000001    1    1    2    0    0  0.97047168140E-02 -0.28137768948E-01  0.19779231913E-01  0.35750994182E-01  0.10000000475E-02 0. -1.
</event>
<event>
 4   0  0.5803570E-01  0.9118800E+02  0.7818609E-02  0.1379984E+01
      -11   -1    0    0    0    0  0.00000000000E+00  0.00000000000E+00  0.35740347158E-01  0.35744000000E-01  0.51099999109E-03 0.  1.
       11   -1    0    0    0    0 -0.00000000000E+00 -0.00000000000E+00 -0.35740347158E-01  0.35744000000E-01  0.51099999109E-03 0. -1.
       22    1    1    2    0    0  0.99541311831E-02 -0.20819358505E-01 -0.27287417773E-01  0.35737005818E-01  0.00000000000E+00 0. -1.
  9000001    1    1    2    0    0 -0.99541311831E-02  0.20819358505E-01  0.27287417773E-01  0.35750994182E-01  0.10000000475E-02 0.  1.
</event>
<event>
 4   0  0.5803570E-01  0.9118800E+02  0.7818609E-02  0.1379984E+01
      -11   -1    0    0    0    0  0.00000000000E+00  0.00000000000E+00  0.35740347158E-01  0.35744000000E-01  0.51099999109E-03 0. -1.
       11   -1    0    0    0    0 -0.00000000000E+00 -0.00000000000E+00 -0.35740347158E-01  0.35744000000E-01  0.51099999109E-03 0.  1.
       22    1    1    2    0    0 -0.34176197582E-01  0.87486937716E-02 -0.57080172588E-02  0.35737005818E-01  0.00000000000E+00 0. -1.
  9000001    1    1    2    0    0  0.34176197582E-01 -0.87486937716E-02  0.57080172588E-02  0.35750994182E-01  0.10000000475E-02 0.  1.
</event>
<event>
 4   0  0.5803570E-01  0.9118800E+02  0.7818609E-02  0.1379984E+01
      -11   -1    0    0    0    0  0.00000000000E+00  0.00000000000E+00  0.35740347158E-01  0.35744000000E-01  0.51099999109E-03 0. -1.
       11   -1    0    0    0    0 -0.00000000000E+00 -0.00000000000E+00 -0.35740347158E-01  0.35744000000E-01  0.51099999109E-03 0.  1.
       22    1    1    2    0    0 -0.40982777357E-02 -0.45318298162E-02 -0.35210796966E-01  0.35737005818E-01  0.00000000000E+00 0.  1.
  9000001    1    1    2    0    0  0.40982777357E-02  0.45318298162E-02  0.35210796966E-01  0.35750994182E-01  0.10000000475E-02 0. -1.
</event>
<event>
 4   0  0.5803570E-01  0.9118800E+02  0.7818609E-02  0.1379984E+01
      -11   -1    0    0    0    0  0.00000000000E+00  0.00000000000E+00  0.35740347158E-01  0.35744000000E-01  0.51099999109E-03 0. -1.
       11   -1    0    0    0    0 -0.00000000000E+00 -0.00000000000E+00 -0.35740347158E-01  0.35744000000E-01  0.51099999109E-03 0.  1.
       22    1    1    2    0    0 -0.23302369561E-01  0.11803624006E-01 -0.24388678071E-01  0.35737005818E-01  0.00000000000E+00 0. -1.
  9000001    1    1    2    0    0  0.23302369561E-01 -0.11803624006E-01  0.24388678071E-01  0.35750994182E-01  0.10000000475E-02 0.  1.
</event>
<event>
 4   0  0.5803570E-01  0.9118800E+02  0.7818609E-02  0.1379984E+01
      -11   -1    0    0    0    0  0.00000000000E+00  0.00000000000E+00  0.35740347158E-01  0.35744000000E-01  0.51099999109E-03 0. -1.
       11   -1    0    0    0    0 -0.00000000000E+00 -0.00000000000E+00 -0.35740347158E-01  0.35744000000E-01  0.51099999109E-03 0.  1.
       22    1    1    2    0    0  0.28230899433E-02 -0.10856642599E-02  0.35608778148E-01  0.35737005818E-01  0.00000000000E+00 0. -1.
  9000001    1    1    2    0    0 -0.28230899433E-02  0.10856642599E-02 -0.35608778148E-01  0.35750994182E-01  0.10000000475E-02 0.  1.
</event>
<event>
 4   0  0.5803570E-01  0.9118800E+02  0.7818609E-02  0.1379984E+01
      -11   -1    0    0    0    0  0.00000000000E+00  0.00000000000E+00  0.35740347158E-01  0.35744000000E-01  0.51099999109E-03 0. -1.
       11   -1    0    0    0    0 -0.00000000000E+00 -0.00000000000E+00 -0.35740347158E-01  0.35744000000E-01  0.51099999109E-03 0.  1.
       22    1    1    2    0    0  0.42075602335E-02  0.17925082337E-02  0.35443150763E-01  0.35737005818E-01  0.00000000000E+00 0. -1.
  9000001    1    1    2    0    0 -0.42075602335E-02 -0.17925082337E-02 -0.35443150763E-01  0.35750994182E-01  0.10000000475E-02 0.  1.
</event>
<event>
 4   0  0.5803570E-01  0.9118800E+02  0.7818609E-02  0.1379984E+01
      -11   -1    0    0    0    0  0.00000000000E+00  0.00000000000E+00  0.35740347158E-01  0.35744000000E-01  0.51099999109E-03 0. -1.
       11   -1    0    0    0    0 -0.00000000000E+00 -0.00000000000E+00 -0.35740347158E-01  0.35744000000E-01  0.51099999109E-03 0.  1.
       22    1    1    2    0    0 -0.85348038076E-02 -0.79921821131E-04  0.34702799906E-01  0.35737005818E-01  0.00000000000E+00 0. -1.
  9000001    1    1    2    0    0  0.85348038076E-02  0.79921821131E-04 -0.34702799906E-01  0.35750994182E-01  0.10000000475E-02 0.  1.
</event>
<event>
 4   0  0.5803570E-01  0.9118800E+02  0.7818609E-02  0.1379984E+01
      -11   -1    0    0    0    0  0.00000000000E+00  0.00000000000E+00  0.35740347158E-01  0.35744000000E-01  0.51099999109E-03 0. -1.
       11   -1    0    0    0    0 -0.00000000000E+00 -0.00000000000E+00 -0.35740347158E-01  0.35744000000E-01  0.51099999109E-03 0.  1.
       22    1    1    2    0    0  0.24367154680E-01  0.18614598990E-01  0.18354074810E-01  0.35737005818E-01  0.00000000000E+00 0.  1.
  9000001    1    1    2    0    0 -0.24367154680E-01 -0.18614598990E-01 -0.18354074810E-01  0.35750994182E-01  0.10000000475E-02 0. -1.
</event>
<event>
 4   0  0.5803570E-01  0.9118800E+02  0.7818609E-02  0.1379984E+01
      -11   -1    0    0    0    0  0.00000000000E+00  0.00000000000E+00  0.35740347158E-01  0.35744000000E-01  0.51099999109E-03 0. -1.
       11   -1    0    0    0    0 -0.00000000000E+00 -0.00000000000E+00 -0.35740347158E-01  0.35744000000E-01  0.51099999109E-03 0.  1.
       22    1    1    2    0    0 -0.10669449739E-01 -0.76331616053E-02 -0.33242010635E-01  0.35737005818E-01  0.00000000000E+00 0.  1.
  9000001    1    1    2    0    0  0.10669449739E-01  0.76331616053E-02  0.33242010635E-01  0.35750994182E-01  0.10000000475E-02 0. -1.
</event>
<event>
 4   0  0.5803570E-01  0.9118800E+02  0.7818609E-02  0.1379984E+01
      -11   -1    0    0    0    0  0.00000000000E+00  0.00000000000E+00  0.35740347158E-01  0.35744000000E-01  0.51099999109E-03 0.  1.
       11   -1    0    0    0    0 -0.00000000000E+00 -0.00000000000E+00 -0.35740347158E-01  0.35744000000E-01  0.51099999109E-03 0. -1.
       22    1    1    2    0    0 -0.10624501200E-02  0.19990143761E-01 -0.29604035823E-01  0.35737005818E-01  0.00000000000E+00 0. -1.
  9000001    1    1    2    0    0  0.10624501200E-02 -0.19990143761E-01  0.29604035823E-01  0.35750994182E-01  0.10000000475E-02 0.  1.
</event>
<event>
 4   0  0.6649348E-01  0.9118800E+02  0.7818609E-02  0.1379984E+01
      -11   -1    0    0    0    0  0.00000000000E+00  0.00000000000E+00  0.35740347158E-01  0.35744000000E-01  0.51099999109E-03 0. -1.
       11   -1    0    0    0    0 -0.00000000000E+00 -0.00000000000E+00 -0.35740347158E-01  0.35744000000E-01  0.51099999109E-03 0.  1.
       22    1    1    2    0    0  0.22391993954E-02  0.22062827918E-02 -0.35598481529E-01  0.35737005818E-01  0.00000000000E+00 0.  1.
  9000001    1    1    2    0    0 -0.22391993954E-02 -0.22062827918E-02  0.35598481529E-01  0.35750994182E-01  0.10000000475E-02 0. -1.
</event>
<event>
 4   0  0.5803570E-01  0.9118800E+02  0.7818609E-02  0.1379984E+01
      -11   -1    0    0    0    0  0.00000000000E+00  0.00000000000E+00  0.35740347158E-01  0.35744000000E-01  0.51099999109E-03 0.  1.
       11   -1    0    0    0    0 -0.00000000000E+00 -0.00000000000E+00 -0.35740347158E-01  0.35744000000E-01  0.51099999109E-03 0. -1.
       22    1    1    2    0    0  0.23413005823E-02  0.21239236568E-01 -0.28645186794E-01  0.35737005818E-01  0.00000000000E+00 0. -1.
  9000001    1    1    2    0    0 -0.23413005823E-02 -0.21239236568E-01  0.28645186794E-01  0.35750994182E-01  0.10000000475E-02 0.  1.
</event>
<event>
 4   0  0.5803570E-01  0.9118800E+02  0.7818609E-02  0.1379984E+01
      -11   -1    0    0    0    0  0.00000000000E+00  0.00000000000E+00  0.35740347158E-01  0.35744000000E-01  0.51099999109E-03 0. -1.
       11   -1    0    0    0    0 -0.00000000000E+00 -0.00000000000E+00 -0.35740347158E-01  0.35744000000E-01  0.51099999109E-03 0.  1.
       22    1    1    2    0    0  0.12498913016E-01 -0.11701380341E-01  0.31368590284E-01  0.35737005818E-01  0.00000000000E+00 0. -1.
  9000001    1    1    2    0    0 -0.12498913016E-01  0.11701380341E-01 -0.31368590284E-01  0.35750994182E-01  0.10000000475E-02 0.  1.
</event>
<event>
 4   0  0.5803570E-01  0.9118800E+02  0.7818609E-02  0.1379984E+01
      -11   -1    0    0    0    0  0.00000000000E+00  0.00000000000E+00  0.35740347158E-01  0.35744000000E-01  0.51099999109E-03 0.  1.
       11   -1    0    0    0    0 -0.00000000000E+00 -0.00000000000E+00 -0.35740347158E-01  0.35744000000E-01  0.51099999109E-03 0. -1.
       22    1    1    2    0    0 -0.38169058411E-02  0.58871946834E-02 -0.35041486176E-01  0.35737005818E-01  0.00000000000E+00 0. -1.
  9000001    1    1    2    0    0  0.38169058411E-02 -0.58871946834E-02  0.35041486176E-01  0.35750994182E-01  0.10000000475E-02 0.  1.
</event>
<event>
 4   0  0.5803570E-01  0.9118800E+02  0.7818609E-02  0.1379984E+01
      -11   -1    0    0    0    0  0.00000000000E+00  0.00000000000E+00  0.35740347158E-01  0.35744000000E-01  0.51099999109E-03 0.  1.
       11   -1    0    0    0    0 -0.00000000000E+00 -0.00000000000E+00 -0.35740347158E-01  0.35744000000E-01  0.51099999109E-03 0. -1.
       22    1    1    2    0    0 -0.15623571262E-01  0.30140416477E-01 -0.11162118997E-01  0.35737005818E-01  0.00000000000E+00 0. -1.
  9000001    1    1    2    0    0  0.15623571262E-01 -0.30140416477E-01  0.11162118997E-01  0.35750994182E-01  0.10000000475E-02 0.  1.
</event>
<event>
 4   0  0.5803570E-01  0.9118800E+02  0.7818609E-02  0.1379984E+01
      -11   -1    0    0    0    0  0.00000000000E+00  0.00000000000E+00  0.35740347158E-01  0.35744000000E-01  0.51099999109E-03 0. -1.
       11   -1    0    0    0    0 -0.00000000000E+00 -0.00000000000E+00 -0.35740347158E-01  0.35744000000E-01  0.51099999109E-03 0.  1.
       22    1    1    2    0    0  0.55532753939E-03  0.75315218046E-02  0.34929949549E-01  0.35737005818E-01  0.00000000000E+00 0. -1.
  9000001    1    1    2    0    0 -0.55532753939E-03 -0.75315218046E-02 -0.34929949549E-01  0.35750994182E-01  0.10000000475E-02 0.  1.
</event>
<event>
 4   0  0.5803570E-01  0.9118800E+02  0.7818609E-02  0.1379984E+01
      -11   -1    0    0    0    0  0.00000000000E+00  0.00000000000E+00  0.35740347158E-01  0.35744000000E-01  0.51099999109E-03 0.  1.
       11   -1    0    0    0    0 -0.00000000000E+00 -0.00000000000E+00 -0.35740347158E-01  0.35744000000E-01  0.51099999109E-03 0. -1.
       22    1    1    2    0    0  0.26883153274E-02 -0.35425410218E-02  0.35459229386E-01  0.35737005818E-01  0.00000000000E+00 0.  1.
  9000001    1    1    2    0    0 -0.26883153274E-02  0.35425410218E-02 -0.35459229386E-01  0.35750994182E-01  0.10000000475E-02 0. -1.
</event>
<event>
 4   0  0.5803570E-01  0.9118800E+02  0.7818609E-02  0.1379984E+01
      -11   -1    0    0    0    0  0.00000000000E+00  0.00000000000E+00  0.35740347158E-01  0.35744000000E-01  0.51099999109E-03 0.  1.
       11   -1    0    0    0    0 -0.00000000000E+00 -0.00000000000E+00 -0.35740347158E-01  0.35744000000E-01  0.51099999109E-03 0. -1.
       22    1    1    2    0    0  0.12245283766E-01  0.29008505578E-02 -0.33448044433E-01  0.35737005818E-01  0.00000000000E+00 0. -1.
  9000001    1    1    2    0    0 -0.12245283766E-01 -0.29008505578E-02  0.33448044433E-01  0.35750994182E-01  0.10000000475E-02 0.  1.
</event>
<event>
 4   0  0.5803570E-01  0.9118800E+02  0.7818609E-02  0.1379984E+01
      -11   -1    0    0    0    0  0.00000000000E+00  0.00000000000E+00  0.35740347158E-01  0.35744000000E-01  0.51099999109E-03 0. -1.
       11   -1    0    0    0    0 -0.00000000000E+00 -0.00000000000E+00 -0.35740347158E-01  0.35744000000E-01  0.51099999109E-03 0.  1.
       22    1    1    2    0    0 -0.34798885610E-02 -0.12152274696E-01  0.33426728529E-01  0.35737005818E-01  0.00000000000E+00 0. -1.
  9000001    1    1    2    0    0  0.34798885610E-02  0.12152274696E-01 -0.33426728529E-01  0.35750994182E-01  0.10000000475E-02 0.  1.
</event>
<event>
 4   0  0.5803570E-01  0.9118800E+02  0.7818609E-02  0.1379984E+01
      -11   -1    0    0    0    0  0.00000000000E+00  0.00000000000E+00  0.35740347158E-01  0.35744000000E-01  0.51099999109E-03 0. -1.
       11   -1    0    0    0    0 -0.00000000000E+00 -0.00000000000E+00 -0.35740347158E-01  0.35744000000E-01  0.51099999109E-03 0.  1.
       22    1    1    2    0    0 -0.10230734708E-02  0.12870581038E-01  0.33323190863E-01  0.35737005818E-01  0.00000000000E+00 0. -1.
  9000001    1    1    2    0    0  0.10230734708E-02 -0.12870581038E-01 -0.33323190863E-01  0.35750994182E-01  0.10000000475E-02 0.  1.
</event>
<event>
 4   0  0.5803570E-01  0.9118800E+02  0.7818609E-02  0.1379984E+01
      -11   -1    0    0    0    0  0.00000000000E+00  0.00000000000E+00  0.35740347158E-01  0.35744000000E-01  0.51099999109E-03 0. -1.
       11   -1    0    0    0    0 -0.00000000000E+00 -0.00000000000E+00 -0.35740347158E-01  0.35744000000E-01  0.51099999109E-03 0.  1.
       22    1    1    2    0    0 -0.27311166193E-02 -0.89677346454E-02  0.34485566868E-01  0.35737005818E-01  0.00000000000E+00 0. -1.
  9000001    1    1    2    0    0  0.27311166193E-02  0.89677346454E-02 -0.34485566868E-01  0.35750994182E-01  0.10000000475E-02 0.  1.
</event>
<event>
 4   0  0.5803570E-01  0.9118800E+02  0.7818609E-02  0.1379984E+01
      -11   -1    0    0    0    0  0.00000000000E+00  0.00000000000E+00  0.35740347158E-01  0.35744000000E-01  0.51099999109E-03 0. -1.
       11   -1    0    0    0    0 -0.00000000000E+00 -0.00000000000E+00 -0.35740347158E-01  0.35744000000E-01  0.51099999109E-03 0.  1.
       22    1    1    2    0    0 -0.75175554636E-02 -0.78487606634E-03  0.34928554426E-01  0.35737005818E-01  0.00000000000E+00 0. -1.
  9000001    1    1    2    0    0  0.75175554636E-02  0.78487606634E-03 -0.34928554426E-01  0.35750994182E-01  0.10000000475E-02 0.  1.
</event>
<event>
 4   0  0.5803570E-01  0.9118800E+02  0.7818609E-02  0.1379984E+01
      -11   -1    0    0    0    0  0.00000000000E+00  0.00000000000E+00  0.35740347158E-01  0.35744000000E-01  0.51099999109E-03 0. -1.
       11   -1    0    0    0    0 -0.00000000000E+00 -0.00000000000E+00 -0.35740347158E-01  0.35744000000E-01  0.51099999109E-03 0.  1.
       22    1    1    2    0    0 -0.20089370192E-01 -0.30130233697E-02  0.29401912869E-01  0.35737005818E-01  0.00000000000E+00 0. -1.
  9000001    1    1    2    0    0  0.20089370192E-01  0.30130233697E-02 -0.29401912869E-01  0.35750994182E-01  0.10000000475E-02 0.  1.
</event>
<event>
 4   0  0.5803570E-01  0.9118800E+02  0.7818609E-02  0.1379984E+01
      -11   -1    0    0    0    0  0.00000000000E+00  0.00000000000E+00  0.35740347158E-01  0.35744000000E-01  0.51099999109E-03 0.  1.
       11   -1    0    0    0    0 -0.00000000000E+00 -0.00000000000E+00 -0.35740347158E-01  0.35744000000E-01  0.51099999109E-03 0. -1.
       22    1    1    2    0    0  0.22909386301E-02  0.35495178425E-01  0.34608515732E-02  0.35737005818E-01  0.00000000000E+00 0. -1.
  9000001    1    1    2    0    0 -0.22909386301E-02 -0.35495178425E-01 -0.34608515732E-02  0.35750994182E-01  0.10000000475E-02 0.  1.
</event>
<event>
 4   0  0.5803570E-01  0.9118800E+02  0.7818609E-02  0.1379984E+01
      -11   -1    0    0    0    0  0.00000000000E+00  0.00000000000E+00  0.35740347158E-01  0.35744000000E-01  0.51099999109E-03 0.  1.
       11   -1    0    0    0    0 -0.00000000000E+00 -0.00000000000E+00 -0.35740347158E-01  0.35744000000E-01  0.51099999109E-03 0. -1.
       22    1    1    2    0    0 -0.32904222629E-01  0.13922809282E-01  0.77530622163E-03  0.35737005818E-01  0.00000000000E+00 0.  1.
  9000001    1    1    2    0    0  0.32904222629E-01 -0.13922809282E-01 -0.77530622163E-03  0.35750994182E-01  0.10000000475E-02 0. -1.
</event>
<event>
 4   0  0.5803570E-01  0.9118800E+02  0.7818609E-02  0.1379984E+01
      -11   -1    0    0    0    0  0.00000000000E+00  0.00000000000E+00  0.35740347158E-01  0.35744000000E-01  0.51099999109E-03 0.  1.
       11   -1    0    0    0    0 -0.00000000000E+00 -0.00000000000E+00 -0.35740347158E-01  0.35744000000E-01  0.51099999109E-03 0. -1.
       22    1    1    2    0    0 -0.17902628393E-01 -0.46745710242E-02 -0.30574137228E-01  0.35737005818E-01  0.00000000000E+00 0. -1.
  9000001    1    1    2    0    0  0.17902628393E-01  0.46745710242E-02  0.30574137228E-01  0.35750994182E-01  0.10000000475E-02 0.  1.
</event>
<event>
 4   0  0.5803570E-01  0.9118800E+02  0.7818609E-02  0.1379984E+01
      -11   -1    0    0    0    0  0.00000000000E+00  0.00000000000E+00  0.35740347158E-01  0.35744000000E-01  0.51099999109E-03 0. -1.
       11   -1    0    0    0    0 -0.00000000000E+00 -0.00000000000E+00 -0.35740347158E-01  0.35744000000E-01  0.51099999109E-03 0.  1.
       22    1    1    2    0    0  0.83312325073E-02 -0.16896097934E-02  0.34711228277E-01  0.35737005818E-01  0.00000000000E+00 0. -1.
  9000001    1    1    2    0    0 -0.83312325073E-02  0.16896097934E-02 -0.34711228277E-01  0.35750994182E-01  0.10000000475E-02 0.  1.
</event>
<event>
 4   0  0.5803570E-01  0.9118800E+02  0.7818609E-02  0.1379984E+01
      -11   -1    0    0    0    0  0.00000000000E+00  0.00000000000E+00  0.35740347158E-01  0.35744000000E-01  0.51099999109E-03 0. -1.
       11   -1    0    0    0    0 -0.00000000000E+00 -0.00000000000E+00 -0.35740347158E-01  0.35744000000E-01  0.51099999109E-03 0.  1.
       22    1    1    2    0    0  0.18249627746E-02 -0.62122719355E-02 -0.35145565483E-01  0.35737005818E-01  0.00000000000E+00 0.  1.
  9000001    1    1    2    0    0 -0.18249627746E-02  0.62122719355E-02  0.35145565483E-01  0.35750994182E-01  0.10000000475E-02 0. -1.
</event>
<event>
 4   0  0.5803570E-01  0.9118800E+02  0.7818609E-02  0.1379984E+01
      -11   -1    0    0    0    0  0.00000000000E+00  0.00000000000E+00  0.35740347158E-01  0.35744000000E-01  0.51099999109E-03 0. -1.
       11   -1    0    0    0    0 -0.00000000000E+00 -0.00000000000E+00 -0.35740347158E-01  0.35744000000E-01  0.51099999109E-03 0.  1.
       22    1    1    2    0    0  0.88289890845E-02 -0.15683361218E-01 -0.30874175576E-01  0.35737005818E-01  0.00000000000E+00 0.  1.
  9000001    1    1    2    0    0 -0.88289890845E-02  0.15683361218E-01  0.30874175576E-01  0.35750994182E-01  0.10000000475E-02 0. -1.
</event>
<event>
 4   0  0.5803570E-01  0.9118800E+02  0.7818609E-02  0.1379984E+01
      -11   -1    0    0    0    0  0.00000000000E+00  0.00000000000E+00  0.35740347158E-01  0.35744000000E-01  0.51099999109E-03 0. -1.
       11   -1    0    0    0    0 -0.00000000000E+00 -0.00000000000E+00 -0.35740347158E-01  0.35744000000E-01  0.51099999109E-03 0.  1.
       22    1    1    2    0    0 -0.14309687588E-01  0.19092929536E-01 -0.26605008321E-01  0.35737005818E-01  0.00000000000E+00 0.  1.
  9000001    1    1    2    0    0  0.14309687588E-01 -0.19092929536E-01  0.26605008321E-01  0.35750994182E-01  0.10000000475E-02 0. -1.
</event>
<event>
 4   0  0.5803570E-01  0.9118800E+02  0.7818609E-02  0.1379984E+01
      -11   -1    0    0    0    0  0.00000000000E+00  0.00000000000E+00  0.35740347158E-01  0.35744000000E-01  0.51099999109E-03 0.  1.
       11   -1    0    0    0    0 -0.00000000000E+00 -0.00000000000E+00 -0.35740347158E-01  0.35744000000E-01  0.51099999109E-03 0. -1.
       22    1    1    2    0    0  0.15523534916E-02 -0.27842062173E-01 -0.22350466606E-01  0.35737005818E-01  0.00000000000E+00 0. -1.
  9000001    1    1    2    0    0 -0.15523534916E-02  0.27842062173E-01  0.22350466606E-01  0.35750994182E-01  0.10000000475E-02 0.  1.
</event>
<event>
 4   0  0.5803570E-01  0.9118800E+02  0.7818609E-02  0.1379984E+01
      -11   -1    0    0    0    0  0.00000000000E+00  0.00000000000E+00  0.35740347158E-01  0.35744000000E-01  0.51099999109E-03 0.  1.
       11   -1    0    0    0    0 -0.00000000000E+00 -0.00000000000E+00 -0.35740347158E-01  0.35744000000E-01  0.51099999109E-03 0. -1.
       22    1    1    2    0    0  0.35927907509E-02 -0.55000225203E-02  0.35127983030E-01  0.35737005818E-01  0.00000000000E+00 0.  1.
  9000001    1    1    2    0    0 -0.35927907509E-02  0.55000225203E-02 -0.35127983030E-01  0.35750994182E-01  0.10000000475E-02 0. -1.
</event>
<event>
 4   0  0.5803570E-01  0.9118800E+02  0.7818609E-02  0.1379984E+01
      -11   -1    0    0    0    0  0.00000000000E+00  0.00000000000E+00  0.35740347158E-01  0.35744000000E-01  0.51099999109E-03 0.  1.
       11   -1    0    0    0    0 -0.00000000000E+00 -0.00000000000E+00 -0.35740347158E-01  0.35744000000E-01  0.51099999109E-03 0. -1.
       22    1    1    2    0    0  0.87248615157E-02 -0.26788877862E-02  0.34551902070E-01  0.35737005818E-01  0.00000000000E+00 0.  1.
  9000001    1    1    2    0    0 -0.87248615157E-02  0.26788877862E-02 -0.34551902070E-01  0.35750994182E-01  0.10000000475E-02 0. -1.
</event>
<event>
 4   0  0.5803570E-01  0.9118800E+02  0.7818609E-02  0.1379984E+01
      -11   -1    0    0    0    0  0.00000000000E+00  0.00000000000E+00  0.35740347158E-01  0.35744000000E-01  0.51099999109E-03 0. -1.
       11   -1    0    0    0    0 -0.00000000000E+00 -0.00000000000E+00 -0.35740347158E-01  0.35744000000E-01  0.51099999109E-03 0.  1.
       22    1    1    2    0    0 -0.14964339163E-02 -0.56463161064E-02  0.35256394949E-01  0.35737005818E-01  0.00000000000E+00 0. -1.
  9000001    1    1    2    0    0  0.14964339163E-02  0.56463161064E-02 -0.35256394949E-01  0.35750994182E-01  0.10000000475E-02 0.  1.
</event>
<event>
 4   0  0.5803570E-01  0.9118800E+02  0.7818609E-02  0.1379984E+01
      -11   -1    0    0    0    0  0.00000000000E+00  0.00000000000E+00  0.35740347158E-01  0.35744000000E-01  0.51099999109E-03 0.  1.
       11   -1    0    0    0    0 -0.00000000000E+00 -0.00000000000E+00 -0.35740347158E-01  0.35744000000E-01  0.51099999109E-03 0. -1.
       22    1    1    2    0    0  0.53696448474E-02  0.25416643594E-01 -0.24541693656E-01  0.35737005818E-01  0.00000000000E+00 0. -1.
  9000001    1    1    2    0    0 -0.53696448474E-02 -0.25416643594E-01  0.24541693656E-01  0.35750994182E-01  0.10000000475E-02 0.  1.
</event>
<event>
 4   0  0.5803570E-01  0.9118800E+02  0.7818609E-02  0.1379984E+01
      -11   -1    0    0    0    0  0.00000000000E+00  0.00000000000E+00  0.35740347158E-01  0.35744000000E-01  0.51099999109E-03 0.  1.
       11   -1    0    0    0    0 -0.00000000000E+00 -0.00000000000E+00 -0.35740347158E-01  0.35744000000E-01  0.51099999109E-03 0. -1.
       22    1    1    2    0    0  0.25837417984E-01 -0.92597666810E-02 -0.22887073596E-01  0.35737005818E-01  0.00000000000E+00 0. -1.
  9000001    1    1    2    0    0 -0.25837417984E-01  0.92597666810E-02  0.22887073596E-01  0.35750994182E-01  0.10000000475E-02 0.  1.
</event>
<event>
 4   0  0.5803570E-01  0.9118800E+02  0.7818609E-02  0.1379984E+01
      -11   -1    0    0    0    0  0.00000000000E+00  0.00000000000E+00  0.35740347158E-01  0.35744000000E-01  0.51099999109E-03 0. -1.
       11   -1    0    0    0    0 -0.00000000000E+00 -0.00000000000E+00 -0.35740347158E-01  0.35744000000E-01  0.51099999109E-03 0.  1.
       22    1    1    2    0    0  0.44786690735E-02  0.63267119404E-03  0.35449609805E-01  0.35737005818E-01  0.00000000000E+00 0. -1.
  9000001    1    1    2    0    0 -0.44786690735E-02 -0.63267119404E-03 -0.35449609805E-01  0.35750994182E-01  0.10000000475E-02 0.  1.
</event>
<event>
 4   0  0.5803570E-01  0.9118800E+02  0.7818609E-02  0.1379984E+01
      -11   -1    0    0    0    0  0.00000000000E+00  0.00000000000E+00  0.35740347158E-01  0.35744000000E-01  0.51099999109E-03 0. -1.
       11   -1    0    0    0    0 -0.00000000000E+00 -0.00000000000E+00 -0.35740347158E-01  0.35744000000E-01  0.51099999109E-03 0.  1.
       22    1    1    2    0    0 -0.21480284040E-01 -0.16789028918E-02  0.28511616361E-01  0.35737005818E-01  0.00000000000E+00 0. -1.
  9000001    1    1    2    0    0  0.21480284040E-01  0.16789028918E-02 -0.28511616361E-01  0.35750994182E-01  0.10000000475E-02 0.  1.
</event>
<event>
 4   0  0.5803570E-01  0.9118800E+02  0.7818609E-02  0.1379984E+01
      -11   -1    0    0    0    0  0.00000000000E+00  0.00000000000E+00  0.35740347158E-01  0.35744000000E-01  0.51099999109E-03 0. -1.
       11   -1    0    0    0    0 -0.00000000000E+00 -0.00000000000E+00 -0.35740347158E-01  0.35744000000E-01  0.51099999109E-03 0.  1.
       22    1    1    2    0    0  0.35828876844E-02 -0.18464091099E-02 -0.35508974557E-01  0.35737005818E-01  0.00000000000E+00 0.  1.
  9000001    1    1    2    0    0 -0.35828876844E-02  0.18464091099E-02  0.35508974557E-01  0.35750994182E-01  0.10000000475E-02 0. -1.
</event>
<event>
 4   0  0.5803570E-01  0.9118800E+02  0.7818609E-02  0.1379984E+01
      -11   -1    0    0    0    0  0.00000000000E+00  0.00000000000E+00  0.35740347158E-01  0.35744000000E-01  0.51099999109E-03 0. -1.
       11   -1    0    0    0    0 -0.00000000000E+00 -0.00000000000E+00 -0.35740347158E-01  0.35744000000E-01  0.51099999109E-03 0.  1.
       22    1    1    2    0    0  0.59370899955E-02  0.16146593007E-01  0.31323666476E-01  0.35737005818E-01  0.00000000000E+00 0. -1.
  9000001    1    1    2    0    0 -0.59370899955E-02 -0.16146593007E-01 -0.31323666476E-01  0.35750994182E-01  0.10000000475E-02 0.  1.
</event>
<event>
 4   0  0.6189174E-01  0.9118800E+02  0.7818609E-02  0.1379984E+01
      -11   -1    0    0    0    0  0.00000000000E+00  0.00000000000E+00  0.35740347158E-01  0.35744000000E-01  0.51099999109E-03 0. -1.
       11   -1    0    0    0    0 -0.00000000000E+00 -0.00000000000E+00 -0.35740347158E-01  0.35744000000E-01  0.51099999109E-03 0.  1.
       22    1    1    2    0    0  0.13644072454E-02  0.31958628669E-02 -0.35567660006E-01  0.35737005818E-01  0.00000000000E+00 0.  1.
  9000001    1    1    2    0    0 -0.13644072454E-02 -0.31958628669E-02  0.35567660006E-01  0.35750994182E-01  0.10000000475E-02 0. -1.
</event>
<event>
 4   0  0.5803570E-01  0.9118800E+02  0.7818609E-02  0.1379984E+01
      -11   -1    0    0    0    0  0.00000000000E+00  0.00000000000E+00  0.35740347158E-01  0.35744000000E-01  0.51099999109E-03 0.  1.
       11   -1    0    0    0    0 -0.00000000000E+00 -0.00000000000E+00 -0.35740347158E-01  0.35744000000E-01  0.51099999109E-03 0. -1.
       22    1    1    2    0    0  0.40103110594E-02  0.35637289012E-03  0.35509491526E-01  0.35737005818E-01  0.00000000000E+00 0.  1.
  9000001    1    1    2    0    0 -0.40103110594E-02 -0.35637289012E-03 -0.35509491526E-01  0.35750994182E-01  0.10000000475E-02 0. -1.
</event>
<event>
 4   0  0.5803570E-01  0.9118800E+02  0.7818609E-02  0.1379984E+01
      -11   -1    0    0    0    0  0.00000000000E+00  0.00000000000E+00  0.35740347158E-01  0.35744000000E-01  0.51099999109E-03 0. -1.
       11   -1    0    0    0    0 -0.00000000000E+00 -0.00000000000E+00 -0.35740347158E-01  0.35744000000E-01  0.51099999109E-03 0.  1.
       22    1    1    2    0    0  0.63670672144E-02  0.10889866660E-01  0.33436579431E-01  0.35737005818E-01  0.00000000000E+00 0. -1.
  9000001    1    1    2    0    0 -0.63670672144E-02 -0.10889866660E-01 -0.33436579431E-01  0.35750994182E-01  0.10000000475E-02 0.  1.
</event>
<event>
 4   0  0.5803570E-01  0.9118800E+02  0.7818609E-02  0.1379984E+01
      -11   -1    0    0    0    0  0.00000000000E+00  0.00000000000E+00  0.35740347158E-01  0.35744000000E-01  0.51099999109E-03 0.  1.
       11   -1    0    0    0    0 -0.00000000000E+00 -0.00000000000E+00 -0.35740347158E-01  0.35744000000E-01  0.51099999109E-03 0. -1.
       22    1    1    2    0    0  0.12331307998E-01 -0.67246292580E-02  0.32861098418E-01  0.35737005818E-01  0.00000000000E+00 0.  1.
  9000001    1    1    2    0    0 -0.12331307998E-01  0.67246292580E-02 -0.32861098418E-01  0.35750994182E-01  0.10000000475E-02 0. -1.
</event>
<event>
 4   0  0.5803570E-01  0.9118800E+02  0.7818609E-02  0.1379984E+01
      -11   -1    0    0    0    0  0.00000000000E+00  0.00000000000E+00  0.35740347158E-01  0.35744000000E-01  0.51099999109E-03 0.  1.
       11   -1    0    0    0    0 -0.00000000000E+00 -0.00000000000E+00 -0.35740347158E-01  0.35744000000E-01  0.51099999109E-03 0. -1.
       22    1    1    2    0    0  0.39326242074E-02  0.19373915227E-02  0.35467091307E-01  0.35737005818E-01  0.00000000000E+00 0.  1.
  9000001    1    1    2    0    0 -0.39326242074E-02 -0.19373915227E-02 -0.35467091307E-01  0.35750994182E-01  0.10000000475E-02 0. -1.
</event>
<event>
 4   0  0.5803570E-01  0.9118800E+02  0.7818609E-02  0.1379984E+01
      -11   -1    0    0    0    0  0.00000000000E+00  0.00000000000E+00  0.35740347158E-01  0.35744000000E-01  0.51099999109E-03 0. -1.
       11   -1    0    0    0    0 -0.00000000000E+00 -0.00000000000E+00 -0.35740347158E-01  0.35744000000E-01  0.51099999109E-03 0.  1.
       22    1    1    2    0    0 -0.96451448191E-02 -0.91286970783E-02  0.33177879015E-01  0.35737005818E-01  0.00000000000E+00 0. -1.
  9000001    1    1    2    0    0  0.96451448191E-02  0.91286970783E-02 -0.33177879015E-01  0.35750994182E-01  0.10000000475E-02 0.  1.
</event>
<event>
 4   0  0.5803570E-01  0.9118800E+02  0.7818609E-02  0.1379984E+01
      -11   -1    0    0    0    0  0.00000000000E+00  0.00000000000E+00  0.35740347158E-01  0.35744000000E-01  0.51099999109E-03 0.  1.
       11   -1    0    0    0    0 -0.00000000000E+00 -0.00000000000E+00 -0.35740347158E-01  0.35744000000E-01  0.51099999109E-03 0. -1.
       22    1    1    2    0    0  0.73089541968E-02 -0.37409945306E-02 -0.34780996727E-01  0.35737005818E-01  0.00000000000E+00 0. -1.
  9000001    1    1    2    0    0 -0.73089541968E-02  0.37409945306E-02  0.34780996727E-01  0.35750994182E-01  0.10000000475E-02 0.  1.
</event>
<event>
 4   0  0.5803570E-01  0.9118800E+02  0.7818609E-02  0.1379984E+01
      -11   -1    0    0    0    0  0.00000000000E+00  0.00000000000E+00  0.35740347158E-01  0.35744000000E-01  0.51099999109E-03 0. -1.
       11   -1    0    0    0    0 -0.00000000000E+00 -0.00000000000E+00 -0.35740347158E-01  0.35744000000E-01  0.51099999109E-03 0.  1.
       22    1    1    2    0    0  0.70508782091E-02 -0.21716791738E-03  0.35033862754E-01  0.35737005818E-01  0.00000000000E+00 0. -1.
  9000001    1    1    2    0    0 -0.70508782091E-02  0.21716791738E-03 -0.35033862754E-01  0.35750994182E-01  0.10000000475E-02 0.  1.
</event>
<event>
 4   0  0.5803570E-01  0.9118800E+02  0.7818609E-02  0.1379984E+01
      -11   -1    0    0    0    0  0.00000000000E+00  0.00000000000E+00  0.35740347158E-01  0.35744000000E-01  0.51099999109E-03 0.  1.
       11   -1    0    0    0    0 -0.00000000000E+00 -0.00000000000E+00 -0.35740347158E-01  0.35744000000E-01  0.51099999109E-03 0. -1.
       22    1    1    2    0    0  0.15638047371E-01  0.26731157484E-01  0.17833403458E-01  0.35737005818E-01  0.00000000000E+00 0. -1.
  9000001    1    1    2    0    0 -0.15638047371E-01 -0.26731157484E-01 -0.17833403458E-01  0.35750994182E-01  0.10000000475E-02 0.  1.
</event>
<event>
 4   0  0.5803570E-01  0.9118800E+02  0.7818609E-02  0.1379984E+01
      -11   -1    0    0    0    0  0.00000000000E+00  0.00000000000E+00  0.35740347158E-01  0.35744000000E-01  0.51099999109E-03 0.  1.
       11   -1    0    0    0    0 -0.00000000000E+00 -0.00000000000E+00 -0.35740347158E-01  0.35744000000E-01  0.51099999109E-03 0. -1.
       22    1    1    2    0    0 -0.46582938268E-02 -0.45108972027E-02 -0.35143785936E-01  0.35737005818E-01  0.00000000000E+00 0. -1.
  9000001    1    1    2    0    0  0.46582938268E-02  0.45108972027E-02  0.35143785936E-01  0.35750994182E-01  0.10000000475E-02 0.  1.
</event>
<event>
 4   0  0.5803570E-01  0.9118800E+02  0.7818609E-02  0.1379984E+01
      -11   -1    0    0    0    0  0.00000000000E+00  0.00000000000E+00  0.35740347158E-01  0.35744000000E-01  0.51099999109E-03 0.  1.
       11   -1    0    0    0    0 -0.00000000000E+00 -0.00000000000E+00 -0.35740347158E-01  0.35744000000E-01  0.51099999109E-03 0. -1.
       22    1    1    2    0    0  0.53964791815E-02  0.88588689418E-03 -0.35316098337E-01  0.35737005818E-01  0.00000000000E+00 0. -1.
  9000001    1    1    2    0    0 -0.53964791815E-02 -0.88588689418E-03  0.35316098337E-01  0.35750994182E-01  0.10000000475E-02 0.  1.
</event>
<event>
 4   0  0.5803570E-01  0.9118800E+02  0.7818609E-02  0.1379984E+01
      -11   -1    0    0    0    0  0.00000000000E+00  0.00000000000E+00  0.35740347158E-01  0.35744000000E-01  0.51099999109E-03 0.  1.
       11   -1    0    0    0    0 -0.00000000000E+00 -0.00000000000E+00 -0.35740347158E-01  0.35744000000E-01  0.51099999109E-03 0. -1.
       22    1    1    2    0    0  0.57276578633E-02  0.92953390445E-02 -0.34028285180E-01  0.35737005818E-01  0.00000000000E+00 0. -1.
  9000001    1    1    2    0    0 -0.57276578633E-02 -0.92953390445E-02  0.34028285180E-01  0.35750994182E-01  0.10000000475E-02 0.  1.
</event>
<event>
 4   0  0.5803570E-01  0.9118800E+02  0.7818609E-02  0.1379984E+01
      -11   -1    0    0    0    0  0.00000000000E+00  0.00000000000E+00  0.35740347158E-01  0.35744000000E-01  0.51099999109E-03 0. -1.
       11   -1    0    0    0    0 -0.00000000000E+00 -0.00000000000E+00 -0.35740347158E-01  0.35744000000E-01  0.51099999109E-03 0.  1.
       22    1    1    2    0    0 -0.25887777867E-02 -0.56766192250E-02  0.35188177114E-01  0.35737005818E-01  0.00000000000E+00 0. -1.
  9000001    1    1    2    0    0  0.25887777867E-02  0.56766192250E-02 -0.35188177114E-01  0.35750994182E-01  0.10000000475E-02 0.  1.
</event>
<event>
 4   0  0.5803570E-01  0.9118800E+02  0.7818609E-02  0.1379984E+01
      -11   -1    0    0    0    0  0.00000000000E+00  0.00000000000E+00  0.35740347158E-01  0.35744000000E-01  0.51099999109E-03 0.  1.
       11   -1    0    0    0    0 -0.00000000000E+00 -0.00000000000E+00 -0.35740347158E-01  0.35744000000E-01  0.51099999109E-03 0. -1.
       22    1    1    2    0    0 -0.43471702833E-02  0.89370268826E-02 -0.34327325062E-01  0.35737005818E-01  0.00000000000E+00 0. -1.
  9000001    1    1    2    0    0  0.43471702833E-02 -0.89370268826E-02  0.34327325062E-01  0.35750994182E-01  0.10000000475E-02 0.  1.
</event>
<event>
 4   0  0.5803570E-01  0.9118800E+02  0.7818609E-02  0.1379984E+01
      -11   -1    0    0    0    0  0.00000000000E+00  0.00000000000E+00  0.35740347158E-01  0.35744000000E-01  0.51099999109E-03 0.  1.
       11   -1    0    0    0    0 -0.00000000000E+00 -0.00000000000E+00 -0.35740347158E-01  0.35744000000E-01  0.51099999109E-03 0. -1.
       22    1    1    2    0    0 -0.44330615183E-02 -0.12909095040E-01  0.33027818815E-01  0.35737005818E-01  0.00000000000E+00 0.  1.
  9000001    1    1    2    0    0  0.44330615183E-02  0.12909095040E-01 -0.33027818815E-01  0.35750994182E-01  0.10000000475E-02 0. -1.
</event>
<event>
 4   0  0.5803570E-01  0.9118800E+02  0.7818609E-02  0.1379984E+01
      -11   -1    0    0    0    0  0.00000000000E+00  0.00000000000E+00  0.35740347158E-01  0.35744000000E-01  0.51099999109E-03 0.  1.
       11   -1    0    0    0    0 -0.00000000000E+00 -0.00000000000E+00 -0.35740347158E-01  0.35744000000E-01  0.51099999109E-03 0. -1.
       22    1    1    2    0    0  0.34115655150E-03 -0.46141639255E-02  0.35436234116E-01  0.35737005818E-01  0.00000000000E+00 0.  1.
  9000001    1    1    2    0    0 -0.34115655150E-03  0.46141639255E-02 -0.35436234116E-01  0.35750994182E-01  0.10000000475E-02 0. -1.
</event>
<event>
 4   0  0.5803570E-01  0.9118800E+02  0.7818609E-02  0.1379984E+01
      -11   -1    0    0    0    0  0.00000000000E+00  0.00000000000E+00  0.35740347158E-01  0.35744000000E-01  0.51099999109E-03 0.  1.
       11   -1    0    0    0    0 -0.00000000000E+00 -0.00000000000E+00 -0.35740347158E-01  0.35744000000E-01  0.51099999109E-03 0. -1.
       22    1    1    2    0    0 -0.14288946836E-01 -0.31456582506E-01  0.91347140205E-02  0.35737005818E-01  0.00000000000E+00 0.  1.
  9000001    1    1    2    0    0  0.14288946836E-01  0.31456582506E-01 -0.91347140205E-02  0.35750994182E-01  0.10000000475E-02 0. -1.
</event>
<event>
 4   0  0.5803570E-01  0.9118800E+02  0.7818609E-02  0.1379984E+01
      -11   -1    0    0    0    0  0.00000000000E+00  0.00000000000E+00  0.35740347158E-01  0.35744000000E-01  0.51099999109E-03 0. -1.
       11   -1    0    0    0    0 -0.00000000000E+00 -0.00000000000E+00 -0.35740347158E-01  0.35744000000E-01  0.51099999109E-03 0.  1.
       22    1    1    2    0    0  0.11582642344E-01  0.41408570684E-02  0.33553379620E-01  0.35737005818E-01  0.00000000000E+00 0. -1.
  9000001    1    1    2    0    0 -0.11582642344E-01 -0.41408570684E-02 -0.33553379620E-01  0.35750994182E-01  0.10000000475E-02 0.  1.
</event>
<event>
 4   0  0.5803570E-01  0.9118800E+02  0.7818609E-02  0.1379984E+01
      -11   -1    0    0    0    0  0.00000000000E+00  0.00000000000E+00  0.35740347158E-01  0.35744000000E-01  0.51099999109E-03 0.  1.
       11   -1    0    0    0    0 -0.00000000000E+00 -0.00000000000E+00 -0.35740347158E-01  0.35744000000E-01  0.51099999109E-03 0. -1.
       22    1    1    2    0    0 -0.63514699628E-02  0.12503082253E-01  0.32870432737E-01  0.35737005818E-01  0.00000000000E+00 0.  1.
  9000001    1    1    2    0    0  0.63514699628E-02 -0.12503082253E-01 -0.32870432737E-01  0.35750994182E-01  0.10000000475E-02 0. -1.
</event>
<event>
 4   0  0.5803570E-01  0.9118800E+02  0.7818609E-02  0.1379984E+01
      -11   -1    0    0    0    0  0.00000000000E+00  0.00000000000E+00  0.35740347158E-01  0.35744000000E-01  0.51099999109E-03 0. -1.
       11   -1    0    0    0    0 -0.00000000000E+00 -0.00000000000E+00 -0.35740347158E-01  0.35744000000E-01  0.51099999109E-03 0.  1.
       22    1    1    2    0    0 -0.34554241399E-02 -0.36398646143E-02 -0.35382835026E-01  0.35737005818E-01  0.00000000000E+00 0.  1.
  9000001    1    1    2    0    0  0.34554241399E-02  0.36398646143E-02  0.35382835026E-01  0.35750994182E-01  0.10000000475E-02 0. -1.
</event>
<event>
 4   0  0.5803570E-01  0.9118800E+02  0.7818609E-02  0.1379984E+01
      -11   -1    0    0    0    0  0.00000000000E+00  0.00000000000E+00  0.35740347158E-01  0.35744000000E-01  0.51099999109E-03 0. -1.
       11   -1    0    0    0    0 -0.00000000000E+00 -0.00000000000E+00 -0.35740347158E-01  0.35744000000E-01  0.51099999109E-03 0.  1.
       22    1    1    2    0    0 -0.83400057249E-02 -0.16211632567E-01 -0.30736962422E-01  0.35737005818E-01  0.00000000000E+00 0.  1.
  9000001    1    1    2    0    0  0.83400057249E-02  0.16211632567E-01  0.30736962422E-01  0.35750994182E-01  0.10000000475E-02 0. -1.
</event>
<event>
 4   0  0.5803570E-01  0.9118800E+02  0.7818609E-02  0.1379984E+01
      -11   -1    0    0    0    0  0.00000000000E+00  0.00000000000E+00  0.35740347158E-01  0.35744000000E-01  0.51099999109E-03 0. -1.
       11   -1    0    0    0    0 -0.00000000000E+00 -0.00000000000E+00 -0.35740347158E-01  0.35744000000E-01  0.51099999109E-03 0.  1.
       22    1    1    2    0    0 -0.82144985705E-02  0.49100398331E-02 -0.34431774670E-01  0.35737005818E-01  0.00000000000E+00 0.  1.
  9000001    1    1    2    0    0  0.82144985705E-02 -0.49100398331E-02  0.34431774670E-01  0.35750994182E-01  0.10000000475E-02 0. -1.
</event>
<event>
 4   0  0.5803570E-01  0.9118800E+02  0.7818609E-02  0.1379984E+01
      -11   -1    0    0    0    0  0.00000000000E+00  0.00000000000E+00  0.35740347158E-01  0.35744000000E-01  0.51099999109E-03 0. -1.
       11   -1    0    0    0    0 -0.00000000000E+00 -0.00000000000E+00 -0.35740347158E-01  0.35744000000E-01  0.51099999109E-03 0.  1.
       22    1    1    2    0    0 -0.98023771516E-02  0.40134477254E-02 -0.34131206020E-01  0.35737005818E-01  0.00000000000E+00 0.  1.
  9000001    1    1    2    0    0  0.98023771516E-02 -0.40134477254E-02  0.34131206020E-01  0.35750994182E-01  0.10000000475E-02 0. -1.
</event>
<event>
 4   0  0.5803570E-01  0.9118800E+02  0.7818609E-02  0.1379984E+01
      -11   -1    0    0    0    0  0.00000000000E+00  0.00000000000E+00  0.35740347158E-01  0.35744000000E-01  0.51099999109E-03 0. -1.
       11   -1    0    0    0    0 -0.00000000000E+00 -0.00000000000E+00 -0.35740347158E-01  0.35744000000E-01  0.51099999109E-03 0.  1.
       22    1    1    2    0    0  0.86822214983E-03  0.12546791973E-01 -0.33450826393E-01  0.35737005818E-01  0.00000000000E+00 0.  1.
  9000001    1    1    2    0    0 -0.86822214983E-03 -0.12546791973E-01  0.33450826393E-01  0.35750994182E-01  0.10000000475E-02 0. -1.
</event>
<event>
 4   0  0.5803570E-01  0.9118800E+02  0.7818609E-02  0.1379984E+01
      -11   -1    0    0    0    0  0.00000000000E+00  0.00000000000E+00  0.35740347158E-01  0.35744000000E-01  0.51099999109E-03 0. -1.
       11   -1    0    0    0    0 -0.00000000000E+00 -0.00000000000E+00 -0.35740347158E-01  0.35744000000E-01  0.51099999109E-03 0.  1.
       22    1    1    2    0    0  0.80520935631E-03  0.45389544309E-02  0.35438441211E-01  0.35737005818E-01  0.00000000000E+00 0. -1.
  9000001    1    1    2    0    0 -0.80520935631E-03 -0.45389544309E-02 -0.35438441211E-01  0.35750994182E-01  0.10000000475E-02 0.  1.
</event>
<event>
 4   0  0.5803570E-01  0.9118800E+02  0.7818609E-02  0.1379984E+01
      -11   -1    0    0    0    0  0.00000000000E+00  0.00000000000E+00  0.35740347158E-01  0.35744000000E-01  0.51099999109E-03 0. -1.
       11   -1    0    0    0    0 -0.00000000000E+00 -0.00000000000E+00 -0.35740347158E-01  0.35744000000E-01  0.51099999109E-03 0.  1.
       22    1    1    2    0    0 -0.20534429987E-02  0.10924933029E-01  0.33964139839E-01  0.35737005818E-01  0.00000000000E+00 0. -1.
  9000001    1    1    2    0    0  0.20534429987E-02 -0.10924933029E-01 -0.33964139839E-01  0.35750994182E-01  0.10000000475E-02 0.  1.
</event>
<event>
 4   0  0.5803570E-01  0.9118800E+02  0.7818609E-02  0.1379984E+01
      -11   -1    0    0    0    0  0.00000000000E+00  0.00000000000E+00  0.35740347158E-01  0.35744000000E-01  0.51099999109E-03 0. -1.
       11   -1    0    0    0    0 -0.00000000000E+00 -0.00000000000E+00 -0.35740347158E-01  0.35744000000E-01  0.51099999109E-03 0.  1.
       22    1    1    2    0    0 -0.14596826756E-01  0.28183978748E-01 -0.16423445907E-01  0.35737005818E-01  0.00000000000E+00 0.  1.
  9000001    1    1    2    0    0  0.14596826756E-01 -0.28183978748E-01  0.16423445907E-01  0.35750994182E-01  0.10000000475E-02 0. -1.
</event>
<event>
 4   0  0.5803570E-01  0.9118800E+02  0.7818609E-02  0.1379984E+01
      -11   -1    0    0    0    0  0.00000000000E+00  0.00000000000E+00  0.35740347158E-01  0.35744000000E-01  0.51099999109E-03 0. -1.
       11   -1    0    0    0    0 -0.00000000000E+00 -0.00000000000E+00 -0.35740347158E-01  0.35744000000E-01  0.51099999109E-03 0.  1.
       22    1    1    2    0    0 -0.74330518749E-02 -0.16777018584E-01 -0.30666186136E-01  0.35737005818E-01  0.00000000000E+00 0.  1.
  9000001    1    1    2    0    0  0.74330518749E-02  0.16777018584E-01  0.30666186136E-01  0.35750994182E-01  0.10000000475E-02 0. -1.
</event>
<event>
 4   0  0.5803570E-01  0.9118800E+02  0.7818609E-02  0.1379984E+01
      -11   -1    0    0    0    0  0.00000000000E+00  0.00000000000E+00  0.35740347158E-01  0.35744000000E-01  0.51099999109E-03 0.  1.
       11   -1    0    0    0    0 -0.00000000000E+00 -0.00000000000E+00 -0.35740347158E-01  0.35744000000E-01  0.51099999109E-03 0. -1.
       22    1    1    2    0    0  0.46907331685E-03  0.45487851585E-02 -0.35443223734E-01  0.35737005818E-01  0.00000000000E+00 0. -1.
  9000001    1    1    2    0    0 -0.46907331685E-03 -0.45487851585E-02  0.35443223734E-01  0.35750994182E-01  0.10000000475E-02 0.  1.
</event>
<event>
 4   0  0.5803570E-01  0.9118800E+02  0.7818609E-02  0.1379984E+01
      -11   -1    0    0    0    0  0.00000000000E+00  0.00000000000E+00  0.35740347158E-01  0.35744000000E-01  0.51099999109E-03 0.  1.
       11   -1    0    0    0    0 -0.00000000000E+00 -0.00000000000E+00 -0.35740347158E-01  0.35744000000E-01  0.51099999109E-03 0. -1.
       22    1    1    2    0    0 -0.86169794200E-02  0.22624107264E-02  0.34608709139E-01  0.35737005818E-01  0.00000000000E+00 0.  1.
  9000001    1    1    2    0    0  0.86169794200E-02 -0.22624107264E-02 -0.34608709139E-01  0.35750994182E-01  0.10000000475E-02 0. -1.
</event>
<event>
 4   0  0.5803570E-01  0.9118800E+02  0.7818609E-02  0.1379984E+01
      -11   -1    0    0    0    0  0.00000000000E+00  0.00000000000E+00  0.35740347158E-01  0.35744000000E-01  0.51099999109E-03 0. -1.
       11   -1    0    0    0    0 -0.00000000000E+00 -0.00000000000E+00 -0.35740347158E-01  0.35744000000E-01  0.51099999109E-03 0.  1.
       22    1    1    2    0    0 -0.67363275876E-02  0.83148502352E-03  0.35086523170E-01  0.35737005818E-01  0.00000000000E+00 0. -1.
  9000001    1    1    2    0    0  0.67363275876E-02 -0.83148502352E-03 -0.35086523170E-01  0.35750994182E-01  0.10000000475E-02 0.  1.
</event>
<event>
 4   0  0.5803570E-01  0.9118800E+02  0.7818609E-02  0.1379984E+01
      -11   -1    0    0    0    0  0.00000000000E+00  0.00000000000E+00  0.35740347158E-01  0.35744000000E-01  0.51099999109E-03 0.  1.
       11   -1    0    0    0    0 -0.00000000000E+00 -0.00000000000E+00 -0.35740347158E-01  0.35744000000E-01  0.51099999109E-03 0. -1.
       22    1    1    2    0    0 -0.22414304421E-02 -0.33735235007E-02 -0.35506744622E-01  0.35737005818E-01  0.00000000000E+00 0. -1.
  9000001    1    1    2    0    0  0.22414304421E-02  0.33735235007E-02  0.35506744622E-01  0.35750994182E-01  0.10000000475E-02 0.  1.
</event>
<event>
 4   0  0.5803570E-01  0.9118800E+02  0.7818609E-02  0.1379984E+01
      -11   -1    0    0    0    0  0.00000000000E+00  0.00000000000E+00  0.35740347158E-01  0.35744000000E-01  0.51099999109E-03 0. -1.
       11   -1    0    0    0    0 -0.00000000000E+00 -0.00000000000E+00 -0.35740347158E-01  0.35744000000E-01  0.51099999109E-03 0.  1.
       22    1    1    2    0    0 -0.14498693074E-02 -0.13084838313E-01  0.33223763637E-01  0.35737005818E-01  0.00000000000E+00 0. -1.
  9000001    1    1    2    0    0  0.14498693074E-02  0.13084838313E-01 -0.33223763637E-01  0.35750994182E-01  0.10000000475E-02 0.  1.
</event>
<event>
 4   0  0.5803570E-01  0.9118800E+02  0.7818609E-02  0.1379984E+01
      -11   -1    0    0    0    0  0.00000000000E+00  0.00000000000E+00  0.35740347158E-01  0.35744000000E-01  0.51099999109E-03 0. -1.
       11   -1    0    0    0    0 -0.00000000000E+00 -0.00000000000E+00 -0.35740347158E-01  0.35744000000E-01  0.51099999109E-03 0.  1.
       22    1    1    2    0    0  0.41087113509E-02 -0.14996827116E-02 -0.35468338383E-01  0.35737005818E-01  0.00000000000E+00 0.  1.
  9000001    1    1    2    0    0 -0.41087113509E-02  0.14996827116E-02  0.35468338383E-01  0.35750994182E-01  0.10000000475E-02 0. -1.
</event>
<event>
 4   0  0.5803570E-01  0.9118800E+02  0.7818609E-02  0.1379984E+01
      -11   -1    0    0    0    0  0.00000000000E+00  0.00000000000E+00  0.35740347158E-01  0.35744000000E-01  0.51099999109E-03 0. -1.
       11   -1    0    0    0    0 -0.00000000000E+00 -0.00000000000E+00 -0.35740347158E-01  0.35744000000E-01  0.51099999109E-03 0.  1.
       22    1    1    2    0    0  0.78199670524E-02  0.47719164193E-02 -0.34542879351E-01  0.35737005818E-01  0.00000000000E+00 0.  1.
  9000001    1    1    2    0    0 -0.78199670524E-02 -0.47719164193E-02  0.34542879351E-01  0.35750994182E-01  0.10000000475E-02 0. -1.
</event>
<event>
 4   0  0.5803570E-01  0.9118800E+02  0.7818609E-02  0.1379984E+01
      -11   -1    0    0    0    0  0.00000000000E+00  0.00000000000E+00  0.35740347158E-01  0.35744000000E-01  0.51099999109E-03 0.  1.
       11   -1    0    0    0    0 -0.00000000000E+00 -0.00000000000E+00 -0.35740347158E-01  0.35744000000E-01  0.51099999109E-03 0. -1.
       22    1    1    2    0    0  0.13666611244E-01  0.24426247974E-01 -0.22219714937E-01  0.35737005818E-01  0.00000000000E+00 0. -1.
  9000001    1    1    2    0    0 -0.13666611244E-01 -0.24426247974E-01  0.22219714937E-01  0.35750994182E-01  0.10000000475E-02 0.  1.
</event>
<event>
 4   0  0.5803570E-01  0.9118800E+02  0.7818609E-02  0.1379984E+01
      -11   -1    0    0    0    0  0.00000000000E+00  0.00000000000E+00  0.35740347158E-01  0.35744000000E-01  0.51099999109E-03 0. -1.
       11   -1    0    0    0    0 -0.00000000000E+00 -0.00000000000E+00 -0.35740347158E-01  0.35744000000E-01  0.51099999109E-03 0.  1.
       22    1    1    2    0    0 -0.51888148469E-02 -0.36138737096E-02 -0.35173138930E-01  0.35737005818E-01  0.00000000000E+00 0.  1.
  9000001    1    1    2    0    0  0.51888148469E-02  0.36138737096E-02  0.35173138930E-01  0.35750994182E-01  0.10000000475E-02 0. -1.
</event>
<event>
 4   0  0.5803570E-01  0.9118800E+02  0.7818609E-02  0.1379984E+01
      -11   -1    0    0    0    0  0.00000000000E+00  0.00000000000E+00  0.35740347158E-01  0.35744000000E-01  0.51099999109E-03 0.  1.
       11   -1    0    0    0    0 -0.00000000000E+00 -0.00000000000E+00 -0.35740347158E-01  0.35744000000E-01  0.51099999109E-03 0. -1.
       22    1    1    2    0    0  0.11423540472E-01  0.16309440616E-01  0.29675553149E-01  0.35737005818E-01  0.00000000000E+00 0.  1.
  9000001    1    1    2    0    0 -0.11423540472E-01 -0.16309440616E-01 -0.29675553149E-01  0.35750994182E-01  0.10000000475E-02 0. -1.
</event>
<event>
 4   0  0.5803570E-01  0.9118800E+02  0.7818609E-02  0.1379984E+01
      -11   -1    0    0    0    0  0.00000000000E+00  0.00000000000E+00  0.35740347158E-01  0.35744000000E-01  0.51099999109E-03 0. -1.
       11   -1    0    0    0    0 -0.00000000000E+00 -0.00000000000E+00 -0.35740347158E-01  0.35744000000E-01  0.51099999109E-03 0.  1.
       22    1    1    2    0    0 -0.24938613187E-02  0.66719558805E-02  0.35019983514E-01  0.35737005818E-01  0.00000000000E+00 0. -1.
  9000001    1    1    2    0    0  0.24938613187E-02 -0.66719558805E-02 -0.35019983514E-01  0.35750994182E-01  0.10000000475E-02 0.  1.
</event>
<event>
 4   0  0.5803570E-01  0.9118800E+02  0.7818609E-02  0.1379984E+01
      -11   -1    0    0    0    0  0.00000000000E+00  0.00000000000E+00  0.35740347158E-01  0.35744000000E-01  0.51099999109E-03 0. -1.
       11   -1    0    0    0    0 -0.00000000000E+00 -0.00000000000E+00 -0.35740347158E-01  0.35744000000E-01  0.51099999109E-03 0.  1.
       22    1    1    2    0    0 -0.79061034332E-02 -0.16071825020E-01 -0.30924481465E-01  0.35737005818E-01  0.00000000000E+00 0.  1.
  9000001    1    1    2    0    0  0.79061034332E-02  0.16071825020E-01  0.30924481465E-01  0.35750994182E-01  0.10000000475E-02 0. -1.
</event>
<event>
 4   0  0.5803570E-01  0.9118800E+02  0.7818609E-02  0.1379984E+01
      -11   -1    0    0    0    0  0.00000000000E+00  0.00000000000E+00  0.35740347158E-01  0.35744000000E-01  0.51099999109E-03 0. -1.
       11   -1    0    0    0    0 -0.00000000000E+00 -0.00000000000E+00 -0.35740347158E-01  0.35744000000E-01  0.51099999109E-03 0.  1.
       22    1    1    2    0    0  0.39332970622E-02 -0.89887680331E-03  0.35508517001E-01  0.35737005818E-01  0.00000000000E+00 0. -1.
  9000001    1    1    2    0    0 -0.39332970622E-02  0.89887680331E-03 -0.35508517001E-01  0.35750994182E-01  0.10000000475E-02 0.  1.
</event>
<event>
 4   0  0.6784112E-01  0.9118800E+02  0.7818609E-02  0.1379984E+01
      -11   -1    0    0    0    0  0.00000000000E+00  0.00000000000E+00  0.35740347158E-01  0.35744000000E-01  0.51099999109E-03 0.  1.
       11   -1    0    0    0    0 -0.00000000000E+00 -0.00000000000E+00 -0.35740347158E-01  0.35744000000E-01  0.51099999109E-03 0. -1.
       22    1    1    2    0    0 -0.44096769200E-03  0.32937012183E-02 -0.35582167790E-01  0.35737005818E-01  0.00000000000E+00 0. -1.
  9000001    1    1    2    0    0  0.44096769200E-03 -0.32937012183E-02  0.35582167790E-01  0.35750994182E-01  0.10000000475E-02 0.  1.
</event>
<event>
 4   0  0.5803570E-01  0.9118800E+02  0.7818609E-02  0.1379984E+01
      -11   -1    0    0    0    0  0.00000000000E+00  0.00000000000E+00  0.35740347158E-01  0.35744000000E-01  0.51099999109E-03 0.  1.
       11   -1    0    0    0    0 -0.00000000000E+00 -0.00000000000E+00 -0.35740347158E-01  0.35744000000E-01  0.51099999109E-03 0. -1.
       22    1    1    2    0    0  0.32171846287E-02  0.17541121033E-02 -0.35548648338E-01  0.35737005818E-01  0.00000000000E+00 0. -1.
  9000001    1    1    2    0    0 -0.32171846287E-02 -0.17541121033E-02  0.35548648338E-01  0.35750994182E-01  0.10000000475E-02 0.  1.
</event>
<event>
 4   0  0.5803570E-01  0.9118800E+02  0.7818609E-02  0.1379984E+01
      -11   -1    0    0    0    0  0.00000000000E+00  0.00000000000E+00  0.35740347158E-01  0.35744000000E-01  0.51099999109E-03 0. -1.
       11   -1    0    0    0    0 -0.00000000000E+00 -0.00000000000E+00 -0.35740347158E-01  0.35744000000E-01  0.51099999109E-03 0.  1.
       22    1    1    2    0    0 -0.11730093016E-02 -0.22958268518E-01  0.27361935982E-01  0.35737005818E-01  0.00000000000E+00 0. -1.
  9000001    1    1    2    0    0  0.11730093016E-02  0.22958268518E-01 -0.27361935982E-01  0.35750994182E-01  0.10000000475E-02 0.  1.
</event>
<event>
 4   0  0.5803570E-01  0.9118800E+02  0.7818609E-02  0.1379984E+01
      -11   -1    0    0    0    0  0.00000000000E+00  0.00000000000E+00  0.35740347158E-01  0.35744000000E-01  0.51099999109E-03 0.  1.
       11   -1    0    0    0    0 -0.00000000000E+00 -0.00000000000E+00 -0.35740347158E-01  0.35744000000E-01  0.51099999109E-03 0. -1.
       22    1    1    2    0    0 -0.33390197797E-02  0.48191793362E-03  0.35577412594E-01  0.35737005818E-01  0.00000000000E+00 0.  1.
  9000001    1    1    2    0    0  0.33390197797E-02 -0.48191793362E-03 -0.35577412594E-01  0.35750994182E-01  0.10000000475E-02 0. -1.
</event>
<event>
 4   0  0.5803570E-01  0.9118800E+02  0.7818609E-02  0.1379984E+01
      -11   -1    0    0    0    0  0.00000000000E+00  0.00000000000E+00  0.35740347158E-01  0.35744000000E-01  0.51099999109E-03 0.  1.
       11   -1    0    0    0    0 -0.00000000000E+00 -0.00000000000E+00 -0.35740347158E-01  0.35744000000E-01  0.51099999109E-03 0. -1.
       22    1    1    2    0    0  0.24452185055E-03 -0.34874320063E-02  0.35565595903E-01  0.35737005818E-01  0.00000000000E+00 0.  1.
  9000001    1    1    2    0    0 -0.24452185055E-03  0.34874320063E-02 -0.35565595903E-01  0.35750994182E-01  0.10000000475E-02 0. -1.
</event>
<event>
 4   0  0.5803570E-01  0.9118800E+02  0.7818609E-02  0.1379984E+01
      -11   -1    0    0    0    0  0.00000000000E+00  0.00000000000E+00  0.35740347158E-01  0.35744000000E-01  0.51099999109E-03 0.  1.
       11   -1    0    0    0    0 -0.00000000000E+00 -0.00000000000E+00 -0.35740347158E-01  0.35744000000E-01  0.51099999109E-03 0. -1.
       22    1    1    2    0    0  0.21273526944E-01  0.30675776995E-02 -0.28551017553E-01  0.35737005818E-01  0.00000000000E+00 0. -1.
  9000001    1    1    2    0    0 -0.21273526944E-01 -0.30675776995E-02  0.28551017553E-01  0.35750994182E-01  0.10000000475E-02 0.  1.
</event>
<event>
 4   0  0.5803570E-01  0.9118800E+02  0.7818609E-02  0.1379984E+01
      -11   -1    0    0    0    0  0.00000000000E+00  0.00000000000E+00  0.35740347158E-01  0.35744000000E-01  0.51099999109E-03 0. -1.
       11   -1    0    0    0    0 -0.00000000000E+00 -0.00000000000E+00 -0.35740347158E-01  0.35744000000E-01  0.51099999109E-03 0.  1.
       22    1    1    2    0    0  0.11311342793E-02 -0.54489047491E-02 -0.35301041871E-01  0.35737005818E-01  0.00000000000E+00 0.  1.
  9000001    1    1    2    0    0 -0.11311342793E-02  0.54489047491E-02  0.35301041871E-01  0.35750994182E-01  0.10000000475E-02 0. -1.
</event>
<event>
 4   0  0.5803570E-01  0.9118800E+02  0.7818609E-02  0.1379984E+01
      -11   -1    0    0    0    0  0.00000000000E+00  0.00000000000E+00  0.35740347158E-01  0.35744000000E-01  0.51099999109E-03 0. -1.
       11   -1    0    0    0    0 -0.00000000000E+00 -0.00000000000E+00 -0.35740347158E-01  0.35744000000E-01  0.51099999109E-03 0.  1.
       22    1    1    2    0    0  0.34502569028E-02  0.94141758082E-03  0.35557601791E-01  0.35737005818E-01  0.00000000000E+00 0. -1.
  9000001    1    1    2    0    0 -0.34502569028E-02 -0.94141758082E-03 -0.35557601791E-01  0.35750994182E-01  0.10000000475E-02 0.  1.
</event>
<event>
 4   0  0.5803570E-01  0.9118800E+02  0.7818609E-02  0.1379984E+01
      -11   -1    0    0    0    0  0.00000000000E+00  0.00000000000E+00  0.35740347158E-01  0.35744000000E-01  0.51099999109E-03 0.  1.
       11   -1    0    0    0    0 -0.00000000000E+00 -0.00000000000E+00 -0.35740347158E-01  0.35744000000E-01  0.51099999109E-03 0. -1.
       22    1    1    2    0    0  0.42375461798E-02 -0.23215637611E-01  0.26836746404E-01  0.35737005818E-01  0.00000000000E+00 0.  1.
  9000001    1    1    2    0    0 -0.42375461798E-02  0.23215637611E-01 -0.26836746404E-01  0.35750994182E-01  0.10000000475E-02 0. -1.
</event>
