<event>
 4   0  0.4958067E-02  0.9118800E+02  0.7818609E-02  0.1379984E+01
      -11   -1    0    0    0    0  0.00000000000E+00  0.00000000000E+00  0.35740347158E-01  0.35744000000E-01  0.51099999109E-03 0.  1.
       11   -1    0    0    0    0 -0.00000000000E+00 -0.00000000000E+00 -0.35740347158E-01  0.35744000000E-01  0.51099999109E-03 0. -1.
       22    1    1    2    0    0 -0.22998846856E-01  0.46581367559E-02  0.26953448576E-01  0.35737005818E-01  0.00000000000E+00 0.  1.
  9000001    1    1    2    0    0  0.22998846856E-01 -0.46581367559E-02 -0.26953448576E-01  0.35750994182E-01  0.10000000475E-02 0. -1.
</event>
<event>
 4   0  0.4958067E-02  0.9118800E+02  0.7818609E-02  0.1379984E+01
      -11   -1    0    0    0    0  0.00000000000E+00  0.00000000000E+00  0.35740347158E-01  0.35744000000E-01  0.51099999109E-03 0.  1.
       11   -1    0    0    0    0 -0.00000000000E+00 -0.00000000000E+00 -0.35740347158E-01  0.35744000000E-01  0.51099999109E-03 0. -1.
       22    1    1    2    0    0  0.10164271004E-01 -0.16208974159E-01  0.30184273000E-01  0.35737005818E-01  0.00000000000E+00 0.  1.
  9000001    1    1    2    0    0 -0.10164271004E-01  0.16208974159E-01 -0.30184273000E-01  0.35750994182E-01  0.10000000475E-02 0. -1.
</event>
<event>
 4   0  0.4958067E-02  0.9118800E+02  0.7818609E-02  0.1379984E+01
      -11   -1    0    0    0    0  0.00000000000E+00  0.00000000000E+00  0.35740347158E-01  0.35744000000E-01  0.51099999109E-03 0.  1.
       11   -1    0    0    0    0 -0.00000000000E+00 -0.00000000000E+00 -0.35740347158E-01  0.35744000000E-01  0.51099999109E-03 0. -1.
       22    1    1    2    0    0  0.42260197868E-02 -0.17550121998E-01 -0.30842625691E-01  0.35737005818E-01  0.00000000000E+00 0. -1.
  9000001    1    1    2    0    0 -0.42260197868E-02  0.17550121998E-01  0.30842625691E-01  0.35750994182E-01  0.10000000475E-02 0.  1.
</event>
<event>
 4   0  0.4958067E-02  0.9118800E+02  0.7818609E-02  0.1379984E+01
      -11   -1    0    0    0    0  0.00000000000E+00  0.00000000000E+00  0.35740347158E-01  0.35744000000E-01  0.51099999109E-03 0.  1.
       11   -1    0    0    0    0 -0.00000000000E+00 -0.00000000000E+00 -0.35740347158E-01  0.35744000000E-01  0.51099999109E-03 0. -1.
       22    1    1    2    0    0 -0.20513141380E-01 -0.87653620959E-02  0.27919760796E-01  0.35737005818E-01  0.00000000000E+00 0.  1.
  9000001    1    1    2    0    0  0.20513141380E-01  0.87653620959E-02 -0.27919760796E-01  0.35750994182E-01  0.10000000475E-02 0. -1.
</event>
<event>
 4   0  0.4958067E-02  0.9118800E+02  0.7818609E-02  0.1379984E+01
      -11   -1    0    0    0    0  0.00000000000E+00  0.00000000000E+00  0.35740347158E-01  0.35744000000E-01  0.51099999109E-03 0.  1.
       11   -1    0    0    0    0 -0.00000000000E+00 -0.00000000000E+00 -0.35740347158E-01  0.35744000000E-01  0.51099999109E-03 0. -1.
       22    1    1    2    0    0 -0.21303161052E-01 -0.46056322736E-02 -0.28321318214E-01  0.35737005818E-01  0.00000000000E+00 0. -1.
  9000001    1    1    2    0    0  0.21303161052E-01  0.46056322736E-02  0.28321318214E-01  0.35750994182E-01  0.10000000475E-02 0.  1.
</event>
<event>
 4   0  0.4958067E-02  0.9118800E+02  0.7818609E-02  0.1379984E+01
      -11   -1    0    0    0    0  0.00000000000E+00  0.00000000000E+00  0.35740347158E-01  0.35744000000E-01  0.51099999109E-03 0. -1.
       11   -1    0    0    0    0 -0.00000000000E+00 -0.00000000000E+00 -0.35740347158E-01  0.35744000000E-01  0.51099999109E-03 0.  1.
       22    1    1    2    0    0  0.31661551701E-02  0.25545513605E-02  0.35504694248E-01  0.35737005818E-01  0.00000000000E+00 0. -1.
  9000001    1    1    2    0    0 -0.31661551701E-02 -0.25545513605E-02 -0.35504694248E-01  0.35750994182E-01  0.10000000475E-02 0.  1.
</event>
<event>
 4   0  0.4958067E-02  0.9118800E+02  0.7818609E-02  0.1379984E+01
      -11   -1    0    0    0    0  0.00000000000E+00  0.00000000000E+00  0.35740347158E-01  0.35744000000E-01  0.51099999109E-03 0. -1.
       11   -1    0    0    0    0 -0.00000000000E+00 -0.00000000000E+00 -0.35740347158E-01  0.35744000000E-01  0.51099999109E-03 0.  1.
       22    1    1    2    0    0 -0.20306117154E-02  0.94323501954E-02  0.34409896407E-01  0.35737005818E-01  0.00000000000E+00 0. -1.
  9000001    1    1    2    0    0  0.20306117154E-02 -0.94323501954E-02 -0.34409896407E-01  0.35750994182E-01  0.10000000475E-02 0.  1.
</event>
<event>
 4   0  0.4958067E-02  0.9118800E+02  0.7818609E-02  0.1379984E+01
      -11   -1    0    0    0    0  0.00000000000E+00  0.00000000000E+00  0.35740347158E-01  0.35744000000E-01  0.51099999109E-03 0. -1.
       11   -1    0    0    0    0 -0.00000000000E+00 -0.00000000000E+00 -0.35740347158E-01  0.35744000000E-01  0.51099999109E-03 0.  1.
       22    1    1    2    0    0 -0.47405293457E-02  0.88086194054E-02  0.34308441972E-01  0.35737005818E-01  0.00000000000E+00 0. -1.
  9000001    1    1    2    0    0  0.47405293457E-02 -0.88086194054E-02 -0.34308441972E-01  0.35750994182E-01  0.10000000475E-02 0.  1.
</event>
<event>
 4   0  0.4958067E-02  0.9118800E+02  0.7818609E-02  0.1379984E+01
      -11   -1    0    0    0    0  0.00000000000E+00  0.00000000000E+00  0.35740347158E-01  0.35744000000E-01  0.51099999109E-03 0.  1.
       11   -1    0    0    0    0 -0.00000000000E+00 -0.00000000000E+00 -0.35740347158E-01  0.35744000000E-01  0.51099999109E-03 0. -1.
       22    1    1    2    0    0  0.17081817682E-02 -0.25411803686E-01 -0.25069023382E-01  0.35737005818E-01  0.00000000000E+00 0. -1.
  9000001    1    1    2    0    0 -0.17081817682E-02  0.25411803686E-01  0.25069023382E-01  0.35750994182E-01  0.10000000475E-02 0.  1.
</event>
<event>
 4   0  0.4958067E-02  0.9118800E+02  0.7818609E-02  0.1379984E+01
      -11   -1    0    0    0    0  0.00000000000E+00  0.00000000000E+00  0.35740347158E-01  0.35744000000E-01  0.51099999109E-03 0.  1.
       11   -1    0    0    0    0 -0.00000000000E+00 -0.00000000000E+00 -0.35740347158E-01  0.35744000000E-01  0.51099999109E-03 0. -1.
       22    1    1    2    0    0  0.23486503932E-02  0.48483878274E-02  0.35328608261E-01  0.35737005818E-01  0.00000000000E+00 0.  1.
  9000001    1    1    2    0    0 -0.23486503932E-02 -0.48483878274E-02 -0.35328608261E-01  0.35750994182E-01  0.10000000475E-02 0. -1.
</event>
<event>
 4   0  0.4958067E-02  0.9118800E+02  0.7818609E-02  0.1379984E+01
      -11   -1    0    0    0    0  0.00000000000E+00  0.00000000000E+00  0.35740347158E-01  0.35744000000E-01  0.51099999109E-03 0.  1.
       11   -1    0    0    0    0 -0.00000000000E+00 -0.00000000000E+00 -0.35740347158E-01  0.35744000000E-01  0.51099999109E-03 0. -1.
       22    1    1    2    0    0  0.84178224176E-03  0.67841370131E-02  0.35077064765E-01  0.35737005818E-01  0.00000000000E+00 0.  1.
  9000001    1    1    2    0    0 -0.84178224176E-03 -0.67841370131E-02 -0.35077064765E-01  0.35750994182E-01  0.10000000475E-02 0. -1.
</event>
<event>
 4   0  0.4958067E-02  0.9118800E+02  0.7818609E-02  0.1379984E+01
      -11   -1    0    0    0    0  0.00000000000E+00  0.00000000000E+00  0.35740347158E-01  0.35744000000E-01  0.51099999109E-03 0.  1.
       11   -1    0    0    0    0 -0.00000000000E+00 -0.00000000000E+00 -0.35740347158E-01  0.35744000000E-01  0.51099999109E-03 0. -1.
       22    1    1    2    0    0 -0.61694067399E-03 -0.30544215287E-02  0.35600891537E-01  0.35737005818E-01  0.00000000000E+00 0.  1.
  9000001    1    1    2    0    0  0.61694067399E-03  0.30544215287E-02 -0.35600891537E-01  0.35750994182E-01  0.10000000475E-02 0. -1.
</event>
<event>
 4   0  0.4958067E-02  0.9118800E+02  0.7818609E-02  0.1379984E+01
      -11   -1    0    0    0    0  0.00000000000E+00  0.00000000000E+00  0.35740347158E-01  0.35744000000E-01  0.51099999109E-03 0.  1.
       11   -1    0    0    0    0 -0.00000000000E+00 -0.00000000000E+00 -0.35740347158E-01  0.35744000000E-01  0.51099999109E-03 0. -1.
       22    1    1    2    0    0 -0.64428420719E-02 -0.49057828519E-04 -0.35151400601E-01  0.35737005818E-01  0.00000000000E+00 0. -1.
  9000001    1    1    2    0    0  0.64428420719E-02  0.49057828519E-04  0.35151400601E-01  0.35750994182E-01  0.10000000475E-02 0.  1.
</event>
<event>
 4   0  0.4958067E-02  0.9118800E+02  0.7818609E-02  0.1379984E+01
      -11   -1    0    0    0    0  0.00000000000E+00  0.00000000000E+00  0.35740347158E-01  0.35744000000E-01  0.51099999109E-03 0. -1.
       11   -1    0    0    0    0 -0.00000000000E+00 -0.00000000000E+00 -0.35740347158E-01  0.35744000000E-01  0.51099999109E-03 0.  1.
       22    1    1    2    0    0  0.10050605248E-01 -0.51275436583E-02 -0.33909102245E-01  0.35737005818E-01  0.00000000000E+00 0.  1.
  9000001    1    1    2    0    0 -0.10050605248E-01  0.51275436583E-02  0.33909102245E-01  0.35750994182E-01  0.10000000475E-02 0. -1.
</event>
<event>
 4   0  0.4958067E-02  0.9118800E+02  0.7818609E-02  0.1379984E+01
      -11   -1    0    0    0    0  0.00000000000E+00  0.00000000000E+00  0.35740347158E-01  0.35744000000E-01  0.51099999109E-03 0.  1.
       11   -1    0    0    0    0 -0.00000000000E+00 -0.00000000000E+00 -0.35740347158E-01  0.35744000000E-01  0.51099999109E-03 0. -1.
       22    1    1    2    0    0 -0.29822737913E-02 -0.54648649093E-02  0.35190550996E-01  0.35737005818E-01  0.00000000000E+00 0.  1.
  9000001    1    1    2    0    0  0.29822737913E-02  0.54648649093E-02 -0.35190550996E-01  0.35750994182E-01  0.10000000475E-02 0. -1.
</event>
<event>
 4   0  0.4958067E-02  0.9118800E+02  0.7818609E-02  0.1379984E+01
      -11   -1    0    0    0    0  0.00000000000E+00  0.00000000000E+00  0.35740347158E-01  0.35744000000E-01  0.51099999109E-03 0.  1.
       11   -1    0    0    0    0 -0.00000000000E+00 -0.00000000000E+00 -0.35740347158E-01  0.35744000000E-01  0.51099999109E-03 0. -1.
       22    1    1    2    0    0 -0.14684301241E-01 -0.16344504887E-01 -0.28184429069E-01  0.35737005818E-01  0.00000000000E+00 0. -1.
  9000001    1    1    2    0    0  0.14684301241E-01  0.16344504887E-01  0.28184429069E-01  0.35750994182E-01  0.10000000475E-02 0.  1.
</event>
<event>
 4   0  0.4958067E-02  0.9118800E+02  0.7818609E-02  0.1379984E+01
      -11   -1    0    0    0    0  0.00000000000E+00  0.00000000000E+00  0.35740347158E-01  0.35744000000E-01  0.51099999109E-03 0.  1.
       11   -1    0    0    0    0 -0.00000000000E+00 -0.00000000000E+00 -0.35740347158E-01  0.35744000000E-01  0.51099999109E-03 0. -1.
       22    1    1    2    0    0  0.25577268800E-01  0.21988856062E-01  0.11807925925E-01  0.35737005818E-01  0.00000000000E+00 0.  1.
  9000001    1    1    2    0    0 -0.25577268800E-01 -0.21988856062E-01 -0.11807925925E-01  0.35750994182E-01  0.10000000475E-02 0. -1.
</event>
<event>
 4   0  0.4958067E-02  0.9118800E+02  0.7818609E-02  0.1379984E+01
      -11   -1    0    0    0    0  0.00000000000E+00  0.00000000000E+00  0.35740347158E-01  0.35744000000E-01  0.51099999109E-03 0. -1.
       11   -1    0    0    0    0 -0.00000000000E+00 -0.00000000000E+00 -0.35740347158E-01  0.35744000000E-01  0.51099999109E-03 0.  1.
       22    1    1    2    0    0 -0.75582358168E-02 -0.11176121247E-01 -0.33092309833E-01  0.35737005818E-01  0.00000000000E+00 0.  1.
  9000001    1    1    2    0    0  0.75582358168E-02  0.11176121247E-01  0.33092309833E-01  0.35750994182E-01  0.10000000475E-02 0. -1.
</event>
<event>
 4   0  0.4958067E-02  0.9118800E+02  0.7818609E-02  0.1379984E+01
      -11   -1    0    0    0    0  0.00000000000E+00  0.00000000000E+00  0.35740347158E-01  0.35744000000E-01  0.51099999109E-03 0. -1.
       11   -1    0    0    0    0 -0.00000000000E+00 -0.00000000000E+00 -0.35740347158E-01  0.35744000000E-01  0.51099999109E-03 0.  1.
       22    1    1    2    0    0 -0.15561230604E-02  0.64437920984E-02  0.35116799531E-01  0.35737005818E-01  0.00000000000E+00 0. -1.
  9000001    1    1    2    0    0  0.15561230604E-02 -0.64437920984E-02 -0.35116799531E-01  0.35750994182E-01  0.10000000475E-02 0.  1.
</event>
<event>
 4   0  0.4958067E-02  0.9118800E+02  0.7818609E-02  0.1379984E+01
      -11   -1    0    0    0    0  0.00000000000E+00  0.00000000000E+00  0.35740347158E-01  0.35744000000E-01  0.51099999109E-03 0. -1.
       11   -1    0    0    0    0 -0.00000000000E+00 -0.00000000000E+00 -0.35740347158E-01  0.35744000000E-01  0.51099999109E-03 0.  1.
       22    1    1    2    0    0 -0.93974340952E-02  0.48695816607E-02  0.34133692911E-01  0.35737005818E-01  0.00000000000E+00 0. -1.
  9000001    1    1    2    0    0  0.93974340952E-02 -0.48695816607E-02 -0.34133692911E-01  0.35750994182E-01  0.10000000475E-02 0.  1.
</event>
<event>
 4   0  0.4958067E-02  0.9118800E+02  0.7818609E-02  0.1379984E+01
      -11   -1    0    0    0    0  0.00000000000E+00  0.00000000000E+00  0.35740347158E-01  0.35744000000E-01  0.51099999109E-03 0. -1.
       11   -1    0    0    0    0 -0.00000000000E+00 -0.00000000000E+00 -0.35740347158E-01  0.35744000000E-01  0.51099999109E-03 0.  1.
       22    1    1    2    0    0 -0.10715591470E-01  0.20728656407E-01  0.27067184706E-01  0.35737005818E-01  0.00000000000E+00 0. -1.
  9000001    1    1    2    0    0  0.10715591470E-01 -0.20728656407E-01 -0.27067184706E-01  0.35750994182E-01  0.10000000475E-02 0.  1.
</event>
<event>
 4   0  0.4958067E-02  0.9118800E+02  0.7818609E-02  0.1379984E+01
      -11   -1    0    0    0    0  0.00000000000E+00  0.00000000000E+00  0.35740347158E-01  0.35744000000E-01  0.51099999109E-03 0. -1.
       11   -1    0    0    0    0 -0.00000000000E+00 -0.00000000000E+00 -0.35740347158E-01  0.35744000000E-01  0.51099999109E-03 0.  1.
       22    1    1    2    0    0  0.26796688765E-04  0.52385693050E-02  0.35350958381E-01  0.35737005818E-01  0.00000000000E+00 0. -1.
  9000001    1    1    2    0    0 -0.26796688765E-04 -0.52385693050E-02 -0.35350958381E-01  0.35750994182E-01  0.10000000475E-02 0.  1.
</event>
<event>
 4   0  0.4958067E-02  0.9118800E+02  0.7818609E-02  0.1379984E+01
      -11   -1    0    0    0    0  0.00000000000E+00  0.00000000000E+00  0.35740347158E-01  0.35744000000E-01  0.51099999109E-03 0. -1.
       11   -1    0    0    0    0 -0.00000000000E+00 -0.00000000000E+00 -0.35740347158E-01  0.35744000000E-01  0.51099999109E-03 0.  1.
       22    1    1    2    0    0 -0.97223878899E-02  0.69713030535E-02 -0.33675060391E-01  0.35737005818E-01  0.00000000000E+00 0.  1.
  9000001    1    1    2    0    0  0.97223878899E-02 -0.69713030535E-02  0.33675060391E-01  0.35750994182E-01  0.10000000475E-02 0. -1.
</event>
<event>
 4   0  0.4958067E-02  0.9118800E+02  0.7818609E-02  0.1379984E+01
      -11   -1    0    0    0    0  0.00000000000E+00  0.00000000000E+00  0.35740347158E-01  0.35744000000E-01  0.51099999109E-03 0.  1.
       11   -1    0    0    0    0 -0.00000000000E+00 -0.00000000000E+00 -0.35740347158E-01  0.35744000000E-01  0.51099999109E-03 0. -1.
       22    1    1    2    0    0  0.52182939845E-02 -0.11610932248E-01 -0.33392952027E-01  0.35737005818E-01  0.00000000000E+00 0. -1.
  9000001    1    1    2    0    0 -0.52182939845E-02  0.11610932248E-01  0.33392952027E-01  0.35750994182E-01  0.10000000475E-02 0.  1.
</event>
<event>
 4   0  0.4958067E-02  0.9118800E+02  0.7818609E-02  0.1379984E+01
      -11   -1    0    0    0    0  0.00000000000E+00  0.00000000000E+00  0.35740347158E-01  0.35744000000E-01  0.51099999109E-03 0.  1.
       11   -1    0    0    0    0 -0.00000000000E+00 -0.00000000000E+00 -0.35740347158E-01  0.35744000000E-01  0.51099999109E-03 0. -1.
       22    1    1    2    0    0 -0.12661120621E-02  0.32792202570E-02  0.35563707057E-01  0.35737005818E-01  0.00000000000E+00 0.  1.
  9000001    1    1    2    0    0  0.12661120621E-02 -0.32792202570E-02 -0.35563707057E-01  0.35750994182E-01  0.10000000475E-02 0. -1.
</event>
<event>
 4   0  0.4958067E-02  0.9118800E+02  0.7818609E-02  0.1379984E+01
      -11   -1    0    0    0    0  0.00000000000E+00  0.00000000000E+00  0.35740347158E-01  0.35744000000E-01  0.51099999109E-03 0. -1.
       11   -1    0    0    0    0 -0.00000000000E+00 -0.00000000000E+00 -0.35740347158E-01  0.35744000000E-01  0.51099999109E-03 0.  1.
       22    1    1    2    0    0 -0.65774549254E-02  0.19380854774E-01 -0.29295957739E-01  0.35737005818E-01  0.00000000000E+00 0.  1.
  9000001    1    1    2    0    0  0.65774549254E-02 -0.19380854774E-01  0.29295957739E-01  0.35750994182E-01  0.10000000475E-02 0. -1.
</event>
<event>
 4   0  0.4958067E-02  0.9118800E+02  0.7818609E-02  0.1379984E+01
      -11   -1    0    0    0    0  0.00000000000E+00  0.00000000000E+00  0.35740347158E-01  0.35744000000E-01  0.51099999109E-03 0. -1.
       11   -1    0    0    0    0 -0.00000000000E+00 -0.00000000000E+00 -0.35740347158E-01  0.35744000000E-01  0.51099999109E-03 0.  1.
       22    1    1    2    0    0  0.16311413391E-01  0.30283988412E-01  0.96928542702E-02  0.35737005818E-01  0.00000000000E+00 0.  1.
  9000001    1    1    2    0    0 -0.16311413391E-01 -0.30283988412E-01 -0.96928542702E-02  0.35750994182E-01  0.10000000475E-02 0. -1.
</event>
<event>
 4   0  0.4958067E-02  0.9118800E+02  0.7818609E-02  0.1379984E+01
      -11   -1    0    0    0    0  0.00000000000E+00  0.00000000000E+00  0.35740347158E-01  0.35744000000E-01  0.51099999109E-03 0. -1.
       11   -1    0    0    0    0 -0.00000000000E+00 -0.00000000000E+00 -0.35740347158E-01  0.35744000000E-01  0.51099999109E-03 0.  1.
       22    1    1    2    0    0 -0.58622286803E-02  0.29181371395E-02 -0.35131927579E-01  0.35737005818E-01  0.00000000000E+00 0.  1.
  9000001    1    1    2    0    0  0.58622286803E-02 -0.29181371395E-02  0.35131927579E-01  0.35750994182E-01  0.10000000475E-02 0. -1.
</event>
<event>
 4   0  0.4958067E-02  0.9118800E+02  0.7818609E-02  0.1379984E+01
      -11   -1    0    0    0    0  0.00000000000E+00  0.00000000000E+00  0.35740347158E-01  0.35744000000E-01  0.51099999109E-03 0. -1.
       11   -1    0    0    0    0 -0.00000000000E+00 -0.00000000000E+00 -0.35740347158E-01  0.35744000000E-01  0.51099999109E-03 0.  1.
       22    1    1    2    0    0 -0.92791523125E-02  0.34044306329E-03 -0.34509636564E-01  0.35737005818E-01  0.00000000000E+00 0.  1.
  9000001    1    1    2    0    0  0.92791523125E-02 -0.34044306329E-03  0.34509636564E-01  0.35750994182E-01  0.10000000475E-02 0. -1.
</event>
<event>
 4   0  0.4958067E-02  0.9118800E+02  0.7818609E-02  0.1379984E+01
      -11   -1    0    0    0    0  0.00000000000E+00  0.00000000000E+00  0.35740347158E-01  0.35744000000E-01  0.51099999109E-03 0.  1.
       11   -1    0    0    0    0 -0.00000000000E+00 -0.00000000000E+00 -0.35740347158E-01  0.35744000000E-01  0.51099999109E-03 0. -1.
       22    1    1    2    0    0  0.94579277349E-02 -0.67683834744E-02 -0.33791569555E-01  0.35737005818E-01  0.00000000000E+00 0. -1.
  9000001    1    1    2    0    0 -0.94579277349E-02  0.67683834744E-02  0.33791569555E-01  0.35750994182E-01  0.10000000475E-02 0.  1.
</event>
<event>
 4   0  0.4958067E-02  0.9118800E+02  0.7818609E-02  0.1379984E+01
      -11   -1    0    0    0    0  0.00000000000E+00  0.00000000000E+00  0.35740347158E-01  0.35744000000E-01  0.51099999109E-03 0.  1.
       11   -1    0    0    0    0 -0.00000000000E+00 -0.00000000000E+00 -0.35740347158E-01  0.35744000000E-01  0.51099999109E-03 0. -1.
       22    1    1    2    0    0 -0.12193745713E-01 -0.28863257660E-02  0.33468123251E-01  0.35737005818E-01  0.00000000000E+00 0.  1.
  9000001    1    1    2    0    0  0.12193745713E-01  0.28863257660E-02 -0.33468123251E-01  0.35750994182E-01  0.10000000475E-02 0. -1.
</event>
<event>
 4   0  0.4958067E-02  0.9118800E+02  0.7818609E-02  0.1379984E+01
      -11   -1    0    0    0    0  0.00000000000E+00  0.00000000000E+00  0.35740347158E-01  0.35744000000E-01  0.51099999109E-03 0. -1.
       11   -1    0    0    0    0 -0.00000000000E+00 -0.00000000000E+00 -0.35740347158E-01  0.35744000000E-01  0.51099999109E-03 0.  1.
       22    1    1    2    0    0 -0.35464929558E-03 -0.41187683924E-02  0.35497092214E-01  0.35737005818E-01  0.00000000000E+00 0. -1.
  9000001    1    1    2    0    0  0.35464929558E-03  0.41187683924E-02 -0.35497092214E-01  0.35750994182E-01  0.10000000475E-02 0.  1.
</event>
<event>
 4   0  0.4958067E-02  0.9118800E+02  0.7818609E-02  0.1379984E+01
      -11   -1    0    0    0    0  0.00000000000E+00  0.00000000000E+00  0.35740347158E-01  0.35744000000E-01  0.51099999109E-03 0.  1.
       11   -1    0    0    0    0 -0.00000000000E+00 -0.00000000000E+00 -0.35740347158E-01  0.35744000000E-01  0.51099999109E-03 0. -1.
       22    1    1    2    0    0 -0.58936990090E-02 -0.21941719669E-01  0.27585482320E-01  0.35737005818E-01  0.00000000000E+00 0.  1.
  9000001    1    1    2    0    0  0.58936990090E-02  0.21941719669E-01 -0.27585482320E-01  0.35750994182E-01  0.10000000475E-02 0. -1.
</event>
<event>
 4   0  0.4958067E-02  0.9118800E+02  0.7818609E-02  0.1379984E+01
      -11   -1    0    0    0    0  0.00000000000E+00  0.00000000000E+00  0.35740347158E-01  0.35744000000E-01  0.51099999109E-03 0.  1.
       11   -1    0    0    0    0 -0.00000000000E+00 -0.00000000000E+00 -0.35740347158E-01  0.35744000000E-01  0.51099999109E-03 0. -1.
       22    1    1    2    0    0 -0.16090085462E-02  0.41347513921E-02 -0.35460520404E-01  0.35737005818E-01  0.00000000000E+00 0. -1.
  9000001    1    1    2    0    0  0.16090085462E-02 -0.41347513921E-02  0.35460520404E-01  0.35750994182E-01  0.10000000475E-02 0.  1.
</event>
<event>
 4   0  0.4958067E-02  0.9118800E+02  0.7818609E-02  0.1379984E+01
      -11   -1    0    0    0    0  0.00000000000E+00  0.00000000000E+00  0.35740347158E-01  0.35744000000E-01  0.51099999109E-03 0.  1.
       11   -1    0    0    0    0 -0.00000000000E+00 -0.00000000000E+00 -0.35740347158E-01  0.35744000000E-01  0.51099999109E-03 0. -1.
       22    1    1    2    0    0 -0.17371413336E-01  0.63124040456E-02 -0.30586290045E-01  0.35737005818E-01  0.00000000000E+00 0. -1.
  9000001    1    1    2    0    0  0.17371413336E-01 -0.63124040456E-02  0.30586290045E-01  0.35750994182E-01  0.10000000475E-02 0.  1.
</event>
<event>
 4   0  0.4958067E-02  0.9118800E+02  0.7818609E-02  0.1379984E+01
      -11   -1    0    0    0    0  0.00000000000E+00  0.00000000000E+00  0.35740347158E-01  0.35744000000E-01  0.51099999109E-03 0. -1.
       11   -1    0    0    0    0 -0.00000000000E+00 -0.00000000000E+00 -0.35740347158E-01  0.35744000000E-01  0.51099999109E-03 0.  1.
       22    1    1    2    0    0  0.48966084623E-02 -0.19631006956E-02 -0.35345481268E-01  0.35737005818E-01  0.00000000000E+00 0.  1.
  9000001    1    1    2    0    0 -0.48966084623E-02  0.19631006956E-02  0.35345481268E-01  0.35750994182E-01  0.10000000475E-02 0. -1.
</event>
<event>
 4   0  0.4958067E-02  0.9118800E+02  0.7818609E-02  0.1379984E+01
      -11   -1    0    0    0    0  0.00000000000E+00  0.00000000000E+00  0.35740347158E-01  0.35744000000E-01  0.51099999109E-03 0. -1.
       11   -1    0    0    0    0 -0.00000000000E+00 -0.00000000000E+00 -0.35740347158E-01  0.35744000000E-01  0.51099999109E-03 0.  1.
       22    1    1    2    0    0  0.14975385810E-01 -0.80608697131E-02 -0.31430777658E-01  0.35737005818E-01  0.00000000000E+00 0.  1.
  9000001    1    1    2    0    0 -0.14975385810E-01  0.80608697131E-02  0.31430777658E-01  0.35750994182E-01  0.10000000475E-02 0. -1.
</event>
<event>
 4   0  0.4958067E-02  0.9118800E+02  0.7818609E-02  0.1379984E+01
      -11   -1    0    0    0    0  0.00000000000E+00  0.00000000000E+00  0.35740347158E-01  0.35744000000E-01  0.51099999109E-03 0.  1.
       11   -1    0    0    0    0 -0.00000000000E+00 -0.00000000000E+00 -0.35740347158E-01  0.35744000000E-01  0.51099999109E-03 0. -1.
       22    1    1    2    0    0  0.13794619704E-01 -0.22084315935E-01 -0.24477030902E-01  0.35737005818E-01  0.00000000000E+00 0.  1.
  9000001    1    1    2    0    0 -0.13794619704E-01  0.22084315935E-01  0.24477030902E-01  0.35750994182E-01  0.10000000475E-02 0. -1.
</event>
<event>
 4   0  0.4958067E-02  0.9118800E+02  0.7818609E-02  0.1379984E+01
      -11   -1    0    0    0    0  0.00000000000E+00  0.00000000000E+00  0.35740347158E-01  0.35744000000E-01  0.51099999109E-03 0. -1.
       11   -1    0    0    0    0 -0.00000000000E+00 -0.00000000000E+00 -0.35740347158E-01  0.35744000000E-01  0.51099999109E-03 0.  1.
       22    1    1    2    0    0 -0.14143141218E-01 -0.31814586366E-02 -0.32664712800E-01  0.35737005818E-01  0.00000000000E+00 0.  1.
  9000001    1    1    2    0    0  0.14143141218E-01  0.31814586366E-02  0.32664712800E-01  0.35750994182E-01  0.10000000475E-02 0. -1.
</event>
<event>
 4   0  0.4958067E-02  0.9118800E+02  0.7818609E-02  0.1379984E+01
      -11   -1    0    0    0    0  0.00000000000E+00  0.00000000000E+00  0.35740347158E-01  0.35744000000E-01  0.51099999109E-03 0. -1.
       11   -1    0    0    0    0 -0.00000000000E+00 -0.00000000000E+00 -0.35740347158E-01  0.35744000000E-01  0.51099999109E-03 0.  1.
       22    1    1    2    0    0 -0.83519669213E-02 -0.74401840123E-02  0.33941448043E-01  0.35737005818E-01  0.00000000000E+00 0. -1.
  9000001    1    1    2    0    0  0.83519669213E-02  0.74401840123E-02 -0.33941448043E-01  0.35750994182E-01  0.10000000475E-02 0.  1.
</event>
<event>
 4   0  0.4958067E-02  0.9118800E+02  0.7818609E-02  0.1379984E+01
      -11   -1    0    0    0    0  0.00000000000E+00  0.00000000000E+00  0.35740347158E-01  0.35744000000E-01  0.51099999109E-03 0. -1.
       11   -1    0    0    0    0 -0.00000000000E+00 -0.00000000000E+00 -0.35740347158E-01  0.35744000000E-01  0.51099999109E-03 0.  1.
       22    1    1    2    0    0 -0.44070454781E-02  0.17624691246E-01 -0.30774694044E-01  0.35737005818E-01  0.00000000000E+00 0.  1.
  9000001    1    1    2    0    0  0.44070454781E-02 -0.17624691246E-01  0.30774694044E-01  0.35750994182E-01  0.10000000475E-02 0. -1.
</event>
<event>
 4   0  0.4958067E-02  0.9118800E+02  0.7818609E-02  0.1379984E+01
      -11   -1    0    0    0    0  0.00000000000E+00  0.00000000000E+00  0.35740347158E-01  0.35744000000E-01  0.51099999109E-03 0. -1.
       11   -1    0    0    0    0 -0.00000000000E+00 -0.00000000000E+00 -0.35740347158E-01  0.35744000000E-01  0.51099999109E-03 0.  1.
       22    1    1    2    0    0  0.15114955463E-01 -0.31387978909E-01 -0.79665856078E-02  0.35737005818E-01  0.00000000000E+00 0.  1.
  9000001    1    1    2    0    0 -0.15114955463E-01  0.31387978909E-01  0.79665856078E-02  0.35750994182E-01  0.10000000475E-02 0. -1.
</event>
<event>
 4   0  0.4958067E-02  0.9118800E+02  0.7818609E-02  0.1379984E+01
      -11   -1    0    0    0    0  0.00000000000E+00  0.00000000000E+00  0.35740347158E-01  0.35744000000E-01  0.51099999109E-03 0. -1.
       11   -1    0    0    0    0 -0.00000000000E+00 -0.00000000000E+00 -0.35740347158E-01  0.35744000000E-01  0.51099999109E-03 0.  1.
       22    1    1    2    0    0 -0.56895278010E-02 -0.40484417673E-02  0.35048152270E-01  0.35737005818E-01  0.00000000000E+00 0. -1.
  9000001    1    1    2    0    0  0.56895278010E-02  0.40484417673E-02 -0.35048152270E-01  0.35750994182E-01  0.10000000475E-02 0.  1.
</event>
<event>
 4   0  0.4958067E-02  0.9118800E+02  0.7818609E-02  0.1379984E+01
      -11   -1    0    0    0    0  0.00000000000E+00  0.00000000000E+00  0.35740347158E-01  0.35744000000E-01  0.51099999109E-03 0. -1.
       11   -1    0    0    0    0 -0.00000000000E+00 -0.00000000000E+00 -0.35740347158E-01  0.35744000000E-01  0.51099999109E-03 0.  1.
       22    1    1    2    0    0  0.19833151775E-01 -0.12897828220E-01  0.26784803578E-01  0.35737005818E-01  0.00000000000E+00 0. -1.
  9000001    1    1    2    0    0 -0.19833151775E-01  0.12897828220E-01 -0.26784803578E-01  0.35750994182E-01  0.10000000475E-02 0.  1.
</event>
<event>
 4   0  0.4958067E-02  0.9118800E+02  0.7818609E-02  0.1379984E+01
      -11   -1    0    0    0    0  0.00000000000E+00  0.00000000000E+00  0.35740347158E-01  0.35744000000E-01  0.51099999109E-03 0.  1.
       11   -1    0    0    0    0 -0.00000000000E+00 -0.00000000000E+00 -0.35740347158E-01  0.35744000000E-01  0.51099999109E-03 0. -1.
       22    1    1    2    0    0 -0.11791688904E-01 -0.33187093219E-01 -0.60585890540E-02  0.35737005818E-01  0.00000000000E+00 0. -1.
  9000001    1    1    2    0    0  0.11791688904E-01  0.33187093219E-01  0.60585890540E-02  0.35750994182E-01  0.10000000475E-02 0.  1.
</event>
<event>
 4   0  0.4958067E-02  0.9118800E+02  0.7818609E-02  0.1379984E+01
      -11   -1    0    0    0    0  0.00000000000E+00  0.00000000000E+00  0.35740347158E-01  0.35744000000E-01  0.51099999109E-03 0. -1.
       11   -1    0    0    0    0 -0.00000000000E+00 -0.00000000000E+00 -0.35740347158E-01  0.35744000000E-01  0.51099999109E-03 0.  1.
       22    1    1    2    0    0  0.95402296814E-04 -0.58677716912E-02  0.35251861492E-01  0.35737005818E-01  0.00000000000E+00 0. -1.
  9000001    1    1    2    0    0 -0.95402296814E-04  0.58677716912E-02 -0.35251861492E-01  0.35750994182E-01  0.10000000475E-02 0.  1.
</event>
<event>
 4   0  0.4958067E-02  0.9118800E+02  0.7818609E-02  0.1379984E+01
      -11   -1    0    0    0    0  0.00000000000E+00  0.00000000000E+00  0.35740347158E-01  0.35744000000E-01  0.51099999109E-03 0. -1.
       11   -1    0    0    0    0 -0.00000000000E+00 -0.00000000000E+00 -0.35740347158E-01  0.35744000000E-01  0.51099999109E-03 0.  1.
       22    1    1    2    0    0  0.51806236126E-02  0.57598167910E-03  0.35354815357E-01  0.35737005818E-01  0.00000000000E+00 0. -1.
  9000001    1    1    2    0    0 -0.51806236126E-02 -0.57598167910E-03 -0.35354815357E-01  0.35750994182E-01  0.10000000475E-02 0.  1.
</event>
<event>
 4   0  0.4958067E-02  0.9118800E+02  0.7818609E-02  0.1379984E+01
      -11   -1    0    0    0    0  0.00000000000E+00  0.00000000000E+00  0.35740347158E-01  0.35744000000E-01  0.51099999109E-03 0.  1.
       11   -1    0    0    0    0 -0.00000000000E+00 -0.00000000000E+00 -0.35740347158E-01  0.35744000000E-01  0.51099999109E-03 0. -1.
       22    1    1    2    0    0 -0.70796390563E-03  0.48332414620E-02 -0.35401583989E-01  0.35737005818E-01  0.00000000000E+00 0. -1.
  9000001    1    1    2    0    0  0.70796390563E-03 -0.48332414620E-02  0.35401583989E-01  0.35750994182E-01  0.10000000475E-02 0.  1.
</event>
<event>
 4   0  0.4958067E-02  0.9118800E+02  0.7818609E-02  0.1379984E+01
      -11   -1    0    0    0    0  0.00000000000E+00  0.00000000000E+00  0.35740347158E-01  0.35744000000E-01  0.51099999109E-03 0.  1.
       11   -1    0    0    0    0 -0.00000000000E+00 -0.00000000000E+00 -0.35740347158E-01  0.35744000000E-01  0.51099999109E-03 0. -1.
       22    1    1    2    0    0 -0.64084791919E-03  0.62793057200E-02 -0.35175179011E-01  0.35737005818E-01  0.00000000000E+00 0. -1.
  9000001    1    1    2    0    0  0.64084791919E-03 -0.62793057200E-02  0.35175179011E-01  0.35750994182E-01  0.10000000475E-02 0.  1.
</event>
<event>
 4   0  0.4958067E-02  0.9118800E+02  0.7818609E-02  0.1379984E+01
      -11   -1    0    0    0    0  0.00000000000E+00  0.00000000000E+00  0.35740347158E-01  0.35744000000E-01  0.51099999109E-03 0. -1.
       11   -1    0    0    0    0 -0.00000000000E+00 -0.00000000000E+00 -0.35740347158E-01  0.35744000000E-01  0.51099999109E-03 0.  1.
       22    1    1    2    0    0 -0.10892241025E-01  0.41946069874E-02  0.33777180796E-01  0.35737005818E-01  0.00000000000E+00 0. -1.
  9000001    1    1    2    0    0  0.10892241025E-01 -0.41946069874E-02 -0.33777180796E-01  0.35750994182E-01  0.10000000475E-02 0.  1.
</event>
<event>
 4   0  0.4958067E-02  0.9118800E+02  0.7818609E-02  0.1379984E+01
      -11   -1    0    0    0    0  0.00000000000E+00  0.00000000000E+00  0.35740347158E-01  0.35744000000E-01  0.51099999109E-03 0. -1.
       11   -1    0    0    0    0 -0.00000000000E+00 -0.00000000000E+00 -0.35740347158E-01  0.35744000000E-01  0.51099999109E-03 0.  1.
       22    1    1    2    0    0 -0.67006929070E-02  0.15079194243E-02 -0.35070792384E-01  0.35737005818E-01  0.00000000000E+00 0.  1.
  9000001    1    1    2    0    0  0.67006929070E-02 -0.15079194243E-02  0.35070792384E-01  0.35750994182E-01  0.10000000475E-02 0. -1.
</event>
<event>
 4   0  0.4958067E-02  0.9118800E+02  0.7818609E-02  0.1379984E+01
      -11   -1    0    0    0    0  0.00000000000E+00  0.00000000000E+00  0.35740347158E-01  0.35744000000E-01  0.51099999109E-03 0. -1.
       11   -1    0    0    0    0 -0.00000000000E+00 -0.00000000000E+00 -0.35740347158E-01  0.35744000000E-01  0.51099999109E-03 0.  1.
       22    1    1    2    0    0  0.25750697139E-02 -0.18607977965E-02 -0.35595505789E-01  0.35737005818E-01  0.00000000000E+00 0.  1.
  9000001    1    1    2    0    0 -0.25750697139E-02  0.18607977965E-02  0.35595505789E-01  0.35750994182E-01  0.10000000475E-02 0. -1.
</event>
<event>
 4   0  0.4958067E-02  0.9118800E+02  0.7818609E-02  0.1379984E+01
      -11   -1    0    0    0    0  0.00000000000E+00  0.00000000000E+00  0.35740347158E-01  0.35744000000E-01  0.51099999109E-03 0.  1.
       11   -1    0    0    0    0 -0.00000000000E+00 -0.00000000000E+00 -0.35740347158E-01  0.35744000000E-01  0.51099999109E-03 0. -1.
       22    1    1    2    0    0 -0.33814914183E-01  0.66373922649E-02 -0.94673220928E-02  0.35737005818E-01  0.00000000000E+00 0.  1.
  9000001    1    1    2    0    0  0.33814914183E-01 -0.66373922649E-02  0.94673220928E-02  0.35750994182E-01  0.10000000475E-02 0. -1.
</event>
<event>
 4   0  0.4958067E-02  0.9118800E+02  0.7818609E-02  0.1379984E+01
      -11   -1    0    0    0    0  0.00000000000E+00  0.00000000000E+00  0.35740347158E-01  0.35744000000E-01  0.51099999109E-03 0.  1.
       11   -1    0    0    0    0 -0.00000000000E+00 -0.00000000000E+00 -0.35740347158E-01  0.35744000000E-01  0.51099999109E-03 0. -1.
       22    1    1    2    0    0 -0.28923096076E-02 -0.40464015423E-02 -0.35389189939E-01  0.35737005818E-01  0.00000000000E+00 0. -1.
  9000001    1    1    2    0    0  0.28923096076E-02  0.40464015423E-02  0.35389189939E-01  0.35750994182E-01  0.10000000475E-02 0.  1.
</event>
<event>
 4   0  0.4958067E-02  0.9118800E+02  0.7818609E-02  0.1379984E+01
      -11   -1    0    0    0    0  0.00000000000E+00  0.00000000000E+00  0.35740347158E-01  0.35744000000E-01  0.51099999109E-03 0. -1.
       11   -1    0    0    0    0 -0.00000000000E+00 -0.00000000000E+00 -0.35740347158E-01  0.35744000000E-01  0.51099999109E-03 0.  1.
       22    1    1    2    0    0  0.53344634219E-02  0.13389539519E-01 -0.32701640882E-01  0.35737005818E-01  0.00000000000E+00 0.  1.
  9000001    1    1    2    0    0 -0.53344634219E-02 -0.13389539519E-01  0.32701640882E-01  0.35750994182E-01  0.10000000475E-02 0. -1.
</event>
<event>
 4   0  0.4958067E-02  0.9118800E+02  0.7818609E-02  0.1379984E+01
      -11   -1    0    0    0    0  0.00000000000E+00  0.00000000000E+00  0.35740347158E-01  0.35744000000E-01  0.51099999109E-03 0. -1.
       11   -1    0    0    0    0 -0.00000000000E+00 -0.00000000000E+00 -0.35740347158E-01  0.35744000000E-01  0.51099999109E-03 0.  1.
       22    1    1    2    0    0 -0.19504279399E-01  0.47803749615E-03  0.29941411960E-01  0.35737005818E-01  0.00000000000E+00 0. -1.
  9000001    1    1    2    0    0  0.19504279399E-01 -0.47803749615E-03 -0.29941411960E-01  0.35750994182E-01  0.10000000475E-02 0.  1.
</event>
<event>
 4   0  0.4958067E-02  0.9118800E+02  0.7818609E-02  0.1379984E+01
      -11   -1    0    0    0    0  0.00000000000E+00  0.00000000000E+00  0.35740347158E-01  0.35744000000E-01  0.51099999109E-03 0. -1.
       11   -1    0    0    0    0 -0.00000000000E+00 -0.00000000000E+00 -0.35740347158E-01  0.35744000000E-01  0.51099999109E-03 0.  1.
       22    1    1    2    0    0  0.32878528077E-02 -0.14564217505E-01 -0.32468556747E-01  0.35737005818E-01  0.00000000000E+00 0.  1.
  9000001    1    1    2    0    0 -0.32878528077E-02  0.14564217505E-01  0.32468556747E-01  0.35750994182E-01  0.10000000475E-02 0. -1.
</event>
<event>
 4   0  0.4958067E-02  0.9118800E+02  0.7818609E-02  0.1379984E+01
      -11   -1    0    0    0    0  0.00000000000E+00  0.00000000000E+00  0.35740347158E-01  0.35744000000E-01  0.51099999109E-03 0. -1.
       11   -1    0    0    0    0 -0.00000000000E+00 -0.00000000000E+00 -0.35740347158E-01  0.35744000000E-01  0.51099999109E-03 0.  1.
       22    1    1    2    0    0 -0.63016796571E-02  0.26340264021E-02  0.35078259981E-01  0.35737005818E-01  0.00000000000E+00 0. -1.
  9000001    1    1    2    0    0  0.63016796571E-02 -0.26340264021E-02 -0.35078259981E-01  0.35750994182E-01  0.10000000475E-02 0.  1.
</event>
<event>
 4   0  0.4958067E-02  0.9118800E+02  0.7818609E-02  0.1379984E+01
      -11   -1    0    0    0    0  0.00000000000E+00  0.00000000000E+00  0.35740347158E-01  0.35744000000E-01  0.51099999109E-03 0. -1.
       11   -1    0    0    0    0 -0.00000000000E+00 -0.00000000000E+00 -0.35740347158E-01  0.35744000000E-01  0.51099999109E-03 0.  1.
       22    1    1    2    0    0  0.13256729050E-01 -0.71496450672E-02  0.32407951111E-01  0.35737005818E-01  0.00000000000E+00 0. -1.
  9000001    1    1    2    0    0 -0.13256729050E-01  0.71496450672E-02 -0.32407951111E-01  0.35750994182E-01  0.10000000475E-02 0.  1.
</event>
<event>
 4   0  0.4958067E-02  0.9118800E+02  0.7818609E-02  0.1379984E+01
      -11   -1    0    0    0    0  0.00000000000E+00  0.00000000000E+00  0.35740347158E-01  0.35744000000E-01  0.51099999109E-03 0. -1.
       11   -1    0    0    0    0 -0.00000000000E+00 -0.00000000000E+00 -0.35740347158E-01  0.35744000000E-01  0.51099999109E-03 0.  1.
       22    1    1    2    0    0  0.22013523204E-01  0.80645207110E-02 -0.26972242894E-01  0.35737005818E-01  0.00000000000E+00 0.  1.
  9000001    1    1    2    0    0 -0.22013523204E-01 -0.80645207110E-02  0.26972242894E-01  0.35750994182E-01  0.10000000475E-02 0. -1.
</event>
<event>
 4   0  0.4958067E-02  0.9118800E+02  0.7818609E-02  0.1379984E+01
      -11   -1    0    0    0    0  0.00000000000E+00  0.00000000000E+00  0.35740347158E-01  0.35744000000E-01  0.51099999109E-03 0.  1.
       11   -1    0    0    0    0 -0.00000000000E+00 -0.00000000000E+00 -0.35740347158E-01  0.35744000000E-01  0.51099999109E-03 0. -1.
       22    1    1    2    0    0 -0.11141529573E-02 -0.21147910317E-01  0.28786422794E-01  0.35737005818E-01  0.00000000000E+00 0.  1.
  9000001    1    1    2    0    0  0.11141529573E-02  0.21147910317E-01 -0.28786422794E-01  0.35750994182E-01  0.10000000475E-02 0. -1.
</event>
<event>
 4   0  0.4958067E-02  0.9118800E+02  0.7818609E-02  0.1379984E+01
      -11   -1    0    0    0    0  0.00000000000E+00  0.00000000000E+00  0.35740347158E-01  0.35744000000E-01  0.51099999109E-03 0.  1.
       11   -1    0    0    0    0 -0.00000000000E+00 -0.00000000000E+00 -0.35740347158E-01  0.35744000000E-01  0.51099999109E-03 0. -1.
       22    1    1    2    0    0 -0.47278474961E-02  0.75853512400E-02 -0.34601206474E-01  0.35737005818E-01  0.00000000000E+00 0. -1.
  9000001    1    1    2    0    0  0.47278474961E-02 -0.75853512400E-02  0.34601206474E-01  0.35750994182E-01  0.10000000475E-02 0.  1.
</event>
<event>
 4   0  0.4958067E-02  0.9118800E+02  0.7818609E-02  0.1379984E+01
      -11   -1    0    0    0    0  0.00000000000E+00  0.00000000000E+00  0.35740347158E-01  0.35744000000E-01  0.51099999109E-03 0. -1.
       11   -1    0    0    0    0 -0.00000000000E+00 -0.00000000000E+00 -0.35740347158E-01  0.35744000000E-01  0.51099999109E-03 0.  1.
       22    1    1    2    0    0  0.54498122059E-02  0.28354900405E-02 -0.35205015666E-01  0.35737005818E-01  0.00000000000E+00 0.  1.
  9000001    1    1    2    0    0 -0.54498122059E-02 -0.28354900405E-02  0.35205015666E-01  0.35750994182E-01  0.10000000475E-02 0. -1.
</event>
<event>
 4   0  0.4958067E-02  0.9118800E+02  0.7818609E-02  0.1379984E+01
      -11   -1    0    0    0    0  0.00000000000E+00  0.00000000000E+00  0.35740347158E-01  0.35744000000E-01  0.51099999109E-03 0.  1.
       11   -1    0    0    0    0 -0.00000000000E+00 -0.00000000000E+00 -0.35740347158E-01  0.35744000000E-01  0.51099999109E-03 0. -1.
       22    1    1    2    0    0 -0.27099024214E-02 -0.26960530077E-02 -0.35531975908E-01  0.35737005818E-01  0.00000000000E+00 0. -1.
  9000001    1    1    2    0    0  0.27099024214E-02  0.26960530077E-02  0.35531975908E-01  0.35750994182E-01  0.10000000475E-02 0.  1.
</event>
<event>
 4   0  0.4958067E-02  0.9118800E+02  0.7818609E-02  0.1379984E+01
      -11   -1    0    0    0    0  0.00000000000E+00  0.00000000000E+00  0.35740347158E-01  0.35744000000E-01  0.51099999109E-03 0.  1.
       11   -1    0    0    0    0 -0.00000000000E+00 -0.00000000000E+00 -0.35740347158E-01  0.35744000000E-01  0.51099999109E-03 0. -1.
       22    1    1    2    0    0  0.11936567010E-01  0.21784809919E-01 -0.25691905529E-01  0.35737005818E-01  0.00000000000E+00 0. -1.
  9000001    1    1    2    0    0 -0.11936567010E-01 -0.21784809919E-01  0.25691905529E-01  0.35750994182E-01  0.10000000475E-02 0.  1.
</event>
<event>
 4   0  0.4958067E-02  0.9118800E+02  0.7818609E-02  0.1379984E+01
      -11   -1    0    0    0    0  0.00000000000E+00  0.00000000000E+00  0.35740347158E-01  0.35744000000E-01  0.51099999109E-03 0. -1.
       11   -1    0    0    0    0 -0.00000000000E+00 -0.00000000000E+00 -0.35740347158E-01  0.35744000000E-01  0.51099999109E-03 0.  1.
       22    1    1    2    0    0  0.19632612646E-02  0.12231391057E-01  0.33521221083E-01  0.35737005818E-01  0.00000000000E+00 0. -1.
  9000001    1    1    2    0    0 -0.19632612646E-02 -0.12231391057E-01 -0.33521221083E-01  0.35750994182E-01  0.10000000475E-02 0.  1.
</event>
<event>
 4   0  0.4958067E-02  0.9118800E+02  0.7818609E-02  0.1379984E+01
      -11   -1    0    0    0    0  0.00000000000E+00  0.00000000000E+00  0.35740347158E-01  0.35744000000E-01  0.51099999109E-03 0.  1.
       11   -1    0    0    0    0 -0.00000000000E+00 -0.00000000000E+00 -0.35740347158E-01  0.35744000000E-01  0.51099999109E-03 0. -1.
       22    1    1    2    0    0 -0.28595706571E-03 -0.30161492315E-02  0.35608350948E-01  0.35737005818E-01  0.00000000000E+00 0.  1.
  9000001    1    1    2    0    0  0.28595706571E-03  0.30161492315E-02 -0.35608350948E-01  0.35750994182E-01  0.10000000475E-02 0. -1.
</event>
<event>
 4   0  0.4958067E-02  0.9118800E+02  0.7818609E-02  0.1379984E+01
      -11   -1    0    0    0    0  0.00000000000E+00  0.00000000000E+00  0.35740347158E-01  0.35744000000E-01  0.51099999109E-03 0.  1.
       11   -1    0    0    0    0 -0.00000000000E+00 -0.00000000000E+00 -0.35740347158E-01  0.35744000000E-01  0.51099999109E-03 0. -1.
       22    1    1    2    0    0 -0.27890393938E-01 -0.98807377765E-02  0.20040721840E-01  0.35737005818E-01  0.00000000000E+00 0. -1.
  9000001    1    1    2    0    0  0.27890393938E-01  0.98807377765E-02 -0.20040721840E-01  0.35750994182E-01  0.10000000475E-02 0.  1.
</event>
<event>
 4   0  0.4958067E-02  0.9118800E+02  0.7818609E-02  0.1379984E+01
      -11   -1    0    0    0    0  0.00000000000E+00  0.00000000000E+00  0.35740347158E-01  0.35744000000E-01  0.51099999109E-03 0. -1.
       11   -1    0    0    0    0 -0.00000000000E+00 -0.00000000000E+00 -0.35740347158E-01  0.35744000000E-01  0.51099999109E-03 0.  1.
       22    1    1    2    0    0  0.60352220638E-02 -0.53080652197E-02  0.34821460669E-01  0.35737005818E-01  0.00000000000E+00 0. -1.
  9000001    1    1    2    0    0 -0.60352220638E-02  0.53080652197E-02 -0.34821460669E-01  0.35750994182E-01  0.10000000475E-02 0.  1.
</event>
<event>
 4   0  0.4958067E-02  0.9118800E+02  0.7818609E-02  0.1379984E+01
      -11   -1    0    0    0    0  0.00000000000E+00  0.00000000000E+00  0.35740347158E-01  0.35744000000E-01  0.51099999109E-03 0. -1.
       11   -1    0    0    0    0 -0.00000000000E+00 -0.00000000000E+00 -0.35740347158E-01  0.35744000000E-01  0.51099999109E-03 0.  1.
       22    1    1    2    0    0 -0.44808156056E-02 -0.34064032481E-02  0.35290966171E-01  0.35737005818E-01  0.00000000000E+00 0. -1.
  9000001    1    1    2    0    0  0.44808156056E-02  0.34064032481E-02 -0.35290966171E-01  0.35750994182E-01  0.10000000475E-02 0.  1.
</event>
<event>
 4   0  0.4958067E-02  0.9118800E+02  0.7818609E-02  0.1379984E+01
      -11   -1    0    0    0    0  0.00000000000E+00  0.00000000000E+00  0.35740347158E-01  0.35744000000E-01  0.51099999109E-03 0.  1.
       11   -1    0    0    0    0 -0.00000000000E+00 -0.00000000000E+00 -0.35740347158E-01  0.35744000000E-01  0.51099999109E-03 0. -1.
       22    1    1    2    0    0 -0.96855643800E-02 -0.30512315438E-01  0.15884647749E-01  0.35737005818E-01  0.00000000000E+00 0.  1.
  9000001    1    1    2    0    0  0.96855643800E-02  0.30512315438E-01 -0.15884647749E-01  0.35750994182E-01  0.10000000475E-02 0. -1.
</event>
<event>
 4   0  0.4958067E-02  0.9118800E+02  0.7818609E-02  0.1379984E+01
      -11   -1    0    0    0    0  0.00000000000E+00  0.00000000000E+00  0.35740347158E-01  0.35744000000E-01  0.51099999109E-03 0. -1.
       11   -1    0    0    0    0 -0.00000000000E+00 -0.00000000000E+00 -0.35740347158E-01  0.35744000000E-01  0.51099999109E-03 0.  1.
       22    1    1    2    0    0 -0.22098473363E-01  0.63880482653E-02 -0.27349294310E-01  0.35737005818E-01  0.00000000000E+00 0.  1.
  9000001    1    1    2    0    0  0.22098473363E-01 -0.63880482653E-02  0.27349294310E-01  0.35750994182E-01  0.10000000475E-02 0. -1.
</event>
<event>
 4   0  0.4958067E-02  0.9118800E+02  0.7818609E-02  0.1379984E+01
      -11   -1    0    0    0    0  0.00000000000E+00  0.00000000000E+00  0.35740347158E-01  0.35744000000E-01  0.51099999109E-03 0. -1.
       11   -1    0    0    0    0 -0.00000000000E+00 -0.00000000000E+00 -0.35740347158E-01  0.35744000000E-01  0.51099999109E-03 0.  1.
       22    1    1    2    0    0 -0.49545387120E-03  0.31194789907E-02 -0.35597148217E-01  0.35737005818E-01  0.00000000000E+00 0.  1.
  9000001    1    1    2    0    0  0.49545387120E-03 -0.31194789907E-02  0.35597148217E-01  0.35750994182E-01  0.10000000475E-02 0. -1.
</event>
<event>
 4   0  0.4958067E-02  0.9118800E+02  0.7818609E-02  0.1379984E+01
      -11   -1    0    0    0    0  0.00000000000E+00  0.00000000000E+00  0.35740347158E-01  0.35744000000E-01  0.51099999109E-03 0.  1.
       11   -1    0    0    0    0 -0.00000000000E+00 -0.00000000000E+00 -0.35740347158E-01  0.35744000000E-01  0.51099999109E-03 0. -1.
       22    1    1    2    0    0 -0.13943601667E-01 -0.16054082830E-01  0.28722395129E-01  0.35737005818E-01  0.00000000000E+00 0.  1.
  9000001    1    1    2    0    0  0.13943601667E-01  0.16054082830E-01 -0.28722395129E-01  0.35750994182E-01  0.10000000475E-02 0. -1.
</event>
<event>
 4   0  0.4958067E-02  0.9118800E+02  0.7818609E-02  0.1379984E+01
      -11   -1    0    0    0    0  0.00000000000E+00  0.00000000000E+00  0.35740347158E-01  0.35744000000E-01  0.51099999109E-03 0.  1.
       11   -1    0    0    0    0 -0.00000000000E+00 -0.00000000000E+00 -0.35740347158E-01  0.35744000000E-01  0.51099999109E-03 0. -1.
       22    1    1    2    0    0  0.99870718155E-02 -0.29829659606E-01  0.16958283793E-01  0.35737005818E-01  0.00000000000E+00 0.  1.
  9000001    1    1    2    0    0 -0.99870718155E-02  0.29829659606E-01 -0.16958283793E-01  0.35750994182E-01  0.10000000475E-02 0. -1.
</event>
<event>
 4   0  0.4958067E-02  0.9118800E+02  0.7818609E-02  0.1379984E+01
      -11   -1    0    0    0    0  0.00000000000E+00  0.00000000000E+00  0.35740347158E-01  0.35744000000E-01  0.51099999109E-03 0.  1.
       11   -1    0    0    0    0 -0.00000000000E+00 -0.00000000000E+00 -0.35740347158E-01  0.35744000000E-01  0.51099999109E-03 0. -1.
       22    1    1    2    0    0  0.46424091306E-02 -0.74508004158E-03  0.35426352876E-01  0.35737005818E-01  0.00000000000E+00 0.  1.
  9000001    1    1    2    0    0 -0.46424091306E-02  0.74508004158E-03 -0.35426352876E-01  0.35750994182E-01  0.10000000475E-02 0. -1.
</event>
<event>
 4   0  0.4958067E-02  0.9118800E+02  0.7818609E-02  0.1379984E+01
      -11   -1    0    0    0    0  0.00000000000E+00  0.00000000000E+00  0.35740347158E-01  0.35744000000E-01  0.51099999109E-03 0. -1.
       11   -1    0    0    0    0 -0.00000000000E+00 -0.00000000000E+00 -0.35740347158E-01  0.35744000000E-01  0.51099999109E-03 0.  1.
       22    1    1    2    0    0  0.12015406757E-03  0.33866202601E-02  0.35575974352E-01  0.35737005818E-01  0.00000000000E+00 0. -1.
  9000001    1    1    2    0    0 -0.12015406757E-03 -0.33866202601E-02 -0.35575974352E-01  0.35750994182E-01  0.10000000475E-02 0.  1.
</event>
<event>
 4   0  0.4958067E-02  0.9118800E+02  0.7818609E-02  0.1379984E+01
      -11   -1    0    0    0    0  0.00000000000E+00  0.00000000000E+00  0.35740347158E-01  0.35744000000E-01  0.51099999109E-03 0. -1.
       11   -1    0    0    0    0 -0.00000000000E+00 -0.00000000000E+00 -0.35740347158E-01  0.35744000000E-01  0.51099999109E-03 0.  1.
       22    1    1    2    0    0  0.61943391435E-02  0.79077149166E-02 -0.34296235832E-01  0.35737005818E-01  0.00000000000E+00 0.  1.
  9000001    1    1    2    0    0 -0.61943391435E-02 -0.79077149166E-02  0.34296235832E-01  0.35750994182E-01  0.10000000475E-02 0. -1.
</event>
<event>
 4   0  0.4958067E-02  0.9118800E+02  0.7818609E-02  0.1379984E+01
      -11   -1    0    0    0    0  0.00000000000E+00  0.00000000000E+00  0.35740347158E-01  0.35744000000E-01  0.51099999109E-03 0.  1.
       11   -1    0    0    0    0 -0.00000000000E+00 -0.00000000000E+00 -0.35740347158E-01  0.35744000000E-01  0.51099999109E-03 0. -1.
       22    1    1    2    0    0 -0.27916252058E-02  0.15538594163E-02  0.35593903052E-01  0.35737005818E-01  0.00000000000E+00 0.  1.
  9000001    1    1    2    0    0  0.27916252058E-02 -0.15538594163E-02 -0.35593903052E-01  0.35750994182E-01  0.10000000475E-02 0. -1.
</event>
<event>
 4   0  0.4958067E-02  0.9118800E+02  0.7818609E-02  0.1379984E+01
      -11   -1    0    0    0    0  0.00000000000E+00  0.00000000000E+00  0.35740347158E-01  0.35744000000E-01  0.51099999109E-03 0.  1.
       11   -1    0    0    0    0 -0.00000000000E+00 -0.00000000000E+00 -0.35740347158E-01  0.35744000000E-01  0.51099999109E-03 0. -1.
       22    1    1    2    0    0 -0.32373799144E-02 -0.81708452167E-03 -0.35580687585E-01  0.35737005818E-01  0.00000000000E+00 0. -1.
  9000001    1    1    2    0    0  0.32373799144E-02  0.81708452167E-03  0.35580687585E-01  0.35750994182E-01  0.10000000475E-02 0.  1.
</event>
<event>
 4   0  0.4958067E-02  0.9118800E+02  0.7818609E-02  0.1379984E+01
      -11   -1    0    0    0    0  0.00000000000E+00  0.00000000000E+00  0.35740347158E-01  0.35744000000E-01  0.51099999109E-03 0.  1.
       11   -1    0    0    0    0 -0.00000000000E+00 -0.00000000000E+00 -0.35740347158E-01  0.35744000000E-01  0.51099999109E-03 0. -1.
       22    1    1    2    0    0 -0.37493806150E-02 -0.39354982934E-03 -0.35537597674E-01  0.35737005818E-01  0.00000000000E+00 0. -1.
  9000001    1    1    2    0    0  0.37493806150E-02  0.39354982934E-03  0.35537597674E-01  0.35750994182E-01  0.10000000475E-02 0.  1.
</event>
<event>
 4   0  0.4958067E-02  0.9118800E+02  0.7818609E-02  0.1379984E+01
      -11   -1    0    0    0    0  0.00000000000E+00  0.00000000000E+00  0.35740347158E-01  0.35744000000E-01  0.51099999109E-03 0.  1.
       11   -1    0    0    0    0 -0.00000000000E+00 -0.00000000000E+00 -0.35740347158E-01  0.35744000000E-01  0.51099999109E-03 0. -1.
       22    1    1    2    0    0  0.20463607308E-02  0.56380480683E-02 -0.35230078152E-01  0.35737005818E-01  0.00000000000E+00 0. -1.
  9000001    1    1    2    0    0 -0.20463607308E-02 -0.56380480683E-02  0.35230078152E-01  0.35750994182E-01  0.10000000475E-02 0.  1.
</event>
<event>
 4   0  0.4958067E-02  0.9118800E+02  0.7818609E-02  0.1379984E+01
      -11   -1    0    0    0    0  0.00000000000E+00  0.00000000000E+00  0.35740347158E-01  0.35744000000E-01  0.51099999109E-03 0.  1.
       11   -1    0    0    0    0 -0.00000000000E+00 -0.00000000000E+00 -0.35740347158E-01  0.35744000000E-01  0.51099999109E-03 0. -1.
       22    1    1    2    0    0 -0.21555074249E-01 -0.28943260510E-02  0.28357278355E-01  0.35737005818E-01  0.00000000000E+00 0.  1.
  9000001    1    1    2    0    0  0.21555074249E-01  0.28943260510E-02 -0.28357278355E-01  0.35750994182E-01  0.10000000475E-02 0. -1.
</event>
<event>
 4   0  0.4958067E-02  0.9118800E+02  0.7818609E-02  0.1379984E+01
      -11   -1    0    0    0    0  0.00000000000E+00  0.00000000000E+00  0.35740347158E-01  0.35744000000E-01  0.51099999109E-03 0. -1.
       11   -1    0    0    0    0 -0.00000000000E+00 -0.00000000000E+00 -0.35740347158E-01  0.35744000000E-01  0.51099999109E-03 0.  1.
       22    1    1    2    0    0 -0.15144567868E-01 -0.26009942308E-01  0.19268070742E-01  0.35737005818E-01  0.00000000000E+00 0. -1.
  9000001    1    1    2    0    0  0.15144567868E-01  0.26009942308E-01 -0.19268070742E-01  0.35750994182E-01  0.10000000475E-02 0.  1.
</event>
<event>
 4   0  0.4958067E-02  0.9118800E+02  0.7818609E-02  0.1379984E+01
      -11   -1    0    0    0    0  0.00000000000E+00  0.00000000000E+00  0.35740347158E-01  0.35744000000E-01  0.51099999109E-03 0.  1.
       11   -1    0    0    0    0 -0.00000000000E+00 -0.00000000000E+00 -0.35740347158E-01  0.35744000000E-01  0.51099999109E-03 0. -1.
       22    1    1    2    0    0 -0.55124400114E-02 -0.89269249631E-02 -0.34162210126E-01  0.35737005818E-01  0.00000000000E+00 0. -1.
  9000001    1    1    2    0    0  0.55124400114E-02  0.89269249631E-02  0.34162210126E-01  0.35750994182E-01  0.10000000475E-02 0.  1.
</event>
<event>
 4   0  0.4958067E-02  0.9118800E+02  0.7818609E-02  0.1379984E+01
      -11   -1    0    0    0    0  0.00000000000E+00  0.00000000000E+00  0.35740347158E-01  0.35744000000E-01  0.51099999109E-03 0. -1.
       11   -1    0    0    0    0 -0.00000000000E+00 -0.00000000000E+00 -0.35740347158E-01  0.35744000000E-01  0.51099999109E-03 0.  1.
       22    1    1    2    0    0 -0.11136122315E-01 -0.19923712625E-01  0.27498473411E-01  0.35737005818E-01  0.00000000000E+00 0. -1.
  9000001    1    1    2    0    0  0.11136122315E-01  0.19923712625E-01 -0.27498473411E-01  0.35750994182E-01  0.10000000475E-02 0.  1.
</event>
<event>
 4   0  0.4958067E-02  0.9118800E+02  0.7818609E-02  0.1379984E+01
      -11   -1    0    0    0    0  0.00000000000E+00  0.00000000000E+00  0.35740347158E-01  0.35744000000E-01  0.51099999109E-03 0.  1.
       11   -1    0    0    0    0 -0.00000000000E+00 -0.00000000000E+00 -0.35740347158E-01  0.35744000000E-01  0.51099999109E-03 0. -1.
       22    1    1    2    0    0  0.24339779833E-02 -0.29362900043E-02 -0.35532907805E-01  0.35737005818E-01  0.00000000000E+00 0. -1.
  9000001    1    1    2    0    0 -0.24339779833E-02  0.29362900043E-02  0.35532907805E-01  0.35750994182E-01  0.10000000475E-02 0.  1.
</event>
<event>
 4   0  0.4958067E-02  0.9118800E+02  0.7818609E-02  0.1379984E+01
      -11   -1    0    0    0    0  0.00000000000E+00  0.00000000000E+00  0.35740347158E-01  0.35744000000E-01  0.51099999109E-03 0. -1.
       11   -1    0    0    0    0 -0.00000000000E+00 -0.00000000000E+00 -0.35740347158E-01  0.35744000000E-01  0.51099999109E-03 0.  1.
       22    1    1    2    0    0 -0.10282069222E-01  0.24577741125E-02 -0.34137545076E-01  0.35737005818E-01  0.00000000000E+00 0.  1.
  9000001    1    1    2    0    0  0.10282069222E-01 -0.24577741125E-02  0.34137545076E-01  0.35750994182E-01  0.10000000475E-02 0. -1.
</event>
<event>
 4   0  0.4958067E-02  0.9118800E+02  0.7818609E-02  0.1379984E+01
      -11   -1    0    0    0    0  0.00000000000E+00  0.00000000000E+00  0.35740347158E-01  0.35744000000E-01  0.51099999109E-03 0. -1.
       11   -1    0    0    0    0 -0.00000000000E+00 -0.00000000000E+00 -0.35740347158E-01  0.35744000000E-01  0.51099999109E-03 0.  1.
       22    1    1    2    0    0  0.18297578183E-01 -0.76841790465E-02  0.29720121296E-01  0.35737005818E-01  0.00000000000E+00 0. -1.
  9000001    1    1    2    0    0 -0.18297578183E-01  0.76841790465E-02 -0.29720121296E-01  0.35750994182E-01  0.10000000475E-02 0.  1.
</event>
<event>
 4   0  0.4958067E-02  0.9118800E+02  0.7818609E-02  0.1379984E+01
      -11   -1    0    0    0    0  0.00000000000E+00  0.00000000000E+00  0.35740347158E-01  0.35744000000E-01  0.51099999109E-03 0.  1.
       11   -1    0    0    0    0 -0.00000000000E+00 -0.00000000000E+00 -0.35740347158E-01  0.35744000000E-01  0.51099999109E-03 0. -1.
       22    1    1    2    0    0 -0.56910923478E-02 -0.59908084991E-02  0.34768595978E-01  0.35737005818E-01  0.00000000000E+00 0.  1.
  9000001    1    1    2    0    0  0.56910923478E-02  0.59908084991E-02 -0.34768595978E-01  0.35750994182E-01  0.10000000475E-02 0. -1.
</event>
<event>
 4   0  0.4958067E-02  0.9118800E+02  0.7818609E-02  0.1379984E+01
      -11   -1    0    0    0    0  0.00000000000E+00  0.00000000000E+00  0.35740347158E-01  0.35744000000E-01  0.51099999109E-03 0. -1.
       11   -1    0    0    0    0 -0.00000000000E+00 -0.00000000000E+00 -0.35740347158E-01  0.35744000000E-01  0.51099999109E-03 0.  1.
       22    1    1    2    0    0 -0.52283150234E-03  0.39187524962E-02  0.35517652104E-01  0.35737005818E-01  0.00000000000E+00 0. -1.
  9000001    1    1    2    0    0  0.52283150234E-03 -0.39187524962E-02 -0.35517652104E-01  0.35750994182E-01  0.10000000475E-02 0.  1.
</event>
<event>
 4   0  0.4958067E-02  0.9118800E+02  0.7818609E-02  0.1379984E+01
      -11   -1    0    0    0    0  0.00000000000E+00  0.00000000000E+00  0.35740347158E-01  0.35744000000E-01  0.51099999109E-03 0.  1.
       11   -1    0    0    0    0 -0.00000000000E+00 -0.00000000000E+00 -0.35740347158E-01  0.35744000000E-01  0.51099999109E-03 0. -1.
       22    1    1    2    0    0 -0.15802368690E-02  0.24193378179E-01 -0.26254845050E-01  0.35737005818E-01  0.00000000000E+00 0. -1.
  9000001    1    1    2    0    0  0.15802368690E-02 -0.24193378179E-01  0.26254845050E-01  0.35750994182E-01  0.10000000475E-02 0.  1.
</event>
<event>
 4   0  0.4958067E-02  0.9118800E+02  0.7818609E-02  0.1379984E+01
      -11   -1    0    0    0    0  0.00000000000E+00  0.00000000000E+00  0.35740347158E-01  0.35744000000E-01  0.51099999109E-03 0.  1.
       11   -1    0    0    0    0 -0.00000000000E+00 -0.00000000000E+00 -0.35740347158E-01  0.35744000000E-01  0.51099999109E-03 0. -1.
       22    1    1    2    0    0 -0.93248498164E-02 -0.11457932051E-01  0.32540690741E-01  0.35737005818E-01  0.00000000000E+00 0.  1.
  9000001    1    1    2    0    0  0.93248498164E-02  0.11457932051E-01 -0.32540690741E-01  0.35750994182E-01  0.10000000475E-02 0. -1.
</event>
<event>
 4   0  0.4958067E-02  0.9118800E+02  0.7818609E-02  0.1379984E+01
      -11   -1    0    0    0    0  0.00000000000E+00  0.00000000000E+00  0.35740347158E-01  0.35744000000E-01  0.51099999109E-03 0.  1.
       11   -1    0    0    0    0 -0.00000000000E+00 -0.00000000000E+00 -0.35740347158E-01  0.35744000000E-01  0.51099999109E-03 0. -1.
       22    1    1    2    0    0 -0.78485456880E-02 -0.23305379685E-02  0.34786527683E-01  0.35737005818E-01  0.00000000000E+00 0.  1.
  9000001    1    1    2    0    0  0.78485456880E-02  0.23305379685E-02 -0.34786527683E-01  0.35750994182E-01  0.10000000475E-02 0. -1.
</event>
<event>
 4   0  0.4958067E-02  0.9118800E+02  0.7818609E-02  0.1379984E+01
      -11   -1    0    0    0    0  0.00000000000E+00  0.00000000000E+00  0.35740347158E-01  0.35744000000E-01  0.51099999109E-03 0. -1.
       11   -1    0    0    0    0 -0.00000000000E+00 -0.00000000000E+00 -0.35740347158E-01  0.35744000000E-01  0.51099999109E-03 0.  1.
       22    1    1    2    0    0  0.24450638428E-02 -0.40620597935E-02  0.35421108366E-01  0.35737005818E-01  0.00000000000E+00 0. -1.
  9000001    1    1    2    0    0 -0.24450638428E-02  0.40620597935E-02 -0.35421108366E-01  0.35750994182E-01  0.10000000475E-02 0.  1.
</event>
<event>
 4   0  0.4958067E-02  0.9118800E+02  0.7818609E-02  0.1379984E+01
      -11   -1    0    0    0    0  0.00000000000E+00  0.00000000000E+00  0.35740347158E-01  0.35744000000E-01  0.51099999109E-03 0.  1.
       11   -1    0    0    0    0 -0.00000000000E+00 -0.00000000000E+00 -0.35740347158E-01  0.35744000000E-01  0.51099999109E-03 0. -1.
       22    1    1    2    0    0  0.14519690078E-02  0.41010785748E-02  0.35471206991E-01  0.35737005818E-01  0.00000000000E+00 0.  1.
  9000001    1    1    2    0    0 -0.14519690078E-02 -0.41010785748E-02 -0.35471206991E-01  0.35750994182E-01  0.10000000475E-02 0. -1.
</event>
<event>
 4   0  0.4958067E-02  0.9118800E+02  0.7818609E-02  0.1379984E+01
      -11   -1    0    0    0    0  0.00000000000E+00  0.00000000000E+00  0.35740347158E-01  0.35744000000E-01  0.51099999109E-03 0. -1.
       11   -1    0    0    0    0 -0.00000000000E+00 -0.00000000000E+00 -0.35740347158E-01  0.35744000000E-01  0.51099999109E-03 0.  1.
       22    1    1    2    0    0 -0.21126936039E-01 -0.19901800981E-01  0.20849567770E-01  0.35737005818E-01  0.00000000000E+00 0. -1.
  9000001    1    1    2    0    0  0.21126936039E-01  0.19901800981E-01 -0.20849567770E-01  0.35750994182E-01  0.10000000475E-02 0.  1.
</event>
<event>
 4   0  0.4958067E-02  0.9118800E+02  0.7818609E-02  0.1379984E+01
      -11   -1    0    0    0    0  0.00000000000E+00  0.00000000000E+00  0.35740347158E-01  0.35744000000E-01  0.51099999109E-03 0.  1.
       11   -1    0    0    0    0 -0.00000000000E+00 -0.00000000000E+00 -0.35740347158E-01  0.35744000000E-01  0.51099999109E-03 0. -1.
       22    1    1    2    0    0  0.10621161872E-01 -0.25683001094E-02 -0.34025407270E-01  0.35737005818E-01  0.00000000000E+00 0. -1.
  9000001    1    1    2    0    0 -0.10621161872E-01  0.25683001094E-02  0.34025407270E-01  0.35750994182E-01  0.10000000475E-02 0.  1.
</event>
<event>
 4   0  0.4958067E-02  0.9118800E+02  0.7818609E-02  0.1379984E+01
      -11   -1    0    0    0    0  0.00000000000E+00  0.00000000000E+00  0.35740347158E-01  0.35744000000E-01  0.51099999109E-03 0.  1.
       11   -1    0    0    0    0 -0.00000000000E+00 -0.00000000000E+00 -0.35740347158E-01  0.35744000000E-01  0.51099999109E-03 0. -1.
       22    1    1    2    0    0 -0.68438300464E-02 -0.26522774772E-02 -0.34975148311E-01  0.35737005818E-01  0.00000000000E+00 0. -1.
  9000001    1    1    2    0    0  0.68438300464E-02  0.26522774772E-02  0.34975148311E-01  0.35750994182E-01  0.10000000475E-02 0.  1.
</event>
<event>
 4   0  0.4958067E-02  0.9118800E+02  0.7818609E-02  0.1379984E+01
      -11   -1    0    0    0    0  0.00000000000E+00  0.00000000000E+00  0.35740347158E-01  0.35744000000E-01  0.51099999109E-03 0.  1.
       11   -1    0    0    0    0 -0.00000000000E+00 -0.00000000000E+00 -0.35740347158E-01  0.35744000000E-01  0.51099999109E-03 0. -1.
       22    1    1    2    0    0 -0.23129127080E-01 -0.20296116838E-02 -0.27167218146E-01  0.35737005818E-01  0.00000000000E+00 0. -1.
  9000001    1    1    2    0    0  0.23129127080E-01  0.20296116838E-02  0.27167218146E-01  0.35750994182E-01  0.10000000475E-02 0.  1.
</event>
<event>
 4   0  0.4958067E-02  0.9118800E+02  0.7818609E-02  0.1379984E+01
      -11   -1    0    0    0    0  0.00000000000E+00  0.00000000000E+00  0.35740347158E-01  0.35744000000E-01  0.51099999109E-03 0.  1.
       11   -1    0    0    0    0 -0.00000000000E+00 -0.00000000000E+00 -0.35740347158E-01  0.35744000000E-01  0.51099999109E-03 0. -1.
       22    1    1    2    0    0  0.74306590346E-02  0.39260645084E-02 -0.34734779525E-01  0.35737005818E-01  0.00000000000E+00 0. -1.
  9000001    1    1    2    0    0 -0.74306590346E-02 -0.39260645084E-02  0.34734779525E-01  0.35750994182E-01  0.10000000475E-02 0.  1.
</event>
<event>
 4   0  0.4958067E-02  0.9118800E+02  0.7818609E-02  0.1379984E+01
      -11   -1    0    0    0    0  0.00000000000E+00  0.00000000000E+00  0.35740347158E-01  0.35744000000E-01  0.51099999109E-03 0.  1.
       11   -1    0    0    0    0 -0.00000000000E+00 -0.00000000000E+00 -0.35740347158E-01  0.35744000000E-01  0.51099999109E-03 0. -1.
       22    1    1    2    0    0 -0.18549524772E-01 -0.29072432098E-01 -0.93724280459E-02  0.35737005818E-01  0.00000000000E+00 0.  1.
  9000001    1    1    2    0    0  0.18549524772E-01  0.29072432098E-01  0.93724280459E-02  0.35750994182E-01  0.10000000475E-02 0. -1.
</event>
<event>
 4   0  0.4958067E-02  0.9118800E+02  0.7818609E-02  0.1379984E+01
      -11   -1    0    0    0    0  0.00000000000E+00  0.00000000000E+00  0.35740347158E-01  0.35744000000E-01  0.51099999109E-03 0. -1.
       11   -1    0    0    0    0 -0.00000000000E+00 -0.00000000000E+00 -0.35740347158E-01  0.35744000000E-01  0.51099999109E-03 0.  1.
       22    1    1    2    0    0  0.61012960732E-02 -0.17780387451E-02  0.35167404643E-01  0.35737005818E-01  0.00000000000E+00 0. -1.
  9000001    1    1    2    0    0 -0.61012960732E-02  0.17780387451E-02 -0.35167404643E-01  0.35750994182E-01  0.10000000475E-02 0.  1.
</event>
<event>
 4   0  0.4958067E-02  0.9118800E+02  0.7818609E-02  0.1379984E+01
      -11   -1    0    0    0    0  0.00000000000E+00  0.00000000000E+00  0.35740347158E-01  0.35744000000E-01  0.51099999109E-03 0. -1.
       11   -1    0    0    0    0 -0.00000000000E+00 -0.00000000000E+00 -0.35740347158E-01  0.35744000000E-01  0.51099999109E-03 0.  1.
       22    1    1    2    0    0  0.56577980718E-02 -0.13592941135E-02 -0.35260108130E-01  0.35737005818E-01  0.00000000000E+00 0.  1.
  9000001    1    1    2    0    0 -0.56577980718E-02  0.13592941135E-02  0.35260108130E-01  0.35750994182E-01  0.10000000475E-02 0. -1.
</event>
<event>
 4   0  0.4958067E-02  0.9118800E+02  0.7818609E-02  0.1379984E+01
      -11   -1    0    0    0    0  0.00000000000E+00  0.00000000000E+00  0.35740347158E-01  0.35744000000E-01  0.51099999109E-03 0.  1.
       11   -1    0    0    0    0 -0.00000000000E+00 -0.00000000000E+00 -0.35740347158E-01  0.35744000000E-01  0.51099999109E-03 0. -1.
       22    1    1    2    0    0 -0.59034417759E-02  0.62523834181E-02  0.34687038814E-01  0.35737005818E-01  0.00000000000E+00 0.  1.
  9000001    1    1    2    0    0  0.59034417759E-02 -0.62523834181E-02 -0.34687038814E-01  0.35750994182E-01  0.10000000475E-02 0. -1.
</event>
<event>
 4   0  0.4958067E-02  0.9118800E+02  0.7818609E-02  0.1379984E+01
      -11   -1    0    0    0    0  0.00000000000E+00  0.00000000000E+00  0.35740347158E-01  0.35744000000E-01  0.51099999109E-03 0.  1.
       11   -1    0    0    0    0 -0.00000000000E+00 -0.00000000000E+00 -0.35740347158E-01  0.35744000000E-01  0.51099999109E-03 0. -1.
       22    1    1    2    0    0 -0.20444886727E-01  0.74517519076E-02  0.28348043761E-01  0.35737005818E-01  0.00000000000E+00 0.  1.
  9000001    1    1    2    0    0  0.20444886727E-01 -0.74517519076E-02 -0.28348043761E-01  0.35750994182E-01  0.10000000475E-02 0. -1.
</event>
<event>
 4   0  0.4958067E-02  0.9118800E+02  0.7818609E-02  0.1379984E+01
      -11   -1    0    0    0    0  0.00000000000E+00  0.00000000000E+00  0.35740347158E-01  0.35744000000E-01  0.51099999109E-03 0.  1.
       11   -1    0    0    0    0 -0.00000000000E+00 -0.00000000000E+00 -0.35740347158E-01  0.35744000000E-01  0.51099999109E-03 0. -1.
       22    1    1    2    0    0  0.33624295995E-02  0.21038956399E-02 -0.35516211442E-01  0.35737005818E-01  0.00000000000E+00 0. -1.
  9000001    1    1    2    0    0 -0.33624295995E-02 -0.21038956399E-02  0.35516211442E-01  0.35750994182E-01  0.10000000475E-02 0.  1.
</event>
<event>
 4   0  0.4958067E-02  0.9118800E+02  0.7818609E-02  0.1379984E+01
      -11   -1    0    0    0    0  0.00000000000E+00  0.00000000000E+00  0.35740347158E-01  0.35744000000E-01  0.51099999109E-03 0. -1.
       11   -1    0    0    0    0 -0.00000000000E+00 -0.00000000000E+00 -0.35740347158E-01  0.35744000000E-01  0.51099999109E-03 0.  1.
       22    1    1    2    0    0  0.21803152632E-01 -0.28249107195E-01  0.19349581049E-02  0.35737005818E-01  0.00000000000E+00 0.  1.
  9000001    1    1    2    0    0 -0.21803152632E-01  0.28249107195E-01 -0.19349581049E-02  0.35750994182E-01  0.10000000475E-02 0. -1.
</event>
<event>
 4   0  0.4958067E-02  0.9118800E+02  0.7818609E-02  0.1379984E+01
      -11   -1    0    0    0    0  0.00000000000E+00  0.00000000000E+00  0.35740347158E-01  0.35744000000E-01  0.51099999109E-03 0.  1.
       11   -1    0    0    0    0 -0.00000000000E+00 -0.00000000000E+00 -0.35740347158E-01  0.35744000000E-01  0.51099999109E-03 0. -1.
       22    1    1    2    0    0  0.12829326371E-01  0.29214323027E-01 -0.16095505578E-01  0.35737005818E-01  0.00000000000E+00 0.  1.
  9000001    1    1    2    0    0 -0.12829326371E-01 -0.29214323027E-01  0.16095505578E-01  0.35750994182E-01  0.10000000475E-02 0. -1.
</event>
<event>
 4   0  0.4958067E-02  0.9118800E+02  0.7818609E-02  0.1379984E+01
      -11   -1    0    0    0    0  0.00000000000E+00  0.00000000000E+00  0.35740347158E-01  0.35744000000E-01  0.51099999109E-03 0. -1.
       11   -1    0    0    0    0 -0.00000000000E+00 -0.00000000000E+00 -0.35740347158E-01  0.35744000000E-01  0.51099999109E-03 0.  1.
       22    1    1    2    0    0  0.15005726703E-01 -0.50714633720E-02  0.32035012256E-01  0.35737005818E-01  0.00000000000E+00 0. -1.
  9000001    1    1    2    0    0 -0.15005726703E-01  0.50714633720E-02 -0.32035012256E-01  0.35750994182E-01  0.10000000475E-02 0.  1.
</event>
<event>
 4   0  0.4958067E-02  0.9118800E+02  0.7818609E-02  0.1379984E+01
      -11   -1    0    0    0    0  0.00000000000E+00  0.00000000000E+00  0.35740347158E-01  0.35744000000E-01  0.51099999109E-03 0.  1.
       11   -1    0    0    0    0 -0.00000000000E+00 -0.00000000000E+00 -0.35740347158E-01  0.35744000000E-01  0.51099999109E-03 0. -1.
       22    1    1    2    0    0  0.28036065259E-02  0.17476115748E-02 -0.35583974330E-01  0.35737005818E-01  0.00000000000E+00 0. -1.
  9000001    1    1    2    0    0 -0.28036065259E-02 -0.17476115748E-02  0.35583974330E-01  0.35750994182E-01  0.10000000475E-02 0.  1.
</event>
<event>
 4   0  0.4958067E-02  0.9118800E+02  0.7818609E-02  0.1379984E+01
      -11   -1    0    0    0    0  0.00000000000E+00  0.00000000000E+00  0.35740347158E-01  0.35744000000E-01  0.51099999109E-03 0.  1.
       11   -1    0    0    0    0 -0.00000000000E+00 -0.00000000000E+00 -0.35740347158E-01  0.35744000000E-01  0.51099999109E-03 0. -1.
       22    1    1    2    0    0  0.70083066621E-03 -0.33206473327E-02  0.35575493286E-01  0.35737005818E-01  0.00000000000E+00 0.  1.
  9000001    1    1    2    0    0 -0.70083066621E-03  0.33206473327E-02 -0.35575493286E-01  0.35750994182E-01  0.10000000475E-02 0. -1.
</event>
<event>
 4   0  0.4958067E-02  0.9118800E+02  0.7818609E-02  0.1379984E+01
      -11   -1    0    0    0    0  0.00000000000E+00  0.00000000000E+00  0.35740347158E-01  0.35744000000E-01  0.51099999109E-03 0. -1.
       11   -1    0    0    0    0 -0.00000000000E+00 -0.00000000000E+00 -0.35740347158E-01  0.35744000000E-01  0.51099999109E-03 0.  1.
       22    1    1    2    0    0  0.45306085585E-02  0.42227155731E-02  0.35196247586E-01  0.35737005818E-01  0.00000000000E+00 0. -1.
  9000001    1    1    2    0    0 -0.45306085585E-02 -0.42227155731E-02 -0.35196247586E-01  0.35750994182E-01  0.10000000475E-02 0.  1.
</event>
<event>
 4   0  0.4958067E-02  0.9118800E+02  0.7818609E-02  0.1379984E+01
      -11   -1    0    0    0    0  0.00000000000E+00  0.00000000000E+00  0.35740347158E-01  0.35744000000E-01  0.51099999109E-03 0. -1.
       11   -1    0    0    0    0 -0.00000000000E+00 -0.00000000000E+00 -0.35740347158E-01  0.35744000000E-01  0.51099999109E-03 0.  1.
       22    1    1    2    0    0 -0.37721702056E-02 -0.98680983981E-03  0.35523661455E-01  0.35737005818E-01  0.00000000000E+00 0. -1.
  9000001    1    1    2    0    0  0.37721702056E-02  0.98680983981E-03 -0.35523661455E-01  0.35750994182E-01  0.10000000475E-02 0.  1.
</event>
<event>
 4   0  0.4958067E-02  0.9118800E+02  0.7818609E-02  0.1379984E+01
      -11   -1    0    0    0    0  0.00000000000E+00  0.00000000000E+00  0.35740347158E-01  0.35744000000E-01  0.51099999109E-03 0. -1.
       11   -1    0    0    0    0 -0.00000000000E+00 -0.00000000000E+00 -0.35740347158E-01  0.35744000000E-01  0.51099999109E-03 0.  1.
       22    1    1    2    0    0  0.75214930976E-02  0.25951502959E-01 -0.23389746057E-01  0.35737005818E-01  0.00000000000E+00 0.  1.
  9000001    1    1    2    0    0 -0.75214930976E-02 -0.25951502959E-01  0.23389746057E-01  0.35750994182E-01  0.10000000475E-02 0. -1.
</event>
<event>
 4   0  0.4958067E-02  0.9118800E+02  0.7818609E-02  0.1379984E+01
      -11   -1    0    0    0    0  0.00000000000E+00  0.00000000000E+00  0.35740347158E-01  0.35744000000E-01  0.51099999109E-03 0.  1.
       11   -1    0    0    0    0 -0.00000000000E+00 -0.00000000000E+00 -0.35740347158E-01  0.35744000000E-01  0.51099999109E-03 0. -1.
       22    1    1    2    0    0 -0.10226374021E-02  0.28043514931E-01  0.22128015454E-01  0.35737005818E-01  0.00000000000E+00 0.  1.
  9000001    1    1    2    0    0  0.10226374021E-02 -0.28043514931E-01 -0.22128015454E-01  0.35750994182E-01  0.10000000475E-02 0. -1.
</event>
<event>
 4   0  0.4958067E-02  0.9118800E+02  0.7818609E-02  0.1379984E+01
      -11   -1    0    0    0    0  0.00000000000E+00  0.00000000000E+00  0.35740347158E-01  0.35744000000E-01  0.51099999109E-03 0. -1.
       11   -1    0    0    0    0 -0.00000000000E+00 -0.00000000000E+00 -0.35740347158E-01  0.35744000000E-01  0.51099999109E-03 0.  1.
       22    1    1    2    0    0  0.75360060338E-03 -0.67682251336E-02  0.35082143600E-01  0.35737005818E-01  0.00000000000E+00 0. -1.
  9000001    1    1    2    0    0 -0.75360060338E-03  0.67682251336E-02 -0.35082143600E-01  0.35750994182E-01  0.10000000475E-02 0.  1.
</event>
<event>
 4   0  0.4958067E-02  0.9118800E+02  0.7818609E-02  0.1379984E+01
      -11   -1    0    0    0    0  0.00000000000E+00  0.00000000000E+00  0.35740347158E-01  0.35744000000E-01  0.51099999109E-03 0.  1.
       11   -1    0    0    0    0 -0.00000000000E+00 -0.00000000000E+00 -0.35740347158E-01  0.35744000000E-01  0.51099999109E-03 0. -1.
       22    1    1    2    0    0 -0.59133003225E-02 -0.15187577804E-02  0.35211643514E-01  0.35737005818E-01  0.00000000000E+00 0.  1.
  9000001    1    1    2    0    0  0.59133003225E-02  0.15187577804E-02 -0.35211643514E-01  0.35750994182E-01  0.10000000475E-02 0. -1.
</event>
<event>
 4   0  0.4958067E-02  0.9118800E+02  0.7818609E-02  0.1379984E+01
      -11   -1    0    0    0    0  0.00000000000E+00  0.00000000000E+00  0.35740347158E-01  0.35744000000E-01  0.51099999109E-03 0.  1.
       11   -1    0    0    0    0 -0.00000000000E+00 -0.00000000000E+00 -0.35740347158E-01  0.35744000000E-01  0.51099999109E-03 0. -1.
       22    1    1    2    0    0 -0.33041004963E-03 -0.55749188008E-02 -0.35297941788E-01  0.35737005818E-01  0.00000000000E+00 0. -1.
  9000001    1    1    2    0    0  0.33041004963E-03  0.55749188008E-02  0.35297941788E-01  0.35750994182E-01  0.10000000475E-02 0.  1.
</event>
<event>
 4   0  0.4958067E-02  0.9118800E+02  0.7818609E-02  0.1379984E+01
      -11   -1    0    0    0    0  0.00000000000E+00  0.00000000000E+00  0.35740347158E-01  0.35744000000E-01  0.51099999109E-03 0.  1.
       11   -1    0    0    0    0 -0.00000000000E+00 -0.00000000000E+00 -0.35740347158E-01  0.35744000000E-01  0.51099999109E-03 0. -1.
       22    1    1    2    0    0  0.32755086230E-01  0.61997196238E-02 -0.12876388761E-01  0.35737005818E-01  0.00000000000E+00 0. -1.
  9000001    1    1    2    0    0 -0.32755086230E-01 -0.61997196238E-02  0.12876388761E-01  0.35750994182E-01  0.10000000475E-02 0.  1.
</event>
<event>
 4   0  0.4958067E-02  0.9118800E+02  0.7818609E-02  0.1379984E+01
      -11   -1    0    0    0    0  0.00000000000E+00  0.00000000000E+00  0.35740347158E-01  0.35744000000E-01  0.51099999109E-03 0. -1.
       11   -1    0    0    0    0 -0.00000000000E+00 -0.00000000000E+00 -0.35740347158E-01  0.35744000000E-01  0.51099999109E-03 0.  1.
       22    1    1    2    0    0  0.22606333452E-01  0.26291104220E-01 -0.86524627505E-02  0.35737005818E-01  0.00000000000E+00 0.  1.
  9000001    1    1    2    0    0 -0.22606333452E-01 -0.26291104220E-01  0.86524627505E-02  0.35750994182E-01  0.10000000475E-02 0. -1.
</event>
<event>
 4   0  0.4958067E-02  0.9118800E+02  0.7818609E-02  0.1379984E+01
      -11   -1    0    0    0    0  0.00000000000E+00  0.00000000000E+00  0.35740347158E-01  0.35744000000E-01  0.51099999109E-03 0. -1.
       11   -1    0    0    0    0 -0.00000000000E+00 -0.00000000000E+00 -0.35740347158E-01  0.35744000000E-01  0.51099999109E-03 0.  1.
       22    1    1    2    0    0 -0.18735007467E-01 -0.24297717236E-01 -0.18323591821E-01  0.35737005818E-01  0.00000000000E+00 0.  1.
  9000001    1    1    2    0    0  0.18735007467E-01  0.24297717236E-01  0.18323591821E-01  0.35750994182E-01  0.10000000475E-02 0. -1.
</event>
<event>
 4   0  0.4958067E-02  0.9118800E+02  0.7818609E-02  0.1379984E+01
      -11   -1    0    0    0    0  0.00000000000E+00  0.00000000000E+00  0.35740347158E-01  0.35744000000E-01  0.51099999109E-03 0. -1.
       11   -1    0    0    0    0 -0.00000000000E+00 -0.00000000000E+00 -0.35740347158E-01  0.35744000000E-01  0.51099999109E-03 0.  1.
       22    1    1    2    0    0  0.20169872015E-02 -0.32554151185E-02  0.35531220355E-01  0.35737005818E-01  0.00000000000E+00 0. -1.
  9000001    1    1    2    0    0 -0.20169872015E-02  0.32554151185E-02 -0.35531220355E-01  0.35750994182E-01  0.10000000475E-02 0.  1.
</event>
<event>
 4   0  0.4958067E-02  0.9118800E+02  0.7818609E-02  0.1379984E+01
      -11   -1    0    0    0    0  0.00000000000E+00  0.00000000000E+00  0.35740347158E-01  0.35744000000E-01  0.51099999109E-03 0.  1.
       11   -1    0    0    0    0 -0.00000000000E+00 -0.00000000000E+00 -0.35740347158E-01  0.35744000000E-01  0.51099999109E-03 0. -1.
       22    1    1    2    0    0 -0.16525893157E-01 -0.22083387421E-01  0.22723389718E-01  0.35737005818E-01  0.00000000000E+00 0.  1.
  9000001    1    1    2    0    0  0.16525893157E-01  0.22083387421E-01 -0.22723389718E-01  0.35750994182E-01  0.10000000475E-02 0. -1.
</event>
<event>
 4   0  0.4958067E-02  0.9118800E+02  0.7818609E-02  0.1379984E+01
      -11   -1    0    0    0    0  0.00000000000E+00  0.00000000000E+00  0.35740347158E-01  0.35744000000E-01  0.51099999109E-03 0. -1.
       11   -1    0    0    0    0 -0.00000000000E+00 -0.00000000000E+00 -0.35740347158E-01  0.35744000000E-01  0.51099999109E-03 0.  1.
       22    1    1    2    0    0 -0.51482190440E-02 -0.24536364534E-01  0.25467552710E-01  0.35737005818E-01  0.00000000000E+00 0. -1.
  9000001    1    1    2    0    0  0.51482190440E-02  0.24536364534E-01 -0.25467552710E-01  0.35750994182E-01  0.10000000475E-02 0.  1.
</event>
<event>
 4   0  0.4958067E-02  0.9118800E+02  0.7818609E-02  0.1379984E+01
      -11   -1    0    0    0    0  0.00000000000E+00  0.00000000000E+00  0.35740347158E-01  0.35744000000E-01  0.51099999109E-03 0.  1.
       11   -1    0    0    0    0 -0.00000000000E+00 -0.00000000000E+00 -0.35740347158E-01  0.35744000000E-01  0.51099999109E-03 0. -1.
       22    1    1    2    0    0 -0.34180979510E-01 -0.90666436364E-02  0.51565684099E-02  0.35737005818E-01  0.00000000000E+00 0.  1.
  9000001    1    1    2    0    0  0.34180979510E-01  0.90666436364E-02 -0.51565684099E-02  0.35750994182E-01  0.10000000475E-02 0. -1.
</event>
<event>
 4   0  0.4958067E-02  0.9118800E+02  0.7818609E-02  0.1379984E+01
      -11   -1    0    0    0    0  0.00000000000E+00  0.00000000000E+00  0.35740347158E-01  0.35744000000E-01  0.51099999109E-03 0. -1.
       11   -1    0    0    0    0 -0.00000000000E+00 -0.00000000000E+00 -0.35740347158E-01  0.35744000000E-01  0.51099999109E-03 0.  1.
       22    1    1    2    0    0 -0.18463929081E-02 -0.95356579631E-02 -0.34391796192E-01  0.35737005818E-01  0.00000000000E+00 0.  1.
  9000001    1    1    2    0    0  0.18463929081E-02  0.95356579631E-02  0.34391796192E-01  0.35750994182E-01  0.10000000475E-02 0. -1.
</event>
<event>
 4   0  0.4958067E-02  0.9118800E+02  0.7818609E-02  0.1379984E+01
      -11   -1    0    0    0    0  0.00000000000E+00  0.00000000000E+00  0.35740347158E-01  0.35744000000E-01  0.51099999109E-03 0. -1.
       11   -1    0    0    0    0 -0.00000000000E+00 -0.00000000000E+00 -0.35740347158E-01  0.35744000000E-01  0.51099999109E-03 0.  1.
       22    1    1    2    0    0  0.64655076545E-02 -0.69649173801E-02  0.34450264462E-01  0.35737005818E-01  0.00000000000E+00 0. -1.
  9000001    1    1    2    0    0 -0.64655076545E-02  0.69649173801E-02 -0.34450264462E-01  0.35750994182E-01  0.10000000475E-02 0.  1.
</event>
<event>
 4   0  0.4958067E-02  0.9118800E+02  0.7818609E-02  0.1379984E+01
      -11   -1    0    0    0    0  0.00000000000E+00  0.00000000000E+00  0.35740347158E-01  0.35744000000E-01  0.51099999109E-03 0.  1.
       11   -1    0    0    0    0 -0.00000000000E+00 -0.00000000000E+00 -0.35740347158E-01  0.35744000000E-01  0.51099999109E-03 0. -1.
       22    1    1    2    0    0 -0.47875345755E-02  0.16655448197E-02 -0.35375684559E-01  0.35737005818E-01  0.00000000000E+00 0. -1.
  9000001    1    1    2    0    0  0.47875345755E-02 -0.16655448197E-02  0.35375684559E-01  0.35750994182E-01  0.10000000475E-02 0.  1.
</event>
<event>
 4   0  0.4958067E-02  0.9118800E+02  0.7818609E-02  0.1379984E+01
      -11   -1    0    0    0    0  0.00000000000E+00  0.00000000000E+00  0.35740347158E-01  0.35744000000E-01  0.51099999109E-03 0.  1.
       11   -1    0    0    0    0 -0.00000000000E+00 -0.00000000000E+00 -0.35740347158E-01  0.35744000000E-01  0.51099999109E-03 0. -1.
       22    1    1    2    0    0 -0.65011341320E-03  0.41584030700E-02 -0.35488288509E-01  0.35737005818E-01  0.00000000000E+00 0. -1.
  9000001    1    1    2    0    0  0.65011341320E-03 -0.41584030700E-02  0.35488288509E-01  0.35750994182E-01  0.10000000475E-02 0.  1.
</event>
<event>
 4   0  0.4958067E-02  0.9118800E+02  0.7818609E-02  0.1379984E+01
      -11   -1    0    0    0    0  0.00000000000E+00  0.00000000000E+00  0.35740347158E-01  0.35744000000E-01  0.51099999109E-03 0. -1.
       11   -1    0    0    0    0 -0.00000000000E+00 -0.00000000000E+00 -0.35740347158E-01  0.35744000000E-01  0.51099999109E-03 0.  1.
       22    1    1    2    0    0 -0.99798157179E-02  0.19730049515E-01 -0.28076004154E-01  0.35737005818E-01  0.00000000000E+00 0.  1.
  9000001    1    1    2    0    0  0.99798157179E-02 -0.19730049515E-01  0.28076004154E-01  0.35750994182E-01  0.10000000475E-02 0. -1.
</event>
<event>
 4   0  0.4958067E-02  0.9118800E+02  0.7818609E-02  0.1379984E+01
      -11   -1    0    0    0    0  0.00000000000E+00  0.00000000000E+00  0.35740347158E-01  0.35744000000E-01  0.51099999109E-03 0.  1.
       11   -1    0    0    0    0 -0.00000000000E+00 -0.00000000000E+00 -0.35740347158E-01  0.35744000000E-01  0.51099999109E-03 0. -1.
       22    1    1    2    0    0  0.30383132342E-02 -0.18366439780E-01 -0.30505345882E-01  0.35737005818E-01  0.00000000000E+00 0. -1.
  9000001    1    1    2    0    0 -0.30383132342E-02  0.18366439780E-01  0.30505345882E-01  0.35750994182E-01  0.10000000475E-02 0.  1.
</event>
<event>
 4   0  0.4958067E-02  0.9118800E+02  0.7818609E-02  0.1379984E+01
      -11   -1    0    0    0    0  0.00000000000E+00  0.00000000000E+00  0.35740347158E-01  0.35744000000E-01  0.51099999109E-03 0.  1.
       11   -1    0    0    0    0 -0.00000000000E+00 -0.00000000000E+00 -0.35740347158E-01  0.35744000000E-01  0.51099999109E-03 0. -1.
       22    1    1    2    0    0 -0.18009865197E-02 -0.48123775257E-02  0.35365676227E-01  0.35737005818E-01  0.00000000000E+00 0.  1.
  9000001    1    1    2    0    0  0.18009865197E-02  0.48123775257E-02 -0.35365676227E-01  0.35750994182E-01  0.10000000475E-02 0. -1.
</event>
<event>
 4   0  0.4958067E-02  0.9118800E+02  0.7818609E-02  0.1379984E+01
      -11   -1    0    0    0    0  0.00000000000E+00  0.00000000000E+00  0.35740347158E-01  0.35744000000E-01  0.51099999109E-03 0.  1.
       11   -1    0    0    0    0 -0.00000000000E+00 -0.00000000000E+00 -0.35740347158E-01  0.35744000000E-01  0.51099999109E-03 0. -1.
       22    1    1    2    0    0 -0.67193508841E-03  0.35232033454E-01  0.59486054520E-02  0.35737005818E-01  0.00000000000E+00 0.  1.
  9000001    1    1    2    0    0  0.67193508841E-03 -0.35232033454E-01 -0.59486054520E-02  0.35750994182E-01  0.10000000475E-02 0. -1.
</event>
<event>
 4   0  0.4958067E-02  0.9118800E+02  0.7818609E-02  0.1379984E+01
      -11   -1    0    0    0    0  0.00000000000E+00  0.00000000000E+00  0.35740347158E-01  0.35744000000E-01  0.51099999109E-03 0. -1.
       11   -1    0    0    0    0 -0.00000000000E+00 -0.00000000000E+00 -0.35740347158E-01  0.35744000000E-01  0.51099999109E-03 0.  1.
       22    1    1    2    0    0  0.29076177938E-01  0.20739026873E-01 -0.12657905543E-02  0.35737005818E-01  0.00000000000E+00 0. -1.
  9000001    1    1    2    0    0 -0.29076177938E-01 -0.20739026873E-01  0.12657905543E-02  0.35750994182E-01  0.10000000475E-02 0.  1.
</event>
<event>
 4   0  0.4958067E-02  0.9118800E+02  0.7818609E-02  0.1379984E+01
      -11   -1    0    0    0    0  0.00000000000E+00  0.00000000000E+00  0.35740347158E-01  0.35744000000E-01  0.51099999109E-03 0.  1.
       11   -1    0    0    0    0 -0.00000000000E+00 -0.00000000000E+00 -0.35740347158E-01  0.35744000000E-01  0.51099999109E-03 0. -1.
       22    1    1    2    0    0  0.18859209884E-01  0.14978144906E-01 -0.26403010484E-01  0.35737005818E-01  0.00000000000E+00 0. -1.
  9000001    1    1    2    0    0 -0.18859209884E-01 -0.14978144906E-01  0.26403010484E-01  0.35750994182E-01  0.10000000475E-02 0.  1.
</event>
<event>
 4   0  0.4958067E-02  0.9118800E+02  0.7818609E-02  0.1379984E+01
      -11   -1    0    0    0    0  0.00000000000E+00  0.00000000000E+00  0.35740347158E-01  0.35744000000E-01  0.51099999109E-03 0.  1.
       11   -1    0    0    0    0 -0.00000000000E+00 -0.00000000000E+00 -0.35740347158E-01  0.35744000000E-01  0.51099999109E-03 0. -1.
       22    1    1    2    0    0 -0.58396715495E-02  0.12816315261E-02 -0.35233354108E-01  0.35737005818E-01  0.00000000000E+00 0. -1.
  9000001    1    1    2    0    0  0.58396715495E-02 -0.12816315261E-02  0.35233354108E-01  0.35750994182E-01  0.10000000475E-02 0.  1.
</event>
<event>
 4   0  0.4958067E-02  0.9118800E+02  0.7818609E-02  0.1379984E+01
      -11   -1    0    0    0    0  0.00000000000E+00  0.00000000000E+00  0.35740347158E-01  0.35744000000E-01  0.51099999109E-03 0.  1.
       11   -1    0    0    0    0 -0.00000000000E+00 -0.00000000000E+00 -0.35740347158E-01  0.35744000000E-01  0.51099999109E-03 0. -1.
       22    1    1    2    0    0 -0.46569427783E-02 -0.23203096347E-02 -0.35356224799E-01  0.35737005818E-01  0.00000000000E+00 0. -1.
  9000001    1    1    2    0    0  0.46569427783E-02  0.23203096347E-02  0.35356224799E-01  0.35750994182E-01  0.10000000475E-02 0.  1.
</event>
<event>
 4   0  0.4958067E-02  0.9118800E+02  0.7818609E-02  0.1379984E+01
      -11   -1    0    0    0    0  0.00000000000E+00  0.00000000000E+00  0.35740347158E-01  0.35744000000E-01  0.51099999109E-03 0.  1.
       11   -1    0    0    0    0 -0.00000000000E+00 -0.00000000000E+00 -0.35740347158E-01  0.35744000000E-01  0.51099999109E-03 0. -1.
       22    1    1    2    0    0 -0.34063394074E-02  0.73185246933E-02  0.34813354234E-01  0.35737005818E-01  0.00000000000E+00 0.  1.
  9000001    1    1    2    0    0  0.34063394074E-02 -0.73185246933E-02 -0.34813354234E-01  0.35750994182E-01  0.10000000475E-02 0. -1.
</event>
<event>
 4   0  0.4958067E-02  0.9118800E+02  0.7818609E-02  0.1379984E+01
      -11   -1    0    0    0    0  0.00000000000E+00  0.00000000000E+00  0.35740347158E-01  0.35744000000E-01  0.51099999109E-03 0. -1.
       11   -1    0    0    0    0 -0.00000000000E+00 -0.00000000000E+00 -0.35740347158E-01  0.35744000000E-01  0.51099999109E-03 0.  1.
       22    1    1    2    0    0  0.54290295166E-02  0.80547032499E-02 -0.34391582966E-01  0.35737005818E-01  0.00000000000E+00 0.  1.
  9000001    1    1    2    0    0 -0.54290295166E-02 -0.80547032499E-02  0.34391582966E-01  0.35750994182E-01  0.10000000475E-02 0. -1.
</event>
<event>
 4   0  0.4958067E-02  0.9118800E+02  0.7818609E-02  0.1379984E+01
      -11   -1    0    0    0    0  0.00000000000E+00  0.00000000000E+00  0.35740347158E-01  0.35744000000E-01  0.51099999109E-03 0.  1.
       11   -1    0    0    0    0 -0.00000000000E+00 -0.00000000000E+00 -0.35740347158E-01  0.35744000000E-01  0.51099999109E-03 0. -1.
       22    1    1    2    0    0  0.35826256145E-02  0.69776619051E-02 -0.34865607881E-01  0.35737005818E-01  0.00000000000E+00 0. -1.
  9000001    1    1    2    0    0 -0.35826256145E-02 -0.69776619051E-02  0.34865607881E-01  0.35750994182E-01  0.10000000475E-02 0.  1.
</event>
<event>
 4   0  0.4958067E-02  0.9118800E+02  0.7818609E-02  0.1379984E+01
      -11   -1    0    0    0    0  0.00000000000E+00  0.00000000000E+00  0.35740347158E-01  0.35744000000E-01  0.51099999109E-03 0.  1.
       11   -1    0    0    0    0 -0.00000000000E+00 -0.00000000000E+00 -0.35740347158E-01  0.35744000000E-01  0.51099999109E-03 0. -1.
       22    1    1    2    0    0  0.72377837537E-02 -0.14771115775E-01  0.31726364588E-01  0.35737005818E-01  0.00000000000E+00 0.  1.
  9000001    1    1    2    0    0 -0.72377837537E-02  0.14771115775E-01 -0.31726364588E-01  0.35750994182E-01  0.10000000475E-02 0. -1.
</event>
<event>
 4   0  0.4958067E-02  0.9118800E+02  0.7818609E-02  0.1379984E+01
      -11   -1    0    0    0    0  0.00000000000E+00  0.00000000000E+00  0.35740347158E-01  0.35744000000E-01  0.51099999109E-03 0. -1.
       11   -1    0    0    0    0 -0.00000000000E+00 -0.00000000000E+00 -0.35740347158E-01  0.35744000000E-01  0.51099999109E-03 0.  1.
       22    1    1    2    0    0 -0.16635614123E-03  0.47124790980E-02 -0.35424545886E-01  0.35737005818E-01  0.00000000000E+00 0.  1.
  9000001    1    1    2    0    0  0.16635614123E-03 -0.47124790980E-02  0.35424545886E-01  0.35750994182E-01  0.10000000475E-02 0. -1.
</event>
<event>
 4   0  0.4958067E-02  0.9118800E+02  0.7818609E-02  0.1379984E+01
      -11   -1    0    0    0    0  0.00000000000E+00  0.00000000000E+00  0.35740347158E-01  0.35744000000E-01  0.51099999109E-03 0.  1.
       11   -1    0    0    0    0 -0.00000000000E+00 -0.00000000000E+00 -0.35740347158E-01  0.35744000000E-01  0.51099999109E-03 0. -1.
       22    1    1    2    0    0 -0.12383044137E-01 -0.91508758538E-03 -0.33510541886E-01  0.35737005818E-01  0.00000000000E+00 0. -1.
  9000001    1    1    2    0    0  0.12383044137E-01  0.91508758538E-03  0.33510541886E-01  0.35750994182E-01  0.10000000475E-02 0.  1.
</event>
<event>
 4   0  0.4958067E-02  0.9118800E+02  0.7818609E-02  0.1379984E+01
      -11   -1    0    0    0    0  0.00000000000E+00  0.00000000000E+00  0.35740347158E-01  0.35744000000E-01  0.51099999109E-03 0.  1.
       11   -1    0    0    0    0 -0.00000000000E+00 -0.00000000000E+00 -0.35740347158E-01  0.35744000000E-01  0.51099999109E-03 0. -1.
       22    1    1    2    0    0  0.54015554932E-03  0.44122760073E-02  0.35459464707E-01  0.35737005818E-01  0.00000000000E+00 0.  1.
  9000001    1    1    2    0    0 -0.54015554932E-03 -0.44122760073E-02 -0.35459464707E-01  0.35750994182E-01  0.10000000475E-02 0. -1.
</event>
<event>
 4   0  0.4958067E-02  0.9118800E+02  0.7818609E-02  0.1379984E+01
      -11   -1    0    0    0    0  0.00000000000E+00  0.00000000000E+00  0.35740347158E-01  0.35744000000E-01  0.51099999109E-03 0. -1.
       11   -1    0    0    0    0 -0.00000000000E+00 -0.00000000000E+00 -0.35740347158E-01  0.35744000000E-01  0.51099999109E-03 0.  1.
       22    1    1    2    0    0 -0.35048099223E-02  0.35560628427E-01 -0.53999829726E-03  0.35737005818E-01  0.00000000000E+00 0.  1.
  9000001    1    1    2    0    0  0.35048099223E-02 -0.35560628427E-01  0.53999829726E-03  0.35750994182E-01  0.10000000475E-02 0. -1.
</event>
<event>
 4   0  0.4958067E-02  0.9118800E+02  0.7818609E-02  0.1379984E+01
      -11   -1    0    0    0    0  0.00000000000E+00  0.00000000000E+00  0.35740347158E-01  0.35744000000E-01  0.51099999109E-03 0. -1.
       11   -1    0    0    0    0 -0.00000000000E+00 -0.00000000000E+00 -0.35740347158E-01  0.35744000000E-01  0.51099999109E-03 0.  1.
       22    1    1    2    0    0  0.42037312521E-02  0.65376355792E-02  0.34881535939E-01  0.35737005818E-01  0.00000000000E+00 0. -1.
  9000001    1    1    2    0    0 -0.42037312521E-02 -0.65376355792E-02 -0.34881535939E-01  0.35750994182E-01  0.10000000475E-02 0.  1.
</event>
<event>
 4   0  0.4958067E-02  0.9118800E+02  0.7818609E-02  0.1379984E+01
      -11   -1    0    0    0    0  0.00000000000E+00  0.00000000000E+00  0.35740347158E-01  0.35744000000E-01  0.51099999109E-03 0.  1.
       11   -1    0    0    0    0 -0.00000000000E+00 -0.00000000000E+00 -0.35740347158E-01  0.35744000000E-01  0.51099999109E-03 0. -1.
       22    1    1    2    0    0 -0.61752899933E-04  0.45136193275E-02  0.35450768849E-01  0.35737005818E-01  0.00000000000E+00 0.  1.
  9000001    1    1    2    0    0  0.61752899933E-04 -0.45136193275E-02 -0.35450768849E-01  0.35750994182E-01  0.10000000475E-02 0. -1.
</event>
<event>
 4   0  0.4958067E-02  0.9118800E+02  0.7818609E-02  0.1379984E+01
      -11   -1    0    0    0    0  0.00000000000E+00  0.00000000000E+00  0.35740347158E-01  0.35744000000E-01  0.51099999109E-03 0. -1.
       11   -1    0    0    0    0 -0.00000000000E+00 -0.00000000000E+00 -0.35740347158E-01  0.35744000000E-01  0.51099999109E-03 0.  1.
       22    1    1    2    0    0 -0.26620768420E-01 -0.10291462994E-01  0.21507070071E-01  0.35737005818E-01  0.00000000000E+00 0. -1.
  9000001    1    1    2    0    0  0.26620768420E-01  0.10291462994E-01 -0.21507070071E-01  0.35750994182E-01  0.10000000475E-02 0.  1.
</event>
<event>
 4   0  0.4958067E-02  0.9118800E+02  0.7818609E-02  0.1379984E+01
      -11   -1    0    0    0    0  0.00000000000E+00  0.00000000000E+00  0.35740347158E-01  0.35744000000E-01  0.51099999109E-03 0.  1.
       11   -1    0    0    0    0 -0.00000000000E+00 -0.00000000000E+00 -0.35740347158E-01  0.35744000000E-01  0.51099999109E-03 0. -1.
       22    1    1    2    0    0  0.77961797335E-02 -0.20667388876E-01  0.28092920878E-01  0.35737005818E-01  0.00000000000E+00 0.  1.
  9000001    1    1    2    0    0 -0.77961797335E-02  0.20667388876E-01 -0.28092920878E-01  0.35750994182E-01  0.10000000475E-02 0. -1.
</event>
<event>
 4   0  0.4958067E-02  0.9118800E+02  0.7818609E-02  0.1379984E+01
      -11   -1    0    0    0    0  0.00000000000E+00  0.00000000000E+00  0.35740347158E-01  0.35744000000E-01  0.51099999109E-03 0. -1.
       11   -1    0    0    0    0 -0.00000000000E+00 -0.00000000000E+00 -0.35740347158E-01  0.35744000000E-01  0.51099999109E-03 0.  1.
       22    1    1    2    0    0 -0.44035766570E-02  0.10171145133E-02 -0.35450071588E-01  0.35737005818E-01  0.00000000000E+00 0.  1.
  9000001    1    1    2    0    0  0.44035766570E-02 -0.10171145133E-02  0.35450071588E-01  0.35750994182E-01  0.10000000475E-02 0. -1.
</event>
<event>
 4   0  0.4958067E-02  0.9118800E+02  0.7818609E-02  0.1379984E+01
      -11   -1    0    0    0    0  0.00000000000E+00  0.00000000000E+00  0.35740347158E-01  0.35744000000E-01  0.51099999109E-03 0.  1.
       11   -1    0    0    0    0 -0.00000000000E+00 -0.00000000000E+00 -0.35740347158E-01  0.35744000000E-01  0.51099999109E-03 0. -1.
       22    1    1    2    0    0  0.99051201300E-02  0.24645611842E-01  0.23908492153E-01  0.35737005818E-01  0.00000000000E+00 0.  1.
  9000001    1    1    2    0    0 -0.99051201300E-02 -0.24645611842E-01 -0.23908492153E-01  0.35750994182E-01  0.10000000475E-02 0. -1.
</event>
<event>
 4   0  0.4958067E-02  0.9118800E+02  0.7818609E-02  0.1379984E+01
      -11   -1    0    0    0    0  0.00000000000E+00  0.00000000000E+00  0.35740347158E-01  0.35744000000E-01  0.51099999109E-03 0.  1.
       11   -1    0    0    0    0 -0.00000000000E+00 -0.00000000000E+00 -0.35740347158E-01  0.35744000000E-01  0.51099999109E-03 0. -1.
       22    1    1    2    0    0 -0.44079589559E-02 -0.79571509636E-02 -0.34559907859E-01  0.35737005818E-01  0.00000000000E+00 0. -1.
  9000001    1    1    2    0    0  0.44079589559E-02  0.79571509636E-02  0.34559907859E-01  0.35750994182E-01  0.10000000475E-02 0.  1.
</event>
<event>
 4   0  0.4958067E-02  0.9118800E+02  0.7818609E-02  0.1379984E+01
      -11   -1    0    0    0    0  0.00000000000E+00  0.00000000000E+00  0.35740347158E-01  0.35744000000E-01  0.51099999109E-03 0.  1.
       11   -1    0    0    0    0 -0.00000000000E+00 -0.00000000000E+00 -0.35740347158E-01  0.35744000000E-01  0.51099999109E-03 0. -1.
       22    1    1    2    0    0 -0.22170323214E-02 -0.55796815415E-02  0.35229043507E-01  0.35737005818E-01  0.00000000000E+00 0.  1.
  9000001    1    1    2    0    0  0.22170323214E-02  0.55796815415E-02 -0.35229043507E-01  0.35750994182E-01  0.10000000475E-02 0. -1.
</event>
<event>
 4   0  0.4958067E-02  0.9118800E+02  0.7818609E-02  0.1379984E+01
      -11   -1    0    0    0    0  0.00000000000E+00  0.00000000000E+00  0.35740347158E-01  0.35744000000E-01  0.51099999109E-03 0. -1.
       11   -1    0    0    0    0 -0.00000000000E+00 -0.00000000000E+00 -0.35740347158E-01  0.35744000000E-01  0.51099999109E-03 0.  1.
       22    1    1    2    0    0 -0.28984738451E-02 -0.13770308004E-01  0.32849825749E-01  0.35737005818E-01  0.00000000000E+00 0. -1.
  9000001    1    1    2    0    0  0.28984738451E-02  0.13770308004E-01 -0.32849825749E-01  0.35750994182E-01  0.10000000475E-02 0.  1.
</event>
<event>
 4   0  0.4958067E-02  0.9118800E+02  0.7818609E-02  0.1379984E+01
      -11   -1    0    0    0    0  0.00000000000E+00  0.00000000000E+00  0.35740347158E-01  0.35744000000E-01  0.51099999109E-03 0. -1.
       11   -1    0    0    0    0 -0.00000000000E+00 -0.00000000000E+00 -0.35740347158E-01  0.35744000000E-01  0.51099999109E-03 0.  1.
       22    1    1    2    0    0 -0.10074361038E-02 -0.33880567156E-02 -0.35561773424E-01  0.35737005818E-01  0.00000000000E+00 0.  1.
  9000001    1    1    2    0    0  0.10074361038E-02  0.33880567156E-02  0.35561773424E-01  0.35750994182E-01  0.10000000475E-02 0. -1.
</event>
<event>
 4   0  0.4958067E-02  0.9118800E+02  0.7818609E-02  0.1379984E+01
      -11   -1    0    0    0    0  0.00000000000E+00  0.00000000000E+00  0.35740347158E-01  0.35744000000E-01  0.51099999109E-03 0.  1.
       11   -1    0    0    0    0 -0.00000000000E+00 -0.00000000000E+00 -0.35740347158E-01  0.35744000000E-01  0.51099999109E-03 0. -1.
       22    1    1    2    0    0 -0.29939788804E-02  0.29209576383E-02  0.35491374752E-01  0.35737005818E-01  0.00000000000E+00 0.  1.
  9000001    1    1    2    0    0  0.29939788804E-02 -0.29209576383E-02 -0.35491374752E-01  0.35750994182E-01  0.10000000475E-02 0. -1.
</event>
<event>
 4   0  0.4958067E-02  0.9118800E+02  0.7818609E-02  0.1379984E+01
      -11   -1    0    0    0    0  0.00000000000E+00  0.00000000000E+00  0.35740347158E-01  0.35744000000E-01  0.51099999109E-03 0. -1.
       11   -1    0    0    0    0 -0.00000000000E+00 -0.00000000000E+00 -0.35740347158E-01  0.35744000000E-01  0.51099999109E-03 0.  1.
       22    1    1    2    0    0 -0.10599754766E-02 -0.36516493080E-02  0.35534145469E-01  0.35737005818E-01  0.00000000000E+00 0. -1.
  9000001    1    1    2    0    0  0.10599754766E-02  0.36516493080E-02 -0.35534145469E-01  0.35750994182E-01  0.10000000475E-02 0.  1.
</event>
<event>
 4   0  0.4958067E-02  0.9118800E+02  0.7818609E-02  0.1379984E+01
      -11   -1    0    0    0    0  0.00000000000E+00  0.00000000000E+00  0.35740347158E-01  0.35744000000E-01  0.51099999109E-03 0. -1.
       11   -1    0    0    0    0 -0.00000000000E+00 -0.00000000000E+00 -0.35740347158E-01  0.35744000000E-01  0.51099999109E-03 0.  1.
       22    1    1    2    0    0 -0.29131069121E-02 -0.15786246883E-01 -0.31928698726E-01  0.35737005818E-01  0.00000000000E+00 0.  1.
  9000001    1    1    2    0    0  0.29131069121E-02  0.15786246883E-01  0.31928698726E-01  0.35750994182E-01  0.10000000475E-02 0. -1.
</event>
<event>
 4   0  0.4958067E-02  0.9118800E+02  0.7818609E-02  0.1379984E+01
      -11   -1    0    0    0    0  0.00000000000E+00  0.00000000000E+00  0.35740347158E-01  0.35744000000E-01  0.51099999109E-03 0. -1.
       11   -1    0    0    0    0 -0.00000000000E+00 -0.00000000000E+00 -0.35740347158E-01  0.35744000000E-01  0.51099999109E-03 0.  1.
       22    1    1    2    0    0  0.33572175801E-02 -0.22599011699E-01 -0.27479944418E-01  0.35737005818E-01  0.00000000000E+00 0.  1.
  9000001    1    1    2    0    0 -0.33572175801E-02  0.22599011699E-01  0.27479944418E-01  0.35750994182E-01  0.10000000475E-02 0. -1.
</event>
<event>
 4   0  0.4958067E-02  0.9118800E+02  0.7818609E-02  0.1379984E+01
      -11   -1    0    0    0    0  0.00000000000E+00  0.00000000000E+00  0.35740347158E-01  0.35744000000E-01  0.51099999109E-03 0.  1.
       11   -1    0    0    0    0 -0.00000000000E+00 -0.00000000000E+00 -0.35740347158E-01  0.35744000000E-01  0.51099999109E-03 0. -1.
       22    1    1    2    0    0 -0.62597029203E-02  0.13351548362E-02  0.35159167592E-01  0.35737005818E-01  0.00000000000E+00 0.  1.
  9000001    1    1    2    0    0  0.62597029203E-02 -0.13351548362E-02 -0.35159167592E-01  0.35750994182E-01  0.10000000475E-02 0. -1.
</event>
<event>
 4   0  0.4958067E-02  0.9118800E+02  0.7818609E-02  0.1379984E+01
      -11   -1    0    0    0    0  0.00000000000E+00  0.00000000000E+00  0.35740347158E-01  0.35744000000E-01  0.51099999109E-03 0.  1.
       11   -1    0    0    0    0 -0.00000000000E+00 -0.00000000000E+00 -0.35740347158E-01  0.35744000000E-01  0.51099999109E-03 0. -1.
       22    1    1    2    0    0 -0.14596369107E-02 -0.58762307001E-02 -0.35220348631E-01  0.35737005818E-01  0.00000000000E+00 0. -1.
  9000001    1    1    2    0    0  0.14596369107E-02  0.58762307001E-02  0.35220348631E-01  0.35750994182E-01  0.10000000475E-02 0.  1.
</event>
<event>
 4   0  0.4958067E-02  0.9118800E+02  0.7818609E-02  0.1379984E+01
      -11   -1    0    0    0    0  0.00000000000E+00  0.00000000000E+00  0.35740347158E-01  0.35744000000E-01  0.51099999109E-03 0. -1.
       11   -1    0    0    0    0 -0.00000000000E+00 -0.00000000000E+00 -0.35740347158E-01  0.35744000000E-01  0.51099999109E-03 0.  1.
       22    1    1    2    0    0 -0.45856198270E-02  0.26185648550E-03  0.35440613805E-01  0.35737005818E-01  0.00000000000E+00 0. -1.
  9000001    1    1    2    0    0  0.45856198270E-02 -0.26185648550E-03 -0.35440613805E-01  0.35750994182E-01  0.10000000475E-02 0.  1.
</event>
<event>
 4   0  0.4958067E-02  0.9118800E+02  0.7818609E-02  0.1379984E+01
      -11   -1    0    0    0    0  0.00000000000E+00  0.00000000000E+00  0.35740347158E-01  0.35744000000E-01  0.51099999109E-03 0.  1.
       11   -1    0    0    0    0 -0.00000000000E+00 -0.00000000000E+00 -0.35740347158E-01  0.35744000000E-01  0.51099999109E-03 0. -1.
       22    1    1    2    0    0 -0.23418804061E-02  0.43979040739E-02  0.35387958698E-01  0.35737005818E-01  0.00000000000E+00 0.  1.
  9000001    1    1    2    0    0  0.23418804061E-02 -0.43979040739E-02 -0.35387958698E-01  0.35750994182E-01  0.10000000475E-02 0. -1.
</event>
<event>
 4   0  0.4958067E-02  0.9118800E+02  0.7818609E-02  0.1379984E+01
      -11   -1    0    0    0    0  0.00000000000E+00  0.00000000000E+00  0.35740347158E-01  0.35744000000E-01  0.51099999109E-03 0.  1.
       11   -1    0    0    0    0 -0.00000000000E+00 -0.00000000000E+00 -0.35740347158E-01  0.35744000000E-01  0.51099999109E-03 0. -1.
       22    1    1    2    0    0 -0.88336280252E-02 -0.18708609401E-02  0.34577456241E-01  0.35737005818E-01  0.00000000000E+00 0.  1.
  9000001    1    1    2    0    0  0.88336280252E-02  0.18708609401E-02 -0.34577456241E-01  0.35750994182E-01  0.10000000475E-02 0. -1.
</event>
<event>
 4   0  0.4958067E-02  0.9118800E+02  0.7818609E-02  0.1379984E+01
      -11   -1    0    0    0    0  0.00000000000E+00  0.00000000000E+00  0.35740347158E-01  0.35744000000E-01  0.51099999109E-03 0. -1.
       11   -1    0    0    0    0 -0.00000000000E+00 -0.00000000000E+00 -0.35740347158E-01  0.35744000000E-01  0.51099999109E-03 0.  1.
       22    1    1    2    0    0 -0.10497186967E-01 -0.26077867926E-01  0.22065526394E-01  0.35737005818E-01  0.00000000000E+00 0. -1.
  9000001    1    1    2    0    0  0.10497186967E-01  0.26077867926E-01 -0.22065526394E-01  0.35750994182E-01  0.10000000475E-02 0.  1.
</event>
<event>
 4   0  0.4958067E-02  0.9118800E+02  0.7818609E-02  0.1379984E+01
      -11   -1    0    0    0    0  0.00000000000E+00  0.00000000000E+00  0.35740347158E-01  0.35744000000E-01  0.51099999109E-03 0.  1.
       11   -1    0    0    0    0 -0.00000000000E+00 -0.00000000000E+00 -0.35740347158E-01  0.35744000000E-01  0.51099999109E-03 0. -1.
       22    1    1    2    0    0  0.13884575663E-02  0.78122723255E-02 -0.34845002103E-01  0.35737005818E-01  0.00000000000E+00 0. -1.
  9000001    1    1    2    0    0 -0.13884575663E-02 -0.78122723255E-02  0.34845002103E-01  0.35750994182E-01  0.10000000475E-02 0.  1.
</event>
<event>
 4   0  0.4958067E-02  0.9118800E+02  0.7818609E-02  0.1379984E+01
      -11   -1    0    0    0    0  0.00000000000E+00  0.00000000000E+00  0.35740347158E-01  0.35744000000E-01  0.51099999109E-03 0.  1.
       11   -1    0    0    0    0 -0.00000000000E+00 -0.00000000000E+00 -0.35740347158E-01  0.35744000000E-01  0.51099999109E-03 0. -1.
       22    1    1    2    0    0  0.32122568867E-02  0.15324341377E-02  0.35559339648E-01  0.35737005818E-01  0.00000000000E+00 0.  1.
  9000001    1    1    2    0    0 -0.32122568867E-02 -0.15324341377E-02 -0.35559339648E-01  0.35750994182E-01  0.10000000475E-02 0. -1.
</event>
<event>
 4   0  0.4958067E-02  0.9118800E+02  0.7818609E-02  0.1379984E+01
      -11   -1    0    0    0    0  0.00000000000E+00  0.00000000000E+00  0.35740347158E-01  0.35744000000E-01  0.51099999109E-03 0. -1.
       11   -1    0    0    0    0 -0.00000000000E+00 -0.00000000000E+00 -0.35740347158E-01  0.35744000000E-01  0.51099999109E-03 0.  1.
       22    1    1    2    0    0 -0.54862955906E-02  0.33349837447E-02  0.35155540516E-01  0.35737005818E-01  0.00000000000E+00 0. -1.
  9000001    1    1    2    0    0  0.54862955906E-02 -0.33349837447E-02 -0.35155540516E-01  0.35750994182E-01  0.10000000475E-02 0.  1.
</event>
<event>
 4   0  0.4958067E-02  0.9118800E+02  0.7818609E-02  0.1379984E+01
      -11   -1    0    0    0    0  0.00000000000E+00  0.00000000000E+00  0.35740347158E-01  0.35744000000E-01  0.51099999109E-03 0.  1.
       11   -1    0    0    0    0 -0.00000000000E+00 -0.00000000000E+00 -0.35740347158E-01  0.35744000000E-01  0.51099999109E-03 0. -1.
       22    1    1    2    0    0  0.13901346178E-01 -0.52002571970E-02 -0.32509129247E-01  0.35737005818E-01  0.00000000000E+00 0. -1.
  9000001    1    1    2    0    0 -0.13901346178E-01  0.52002571970E-02  0.32509129247E-01  0.35750994182E-01  0.10000000475E-02 0.  1.
</event>
<event>
 4   0  0.4958067E-02  0.9118800E+02  0.7818609E-02  0.1379984E+01
      -11   -1    0    0    0    0  0.00000000000E+00  0.00000000000E+00  0.35740347158E-01  0.35744000000E-01  0.51099999109E-03 0.  1.
       11   -1    0    0    0    0 -0.00000000000E+00 -0.00000000000E+00 -0.35740347158E-01  0.35744000000E-01  0.51099999109E-03 0. -1.
       22    1    1    2    0    0  0.44482766537E-02 -0.21552048401E-02 -0.35393523585E-01  0.35737005818E-01  0.00000000000E+00 0. -1.
  9000001    1    1    2    0    0 -0.44482766537E-02  0.21552048401E-02  0.35393523585E-01  0.35750994182E-01  0.10000000475E-02 0.  1.
</event>
<event>
 4   0  0.4958067E-02  0.9118800E+02  0.7818609E-02  0.1379984E+01
      -11   -1    0    0    0    0  0.00000000000E+00  0.00000000000E+00  0.35740347158E-01  0.35744000000E-01  0.51099999109E-03 0.  1.
       11   -1    0    0    0    0 -0.00000000000E+00 -0.00000000000E+00 -0.35740347158E-01  0.35744000000E-01  0.51099999109E-03 0. -1.
       22    1    1    2    0    0  0.38153428530E-02 -0.91631486487E-02 -0.34330940136E-01  0.35737005818E-01  0.00000000000E+00 0. -1.
  9000001    1    1    2    0    0 -0.38153428530E-02  0.91631486487E-02  0.34330940136E-01  0.35750994182E-01  0.10000000475E-02 0.  1.
</event>
<event>
 4   0  0.4958067E-02  0.9118800E+02  0.7818609E-02  0.1379984E+01
      -11   -1    0    0    0    0  0.00000000000E+00  0.00000000000E+00  0.35740347158E-01  0.35744000000E-01  0.51099999109E-03 0. -1.
       11   -1    0    0    0    0 -0.00000000000E+00 -0.00000000000E+00 -0.35740347158E-01  0.35744000000E-01  0.51099999109E-03 0.  1.
       22    1    1    2    0    0 -0.49945039767E-03 -0.69414294902E-02  0.35052827144E-01  0.35737005818E-01  0.00000000000E+00 0. -1.
  9000001    1    1    2    0    0  0.49945039767E-03  0.69414294902E-02 -0.35052827144E-01  0.35750994182E-01  0.10000000475E-02 0.  1.
</event>
<event>
 4   0  0.4958067E-02  0.9118800E+02  0.7818609E-02  0.1379984E+01
      -11   -1    0    0    0    0  0.00000000000E+00  0.00000000000E+00  0.35740347158E-01  0.35744000000E-01  0.51099999109E-03 0. -1.
       11   -1    0    0    0    0 -0.00000000000E+00 -0.00000000000E+00 -0.35740347158E-01  0.35744000000E-01  0.51099999109E-03 0.  1.
       22    1    1    2    0    0 -0.64659817114E-02  0.10137883781E-02  0.35132561798E-01  0.35737005818E-01  0.00000000000E+00 0. -1.
  9000001    1    1    2    0    0  0.64659817114E-02 -0.10137883781E-02 -0.35132561798E-01  0.35750994182E-01  0.10000000475E-02 0.  1.
</event>
<event>
 4   0  0.4958067E-02  0.9118800E+02  0.7818609E-02  0.1379984E+01
      -11   -1    0    0    0    0  0.00000000000E+00  0.00000000000E+00  0.35740347158E-01  0.35744000000E-01  0.51099999109E-03 0.  1.
       11   -1    0    0    0    0 -0.00000000000E+00 -0.00000000000E+00 -0.35740347158E-01  0.35744000000E-01  0.51099999109E-03 0. -1.
       22    1    1    2    0    0 -0.51520461339E-02 -0.48698423627E-02 -0.35026770346E-01  0.35737005818E-01  0.00000000000E+00 0. -1.
  9000001    1    1    2    0    0  0.51520461339E-02  0.48698423627E-02  0.35026770346E-01  0.35750994182E-01  0.10000000475E-02 0.  1.
</event>
<event>
 4   0  0.4958067E-02  0.9118800E+02  0.7818609E-02  0.1379984E+01
      -11   -1    0    0    0    0  0.00000000000E+00  0.00000000000E+00  0.35740347158E-01  0.35744000000E-01  0.51099999109E-03 0. -1.
       11   -1    0    0    0    0 -0.00000000000E+00 -0.00000000000E+00 -0.35740347158E-01  0.35744000000E-01  0.51099999109E-03 0.  1.
       22    1    1    2    0    0 -0.91913792557E-02 -0.14130825043E-01  0.31511456898E-01  0.35737005818E-01  0.00000000000E+00 0. -1.
  9000001    1    1    2    0    0  0.91913792557E-02  0.14130825043E-01 -0.31511456898E-01  0.35750994182E-01  0.10000000475E-02 0.  1.
</event>
<event>
 4   0  0.4958067E-02  0.9118800E+02  0.7818609E-02  0.1379984E+01
      -11   -1    0    0    0    0  0.00000000000E+00  0.00000000000E+00  0.35740347158E-01  0.35744000000E-01  0.51099999109E-03 0. -1.
       11   -1    0    0    0    0 -0.00000000000E+00 -0.00000000000E+00 -0.35740347158E-01  0.35744000000E-01  0.51099999109E-03 0.  1.
       22    1    1    2    0    0  0.12084032797E-02  0.41852044260E-02 -0.35470514661E-01  0.35737005818E-01  0.00000000000E+00 0.  1.
  9000001    1    1    2    0    0 -0.12084032797E-02 -0.41852044260E-02  0.35470514661E-01  0.35750994182E-01  0.10000000475E-02 0. -1.
</event>
<event>
 4   0  0.4958067E-02  0.9118800E+02  0.7818609E-02  0.1379984E+01
      -11   -1    0    0    0    0  0.00000000000E+00  0.00000000000E+00  0.35740347158E-01  0.35744000000E-01  0.51099999109E-03 0. -1.
       11   -1    0    0    0    0 -0.00000000000E+00 -0.00000000000E+00 -0.35740347158E-01  0.35744000000E-01  0.51099999109E-03 0.  1.
       22    1    1    2    0    0  0.30949903551E-01 -0.13612135918E-01  0.11573539252E-01  0.35737005818E-01  0.00000000000E+00 0. -1.
  9000001    1    1    2    0    0 -0.30949903551E-01  0.13612135918E-01 -0.11573539252E-01  0.35750994182E-01  0.10000000475E-02 0.  1.
</event>
<event>
 4   0  0.4958067E-02  0.9118800E+02  0.7818609E-02  0.1379984E+01
      -11   -1    0    0    0    0  0.00000000000E+00  0.00000000000E+00  0.35740347158E-01  0.35744000000E-01  0.51099999109E-03 0.  1.
       11   -1    0    0    0    0 -0.00000000000E+00 -0.00000000000E+00 -0.35740347158E-01  0.35744000000E-01  0.51099999109E-03 0. -1.
       22    1    1    2    0    0 -0.81622580766E-02 -0.11783623311E-02  0.34772440095E-01  0.35737005818E-01  0.00000000000E+00 0.  1.
  9000001    1    1    2    0    0  0.81622580766E-02  0.11783623311E-02 -0.34772440095E-01  0.35750994182E-01  0.10000000475E-02 0. -1.
</event>
<event>
 4   0  0.4958067E-02  0.9118800E+02  0.7818609E-02  0.1379984E+01
      -11   -1    0    0    0    0  0.00000000000E+00  0.00000000000E+00  0.35740347158E-01  0.35744000000E-01  0.51099999109E-03 0.  1.
       11   -1    0    0    0    0 -0.00000000000E+00 -0.00000000000E+00 -0.35740347158E-01  0.35744000000E-01  0.51099999109E-03 0. -1.
       22    1    1    2    0    0  0.32990427444E-01 -0.69786583094E-02 -0.11834847280E-01  0.35737005818E-01  0.00000000000E+00 0. -1.
  9000001    1    1    2    0    0 -0.32990427444E-01  0.69786583094E-02  0.11834847280E-01  0.35750994182E-01  0.10000000475E-02 0.  1.
</event>
<event>
 4   0  0.4958067E-02  0.9118800E+02  0.7818609E-02  0.1379984E+01
      -11   -1    0    0    0    0  0.00000000000E+00  0.00000000000E+00  0.35740347158E-01  0.35744000000E-01  0.51099999109E-03 0. -1.
       11   -1    0    0    0    0 -0.00000000000E+00 -0.00000000000E+00 -0.35740347158E-01  0.35744000000E-01  0.51099999109E-03 0.  1.
       22    1    1    2    0    0  0.20601146626E-02 -0.19488503685E-01  0.29884573555E-01  0.35737005818E-01  0.00000000000E+00 0. -1.
  9000001    1    1    2    0    0 -0.20601146626E-02  0.19488503685E-01 -0.29884573555E-01  0.35750994182E-01  0.10000000475E-02 0.  1.
</event>
<event>
 4   0  0.4958067E-02  0.9118800E+02  0.7818609E-02  0.1379984E+01
      -11   -1    0    0    0    0  0.00000000000E+00  0.00000000000E+00  0.35740347158E-01  0.35744000000E-01  0.51099999109E-03 0.  1.
       11   -1    0    0    0    0 -0.00000000000E+00 -0.00000000000E+00 -0.35740347158E-01  0.35744000000E-01  0.51099999109E-03 0. -1.
       22    1    1    2    0    0  0.61817229342E-02 -0.13590483061E-02 -0.35172046772E-01  0.35737005818E-01  0.00000000000E+00 0. -1.
  9000001    1    1    2    0    0 -0.61817229342E-02  0.13590483061E-02  0.35172046772E-01  0.35750994182E-01  0.10000000475E-02 0.  1.
</event>
<event>
 4   0  0.4958067E-02  0.9118800E+02  0.7818609E-02  0.1379984E+01
      -11   -1    0    0    0    0  0.00000000000E+00  0.00000000000E+00  0.35740347158E-01  0.35744000000E-01  0.51099999109E-03 0. -1.
       11   -1    0    0    0    0 -0.00000000000E+00 -0.00000000000E+00 -0.35740347158E-01  0.35744000000E-01  0.51099999109E-03 0.  1.
       22    1    1    2    0    0  0.15479707733E-01 -0.23520061785E-02 -0.32124450195E-01  0.35737005818E-01  0.00000000000E+00 0.  1.
  9000001    1    1    2    0    0 -0.15479707733E-01  0.23520061785E-02  0.32124450195E-01  0.35750994182E-01  0.10000000475E-02 0. -1.
</event>
<event>
 4   0  0.4958067E-02  0.9118800E+02  0.7818609E-02  0.1379984E+01
      -11   -1    0    0    0    0  0.00000000000E+00  0.00000000000E+00  0.35740347158E-01  0.35744000000E-01  0.51099999109E-03 0. -1.
       11   -1    0    0    0    0 -0.00000000000E+00 -0.00000000000E+00 -0.35740347158E-01  0.35744000000E-01  0.51099999109E-03 0.  1.
       22    1    1    2    0    0 -0.10124936107E-01 -0.33919432169E-03 -0.34271040266E-01  0.35737005818E-01  0.00000000000E+00 0.  1.
  9000001    1    1    2    0    0  0.10124936107E-01  0.33919432169E-03  0.34271040266E-01  0.35750994182E-01  0.10000000475E-02 0. -1.
</event>
<event>
 4   0  0.4958067E-02  0.9118800E+02  0.7818609E-02  0.1379984E+01
      -11   -1    0    0    0    0  0.00000000000E+00  0.00000000000E+00  0.35740347158E-01  0.35744000000E-01  0.51099999109E-03 0.  1.
       11   -1    0    0    0    0 -0.00000000000E+00 -0.00000000000E+00 -0.35740347158E-01  0.35744000000E-01  0.51099999109E-03 0. -1.
       22    1    1    2    0    0  0.69886554002E-02  0.16242099888E-01  0.31056182505E-01  0.35737005818E-01  0.00000000000E+00 0.  1.
  9000001    1    1    2    0    0 -0.69886554002E-02 -0.16242099888E-01 -0.31056182505E-01  0.35750994182E-01  0.10000000475E-02 0. -1.
</event>
<event>
 4   0  0.4958067E-02  0.9118800E+02  0.7818609E-02  0.1379984E+01
      -11   -1    0    0    0    0  0.00000000000E+00  0.00000000000E+00  0.35740347158E-01  0.35744000000E-01  0.51099999109E-03 0. -1.
       11   -1    0    0    0    0 -0.00000000000E+00 -0.00000000000E+00 -0.35740347158E-01  0.35744000000E-01  0.51099999109E-03 0.  1.
       22    1    1    2    0    0 -0.11731159886E-01 -0.17104875605E-01  0.29102176949E-01  0.35737005818E-01  0.00000000000E+00 0. -1.
  9000001    1    1    2    0    0  0.11731159886E-01  0.17104875605E-01 -0.29102176949E-01  0.35750994182E-01  0.10000000475E-02 0.  1.
</event>
<event>
 4   0  0.4958067E-02  0.9118800E+02  0.7818609E-02  0.1379984E+01
      -11   -1    0    0    0    0  0.00000000000E+00  0.00000000000E+00  0.35740347158E-01  0.35744000000E-01  0.51099999109E-03 0.  1.
       11   -1    0    0    0    0 -0.00000000000E+00 -0.00000000000E+00 -0.35740347158E-01  0.35744000000E-01  0.51099999109E-03 0. -1.
       22    1    1    2    0    0  0.31010680280E-02  0.36391897696E-02 -0.35415720518E-01  0.35737005818E-01  0.00000000000E+00 0. -1.
  9000001    1    1    2    0    0 -0.31010680280E-02 -0.36391897696E-02  0.35415720518E-01  0.35750994182E-01  0.10000000475E-02 0.  1.
</event>
<event>
 4   0  0.4958067E-02  0.9118800E+02  0.7818609E-02  0.1379984E+01
      -11   -1    0    0    0    0  0.00000000000E+00  0.00000000000E+00  0.35740347158E-01  0.35744000000E-01  0.51099999109E-03 0. -1.
       11   -1    0    0    0    0 -0.00000000000E+00 -0.00000000000E+00 -0.35740347158E-01  0.35744000000E-01  0.51099999109E-03 0.  1.
       22    1    1    2    0    0 -0.16537626428E-01 -0.18403122240E-01  0.25786926704E-01  0.35737005818E-01  0.00000000000E+00 0. -1.
  9000001    1    1    2    0    0  0.16537626428E-01  0.18403122240E-01 -0.25786926704E-01  0.35750994182E-01  0.10000000475E-02 0.  1.
</event>
<event>
 4   0  0.4958067E-02  0.9118800E+02  0.7818609E-02  0.1379984E+01
      -11   -1    0    0    0    0  0.00000000000E+00  0.00000000000E+00  0.35740347158E-01  0.35744000000E-01  0.51099999109E-03 0.  1.
       11   -1    0    0    0    0 -0.00000000000E+00 -0.00000000000E+00 -0.35740347158E-01  0.35744000000E-01  0.51099999109E-03 0. -1.
       22    1    1    2    0    0 -0.66614073111E-03  0.30790922324E-02  0.35597879606E-01  0.35737005818E-01  0.00000000000E+00 0.  1.
  9000001    1    1    2    0    0  0.66614073111E-03 -0.30790922324E-02 -0.35597879606E-01  0.35750994182E-01  0.10000000475E-02 0. -1.
</event>
<event>
 4   0  0.4958067E-02  0.9118800E+02  0.7818609E-02  0.1379984E+01
      -11   -1    0    0    0    0  0.00000000000E+00  0.00000000000E+00  0.35740347158E-01  0.35744000000E-01  0.51099999109E-03 0. -1.
       11   -1    0    0    0    0 -0.00000000000E+00 -0.00000000000E+00 -0.35740347158E-01  0.35744000000E-01  0.51099999109E-03 0.  1.
       22    1    1    2    0    0  0.93670343879E-03  0.51819352348E-02 -0.35346905363E-01  0.35737005818E-01  0.00000000000E+00 0.  1.
  9000001    1    1    2    0    0 -0.93670343879E-03 -0.51819352348E-02  0.35346905363E-01  0.35750994182E-01  0.10000000475E-02 0. -1.
</event>
<event>
 4   0  0.4958067E-02  0.9118800E+02  0.7818609E-02  0.1379984E+01
      -11   -1    0    0    0    0  0.00000000000E+00  0.00000000000E+00  0.35740347158E-01  0.35744000000E-01  0.51099999109E-03 0. -1.
       11   -1    0    0    0    0 -0.00000000000E+00 -0.00000000000E+00 -0.35740347158E-01  0.35744000000E-01  0.51099999109E-03 0.  1.
       22    1    1    2    0    0  0.44040704532E-02 -0.44983411294E-02  0.35178156225E-01  0.35737005818E-01  0.00000000000E+00 0. -1.
  9000001    1    1    2    0    0 -0.44040704532E-02  0.44983411294E-02 -0.35178156225E-01  0.35750994182E-01  0.10000000475E-02 0.  1.
</event>
<event>
 4   0  0.4958067E-02  0.9118800E+02  0.7818609E-02  0.1379984E+01
      -11   -1    0    0    0    0  0.00000000000E+00  0.00000000000E+00  0.35740347158E-01  0.35744000000E-01  0.51099999109E-03 0.  1.
       11   -1    0    0    0    0 -0.00000000000E+00 -0.00000000000E+00 -0.35740347158E-01  0.35744000000E-01  0.51099999109E-03 0. -1.
       22    1    1    2    0    0 -0.42180756520E-02 -0.98161984613E-02 -0.34102546392E-01  0.35737005818E-01  0.00000000000E+00 0. -1.
  9000001    1    1    2    0    0  0.42180756520E-02  0.98161984613E-02  0.34102546392E-01  0.35750994182E-01  0.10000000475E-02 0.  1.
</event>
<event>
 4   0  0.4958067E-02  0.9118800E+02  0.7818609E-02  0.1379984E+01
      -11   -1    0    0    0    0  0.00000000000E+00  0.00000000000E+00  0.35740347158E-01  0.35744000000E-01  0.51099999109E-03 0. -1.
       11   -1    0    0    0    0 -0.00000000000E+00 -0.00000000000E+00 -0.35740347158E-01  0.35744000000E-01  0.51099999109E-03 0.  1.
       22    1    1    2    0    0  0.22818410335E-01  0.27502478658E-01 -0.25961958269E-03  0.35737005818E-01  0.00000000000E+00 0.  1.
  9000001    1    1    2    0    0 -0.22818410335E-01 -0.27502478658E-01  0.25961958269E-03  0.35750994182E-01  0.10000000475E-02 0. -1.
</event>
<event>
 4   0  0.4958067E-02  0.9118800E+02  0.7818609E-02  0.1379984E+01
      -11   -1    0    0    0    0  0.00000000000E+00  0.00000000000E+00  0.35740347158E-01  0.35744000000E-01  0.51099999109E-03 0.  1.
       11   -1    0    0    0    0 -0.00000000000E+00 -0.00000000000E+00 -0.35740347158E-01  0.35744000000E-01  0.51099999109E-03 0. -1.
       22    1    1    2    0    0  0.13168482451E-01 -0.72251297286E-02 -0.32427182351E-01  0.35737005818E-01  0.00000000000E+00 0. -1.
  9000001    1    1    2    0    0 -0.13168482451E-01  0.72251297286E-02  0.32427182351E-01  0.35750994182E-01  0.10000000475E-02 0.  1.
</event>
<event>
 4   0  0.4958067E-02  0.9118800E+02  0.7818609E-02  0.1379984E+01
      -11   -1    0    0    0    0  0.00000000000E+00  0.00000000000E+00  0.35740347158E-01  0.35744000000E-01  0.51099999109E-03 0.  1.
       11   -1    0    0    0    0 -0.00000000000E+00 -0.00000000000E+00 -0.35740347158E-01  0.35744000000E-01  0.51099999109E-03 0. -1.
       22    1    1    2    0    0 -0.54026711766E-02  0.93803041736E-03  0.35313805062E-01  0.35737005818E-01  0.00000000000E+00 0.  1.
  9000001    1    1    2    0    0  0.54026711766E-02 -0.93803041736E-03 -0.35313805062E-01  0.35750994182E-01  0.10000000475E-02 0. -1.
</event>
<event>
 4   0  0.4958067E-02  0.9118800E+02  0.7818609E-02  0.1379984E+01
      -11   -1    0    0    0    0  0.00000000000E+00  0.00000000000E+00  0.35740347158E-01  0.35744000000E-01  0.51099999109E-03 0.  1.
       11   -1    0    0    0    0 -0.00000000000E+00 -0.00000000000E+00 -0.35740347158E-01  0.35744000000E-01  0.51099999109E-03 0. -1.
       22    1    1    2    0    0 -0.32483107200E-02 -0.12413427849E-02  0.35567416696E-01  0.35737005818E-01  0.00000000000E+00 0.  1.
  9000001    1    1    2    0    0  0.32483107200E-02  0.12413427849E-02 -0.35567416696E-01  0.35750994182E-01  0.10000000475E-02 0. -1.
</event>
<event>
 4   0  0.4958067E-02  0.9118800E+02  0.7818609E-02  0.1379984E+01
      -11   -1    0    0    0    0  0.00000000000E+00  0.00000000000E+00  0.35740347158E-01  0.35744000000E-01  0.51099999109E-03 0.  1.
       11   -1    0    0    0    0 -0.00000000000E+00 -0.00000000000E+00 -0.35740347158E-01  0.35744000000E-01  0.51099999109E-03 0. -1.
       22    1    1    2    0    0  0.60824195846E-02  0.17984115871E-01  0.30277208147E-01  0.35737005818E-01  0.00000000000E+00 0.  1.
  9000001    1    1    2    0    0 -0.60824195846E-02 -0.17984115871E-01 -0.30277208147E-01  0.35750994182E-01  0.10000000475E-02 0. -1.
</event>
<event>
 4   0  0.4958067E-02  0.9118800E+02  0.7818609E-02  0.1379984E+01
      -11   -1    0    0    0    0  0.00000000000E+00  0.00000000000E+00  0.35740347158E-01  0.35744000000E-01  0.51099999109E-03 0. -1.
       11   -1    0    0    0    0 -0.00000000000E+00 -0.00000000000E+00 -0.35740347158E-01  0.35744000000E-01  0.51099999109E-03 0.  1.
       22    1    1    2    0    0  0.57398823445E-02  0.60081577612E-02 -0.34757580121E-01  0.35737005818E-01  0.00000000000E+00 0.  1.
  9000001    1    1    2    0    0 -0.57398823445E-02 -0.60081577612E-02  0.34757580121E-01  0.35750994182E-01  0.10000000475E-02 0. -1.
</event>
<event>
 4   0  0.4958067E-02  0.9118800E+02  0.7818609E-02  0.1379984E+01
      -11   -1    0    0    0    0  0.00000000000E+00  0.00000000000E+00  0.35740347158E-01  0.35744000000E-01  0.51099999109E-03 0.  1.
       11   -1    0    0    0    0 -0.00000000000E+00 -0.00000000000E+00 -0.35740347158E-01  0.35744000000E-01  0.51099999109E-03 0. -1.
       22    1    1    2    0    0  0.12389019180E-01 -0.46186315471E-02 -0.33201114910E-01  0.35737005818E-01  0.00000000000E+00 0. -1.
  9000001    1    1    2    0    0 -0.12389019180E-01  0.46186315471E-02  0.33201114910E-01  0.35750994182E-01  0.10000000475E-02 0.  1.
</event>
<event>
 4   0  0.4958067E-02  0.9118800E+02  0.7818609E-02  0.1379984E+01
      -11   -1    0    0    0    0  0.00000000000E+00  0.00000000000E+00  0.35740347158E-01  0.35744000000E-01  0.51099999109E-03 0. -1.
       11   -1    0    0    0    0 -0.00000000000E+00 -0.00000000000E+00 -0.35740347158E-01  0.35744000000E-01  0.51099999109E-03 0.  1.
       22    1    1    2    0    0  0.19888935118E-01 -0.37285975051E-03 -0.29688799577E-01  0.35737005818E-01  0.00000000000E+00 0.  1.
  9000001    1    1    2    0    0 -0.19888935118E-01  0.37285975051E-03  0.29688799577E-01  0.35750994182E-01  0.10000000475E-02 0. -1.
</event>
<event>
 4   0  0.4958067E-02  0.9118800E+02  0.7818609E-02  0.1379984E+01
      -11   -1    0    0    0    0  0.00000000000E+00  0.00000000000E+00  0.35740347158E-01  0.35744000000E-01  0.51099999109E-03 0. -1.
       11   -1    0    0    0    0 -0.00000000000E+00 -0.00000000000E+00 -0.35740347158E-01  0.35744000000E-01  0.51099999109E-03 0.  1.
       22    1    1    2    0    0  0.29707323144E-03  0.11054347248E-01 -0.33983036052E-01  0.35737005818E-01  0.00000000000E+00 0.  1.
  9000001    1    1    2    0    0 -0.29707323144E-03 -0.11054347248E-01  0.33983036052E-01  0.35750994182E-01  0.10000000475E-02 0. -1.
</event>
<event>
 4   0  0.4958067E-02  0.9118800E+02  0.7818609E-02  0.1379984E+01
      -11   -1    0    0    0    0  0.00000000000E+00  0.00000000000E+00  0.35740347158E-01  0.35744000000E-01  0.51099999109E-03 0.  1.
       11   -1    0    0    0    0 -0.00000000000E+00 -0.00000000000E+00 -0.35740347158E-01  0.35744000000E-01  0.51099999109E-03 0. -1.
       22    1    1    2    0    0 -0.87111015149E-02 -0.31041476051E-01 -0.15416778518E-01  0.35737005818E-01  0.00000000000E+00 0. -1.
  9000001    1    1    2    0    0  0.87111015149E-02  0.31041476051E-01  0.15416778518E-01  0.35750994182E-01  0.10000000475E-02 0.  1.
</event>
<event>
 4   0  0.4958067E-02  0.9118800E+02  0.7818609E-02  0.1379984E+01
      -11   -1    0    0    0    0  0.00000000000E+00  0.00000000000E+00  0.35740347158E-01  0.35744000000E-01  0.51099999109E-03 0.  1.
       11   -1    0    0    0    0 -0.00000000000E+00 -0.00000000000E+00 -0.35740347158E-01  0.35744000000E-01  0.51099999109E-03 0. -1.
       22    1    1    2    0    0 -0.15232788675E-01 -0.90098085134E-02 -0.31047046310E-01  0.35737005818E-01  0.00000000000E+00 0. -1.
  9000001    1    1    2    0    0  0.15232788675E-01  0.90098085134E-02  0.31047046310E-01  0.35750994182E-01  0.10000000475E-02 0.  1.
</event>
<event>
 4   0  0.4958067E-02  0.9118800E+02  0.7818609E-02  0.1379984E+01
      -11   -1    0    0    0    0  0.00000000000E+00  0.00000000000E+00  0.35740347158E-01  0.35744000000E-01  0.51099999109E-03 0. -1.
       11   -1    0    0    0    0 -0.00000000000E+00 -0.00000000000E+00 -0.35740347158E-01  0.35744000000E-01  0.51099999109E-03 0.  1.
       22    1    1    2    0    0  0.77452954261E-02 -0.97253912198E-02 -0.33504637728E-01  0.35737005818E-01  0.00000000000E+00 0.  1.
  9000001    1    1    2    0    0 -0.77452954261E-02  0.97253912198E-02  0.33504637728E-01  0.35750994182E-01  0.10000000475E-02 0. -1.
</event>
<event>
 4   0  0.4958067E-02  0.9118800E+02  0.7818609E-02  0.1379984E+01
      -11   -1    0    0    0    0  0.00000000000E+00  0.00000000000E+00  0.35740347158E-01  0.35744000000E-01  0.51099999109E-03 0. -1.
       11   -1    0    0    0    0 -0.00000000000E+00 -0.00000000000E+00 -0.35740347158E-01  0.35744000000E-01  0.51099999109E-03 0.  1.
       22    1    1    2    0    0 -0.42470777336E-02  0.80872910083E-02  0.34549842832E-01  0.35737005818E-01  0.00000000000E+00 0. -1.
  9000001    1    1    2    0    0  0.42470777336E-02 -0.80872910083E-02 -0.34549842832E-01  0.35750994182E-01  0.10000000475E-02 0.  1.
</event>
<event>
 4   0  0.4958067E-02  0.9118800E+02  0.7818609E-02  0.1379984E+01
      -11   -1    0    0    0    0  0.00000000000E+00  0.00000000000E+00  0.35740347158E-01  0.35744000000E-01  0.51099999109E-03 0. -1.
       11   -1    0    0    0    0 -0.00000000000E+00 -0.00000000000E+00 -0.35740347158E-01  0.35744000000E-01  0.51099999109E-03 0.  1.
       22    1    1    2    0    0 -0.64182789213E-02 -0.74410562900E-03  0.35148052398E-01  0.35737005818E-01  0.00000000000E+00 0. -1.
  9000001    1    1    2    0    0  0.64182789213E-02  0.74410562900E-03 -0.35148052398E-01  0.35750994182E-01  0.10000000475E-02 0.  1.
</event>
<event>
 4   0  0.4958067E-02  0.9118800E+02  0.7818609E-02  0.1379984E+01
      -11   -1    0    0    0    0  0.00000000000E+00  0.00000000000E+00  0.35740347158E-01  0.35744000000E-01  0.51099999109E-03 0.  1.
       11   -1    0    0    0    0 -0.00000000000E+00 -0.00000000000E+00 -0.35740347158E-01  0.35744000000E-01  0.51099999109E-03 0. -1.
       22    1    1    2    0    0 -0.10512726030E-01 -0.28385146365E-01 -0.18997358820E-01  0.35737005818E-01  0.00000000000E+00 0. -1.
  9000001    1    1    2    0    0  0.10512726030E-01  0.28385146365E-01  0.18997358820E-01  0.35750994182E-01  0.10000000475E-02 0.  1.
</event>
<event>
 4   0  0.4958067E-02  0.9118800E+02  0.7818609E-02  0.1379984E+01
      -11   -1    0    0    0    0  0.00000000000E+00  0.00000000000E+00  0.35740347158E-01  0.35744000000E-01  0.51099999109E-03 0.  1.
       11   -1    0    0    0    0 -0.00000000000E+00 -0.00000000000E+00 -0.35740347158E-01  0.35744000000E-01  0.51099999109E-03 0. -1.
       22    1    1    2    0    0  0.14436116302E-01 -0.33935479244E-02 -0.32514857580E-01  0.35737005818E-01  0.00000000000E+00 0. -1.
  9000001    1    1    2    0    0 -0.14436116302E-01  0.33935479244E-02  0.32514857580E-01  0.35750994182E-01  0.10000000475E-02 0.  1.
</event>
<event>
 4   0  0.4958067E-02  0.9118800E+02  0.7818609E-02  0.1379984E+01
      -11   -1    0    0    0    0  0.00000000000E+00  0.00000000000E+00  0.35740347158E-01  0.35744000000E-01  0.51099999109E-03 0.  1.
       11   -1    0    0    0    0 -0.00000000000E+00 -0.00000000000E+00 -0.35740347158E-01  0.35744000000E-01  0.51099999109E-03 0. -1.
       22    1    1    2    0    0 -0.80838476288E-02 -0.16081404881E-02  0.34773537015E-01  0.35737005818E-01  0.00000000000E+00 0.  1.
  9000001    1    1    2    0    0  0.80838476288E-02  0.16081404881E-02 -0.34773537015E-01  0.35750994182E-01  0.10000000475E-02 0. -1.
</event>
<event>
 4   0  0.4958067E-02  0.9118800E+02  0.7818609E-02  0.1379984E+01
      -11   -1    0    0    0    0  0.00000000000E+00  0.00000000000E+00  0.35740347158E-01  0.35744000000E-01  0.51099999109E-03 0.  1.
       11   -1    0    0    0    0 -0.00000000000E+00 -0.00000000000E+00 -0.35740347158E-01  0.35744000000E-01  0.51099999109E-03 0. -1.
       22    1    1    2    0    0 -0.24414972556E-02  0.19384200068E-02  0.35600775327E-01  0.35737005818E-01  0.00000000000E+00 0.  1.
  9000001    1    1    2    0    0  0.24414972556E-02 -0.19384200068E-02 -0.35600775327E-01  0.35750994182E-01  0.10000000475E-02 0. -1.
</event>
<event>
 4   0  0.4958067E-02  0.9118800E+02  0.7818609E-02  0.1379984E+01
      -11   -1    0    0    0    0  0.00000000000E+00  0.00000000000E+00  0.35740347158E-01  0.35744000000E-01  0.51099999109E-03 0.  1.
       11   -1    0    0    0    0 -0.00000000000E+00 -0.00000000000E+00 -0.35740347158E-01  0.35744000000E-01  0.51099999109E-03 0. -1.
       22    1    1    2    0    0  0.40744920107E-02  0.51637171946E-02 -0.35126459037E-01  0.35737005818E-01  0.00000000000E+00 0. -1.
  9000001    1    1    2    0    0 -0.40744920107E-02 -0.51637171946E-02  0.35126459037E-01  0.35750994182E-01  0.10000000475E-02 0.  1.
</event>
<event>
 4   0  0.4958067E-02  0.9118800E+02  0.7818609E-02  0.1379984E+01
      -11   -1    0    0    0    0  0.00000000000E+00  0.00000000000E+00  0.35740347158E-01  0.35744000000E-01  0.51099999109E-03 0. -1.
       11   -1    0    0    0    0 -0.00000000000E+00 -0.00000000000E+00 -0.35740347158E-01  0.35744000000E-01  0.51099999109E-03 0.  1.
       22    1    1    2    0    0  0.39514281908E-02 -0.22145508116E-01  0.27768620246E-01  0.35737005818E-01  0.00000000000E+00 0. -1.
  9000001    1    1    2    0    0 -0.39514281908E-02  0.22145508116E-01 -0.27768620246E-01  0.35750994182E-01  0.10000000475E-02 0.  1.
</event>
<event>
 4   0  0.4958067E-02  0.9118800E+02  0.7818609E-02  0.1379984E+01
      -11   -1    0    0    0    0  0.00000000000E+00  0.00000000000E+00  0.35740347158E-01  0.35744000000E-01  0.51099999109E-03 0. -1.
       11   -1    0    0    0    0 -0.00000000000E+00 -0.00000000000E+00 -0.35740347158E-01  0.35744000000E-01  0.51099999109E-03 0.  1.
       22    1    1    2    0    0 -0.22988303781E-01 -0.23761373820E-02  0.27258493085E-01  0.35737005818E-01  0.00000000000E+00 0. -1.
  9000001    1    1    2    0    0  0.22988303781E-01  0.23761373820E-02 -0.27258493085E-01  0.35750994182E-01  0.10000000475E-02 0.  1.
</event>
<event>
 4   0  0.4958067E-02  0.9118800E+02  0.7818609E-02  0.1379984E+01
      -11   -1    0    0    0    0  0.00000000000E+00  0.00000000000E+00  0.35740347158E-01  0.35744000000E-01  0.51099999109E-03 0. -1.
       11   -1    0    0    0    0 -0.00000000000E+00 -0.00000000000E+00 -0.35740347158E-01  0.35744000000E-01  0.51099999109E-03 0.  1.
       22    1    1    2    0    0 -0.20435787045E-02 -0.91630541412E-02 -0.34481818539E-01  0.35737005818E-01  0.00000000000E+00 0.  1.
  9000001    1    1    2    0    0  0.20435787045E-02  0.91630541412E-02  0.34481818539E-01  0.35750994182E-01  0.10000000475E-02 0. -1.
</event>
<event>
 4   0  0.4958067E-02  0.9118800E+02  0.7818609E-02  0.1379984E+01
      -11   -1    0    0    0    0  0.00000000000E+00  0.00000000000E+00  0.35740347158E-01  0.35744000000E-01  0.51099999109E-03 0. -1.
       11   -1    0    0    0    0 -0.00000000000E+00 -0.00000000000E+00 -0.35740347158E-01  0.35744000000E-01  0.51099999109E-03 0.  1.
       22    1    1    2    0    0  0.46786663142E-02  0.22713703068E-01  0.27190648380E-01  0.35737005818E-01  0.00000000000E+00 0. -1.
  9000001    1    1    2    0    0 -0.46786663142E-02 -0.22713703068E-01 -0.27190648380E-01  0.35750994182E-01  0.10000000475E-02 0.  1.
</event>
<event>
 4   0  0.4958067E-02  0.9118800E+02  0.7818609E-02  0.1379984E+01
      -11   -1    0    0    0    0  0.00000000000E+00  0.00000000000E+00  0.35740347158E-01  0.35744000000E-01  0.51099999109E-03 0.  1.
       11   -1    0    0    0    0 -0.00000000000E+00 -0.00000000000E+00 -0.35740347158E-01  0.35744000000E-01  0.51099999109E-03 0. -1.
       22    1    1    2    0    0 -0.14050764870E-01 -0.10894075546E-01 -0.31000463052E-01  0.35737005818E-01  0.00000000000E+00 0. -1.
  9000001    1    1    2    0    0  0.14050764870E-01  0.10894075546E-01  0.31000463052E-01  0.35750994182E-01  0.10000000475E-02 0.  1.
</event>
<event>
 4   0  0.4958067E-02  0.9118800E+02  0.7818609E-02  0.1379984E+01
      -11   -1    0    0    0    0  0.00000000000E+00  0.00000000000E+00  0.35740347158E-01  0.35744000000E-01  0.51099999109E-03 0.  1.
       11   -1    0    0    0    0 -0.00000000000E+00 -0.00000000000E+00 -0.35740347158E-01  0.35744000000E-01  0.51099999109E-03 0. -1.
       22    1    1    2    0    0 -0.33174278553E-02  0.25176203332E-02 -0.35493518354E-01  0.35737005818E-01  0.00000000000E+00 0. -1.
  9000001    1    1    2    0    0  0.33174278553E-02 -0.25176203332E-02  0.35493518354E-01  0.35750994182E-01  0.10000000475E-02 0.  1.
</event>
<event>
 4   0  0.4958067E-02  0.9118800E+02  0.7818609E-02  0.1379984E+01
      -11   -1    0    0    0    0  0.00000000000E+00  0.00000000000E+00  0.35740347158E-01  0.35744000000E-01  0.51099999109E-03 0. -1.
       11   -1    0    0    0    0 -0.00000000000E+00 -0.00000000000E+00 -0.35740347158E-01  0.35744000000E-01  0.51099999109E-03 0.  1.
       22    1    1    2    0    0 -0.17424728236E-01  0.11864830435E-01  0.28857204118E-01  0.35737005818E-01  0.00000000000E+00 0. -1.
  9000001    1    1    2    0    0  0.17424728236E-01 -0.11864830435E-01 -0.28857204118E-01  0.35750994182E-01  0.10000000475E-02 0.  1.
</event>
<event>
 4   0  0.4958067E-02  0.9118800E+02  0.7818609E-02  0.1379984E+01
      -11   -1    0    0    0    0  0.00000000000E+00  0.00000000000E+00  0.35740347158E-01  0.35744000000E-01  0.51099999109E-03 0. -1.
       11   -1    0    0    0    0 -0.00000000000E+00 -0.00000000000E+00 -0.35740347158E-01  0.35744000000E-01  0.51099999109E-03 0.  1.
       22    1    1    2    0    0 -0.31433169403E-02 -0.23147862943E-02  0.35523160162E-01  0.35737005818E-01  0.00000000000E+00 0. -1.
  9000001    1    1    2    0    0  0.31433169403E-02  0.23147862943E-02 -0.35523160162E-01  0.35750994182E-01  0.10000000475E-02 0.  1.
</event>
<event>
 4   0  0.4958067E-02  0.9118800E+02  0.7818609E-02  0.1379984E+01
      -11   -1    0    0    0    0  0.00000000000E+00  0.00000000000E+00  0.35740347158E-01  0.35744000000E-01  0.51099999109E-03 0.  1.
       11   -1    0    0    0    0 -0.00000000000E+00 -0.00000000000E+00 -0.35740347158E-01  0.35744000000E-01  0.51099999109E-03 0. -1.
       22    1    1    2    0    0  0.22957386617E-01  0.49177827675E-02  0.26942668711E-01  0.35737005818E-01  0.00000000000E+00 0.  1.
  9000001    1    1    2    0    0 -0.22957386617E-01 -0.49177827675E-02 -0.26942668711E-01  0.35750994182E-01  0.10000000475E-02 0. -1.
</event>
<event>
 4   0  0.4958067E-02  0.9118800E+02  0.7818609E-02  0.1379984E+01
      -11   -1    0    0    0    0  0.00000000000E+00  0.00000000000E+00  0.35740347158E-01  0.35744000000E-01  0.51099999109E-03 0.  1.
       11   -1    0    0    0    0 -0.00000000000E+00 -0.00000000000E+00 -0.35740347158E-01  0.35744000000E-01  0.51099999109E-03 0. -1.
       22    1    1    2    0    0  0.32434806350E-02 -0.62871647003E-02  0.35029772741E-01  0.35737005818E-01  0.00000000000E+00 0.  1.
  9000001    1    1    2    0    0 -0.32434806350E-02  0.62871647003E-02 -0.35029772741E-01  0.35750994182E-01  0.10000000475E-02 0. -1.
</event>
<event>
 4   0  0.4958067E-02  0.9118800E+02  0.7818609E-02  0.1379984E+01
      -11   -1    0    0    0    0  0.00000000000E+00  0.00000000000E+00  0.35740347158E-01  0.35744000000E-01  0.51099999109E-03 0.  1.
       11   -1    0    0    0    0 -0.00000000000E+00 -0.00000000000E+00 -0.35740347158E-01  0.35744000000E-01  0.51099999109E-03 0. -1.
       22    1    1    2    0    0 -0.35041570115E-02  0.36115218435E-02 -0.35380946546E-01  0.35737005818E-01  0.00000000000E+00 0. -1.
  9000001    1    1    2    0    0  0.35041570115E-02 -0.36115218435E-02  0.35380946546E-01  0.35750994182E-01  0.10000000475E-02 0.  1.
</event>
<event>
 4   0  0.4958067E-02  0.9118800E+02  0.7818609E-02  0.1379984E+01
      -11   -1    0    0    0    0  0.00000000000E+00  0.00000000000E+00  0.35740347158E-01  0.35744000000E-01  0.51099999109E-03 0.  1.
       11   -1    0    0    0    0 -0.00000000000E+00 -0.00000000000E+00 -0.35740347158E-01  0.35744000000E-01  0.51099999109E-03 0. -1.
       22    1    1    2    0    0  0.93889523990E-03 -0.36341622966E-02 -0.35539343339E-01  0.35737005818E-01  0.00000000000E+00 0. -1.
  9000001    1    1    2    0    0 -0.93889523990E-03  0.36341622966E-02  0.35539343339E-01  0.35750994182E-01  0.10000000475E-02 0.  1.
</event>
<event>
 4   0  0.4958067E-02  0.9118800E+02  0.7818609E-02  0.1379984E+01
      -11   -1    0    0    0    0  0.00000000000E+00  0.00000000000E+00  0.35740347158E-01  0.35744000000E-01  0.51099999109E-03 0.  1.
       11   -1    0    0    0    0 -0.00000000000E+00 -0.00000000000E+00 -0.35740347158E-01  0.35744000000E-01  0.51099999109E-03 0. -1.
       22    1    1    2    0    0 -0.30312671304E-02  0.17477084575E-03  0.35607786502E-01  0.35737005818E-01  0.00000000000E+00 0.  1.
  9000001    1    1    2    0    0  0.30312671304E-02 -0.17477084575E-03 -0.35607786502E-01  0.35750994182E-01  0.10000000475E-02 0. -1.
</event>
<event>
 4   0  0.4958067E-02  0.9118800E+02  0.7818609E-02  0.1379984E+01
      -11   -1    0    0    0    0  0.00000000000E+00  0.00000000000E+00  0.35740347158E-01  0.35744000000E-01  0.51099999109E-03 0.  1.
       11   -1    0    0    0    0 -0.00000000000E+00 -0.00000000000E+00 -0.35740347158E-01  0.35744000000E-01  0.51099999109E-03 0. -1.
       22    1    1    2    0    0  0.19780403481E-02  0.28911572409E-01 -0.20912721538E-01  0.35737005818E-01  0.00000000000E+00 0. -1.
  9000001    1    1    2    0    0 -0.19780403481E-02 -0.28911572409E-01  0.20912721538E-01  0.35750994182E-01  0.10000000475E-02 0.  1.
</event>
<event>
 4   0  0.4958067E-02  0.9118800E+02  0.7818609E-02  0.1379984E+01
      -11   -1    0    0    0    0  0.00000000000E+00  0.00000000000E+00  0.35740347158E-01  0.35744000000E-01  0.51099999109E-03 0.  1.
       11   -1    0    0    0    0 -0.00000000000E+00 -0.00000000000E+00 -0.35740347158E-01  0.35744000000E-01  0.51099999109E-03 0. -1.
       22    1    1    2    0    0 -0.16994226948E-01 -0.14734419844E-01 -0.27770968784E-01  0.35737005818E-01  0.00000000000E+00 0. -1.
  9000001    1    1    2    0    0  0.16994226948E-01  0.14734419844E-01  0.27770968784E-01  0.35750994182E-01  0.10000000475E-02 0.  1.
</event>
<event>
 4   0  0.4958067E-02  0.9118800E+02  0.7818609E-02  0.1379984E+01
      -11   -1    0    0    0    0  0.00000000000E+00  0.00000000000E+00  0.35740347158E-01  0.35744000000E-01  0.51099999109E-03 0.  1.
       11   -1    0    0    0    0 -0.00000000000E+00 -0.00000000000E+00 -0.35740347158E-01  0.35744000000E-01  0.51099999109E-03 0. -1.
       22    1    1    2    0    0 -0.19050792916E-01  0.20235366401E-01  0.22466215097E-01  0.35737005818E-01  0.00000000000E+00 0.  1.
  9000001    1    1    2    0    0  0.19050792916E-01 -0.20235366401E-01 -0.22466215097E-01  0.35750994182E-01  0.10000000475E-02 0. -1.
</event>
<event>
 4   0  0.4958067E-02  0.9118800E+02  0.7818609E-02  0.1379984E+01
      -11   -1    0    0    0    0  0.00000000000E+00  0.00000000000E+00  0.35740347158E-01  0.35744000000E-01  0.51099999109E-03 0.  1.
       11   -1    0    0    0    0 -0.00000000000E+00 -0.00000000000E+00 -0.35740347158E-01  0.35744000000E-01  0.51099999109E-03 0. -1.
       22    1    1    2    0    0  0.61207448407E-02 -0.25734944779E-02  0.35114771730E-01  0.35737005818E-01  0.00000000000E+00 0.  1.
  9000001    1    1    2    0    0 -0.61207448407E-02  0.25734944779E-02 -0.35114771730E-01  0.35750994182E-01  0.10000000475E-02 0. -1.
</event>
<event>
 4   0  0.4958067E-02  0.9118800E+02  0.7818609E-02  0.1379984E+01
      -11   -1    0    0    0    0  0.00000000000E+00  0.00000000000E+00  0.35740347158E-01  0.35744000000E-01  0.51099999109E-03 0.  1.
       11   -1    0    0    0    0 -0.00000000000E+00 -0.00000000000E+00 -0.35740347158E-01  0.35744000000E-01  0.51099999109E-03 0. -1.
       22    1    1    2    0    0 -0.73587941062E-02 -0.88485390856E-02 -0.33833195093E-01  0.35737005818E-01  0.00000000000E+00 0. -1.
  9000001    1    1    2    0    0  0.73587941062E-02  0.88485390856E-02  0.33833195093E-01  0.35750994182E-01  0.10000000475E-02 0.  1.
</event>
<event>
 4   0  0.4958067E-02  0.9118800E+02  0.7818609E-02  0.1379984E+01
      -11   -1    0    0    0    0  0.00000000000E+00  0.00000000000E+00  0.35740347158E-01  0.35744000000E-01  0.51099999109E-03 0.  1.
       11   -1    0    0    0    0 -0.00000000000E+00 -0.00000000000E+00 -0.35740347158E-01  0.35744000000E-01  0.51099999109E-03 0. -1.
       22    1    1    2    0    0 -0.53974585064E-02  0.21708369674E-01 -0.27870193983E-01  0.35737005818E-01  0.00000000000E+00 0. -1.
  9000001    1    1    2    0    0  0.53974585064E-02 -0.21708369674E-01  0.27870193983E-01  0.35750994182E-01  0.10000000475E-02 0.  1.
</event>
<event>
 4   0  0.4958067E-02  0.9118800E+02  0.7818609E-02  0.1379984E+01
      -11   -1    0    0    0    0  0.00000000000E+00  0.00000000000E+00  0.35740347158E-01  0.35744000000E-01  0.51099999109E-03 0.  1.
       11   -1    0    0    0    0 -0.00000000000E+00 -0.00000000000E+00 -0.35740347158E-01  0.35744000000E-01  0.51099999109E-03 0. -1.
       22    1    1    2    0    0  0.13814669529E-03  0.94941958115E-02 -0.34452499855E-01  0.35737005818E-01  0.00000000000E+00 0. -1.
  9000001    1    1    2    0    0 -0.13814669529E-03 -0.94941958115E-02  0.34452499855E-01  0.35750994182E-01  0.10000000475E-02 0.  1.
</event>
<event>
 4   0  0.4958067E-02  0.9118800E+02  0.7818609E-02  0.1379984E+01
      -11   -1    0    0    0    0  0.00000000000E+00  0.00000000000E+00  0.35740347158E-01  0.35744000000E-01  0.51099999109E-03 0. -1.
       11   -1    0    0    0    0 -0.00000000000E+00 -0.00000000000E+00 -0.35740347158E-01  0.35744000000E-01  0.51099999109E-03 0.  1.
       22    1    1    2    0    0  0.42564545083E-02  0.10605585008E-01  0.33860563293E-01  0.35737005818E-01  0.00000000000E+00 0. -1.
  9000001    1    1    2    0    0 -0.42564545083E-02 -0.10605585008E-01 -0.33860563293E-01  0.35750994182E-01  0.10000000475E-02 0.  1.
</event>
<event>
 4   0  0.4958067E-02  0.9118800E+02  0.7818609E-02  0.1379984E+01
      -11   -1    0    0    0    0  0.00000000000E+00  0.00000000000E+00  0.35740347158E-01  0.35744000000E-01  0.51099999109E-03 0. -1.
       11   -1    0    0    0    0 -0.00000000000E+00 -0.00000000000E+00 -0.35740347158E-01  0.35744000000E-01  0.51099999109E-03 0.  1.
       22    1    1    2    0    0 -0.32351847200E-02  0.13572552818E-02 -0.35564378566E-01  0.35737005818E-01  0.00000000000E+00 0.  1.
  9000001    1    1    2    0    0  0.32351847200E-02 -0.13572552818E-02  0.35564378566E-01  0.35750994182E-01  0.10000000475E-02 0. -1.
</event>
<event>
 4   0  0.4958067E-02  0.9118800E+02  0.7818609E-02  0.1379984E+01
      -11   -1    0    0    0    0  0.00000000000E+00  0.00000000000E+00  0.35740347158E-01  0.35744000000E-01  0.51099999109E-03 0. -1.
       11   -1    0    0    0    0 -0.00000000000E+00 -0.00000000000E+00 -0.35740347158E-01  0.35744000000E-01  0.51099999109E-03 0.  1.
       22    1    1    2    0    0  0.99880833801E-02 -0.15703226951E-01  0.30508694475E-01  0.35737005818E-01  0.00000000000E+00 0. -1.
  9000001    1    1    2    0    0 -0.99880833801E-02  0.15703226951E-01 -0.30508694475E-01  0.35750994182E-01  0.10000000475E-02 0.  1.
</event>
<event>
 4   0  0.4958067E-02  0.9118800E+02  0.7818609E-02  0.1379984E+01
      -11   -1    0    0    0    0  0.00000000000E+00  0.00000000000E+00  0.35740347158E-01  0.35744000000E-01  0.51099999109E-03 0. -1.
       11   -1    0    0    0    0 -0.00000000000E+00 -0.00000000000E+00 -0.35740347158E-01  0.35744000000E-01  0.51099999109E-03 0.  1.
       22    1    1    2    0    0 -0.29024354315E-02 -0.15253358168E-02  0.35586272692E-01  0.35737005818E-01  0.00000000000E+00 0. -1.
  9000001    1    1    2    0    0  0.29024354315E-02  0.15253358168E-02 -0.35586272692E-01  0.35750994182E-01  0.10000000475E-02 0.  1.
</event>
<event>
 4   0  0.4958067E-02  0.9118800E+02  0.7818609E-02  0.1379984E+01
      -11   -1    0    0    0    0  0.00000000000E+00  0.00000000000E+00  0.35740347158E-01  0.35744000000E-01  0.51099999109E-03 0. -1.
       11   -1    0    0    0    0 -0.00000000000E+00 -0.00000000000E+00 -0.35740347158E-01  0.35744000000E-01  0.51099999109E-03 0.  1.
       22    1    1    2    0    0  0.54817061705E-02 -0.15604515500E-01  0.31679387279E-01  0.35737005818E-01  0.00000000000E+00 0. -1.
  9000001    1    1    2    0    0 -0.54817061705E-02  0.15604515500E-01 -0.31679387279E-01  0.35750994182E-01  0.10000000475E-02 0.  1.
</event>
<event>
 4   0  0.4958067E-02  0.9118800E+02  0.7818609E-02  0.1379984E+01
      -11   -1    0    0    0    0  0.00000000000E+00  0.00000000000E+00  0.35740347158E-01  0.35744000000E-01  0.51099999109E-03 0. -1.
       11   -1    0    0    0    0 -0.00000000000E+00 -0.00000000000E+00 -0.35740347158E-01  0.35744000000E-01  0.51099999109E-03 0.  1.
       22    1    1    2    0    0  0.19084107030E-01  0.54566184079E-02 -0.29717936659E-01  0.35737005818E-01  0.00000000000E+00 0.  1.
  9000001    1    1    2    0    0 -0.19084107030E-01 -0.54566184079E-02  0.29717936659E-01  0.35750994182E-01  0.10000000475E-02 0. -1.
</event>
<event>
 4   0  0.4958067E-02  0.9118800E+02  0.7818609E-02  0.1379984E+01
      -11   -1    0    0    0    0  0.00000000000E+00  0.00000000000E+00  0.35740347158E-01  0.35744000000E-01  0.51099999109E-03 0.  1.
       11   -1    0    0    0    0 -0.00000000000E+00 -0.00000000000E+00 -0.35740347158E-01  0.35744000000E-01  0.51099999109E-03 0. -1.
       22    1    1    2    0    0 -0.82742931341E-02  0.29184153646E-01 -0.18893248370E-01  0.35737005818E-01  0.00000000000E+00 0. -1.
  9000001    1    1    2    0    0  0.82742931341E-02 -0.29184153646E-01  0.18893248370E-01  0.35750994182E-01  0.10000000475E-02 0.  1.
</event>
<event>
 4   0  0.4958067E-02  0.9118800E+02  0.7818609E-02  0.1379984E+01
      -11   -1    0    0    0    0  0.00000000000E+00  0.00000000000E+00  0.35740347158E-01  0.35744000000E-01  0.51099999109E-03 0. -1.
       11   -1    0    0    0    0 -0.00000000000E+00 -0.00000000000E+00 -0.35740347158E-01  0.35744000000E-01  0.51099999109E-03 0.  1.
       22    1    1    2    0    0 -0.23782870375E-01  0.19321365892E-01 -0.18390037565E-01  0.35737005818E-01  0.00000000000E+00 0.  1.
  9000001    1    1    2    0    0  0.23782870375E-01 -0.19321365892E-01  0.18390037565E-01  0.35750994182E-01  0.10000000475E-02 0. -1.
</event>
<event>
 4   0  0.4958067E-02  0.9118800E+02  0.7818609E-02  0.1379984E+01
      -11   -1    0    0    0    0  0.00000000000E+00  0.00000000000E+00  0.35740347158E-01  0.35744000000E-01  0.51099999109E-03 0. -1.
       11   -1    0    0    0    0 -0.00000000000E+00 -0.00000000000E+00 -0.35740347158E-01  0.35744000000E-01  0.51099999109E-03 0.  1.
       22    1    1    2    0    0  0.20384171204E-01  0.96695755402E-03 -0.29337418807E-01  0.35737005818E-01  0.00000000000E+00 0.  1.
  9000001    1    1    2    0    0 -0.20384171204E-01 -0.96695755402E-03  0.29337418807E-01  0.35750994182E-01  0.10000000475E-02 0. -1.
</event>
<event>
 4   0  0.4958067E-02  0.9118800E+02  0.7818609E-02  0.1379984E+01
      -11   -1    0    0    0    0  0.00000000000E+00  0.00000000000E+00  0.35740347158E-01  0.35744000000E-01  0.51099999109E-03 0. -1.
       11   -1    0    0    0    0 -0.00000000000E+00 -0.00000000000E+00 -0.35740347158E-01  0.35744000000E-01  0.51099999109E-03 0.  1.
       22    1    1    2    0    0 -0.83052917115E-04 -0.95261246743E-02 -0.34443862091E-01  0.35737005818E-01  0.00000000000E+00 0.  1.
  9000001    1    1    2    0    0  0.83052917115E-04  0.95261246743E-02  0.34443862091E-01  0.35750994182E-01  0.10000000475E-02 0. -1.
</event>
<event>
 4   0  0.4958067E-02  0.9118800E+02  0.7818609E-02  0.1379984E+01
      -11   -1    0    0    0    0  0.00000000000E+00  0.00000000000E+00  0.35740347158E-01  0.35744000000E-01  0.51099999109E-03 0. -1.
       11   -1    0    0    0    0 -0.00000000000E+00 -0.00000000000E+00 -0.35740347158E-01  0.35744000000E-01  0.51099999109E-03 0.  1.
       22    1    1    2    0    0 -0.73636001166E-02  0.60324865927E-02  0.34445900826E-01  0.35737005818E-01  0.00000000000E+00 0. -1.
  9000001    1    1    2    0    0  0.73636001166E-02 -0.60324865927E-02 -0.34445900826E-01  0.35750994182E-01  0.10000000475E-02 0.  1.
</event>
<event>
 4   0  0.4958067E-02  0.9118800E+02  0.7818609E-02  0.1379984E+01
      -11   -1    0    0    0    0  0.00000000000E+00  0.00000000000E+00  0.35740347158E-01  0.35744000000E-01  0.51099999109E-03 0. -1.
       11   -1    0    0    0    0 -0.00000000000E+00 -0.00000000000E+00 -0.35740347158E-01  0.35744000000E-01  0.51099999109E-03 0.  1.
       22    1    1    2    0    0  0.25428305123E-01 -0.19216065500E-01 -0.16164087050E-01  0.35737005818E-01  0.00000000000E+00 0.  1.
  9000001    1    1    2    0    0 -0.25428305123E-01  0.19216065500E-01  0.16164087050E-01  0.35750994182E-01  0.10000000475E-02 0. -1.
</event>
<event>
 4   0  0.4958067E-02  0.9118800E+02  0.7818609E-02  0.1379984E+01
      -11   -1    0    0    0    0  0.00000000000E+00  0.00000000000E+00  0.35740347158E-01  0.35744000000E-01  0.51099999109E-03 0.  1.
       11   -1    0    0    0    0 -0.00000000000E+00 -0.00000000000E+00 -0.35740347158E-01  0.35744000000E-01  0.51099999109E-03 0. -1.
       22    1    1    2    0    0  0.16100364680E-01 -0.23772182315E-01 -0.21278984704E-01  0.35737005818E-01  0.00000000000E+00 0. -1.
  9000001    1    1    2    0    0 -0.16100364680E-01  0.23772182315E-01  0.21278984704E-01  0.35750994182E-01  0.10000000475E-02 0.  1.
</event>
<event>
 4   0  0.4958067E-02  0.9118800E+02  0.7818609E-02  0.1379984E+01
      -11   -1    0    0    0    0  0.00000000000E+00  0.00000000000E+00  0.35740347158E-01  0.35744000000E-01  0.51099999109E-03 0.  1.
       11   -1    0    0    0    0 -0.00000000000E+00 -0.00000000000E+00 -0.35740347158E-01  0.35744000000E-01  0.51099999109E-03 0. -1.
       22    1    1    2    0    0  0.21592058503E-01 -0.20189285006E-01 -0.20082563717E-01  0.35737005818E-01  0.00000000000E+00 0. -1.
  9000001    1    1    2    0    0 -0.21592058503E-01  0.20189285006E-01  0.20082563717E-01  0.35750994182E-01  0.10000000475E-02 0.  1.
</event>
<event>
 4   0  0.4958067E-02  0.9118800E+02  0.7818609E-02  0.1379984E+01
      -11   -1    0    0    0    0  0.00000000000E+00  0.00000000000E+00  0.35740347158E-01  0.35744000000E-01  0.51099999109E-03 0. -1.
       11   -1    0    0    0    0 -0.00000000000E+00 -0.00000000000E+00 -0.35740347158E-01  0.35744000000E-01  0.51099999109E-03 0.  1.
       22    1    1    2    0    0  0.31185537921E-03 -0.14294113856E-01 -0.32752322668E-01  0.35737005818E-01  0.00000000000E+00 0.  1.
  9000001    1    1    2    0    0 -0.31185537921E-03  0.14294113856E-01  0.32752322668E-01  0.35750994182E-01  0.10000000475E-02 0. -1.
</event>
<event>
 4   0  0.4958067E-02  0.9118800E+02  0.7818609E-02  0.1379984E+01
      -11   -1    0    0    0    0  0.00000000000E+00  0.00000000000E+00  0.35740347158E-01  0.35744000000E-01  0.51099999109E-03 0.  1.
       11   -1    0    0    0    0 -0.00000000000E+00 -0.00000000000E+00 -0.35740347158E-01  0.35744000000E-01  0.51099999109E-03 0. -1.
       22    1    1    2    0    0  0.10092272881E-02  0.74471923213E-02 -0.34937864441E-01  0.35737005818E-01  0.00000000000E+00 0. -1.
  9000001    1    1    2    0    0 -0.10092272881E-02 -0.74471923213E-02  0.34937864441E-01  0.35750994182E-01  0.10000000475E-02 0.  1.
</event>
<event>
 4   0  0.4958067E-02  0.9118800E+02  0.7818609E-02  0.1379984E+01
      -11   -1    0    0    0    0  0.00000000000E+00  0.00000000000E+00  0.35740347158E-01  0.35744000000E-01  0.51099999109E-03 0. -1.
       11   -1    0    0    0    0 -0.00000000000E+00 -0.00000000000E+00 -0.35740347158E-01  0.35744000000E-01  0.51099999109E-03 0.  1.
       22    1    1    2    0    0 -0.17828733724E-02  0.27057706284E-02 -0.35589798436E-01  0.35737005818E-01  0.00000000000E+00 0.  1.
  9000001    1    1    2    0    0  0.17828733724E-02 -0.27057706284E-02  0.35589798436E-01  0.35750994182E-01  0.10000000475E-02 0. -1.
</event>
<event>
 4   0  0.4958067E-02  0.9118800E+02  0.7818609E-02  0.1379984E+01
      -11   -1    0    0    0    0  0.00000000000E+00  0.00000000000E+00  0.35740347158E-01  0.35744000000E-01  0.51099999109E-03 0. -1.
       11   -1    0    0    0    0 -0.00000000000E+00 -0.00000000000E+00 -0.35740347158E-01  0.35744000000E-01  0.51099999109E-03 0.  1.
       22    1    1    2    0    0  0.29026539137E-01  0.20761672292E-01  0.18832350529E-02  0.35737005818E-01  0.00000000000E+00 0. -1.
  9000001    1    1    2    0    0 -0.29026539137E-01 -0.20761672292E-01 -0.18832350529E-02  0.35750994182E-01  0.10000000475E-02 0.  1.
</event>
<event>
 4   0  0.4958067E-02  0.9118800E+02  0.7818609E-02  0.1379984E+01
      -11   -1    0    0    0    0  0.00000000000E+00  0.00000000000E+00  0.35740347158E-01  0.35744000000E-01  0.51099999109E-03 0.  1.
       11   -1    0    0    0    0 -0.00000000000E+00 -0.00000000000E+00 -0.35740347158E-01  0.35744000000E-01  0.51099999109E-03 0. -1.
       22    1    1    2    0    0 -0.64497535648E-02  0.35078583581E-01 -0.22421502610E-02  0.35737005818E-01  0.00000000000E+00 0. -1.
  9000001    1    1    2    0    0  0.64497535648E-02 -0.35078583581E-01  0.22421502610E-02  0.35750994182E-01  0.10000000475E-02 0.  1.
</event>
<event>
 4   0  0.4958067E-02  0.9118800E+02  0.7818609E-02  0.1379984E+01
      -11   -1    0    0    0    0  0.00000000000E+00  0.00000000000E+00  0.35740347158E-01  0.35744000000E-01  0.51099999109E-03 0. -1.
       11   -1    0    0    0    0 -0.00000000000E+00 -0.00000000000E+00 -0.35740347158E-01  0.35744000000E-01  0.51099999109E-03 0.  1.
       22    1    1    2    0    0  0.28334123355E-01  0.61415947290E-02 -0.20894780515E-01  0.35737005818E-01  0.00000000000E+00 0.  1.
  9000001    1    1    2    0    0 -0.28334123355E-01 -0.61415947290E-02  0.20894780515E-01  0.35750994182E-01  0.10000000475E-02 0. -1.
</event>
<event>
 4   0  0.4958067E-02  0.9118800E+02  0.7818609E-02  0.1379984E+01
      -11   -1    0    0    0    0  0.00000000000E+00  0.00000000000E+00  0.35740347158E-01  0.35744000000E-01  0.51099999109E-03 0.  1.
       11   -1    0    0    0    0 -0.00000000000E+00 -0.00000000000E+00 -0.35740347158E-01  0.35744000000E-01  0.51099999109E-03 0. -1.
       22    1    1    2    0    0  0.24900068924E-01  0.25249872010E-01  0.44231341746E-02  0.35737005818E-01  0.00000000000E+00 0. -1.
  9000001    1    1    2    0    0 -0.24900068924E-01 -0.25249872010E-01 -0.44231341746E-02  0.35750994182E-01  0.10000000475E-02 0.  1.
</event>
<event>
 4   0  0.4958067E-02  0.9118800E+02  0.7818609E-02  0.1379984E+01
      -11   -1    0    0    0    0  0.00000000000E+00  0.00000000000E+00  0.35740347158E-01  0.35744000000E-01  0.51099999109E-03 0. -1.
       11   -1    0    0    0    0 -0.00000000000E+00 -0.00000000000E+00 -0.35740347158E-01  0.35744000000E-01  0.51099999109E-03 0.  1.
       22    1    1    2    0    0 -0.14788810011E-01  0.14236063582E-01  0.29253361807E-01  0.35737005818E-01  0.00000000000E+00 0. -1.
  9000001    1    1    2    0    0  0.14788810011E-01 -0.14236063582E-01 -0.29253361807E-01  0.35750994182E-01  0.10000000475E-02 0.  1.
</event>
<event>
 4   0  0.4958067E-02  0.9118800E+02  0.7818609E-02  0.1379984E+01
      -11   -1    0    0    0    0  0.00000000000E+00  0.00000000000E+00  0.35740347158E-01  0.35744000000E-01  0.51099999109E-03 0.  1.
       11   -1    0    0    0    0 -0.00000000000E+00 -0.00000000000E+00 -0.35740347158E-01  0.35744000000E-01  0.51099999109E-03 0. -1.
       22    1    1    2    0    0 -0.40024165556E-02 -0.19464707197E-03  0.35511636953E-01  0.35737005818E-01  0.00000000000E+00 0.  1.
  9000001    1    1    2    0    0  0.40024165556E-02  0.19464707197E-03 -0.35511636953E-01  0.35750994182E-01  0.10000000475E-02 0. -1.
</event>
<event>
 4   0  0.4958067E-02  0.9118800E+02  0.7818609E-02  0.1379984E+01
      -11   -1    0    0    0    0  0.00000000000E+00  0.00000000000E+00  0.35740347158E-01  0.35744000000E-01  0.51099999109E-03 0.  1.
       11   -1    0    0    0    0 -0.00000000000E+00 -0.00000000000E+00 -0.35740347158E-01  0.35744000000E-01  0.51099999109E-03 0. -1.
       22    1    1    2    0    0 -0.19266534523E-01 -0.11139720660E-01  0.27961417274E-01  0.35737005818E-01  0.00000000000E+00 0.  1.
  9000001    1    1    2    0    0  0.19266534523E-01  0.11139720660E-01 -0.27961417274E-01  0.35750994182E-01  0.10000000475E-02 0. -1.
</event>
<event>
 4   0  0.4958067E-02  0.9118800E+02  0.7818609E-02  0.1379984E+01
      -11   -1    0    0    0    0  0.00000000000E+00  0.00000000000E+00  0.35740347158E-01  0.35744000000E-01  0.51099999109E-03 0.  1.
       11   -1    0    0    0    0 -0.00000000000E+00 -0.00000000000E+00 -0.35740347158E-01  0.35744000000E-01  0.51099999109E-03 0. -1.
       22    1    1    2    0    0 -0.13285889383E-01  0.82669036110E-02 -0.32129068347E-01  0.35737005818E-01  0.00000000000E+00 0. -1.
  9000001    1    1    2    0    0  0.13285889383E-01 -0.82669036110E-02  0.32129068347E-01  0.35750994182E-01  0.10000000475E-02 0.  1.
</event>
<event>
 4   0  0.4958067E-02  0.9118800E+02  0.7818609E-02  0.1379984E+01
      -11   -1    0    0    0    0  0.00000000000E+00  0.00000000000E+00  0.35740347158E-01  0.35744000000E-01  0.51099999109E-03 0. -1.
       11   -1    0    0    0    0 -0.00000000000E+00 -0.00000000000E+00 -0.35740347158E-01  0.35744000000E-01  0.51099999109E-03 0.  1.
       22    1    1    2    0    0 -0.75276094032E-02  0.17842789694E-01  0.30035038496E-01  0.35737005818E-01  0.00000000000E+00 0. -1.
  9000001    1    1    2    0    0  0.75276094032E-02 -0.17842789694E-01 -0.30035038496E-01  0.35750994182E-01  0.10000000475E-02 0.  1.
</event>
<event>
 4   0  0.4958067E-02  0.9118800E+02  0.7818609E-02  0.1379984E+01
      -11   -1    0    0    0    0  0.00000000000E+00  0.00000000000E+00  0.35740347158E-01  0.35744000000E-01  0.51099999109E-03 0.  1.
       11   -1    0    0    0    0 -0.00000000000E+00 -0.00000000000E+00 -0.35740347158E-01  0.35744000000E-01  0.51099999109E-03 0. -1.
       22    1    1    2    0    0 -0.20755051147E-02 -0.81334640230E-02  0.34737193703E-01  0.35737005818E-01  0.00000000000E+00 0.  1.
  9000001    1    1    2    0    0  0.20755051147E-02  0.81334640230E-02 -0.34737193703E-01  0.35750994182E-01  0.10000000475E-02 0. -1.
</event>
<event>
 4   0  0.4958067E-02  0.9118800E+02  0.7818609E-02  0.1379984E+01
      -11   -1    0    0    0    0  0.00000000000E+00  0.00000000000E+00  0.35740347158E-01  0.35744000000E-01  0.51099999109E-03 0. -1.
       11   -1    0    0    0    0 -0.00000000000E+00 -0.00000000000E+00 -0.35740347158E-01  0.35744000000E-01  0.51099999109E-03 0.  1.
       22    1    1    2    0    0  0.76804892138E-02  0.23021941778E-01  0.26232305790E-01  0.35737005818E-01  0.00000000000E+00 0. -1.
  9000001    1    1    2    0    0 -0.76804892138E-02 -0.23021941778E-01 -0.26232305790E-01  0.35750994182E-01  0.10000000475E-02 0.  1.
</event>
<event>
 4   0  0.4958067E-02  0.9118800E+02  0.7818609E-02  0.1379984E+01
      -11   -1    0    0    0    0  0.00000000000E+00  0.00000000000E+00  0.35740347158E-01  0.35744000000E-01  0.51099999109E-03 0. -1.
       11   -1    0    0    0    0 -0.00000000000E+00 -0.00000000000E+00 -0.35740347158E-01  0.35744000000E-01  0.51099999109E-03 0.  1.
       22    1    1    2    0    0  0.49572494364E-02 -0.69568053152E-02 -0.34701039216E-01  0.35737005818E-01  0.00000000000E+00 0.  1.
  9000001    1    1    2    0    0 -0.49572494364E-02  0.69568053152E-02  0.34701039216E-01  0.35750994182E-01  0.10000000475E-02 0. -1.
</event>
<event>
 4   0  0.4958067E-02  0.9118800E+02  0.7818609E-02  0.1379984E+01
      -11   -1    0    0    0    0  0.00000000000E+00  0.00000000000E+00  0.35740347158E-01  0.35744000000E-01  0.51099999109E-03 0. -1.
       11   -1    0    0    0    0 -0.00000000000E+00 -0.00000000000E+00 -0.35740347158E-01  0.35744000000E-01  0.51099999109E-03 0.  1.
       22    1    1    2    0    0 -0.22551913257E-02 -0.53250830166E-02  0.35266006122E-01  0.35737005818E-01  0.00000000000E+00 0. -1.
  9000001    1    1    2    0    0  0.22551913257E-02  0.53250830166E-02 -0.35266006122E-01  0.35750994182E-01  0.10000000475E-02 0.  1.
</event>
<event>
 4   0  0.4958067E-02  0.9118800E+02  0.7818609E-02  0.1379984E+01
      -11   -1    0    0    0    0  0.00000000000E+00  0.00000000000E+00  0.35740347158E-01  0.35744000000E-01  0.51099999109E-03 0.  1.
       11   -1    0    0    0    0 -0.00000000000E+00 -0.00000000000E+00 -0.35740347158E-01  0.35744000000E-01  0.51099999109E-03 0. -1.
       22    1    1    2    0    0  0.80532246266E-02 -0.14535567656E-02 -0.34787445016E-01  0.35737005818E-01  0.00000000000E+00 0. -1.
  9000001    1    1    2    0    0 -0.80532246266E-02  0.14535567656E-02  0.34787445016E-01  0.35750994182E-01  0.10000000475E-02 0.  1.
</event>
<event>
 4   0  0.4958067E-02  0.9118800E+02  0.7818609E-02  0.1379984E+01
      -11   -1    0    0    0    0  0.00000000000E+00  0.00000000000E+00  0.35740347158E-01  0.35744000000E-01  0.51099999109E-03 0. -1.
       11   -1    0    0    0    0 -0.00000000000E+00 -0.00000000000E+00 -0.35740347158E-01  0.35744000000E-01  0.51099999109E-03 0.  1.
       22    1    1    2    0    0  0.51527411804E-02  0.10702297234E-01  0.33705247026E-01  0.35737005818E-01  0.00000000000E+00 0. -1.
  9000001    1    1    2    0    0 -0.51527411804E-02 -0.10702297234E-01 -0.33705247026E-01  0.35750994182E-01  0.10000000475E-02 0.  1.
</event>
<event>
 4   0  0.4958067E-02  0.9118800E+02  0.7818609E-02  0.1379984E+01
      -11   -1    0    0    0    0  0.00000000000E+00  0.00000000000E+00  0.35740347158E-01  0.35744000000E-01  0.51099999109E-03 0.  1.
       11   -1    0    0    0    0 -0.00000000000E+00 -0.00000000000E+00 -0.35740347158E-01  0.35744000000E-01  0.51099999109E-03 0. -1.
       22    1    1    2    0    0  0.14502166024E-02  0.52097371551E-02 -0.35325473747E-01  0.35737005818E-01  0.00000000000E+00 0. -1.
  9000001    1    1    2    0    0 -0.14502166024E-02 -0.52097371551E-02  0.35325473747E-01  0.35750994182E-01  0.10000000475E-02 0.  1.
</event>
<event>
 4   0  0.4958067E-02  0.9118800E+02  0.7818609E-02  0.1379984E+01
      -11   -1    0    0    0    0  0.00000000000E+00  0.00000000000E+00  0.35740347158E-01  0.35744000000E-01  0.51099999109E-03 0.  1.
       11   -1    0    0    0    0 -0.00000000000E+00 -0.00000000000E+00 -0.35740347158E-01  0.35744000000E-01  0.51099999109E-03 0. -1.
       22    1    1    2    0    0 -0.61679206745E-02  0.48057132363E-02  0.34871126447E-01  0.35737005818E-01  0.00000000000E+00 0.  1.
  9000001    1    1    2    0    0  0.61679206745E-02 -0.48057132363E-02 -0.34871126447E-01  0.35750994182E-01  0.10000000475E-02 0. -1.
</event>
<event>
 4   0  0.4958067E-02  0.9118800E+02  0.7818609E-02  0.1379984E+01
      -11   -1    0    0    0    0  0.00000000000E+00  0.00000000000E+00  0.35740347158E-01  0.35744000000E-01  0.51099999109E-03 0. -1.
       11   -1    0    0    0    0 -0.00000000000E+00 -0.00000000000E+00 -0.35740347158E-01  0.35744000000E-01  0.51099999109E-03 0.  1.
       22    1    1    2    0    0  0.10663230127E-01  0.18196700637E-02  0.34060503651E-01  0.35737005818E-01  0.00000000000E+00 0. -1.
  9000001    1    1    2    0    0 -0.10663230127E-01 -0.18196700637E-02 -0.34060503651E-01  0.35750994182E-01  0.10000000475E-02 0.  1.
</event>
<event>
 4   0  0.4958067E-02  0.9118800E+02  0.7818609E-02  0.1379984E+01
      -11   -1    0    0    0    0  0.00000000000E+00  0.00000000000E+00  0.35740347158E-01  0.35744000000E-01  0.51099999109E-03 0. -1.
       11   -1    0    0    0    0 -0.00000000000E+00 -0.00000000000E+00 -0.35740347158E-01  0.35744000000E-01  0.51099999109E-03 0.  1.
       22    1    1    2    0    0  0.60980470518E-03  0.43854000589E-02 -0.35461669298E-01  0.35737005818E-01  0.00000000000E+00 0.  1.
  9000001    1    1    2    0    0 -0.60980470518E-03 -0.43854000589E-02  0.35461669298E-01  0.35750994182E-01  0.10000000475E-02 0. -1.
</event>
<event>
 4   0  0.4958067E-02  0.9118800E+02  0.7818609E-02  0.1379984E+01
      -11   -1    0    0    0    0  0.00000000000E+00  0.00000000000E+00  0.35740347158E-01  0.35744000000E-01  0.51099999109E-03 0.  1.
       11   -1    0    0    0    0 -0.00000000000E+00 -0.00000000000E+00 -0.35740347158E-01  0.35744000000E-01  0.51099999109E-03 0. -1.
       22    1    1    2    0    0 -0.39543311889E-02  0.10493335447E-01  0.33932090429E-01  0.35737005818E-01  0.00000000000E+00 0.  1.
  9000001    1    1    2    0    0  0.39543311889E-02 -0.10493335447E-01 -0.33932090429E-01  0.35750994182E-01  0.10000000475E-02 0. -1.
</event>
<event>
 4   0  0.4958067E-02  0.9118800E+02  0.7818609E-02  0.1379984E+01
      -11   -1    0    0    0    0  0.00000000000E+00  0.00000000000E+00  0.35740347158E-01  0.35744000000E-01  0.51099999109E-03 0.  1.
       11   -1    0    0    0    0 -0.00000000000E+00 -0.00000000000E+00 -0.35740347158E-01  0.35744000000E-01  0.51099999109E-03 0. -1.
       22    1    1    2    0    0  0.66052155856E-02 -0.69458404073E-02 -0.34427605391E-01  0.35737005818E-01  0.00000000000E+00 0. -1.
  9000001    1    1    2    0    0 -0.66052155856E-02  0.69458404073E-02  0.34427605391E-01  0.35750994182E-01  0.10000000475E-02 0.  1.
</event>
<event>
 4   0  0.4958067E-02  0.9118800E+02  0.7818609E-02  0.1379984E+01
      -11   -1    0    0    0    0  0.00000000000E+00  0.00000000000E+00  0.35740347158E-01  0.35744000000E-01  0.51099999109E-03 0.  1.
       11   -1    0    0    0    0 -0.00000000000E+00 -0.00000000000E+00 -0.35740347158E-01  0.35744000000E-01  0.51099999109E-03 0. -1.
       22    1    1    2    0    0 -0.61660316185E-02 -0.89477087496E-02 -0.34044854928E-01  0.35737005818E-01  0.00000000000E+00 0. -1.
  9000001    1    1    2    0    0  0.61660316185E-02  0.89477087496E-02  0.34044854928E-01  0.35750994182E-01  0.10000000475E-02 0.  1.
</event>
<event>
 4   0  0.4958067E-02  0.9118800E+02  0.7818609E-02  0.1379984E+01
      -11   -1    0    0    0    0  0.00000000000E+00  0.00000000000E+00  0.35740347158E-01  0.35744000000E-01  0.51099999109E-03 0.  1.
       11   -1    0    0    0    0 -0.00000000000E+00 -0.00000000000E+00 -0.35740347158E-01  0.35744000000E-01  0.51099999109E-03 0. -1.
       22    1    1    2    0    0  0.32085449401E-02 -0.54526157281E-02 -0.35172543354E-01  0.35737005818E-01  0.00000000000E+00 0. -1.
  9000001    1    1    2    0    0 -0.32085449401E-02  0.54526157281E-02  0.35172543354E-01  0.35750994182E-01  0.10000000475E-02 0.  1.
</event>
<event>
 4   0  0.4958067E-02  0.9118800E+02  0.7818609E-02  0.1379984E+01
      -11   -1    0    0    0    0  0.00000000000E+00  0.00000000000E+00  0.35740347158E-01  0.35744000000E-01  0.51099999109E-03 0. -1.
       11   -1    0    0    0    0 -0.00000000000E+00 -0.00000000000E+00 -0.35740347158E-01  0.35744000000E-01  0.51099999109E-03 0.  1.
       22    1    1    2    0    0  0.63693354621E-02 -0.18978036945E-02 -0.35113579877E-01  0.35737005818E-01  0.00000000000E+00 0.  1.
  9000001    1    1    2    0    0 -0.63693354621E-02  0.18978036945E-02  0.35113579877E-01  0.35750994182E-01  0.10000000475E-02 0. -1.
</event>
<event>
 4   0  0.4958067E-02  0.9118800E+02  0.7818609E-02  0.1379984E+01
      -11   -1    0    0    0    0  0.00000000000E+00  0.00000000000E+00  0.35740347158E-01  0.35744000000E-01  0.51099999109E-03 0. -1.
       11   -1    0    0    0    0 -0.00000000000E+00 -0.00000000000E+00 -0.35740347158E-01  0.35744000000E-01  0.51099999109E-03 0.  1.
       22    1    1    2    0    0  0.87911757272E-02  0.16800401798E-01 -0.30291835759E-01  0.35737005818E-01  0.00000000000E+00 0.  1.
  9000001    1    1    2    0    0 -0.87911757272E-02 -0.16800401798E-01  0.30291835759E-01  0.35750994182E-01  0.10000000475E-02 0. -1.
</event>
<event>
 4   0  0.4958067E-02  0.9118800E+02  0.7818609E-02  0.1379984E+01
      -11   -1    0    0    0    0  0.00000000000E+00  0.00000000000E+00  0.35740347158E-01  0.35744000000E-01  0.51099999109E-03 0. -1.
       11   -1    0    0    0    0 -0.00000000000E+00 -0.00000000000E+00 -0.35740347158E-01  0.35744000000E-01  0.51099999109E-03 0.  1.
       22    1    1    2    0    0  0.32553716482E-02  0.66880797829E-02  0.34954337773E-01  0.35737005818E-01  0.00000000000E+00 0. -1.
  9000001    1    1    2    0    0 -0.32553716482E-02 -0.66880797829E-02 -0.34954337773E-01  0.35750994182E-01  0.10000000475E-02 0.  1.
</event>
<event>
 4   0  0.4958067E-02  0.9118800E+02  0.7818609E-02  0.1379984E+01
      -11   -1    0    0    0    0  0.00000000000E+00  0.00000000000E+00  0.35740347158E-01  0.35744000000E-01  0.51099999109E-03 0.  1.
       11   -1    0    0    0    0 -0.00000000000E+00 -0.00000000000E+00 -0.35740347158E-01  0.35744000000E-01  0.51099999109E-03 0. -1.
       22    1    1    2    0    0  0.17232836708E-02 -0.48736540574E-02  0.35361156293E-01  0.35737005818E-01  0.00000000000E+00 0.  1.
  9000001    1    1    2    0    0 -0.17232836708E-02  0.48736540574E-02 -0.35361156293E-01  0.35750994182E-01  0.10000000475E-02 0. -1.
</event>
<event>
 4   0  0.4958067E-02  0.9118800E+02  0.7818609E-02  0.1379984E+01
      -11   -1    0    0    0    0  0.00000000000E+00  0.00000000000E+00  0.35740347158E-01  0.35744000000E-01  0.51099999109E-03 0.  1.
       11   -1    0    0    0    0 -0.00000000000E+00 -0.00000000000E+00 -0.35740347158E-01  0.35744000000E-01  0.51099999109E-03 0. -1.
       22    1    1    2    0    0 -0.10395010497E-02  0.86154214484E-02  0.34667384322E-01  0.35737005818E-01  0.00000000000E+00 0.  1.
  9000001    1    1    2    0    0  0.10395010497E-02 -0.86154214484E-02 -0.34667384322E-01  0.35750994182E-01  0.10000000475E-02 0. -1.
</event>
<event>
 4   0  0.4958067E-02  0.9118800E+02  0.7818609E-02  0.1379984E+01
      -11   -1    0    0    0    0  0.00000000000E+00  0.00000000000E+00  0.35740347158E-01  0.35744000000E-01  0.51099999109E-03 0.  1.
       11   -1    0    0    0    0 -0.00000000000E+00 -0.00000000000E+00 -0.35740347158E-01  0.35744000000E-01  0.51099999109E-03 0. -1.
       22    1    1    2    0    0 -0.31484960609E-01 -0.23195876783E-02  0.16746652003E-01  0.35737005818E-01  0.00000000000E+00 0. -1.
  9000001    1    1    2    0    0  0.31484960609E-01  0.23195876783E-02 -0.16746652003E-01  0.35750994182E-01  0.10000000475E-02 0.  1.
</event>
<event>
 4   0  0.4958067E-02  0.9118800E+02  0.7818609E-02  0.1379984E+01
      -11   -1    0    0    0    0  0.00000000000E+00  0.00000000000E+00  0.35740347158E-01  0.35744000000E-01  0.51099999109E-03 0. -1.
       11   -1    0    0    0    0 -0.00000000000E+00 -0.00000000000E+00 -0.35740347158E-01  0.35744000000E-01  0.51099999109E-03 0.  1.
       22    1    1    2    0    0 -0.26042427257E-01 -0.40099864460E-02 -0.24142194932E-01  0.35737005818E-01  0.00000000000E+00 0.  1.
  9000001    1    1    2    0    0  0.26042427257E-01  0.40099864460E-02  0.24142194932E-01  0.35750994182E-01  0.10000000475E-02 0. -1.
</event>
<event>
 4   0  0.4958067E-02  0.9118800E+02  0.7818609E-02  0.1379984E+01
      -11   -1    0    0    0    0  0.00000000000E+00  0.00000000000E+00  0.35740347158E-01  0.35744000000E-01  0.51099999109E-03 0. -1.
       11   -1    0    0    0    0 -0.00000000000E+00 -0.00000000000E+00 -0.35740347158E-01  0.35744000000E-01  0.51099999109E-03 0.  1.
       22    1    1    2    0    0 -0.31269992796E-01 -0.37161140751E-02 -0.16897089442E-01  0.35737005818E-01  0.00000000000E+00 0.  1.
  9000001    1    1    2    0    0  0.31269992796E-01  0.37161140751E-02  0.16897089442E-01  0.35750994182E-01  0.10000000475E-02 0. -1.
</event>
<event>
 4   0  0.4958067E-02  0.9118800E+02  0.7818609E-02  0.1379984E+01
      -11   -1    0    0    0    0  0.00000000000E+00  0.00000000000E+00  0.35740347158E-01  0.35744000000E-01  0.51099999109E-03 0.  1.
       11   -1    0    0    0    0 -0.00000000000E+00 -0.00000000000E+00 -0.35740347158E-01  0.35744000000E-01  0.51099999109E-03 0. -1.
       22    1    1    2    0    0  0.66293396396E-03 -0.87650274144E-02  0.34639116586E-01  0.35737005818E-01  0.00000000000E+00 0.  1.
  9000001    1    1    2    0    0 -0.66293396396E-03  0.87650274144E-02 -0.34639116586E-01  0.35750994182E-01  0.10000000475E-02 0. -1.
</event>
<event>
 4   0  0.4958067E-02  0.9118800E+02  0.7818609E-02  0.1379984E+01
      -11   -1    0    0    0    0  0.00000000000E+00  0.00000000000E+00  0.35740347158E-01  0.35744000000E-01  0.51099999109E-03 0. -1.
       11   -1    0    0    0    0 -0.00000000000E+00 -0.00000000000E+00 -0.35740347158E-01  0.35744000000E-01  0.51099999109E-03 0.  1.
       22    1    1    2    0    0 -0.43764982487E-03 -0.38601203684E-02  0.35525223690E-01  0.35737005818E-01  0.00000000000E+00 0. -1.
  9000001    1    1    2    0    0  0.43764982487E-03  0.38601203684E-02 -0.35525223690E-01  0.35750994182E-01  0.10000000475E-02 0.  1.
</event>
<event>
 4   0  0.4958067E-02  0.9118800E+02  0.7818609E-02  0.1379984E+01
      -11   -1    0    0    0    0  0.00000000000E+00  0.00000000000E+00  0.35740347158E-01  0.35744000000E-01  0.51099999109E-03 0.  1.
       11   -1    0    0    0    0 -0.00000000000E+00 -0.00000000000E+00 -0.35740347158E-01  0.35744000000E-01  0.51099999109E-03 0. -1.
       22    1    1    2    0    0  0.12957105419E-01 -0.34311689137E-02 -0.33128146400E-01  0.35737005818E-01  0.00000000000E+00 0. -1.
  9000001    1    1    2    0    0 -0.12957105419E-01  0.34311689137E-02  0.33128146400E-01  0.35750994182E-01  0.10000000475E-02 0.  1.
</event>
<event>
 4   0  0.4958067E-02  0.9118800E+02  0.7818609E-02  0.1379984E+01
      -11   -1    0    0    0    0  0.00000000000E+00  0.00000000000E+00  0.35740347158E-01  0.35744000000E-01  0.51099999109E-03 0.  1.
       11   -1    0    0    0    0 -0.00000000000E+00 -0.00000000000E+00 -0.35740347158E-01  0.35744000000E-01  0.51099999109E-03 0. -1.
       22    1    1    2    0    0 -0.10516300593E-01 -0.16229011002E-01  0.30052623989E-01  0.35737005818E-01  0.00000000000E+00 0.  1.
  9000001    1    1    2    0    0  0.10516300593E-01  0.16229011002E-01 -0.30052623989E-01  0.35750994182E-01  0.10000000475E-02 0. -1.
</event>
<event>
 4   0  0.4958067E-02  0.9118800E+02  0.7818609E-02  0.1379984E+01
      -11   -1    0    0    0    0  0.00000000000E+00  0.00000000000E+00  0.35740347158E-01  0.35744000000E-01  0.51099999109E-03 0. -1.
       11   -1    0    0    0    0 -0.00000000000E+00 -0.00000000000E+00 -0.35740347158E-01  0.35744000000E-01  0.51099999109E-03 0.  1.
       22    1    1    2    0    0 -0.29838657674E-01  0.29715716849E-03  0.19664683844E-01  0.35737005818E-01  0.00000000000E+00 0. -1.
  9000001    1    1    2    0    0  0.29838657674E-01 -0.29715716849E-03 -0.19664683844E-01  0.35750994182E-01  0.10000000475E-02 0.  1.
</event>
<event>
 4   0  0.4958067E-02  0.9118800E+02  0.7818609E-02  0.1379984E+01
      -11   -1    0    0    0    0  0.00000000000E+00  0.00000000000E+00  0.35740347158E-01  0.35744000000E-01  0.51099999109E-03 0.  1.
       11   -1    0    0    0    0 -0.00000000000E+00 -0.00000000000E+00 -0.35740347158E-01  0.35744000000E-01  0.51099999109E-03 0. -1.
       22    1    1    2    0    0 -0.34550247761E-01 -0.19084292442E-02  0.89315095213E-02  0.35737005818E-01  0.00000000000E+00 0.  1.
  9000001    1    1    2    0    0  0.34550247761E-01  0.19084292442E-02 -0.89315095213E-02  0.35750994182E-01  0.10000000475E-02 0. -1.
</event>
<event>
 4   0  0.4958067E-02  0.9118800E+02  0.7818609E-02  0.1379984E+01
      -11   -1    0    0    0    0  0.00000000000E+00  0.00000000000E+00  0.35740347158E-01  0.35744000000E-01  0.51099999109E-03 0. -1.
       11   -1    0    0    0    0 -0.00000000000E+00 -0.00000000000E+00 -0.35740347158E-01  0.35744000000E-01  0.51099999109E-03 0.  1.
       22    1    1    2    0    0 -0.18071573774E-01 -0.10326518394E-01 -0.29050212118E-01  0.35737005818E-01  0.00000000000E+00 0.  1.
  9000001    1    1    2    0    0  0.18071573774E-01  0.10326518394E-01  0.29050212118E-01  0.35750994182E-01  0.10000000475E-02 0. -1.
</event>
<event>
 4   0  0.4958067E-02  0.9118800E+02  0.7818609E-02  0.1379984E+01
      -11   -1    0    0    0    0  0.00000000000E+00  0.00000000000E+00  0.35740347158E-01  0.35744000000E-01  0.51099999109E-03 0. -1.
       11   -1    0    0    0    0 -0.00000000000E+00 -0.00000000000E+00 -0.35740347158E-01  0.35744000000E-01  0.51099999109E-03 0.  1.
       22    1    1    2    0    0 -0.34579917516E-02  0.88388469767E-03  0.35558327094E-01  0.35737005818E-01  0.00000000000E+00 0. -1.
  9000001    1    1    2    0    0  0.34579917516E-02 -0.88388469767E-03 -0.35558327094E-01  0.35750994182E-01  0.10000000475E-02 0.  1.
</event>
<event>
 4   0  0.4958067E-02  0.9118800E+02  0.7818609E-02  0.1379984E+01
      -11   -1    0    0    0    0  0.00000000000E+00  0.00000000000E+00  0.35740347158E-01  0.35744000000E-01  0.51099999109E-03 0. -1.
       11   -1    0    0    0    0 -0.00000000000E+00 -0.00000000000E+00 -0.35740347158E-01  0.35744000000E-01  0.51099999109E-03 0.  1.
       22    1    1    2    0    0 -0.69890046683E-02  0.64966710325E-04 -0.35046871158E-01  0.35737005818E-01  0.00000000000E+00 0.  1.
  9000001    1    1    2    0    0  0.69890046683E-02 -0.64966710325E-04  0.35046871158E-01  0.35750994182E-01  0.10000000475E-02 0. -1.
</event>
<event>
 4   0  0.4958067E-02  0.9118800E+02  0.7818609E-02  0.1379984E+01
      -11   -1    0    0    0    0  0.00000000000E+00  0.00000000000E+00  0.35740347158E-01  0.35744000000E-01  0.51099999109E-03 0.  1.
       11   -1    0    0    0    0 -0.00000000000E+00 -0.00000000000E+00 -0.35740347158E-01  0.35744000000E-01  0.51099999109E-03 0. -1.
       22    1    1    2    0    0  0.20263987174E-02  0.41971403485E-02  0.35431783839E-01  0.35737005818E-01  0.00000000000E+00 0.  1.
  9000001    1    1    2    0    0 -0.20263987174E-02 -0.41971403485E-02 -0.35431783839E-01  0.35750994182E-01  0.10000000475E-02 0. -1.
</event>
<event>
 4   0  0.4958067E-02  0.9118800E+02  0.7818609E-02  0.1379984E+01
      -11   -1    0    0    0    0  0.00000000000E+00  0.00000000000E+00  0.35740347158E-01  0.35744000000E-01  0.51099999109E-03 0.  1.
       11   -1    0    0    0    0 -0.00000000000E+00 -0.00000000000E+00 -0.35740347158E-01  0.35744000000E-01  0.51099999109E-03 0. -1.
       22    1    1    2    0    0  0.38121100831E-02 -0.87136945176E-03  0.35522417103E-01  0.35737005818E-01  0.00000000000E+00 0.  1.
  9000001    1    1    2    0    0 -0.38121100831E-02  0.87136945176E-03 -0.35522417103E-01  0.35750994182E-01  0.10000000475E-02 0. -1.
</event>
<event>
 4   0  0.4958067E-02  0.9118800E+02  0.7818609E-02  0.1379984E+01
      -11   -1    0    0    0    0  0.00000000000E+00  0.00000000000E+00  0.35740347158E-01  0.35744000000E-01  0.51099999109E-03 0. -1.
       11   -1    0    0    0    0 -0.00000000000E+00 -0.00000000000E+00 -0.35740347158E-01  0.35744000000E-01  0.51099999109E-03 0.  1.
       22    1    1    2    0    0 -0.20388415124E-01  0.89817495947E-02  0.27942338625E-01  0.35737005818E-01  0.00000000000E+00 0. -1.
  9000001    1    1    2    0    0  0.20388415124E-01 -0.89817495947E-02 -0.27942338625E-01  0.35750994182E-01  0.10000000475E-02 0.  1.
</event>
<event>
 4   0  0.4958067E-02  0.9118800E+02  0.7818609E-02  0.1379984E+01
      -11   -1    0    0    0    0  0.00000000000E+00  0.00000000000E+00  0.35740347158E-01  0.35744000000E-01  0.51099999109E-03 0.  1.
       11   -1    0    0    0    0 -0.00000000000E+00 -0.00000000000E+00 -0.35740347158E-01  0.35744000000E-01  0.51099999109E-03 0. -1.
       22    1    1    2    0    0 -0.69485130482E-02 -0.10207005826E-02 -0.35040118744E-01  0.35737005818E-01  0.00000000000E+00 0. -1.
  9000001    1    1    2    0    0  0.69485130482E-02  0.10207005826E-02  0.35040118744E-01  0.35750994182E-01  0.10000000475E-02 0.  1.
</event>
<event>
 4   0  0.4958067E-02  0.9118800E+02  0.7818609E-02  0.1379984E+01
      -11   -1    0    0    0    0  0.00000000000E+00  0.00000000000E+00  0.35740347158E-01  0.35744000000E-01  0.51099999109E-03 0.  1.
       11   -1    0    0    0    0 -0.00000000000E+00 -0.00000000000E+00 -0.35740347158E-01  0.35744000000E-01  0.51099999109E-03 0. -1.
       22    1    1    2    0    0 -0.24745988385E-01  0.18486464607E-01 -0.17972764675E-01  0.35737005818E-01  0.00000000000E+00 0. -1.
  9000001    1    1    2    0    0  0.24745988385E-01 -0.18486464607E-01  0.17972764675E-01  0.35750994182E-01  0.10000000475E-02 0.  1.
</event>
<event>
 4   0  0.4958067E-02  0.9118800E+02  0.7818609E-02  0.1379984E+01
      -11   -1    0    0    0    0  0.00000000000E+00  0.00000000000E+00  0.35740347158E-01  0.35744000000E-01  0.51099999109E-03 0. -1.
       11   -1    0    0    0    0 -0.00000000000E+00 -0.00000000000E+00 -0.35740347158E-01  0.35744000000E-01  0.51099999109E-03 0.  1.
       22    1    1    2    0    0 -0.78566393636E-02 -0.36575955713E-02  0.34670286953E-01  0.35737005818E-01  0.00000000000E+00 0. -1.
  9000001    1    1    2    0    0  0.78566393636E-02  0.36575955713E-02 -0.34670286953E-01  0.35750994182E-01  0.10000000475E-02 0.  1.
</event>
<event>
 4   0  0.4958067E-02  0.9118800E+02  0.7818609E-02  0.1379984E+01
      -11   -1    0    0    0    0  0.00000000000E+00  0.00000000000E+00  0.35740347158E-01  0.35744000000E-01  0.51099999109E-03 0.  1.
       11   -1    0    0    0    0 -0.00000000000E+00 -0.00000000000E+00 -0.35740347158E-01  0.35744000000E-01  0.51099999109E-03 0. -1.
       22    1    1    2    0    0  0.80565290186E-02  0.38864665168E-02 -0.34599440791E-01  0.35737005818E-01  0.00000000000E+00 0. -1.
  9000001    1    1    2    0    0 -0.80565290186E-02 -0.38864665168E-02  0.34599440791E-01  0.35750994182E-01  0.10000000475E-02 0.  1.
</event>
<event>
 4   0  0.4958067E-02  0.9118800E+02  0.7818609E-02  0.1379984E+01
      -11   -1    0    0    0    0  0.00000000000E+00  0.00000000000E+00  0.35740347158E-01  0.35744000000E-01  0.51099999109E-03 0.  1.
       11   -1    0    0    0    0 -0.00000000000E+00 -0.00000000000E+00 -0.35740347158E-01  0.35744000000E-01  0.51099999109E-03 0. -1.
       22    1    1    2    0    0 -0.11578145647E-01  0.67451708372E-02  0.33129787180E-01  0.35737005818E-01  0.00000000000E+00 0.  1.
  9000001    1    1    2    0    0  0.11578145647E-01 -0.67451708372E-02 -0.33129787180E-01  0.35750994182E-01  0.10000000475E-02 0. -1.
</event>
<event>
 4   0  0.4958067E-02  0.9118800E+02  0.7818609E-02  0.1379984E+01
      -11   -1    0    0    0    0  0.00000000000E+00  0.00000000000E+00  0.35740347158E-01  0.35744000000E-01  0.51099999109E-03 0.  1.
       11   -1    0    0    0    0 -0.00000000000E+00 -0.00000000000E+00 -0.35740347158E-01  0.35744000000E-01  0.51099999109E-03 0. -1.
       22    1    1    2    0    0  0.19622000130E-01 -0.13470203483E-01 -0.26658287903E-01  0.35737005818E-01  0.00000000000E+00 0. -1.
  9000001    1    1    2    0    0 -0.19622000130E-01  0.13470203483E-01  0.26658287903E-01  0.35750994182E-01  0.10000000475E-02 0.  1.
</event>
<event>
 4   0  0.4958067E-02  0.9118800E+02  0.7818609E-02  0.1379984E+01
      -11   -1    0    0    0    0  0.00000000000E+00  0.00000000000E+00  0.35740347158E-01  0.35744000000E-01  0.51099999109E-03 0. -1.
       11   -1    0    0    0    0 -0.00000000000E+00 -0.00000000000E+00 -0.35740347158E-01  0.35744000000E-01  0.51099999109E-03 0.  1.
       22    1    1    2    0    0  0.67450014722E-02  0.42611901080E-02 -0.34835051297E-01  0.35737005818E-01  0.00000000000E+00 0.  1.
  9000001    1    1    2    0    0 -0.67450014722E-02 -0.42611901080E-02  0.34835051297E-01  0.35750994182E-01  0.10000000475E-02 0. -1.
</event>
<event>
 4   0  0.4958067E-02  0.9118800E+02  0.7818609E-02  0.1379984E+01
      -11   -1    0    0    0    0  0.00000000000E+00  0.00000000000E+00  0.35740347158E-01  0.35744000000E-01  0.51099999109E-03 0.  1.
       11   -1    0    0    0    0 -0.00000000000E+00 -0.00000000000E+00 -0.35740347158E-01  0.35744000000E-01  0.51099999109E-03 0. -1.
       22    1    1    2    0    0  0.24324492394E-02 -0.19692104825E-02 -0.35599704853E-01  0.35737005818E-01  0.00000000000E+00 0. -1.
  9000001    1    1    2    0    0 -0.24324492394E-02  0.19692104825E-02  0.35599704853E-01  0.35750994182E-01  0.10000000475E-02 0.  1.
</event>
<event>
 4   0  0.4958067E-02  0.9118800E+02  0.7818609E-02  0.1379984E+01
      -11   -1    0    0    0    0  0.00000000000E+00  0.00000000000E+00  0.35740347158E-01  0.35744000000E-01  0.51099999109E-03 0. -1.
       11   -1    0    0    0    0 -0.00000000000E+00 -0.00000000000E+00 -0.35740347158E-01  0.35744000000E-01  0.51099999109E-03 0.  1.
       22    1    1    2    0    0 -0.23221358522E-01  0.40894011741E-02 -0.26854774088E-01  0.35737005818E-01  0.00000000000E+00 0.  1.
  9000001    1    1    2    0    0  0.23221358522E-01 -0.40894011741E-02  0.26854774088E-01  0.35750994182E-01  0.10000000475E-02 0. -1.
</event>
<event>
 4   0  0.4958067E-02  0.9118800E+02  0.7818609E-02  0.1379984E+01
      -11   -1    0    0    0    0  0.00000000000E+00  0.00000000000E+00  0.35740347158E-01  0.35744000000E-01  0.51099999109E-03 0. -1.
       11   -1    0    0    0    0 -0.00000000000E+00 -0.00000000000E+00 -0.35740347158E-01  0.35744000000E-01  0.51099999109E-03 0.  1.
       22    1    1    2    0    0 -0.15576580645E-01  0.91666737694E-02  0.30829787743E-01  0.35737005818E-01  0.00000000000E+00 0. -1.
  9000001    1    1    2    0    0  0.15576580645E-01 -0.91666737694E-02 -0.30829787743E-01  0.35750994182E-01  0.10000000475E-02 0.  1.
</event>
<event>
 4   0  0.4958067E-02  0.9118800E+02  0.7818609E-02  0.1379984E+01
      -11   -1    0    0    0    0  0.00000000000E+00  0.00000000000E+00  0.35740347158E-01  0.35744000000E-01  0.51099999109E-03 0. -1.
       11   -1    0    0    0    0 -0.00000000000E+00 -0.00000000000E+00 -0.35740347158E-01  0.35744000000E-01  0.51099999109E-03 0.  1.
       22    1    1    2    0    0 -0.46859821609E-02  0.29800475204E-01  0.19160032194E-01  0.35737005818E-01  0.00000000000E+00 0. -1.
  9000001    1    1    2    0    0  0.46859821609E-02 -0.29800475204E-01 -0.19160032194E-01  0.35750994182E-01  0.10000000475E-02 0.  1.
</event>
<event>
 4   0  0.4958067E-02  0.9118800E+02  0.7818609E-02  0.1379984E+01
      -11   -1    0    0    0    0  0.00000000000E+00  0.00000000000E+00  0.35740347158E-01  0.35744000000E-01  0.51099999109E-03 0. -1.
       11   -1    0    0    0    0 -0.00000000000E+00 -0.00000000000E+00 -0.35740347158E-01  0.35744000000E-01  0.51099999109E-03 0.  1.
       22    1    1    2    0    0  0.47823179941E-02  0.11892169460E-02  0.35395604000E-01  0.35737005818E-01  0.00000000000E+00 0. -1.
  9000001    1    1    2    0    0 -0.47823179941E-02 -0.11892169460E-02 -0.35395604000E-01  0.35750994182E-01  0.10000000475E-02 0.  1.
</event>
<event>
 4   0  0.4958067E-02  0.9118800E+02  0.7818609E-02  0.1379984E+01
      -11   -1    0    0    0    0  0.00000000000E+00  0.00000000000E+00  0.35740347158E-01  0.35744000000E-01  0.51099999109E-03 0.  1.
       11   -1    0    0    0    0 -0.00000000000E+00 -0.00000000000E+00 -0.35740347158E-01  0.35744000000E-01  0.51099999109E-03 0. -1.
       22    1    1    2    0    0 -0.17144001244E-01  0.30668796236E-01  0.65300645955E-02  0.35737005818E-01  0.00000000000E+00 0. -1.
  9000001    1    1    2    0    0  0.17144001244E-01 -0.30668796236E-01 -0.65300645955E-02  0.35750994182E-01  0.10000000475E-02 0.  1.
</event>
<event>
 4   0  0.4958067E-02  0.9118800E+02  0.7818609E-02  0.1379984E+01
      -11   -1    0    0    0    0  0.00000000000E+00  0.00000000000E+00  0.35740347158E-01  0.35744000000E-01  0.51099999109E-03 0.  1.
       11   -1    0    0    0    0 -0.00000000000E+00 -0.00000000000E+00 -0.35740347158E-01  0.35744000000E-01  0.51099999109E-03 0. -1.
       22    1    1    2    0    0  0.23690890311E-01  0.10308453634E-01  0.24690303458E-01  0.35737005818E-01  0.00000000000E+00 0.  1.
  9000001    1    1    2    0    0 -0.23690890311E-01 -0.10308453634E-01 -0.24690303458E-01  0.35750994182E-01  0.10000000475E-02 0. -1.
</event>
<event>
 4   0  0.4958067E-02  0.9118800E+02  0.7818609E-02  0.1379984E+01
      -11   -1    0    0    0    0  0.00000000000E+00  0.00000000000E+00  0.35740347158E-01  0.35744000000E-01  0.51099999109E-03 0. -1.
       11   -1    0    0    0    0 -0.00000000000E+00 -0.00000000000E+00 -0.35740347158E-01  0.35744000000E-01  0.51099999109E-03 0.  1.
       22    1    1    2    0    0 -0.32836035150E-02 -0.23117618733E-02  0.35510664453E-01  0.35737005818E-01  0.00000000000E+00 0. -1.
  9000001    1    1    2    0    0  0.32836035150E-02  0.23117618733E-02 -0.35510664453E-01  0.35750994182E-01  0.10000000475E-02 0.  1.
</event>
<event>
 4   0  0.4958067E-02  0.9118800E+02  0.7818609E-02  0.1379984E+01
      -11   -1    0    0    0    0  0.00000000000E+00  0.00000000000E+00  0.35740347158E-01  0.35744000000E-01  0.51099999109E-03 0. -1.
       11   -1    0    0    0    0 -0.00000000000E+00 -0.00000000000E+00 -0.35740347158E-01  0.35744000000E-01  0.51099999109E-03 0.  1.
       22    1    1    2    0    0 -0.22651810655E-02 -0.55809783607E-02  0.35225774940E-01  0.35737005818E-01  0.00000000000E+00 0. -1.
  9000001    1    1    2    0    0  0.22651810655E-02  0.55809783607E-02 -0.35225774940E-01  0.35750994182E-01  0.10000000475E-02 0.  1.
</event>
<event>
 4   0  0.4958067E-02  0.9118800E+02  0.7818609E-02  0.1379984E+01
      -11   -1    0    0    0    0  0.00000000000E+00  0.00000000000E+00  0.35740347158E-01  0.35744000000E-01  0.51099999109E-03 0. -1.
       11   -1    0    0    0    0 -0.00000000000E+00 -0.00000000000E+00 -0.35740347158E-01  0.35744000000E-01  0.51099999109E-03 0.  1.
       22    1    1    2    0    0 -0.25461349572E-01  0.30902579816E-03  0.25075042690E-01  0.35737005818E-01  0.00000000000E+00 0. -1.
  9000001    1    1    2    0    0  0.25461349572E-01 -0.30902579816E-03 -0.25075042690E-01  0.35750994182E-01  0.10000000475E-02 0.  1.
</event>
<event>
 4   0  0.4958067E-02  0.9118800E+02  0.7818609E-02  0.1379984E+01
      -11   -1    0    0    0    0  0.00000000000E+00  0.00000000000E+00  0.35740347158E-01  0.35744000000E-01  0.51099999109E-03 0. -1.
       11   -1    0    0    0    0 -0.00000000000E+00 -0.00000000000E+00 -0.35740347158E-01  0.35744000000E-01  0.51099999109E-03 0.  1.
       22    1    1    2    0    0 -0.21074167579E-01 -0.74034422075E-02 -0.27896273751E-01  0.35737005818E-01  0.00000000000E+00 0.  1.
  9000001    1    1    2    0    0  0.21074167579E-01  0.74034422075E-02  0.27896273751E-01  0.35750994182E-01  0.10000000475E-02 0. -1.
</event>
<event>
 4   0  0.4958067E-02  0.9118800E+02  0.7818609E-02  0.1379984E+01
      -11   -1    0    0    0    0  0.00000000000E+00  0.00000000000E+00  0.35740347158E-01  0.35744000000E-01  0.51099999109E-03 0. -1.
       11   -1    0    0    0    0 -0.00000000000E+00 -0.00000000000E+00 -0.35740347158E-01  0.35744000000E-01  0.51099999109E-03 0.  1.
       22    1    1    2    0    0  0.38463840438E-02 -0.56023412840E-02  0.35084935326E-01  0.35737005818E-01  0.00000000000E+00 0. -1.
  9000001    1    1    2    0    0 -0.38463840438E-02  0.56023412840E-02 -0.35084935326E-01  0.35750994182E-01  0.10000000475E-02 0.  1.
</event>
<event>
 4   0  0.4958067E-02  0.9118800E+02  0.7818609E-02  0.1379984E+01
      -11   -1    0    0    0    0  0.00000000000E+00  0.00000000000E+00  0.35740347158E-01  0.35744000000E-01  0.51099999109E-03 0. -1.
       11   -1    0    0    0    0 -0.00000000000E+00 -0.00000000000E+00 -0.35740347158E-01  0.35744000000E-01  0.51099999109E-03 0.  1.
       22    1    1    2    0    0  0.16143319818E-01 -0.13181606851E-01  0.29030536525E-01  0.35737005818E-01  0.00000000000E+00 0. -1.
  9000001    1    1    2    0    0 -0.16143319818E-01  0.13181606851E-01 -0.29030536525E-01  0.35750994182E-01  0.10000000475E-02 0.  1.
</event>
<event>
 4   0  0.4958067E-02  0.9118800E+02  0.7818609E-02  0.1379984E+01
      -11   -1    0    0    0    0  0.00000000000E+00  0.00000000000E+00  0.35740347158E-01  0.35744000000E-01  0.51099999109E-03 0. -1.
       11   -1    0    0    0    0 -0.00000000000E+00 -0.00000000000E+00 -0.35740347158E-01  0.35744000000E-01  0.51099999109E-03 0.  1.
       22    1    1    2    0    0  0.10574200250E-02 -0.42414751202E-02  0.35468652872E-01  0.35737005818E-01  0.00000000000E+00 0. -1.
  9000001    1    1    2    0    0 -0.10574200250E-02  0.42414751202E-02 -0.35468652872E-01  0.35750994182E-01  0.10000000475E-02 0.  1.
</event>
<event>
 4   0  0.4958067E-02  0.9118800E+02  0.7818609E-02  0.1379984E+01
      -11   -1    0    0    0    0  0.00000000000E+00  0.00000000000E+00  0.35740347158E-01  0.35744000000E-01  0.51099999109E-03 0. -1.
       11   -1    0    0    0    0 -0.00000000000E+00 -0.00000000000E+00 -0.35740347158E-01  0.35744000000E-01  0.51099999109E-03 0.  1.
       22    1    1    2    0    0  0.15151943927E-01  0.78020188829E-02  0.31411473723E-01  0.35737005818E-01  0.00000000000E+00 0. -1.
  9000001    1    1    2    0    0 -0.15151943927E-01 -0.78020188829E-02 -0.31411473723E-01  0.35750994182E-01  0.10000000475E-02 0.  1.
</event>
<event>
 4   0  0.4958067E-02  0.9118800E+02  0.7818609E-02  0.1379984E+01
      -11   -1    0    0    0    0  0.00000000000E+00  0.00000000000E+00  0.35740347158E-01  0.35744000000E-01  0.51099999109E-03 0. -1.
       11   -1    0    0    0    0 -0.00000000000E+00 -0.00000000000E+00 -0.35740347158E-01  0.35744000000E-01  0.51099999109E-03 0.  1.
       22    1    1    2    0    0 -0.26701062688E-01  0.15350215238E-02 -0.23702964901E-01  0.35737005818E-01  0.00000000000E+00 0.  1.
  9000001    1    1    2    0    0  0.26701062688E-01 -0.15350215238E-02  0.23702964901E-01  0.35750994182E-01  0.10000000475E-02 0. -1.
</event>
<event>
 4   0  0.4958067E-02  0.9118800E+02  0.7818609E-02  0.1379984E+01
      -11   -1    0    0    0    0  0.00000000000E+00  0.00000000000E+00  0.35740347158E-01  0.35744000000E-01  0.51099999109E-03 0.  1.
       11   -1    0    0    0    0 -0.00000000000E+00 -0.00000000000E+00 -0.35740347158E-01  0.35744000000E-01  0.51099999109E-03 0. -1.
       22    1    1    2    0    0  0.23216520213E-01  0.65346086213E-02 -0.26370924600E-01  0.35737005818E-01  0.00000000000E+00 0. -1.
  9000001    1    1    2    0    0 -0.23216520213E-01 -0.65346086213E-02  0.26370924600E-01  0.35750994182E-01  0.10000000475E-02 0.  1.
</event>
<event>
 4   0  0.4958067E-02  0.9118800E+02  0.7818609E-02  0.1379984E+01
      -11   -1    0    0    0    0  0.00000000000E+00  0.00000000000E+00  0.35740347158E-01  0.35744000000E-01  0.51099999109E-03 0. -1.
       11   -1    0    0    0    0 -0.00000000000E+00 -0.00000000000E+00 -0.35740347158E-01  0.35744000000E-01  0.51099999109E-03 0.  1.
       22    1    1    2    0    0  0.32444870142E-02 -0.89093334336E-02  0.34456213760E-01  0.35737005818E-01  0.00000000000E+00 0. -1.
  9000001    1    1    2    0    0 -0.32444870142E-02  0.89093334336E-02 -0.34456213760E-01  0.35750994182E-01  0.10000000475E-02 0.  1.
</event>
<event>
 4   0  0.4958067E-02  0.9118800E+02  0.7818609E-02  0.1379984E+01
      -11   -1    0    0    0    0  0.00000000000E+00  0.00000000000E+00  0.35740347158E-01  0.35744000000E-01  0.51099999109E-03 0. -1.
       11   -1    0    0    0    0 -0.00000000000E+00 -0.00000000000E+00 -0.35740347158E-01  0.35744000000E-01  0.51099999109E-03 0.  1.
       22    1    1    2    0    0  0.29710207014E-02 -0.52290548394E-02  0.35227313357E-01  0.35737005818E-01  0.00000000000E+00 0. -1.
  9000001    1    1    2    0    0 -0.29710207014E-02  0.52290548394E-02 -0.35227313357E-01  0.35750994182E-01  0.10000000475E-02 0.  1.
</event>
<event>
 4   0  0.4958067E-02  0.9118800E+02  0.7818609E-02  0.1379984E+01
      -11   -1    0    0    0    0  0.00000000000E+00  0.00000000000E+00  0.35740347158E-01  0.35744000000E-01  0.51099999109E-03 0.  1.
       11   -1    0    0    0    0 -0.00000000000E+00 -0.00000000000E+00 -0.35740347158E-01  0.35744000000E-01  0.51099999109E-03 0. -1.
       22    1    1    2    0    0  0.14532388799E-01  0.79340351990E-02  0.31670085982E-01  0.35737005818E-01  0.00000000000E+00 0.  1.
  9000001    1    1    2    0    0 -0.14532388799E-01 -0.79340351990E-02 -0.31670085982E-01  0.35750994182E-01  0.10000000475E-02 0. -1.
</event>
<event>
 4   0  0.4958067E-02  0.9118800E+02  0.7818609E-02  0.1379984E+01
      -11   -1    0    0    0    0  0.00000000000E+00  0.00000000000E+00  0.35740347158E-01  0.35744000000E-01  0.51099999109E-03 0.  1.
       11   -1    0    0    0    0 -0.00000000000E+00 -0.00000000000E+00 -0.35740347158E-01  0.35744000000E-01  0.51099999109E-03 0. -1.
       22    1    1    2    0    0 -0.48642489878E-02 -0.31964507739E-01 -0.15223104535E-01  0.35737005818E-01  0.00000000000E+00 0. -1.
  9000001    1    1    2    0    0  0.48642489878E-02  0.31964507739E-01  0.15223104535E-01  0.35750994182E-01  0.10000000475E-02 0.  1.
</event>
<event>
 4   0  0.4958067E-02  0.9118800E+02  0.7818609E-02  0.1379984E+01
      -11   -1    0    0    0    0  0.00000000000E+00  0.00000000000E+00  0.35740347158E-01  0.35744000000E-01  0.51099999109E-03 0.  1.
       11   -1    0    0    0    0 -0.00000000000E+00 -0.00000000000E+00 -0.35740347158E-01  0.35744000000E-01  0.51099999109E-03 0. -1.
       22    1    1    2    0    0 -0.61151055745E-02  0.31643070093E-01  0.15441994164E-01  0.35737005818E-01  0.00000000000E+00 0.  1.
  9000001    1    1    2    0    0  0.61151055745E-02 -0.31643070093E-01 -0.15441994164E-01  0.35750994182E-01  0.10000000475E-02 0. -1.
</event>
<event>
 4   0  0.4958067E-02  0.9118800E+02  0.7818609E-02  0.1379984E+01
      -11   -1    0    0    0    0  0.00000000000E+00  0.00000000000E+00  0.35740347158E-01  0.35744000000E-01  0.51099999109E-03 0.  1.
       11   -1    0    0    0    0 -0.00000000000E+00 -0.00000000000E+00 -0.35740347158E-01  0.35744000000E-01  0.51099999109E-03 0. -1.
       22    1    1    2    0    0 -0.20827461515E-02 -0.58749435723E-02  0.35189214134E-01  0.35737005818E-01  0.00000000000E+00 0.  1.
  9000001    1    1    2    0    0  0.20827461515E-02  0.58749435723E-02 -0.35189214134E-01  0.35750994182E-01  0.10000000475E-02 0. -1.
</event>
<event>
 4   0  0.4958067E-02  0.9118800E+02  0.7818609E-02  0.1379984E+01
      -11   -1    0    0    0    0  0.00000000000E+00  0.00000000000E+00  0.35740347158E-01  0.35744000000E-01  0.51099999109E-03 0.  1.
       11   -1    0    0    0    0 -0.00000000000E+00 -0.00000000000E+00 -0.35740347158E-01  0.35744000000E-01  0.51099999109E-03 0. -1.
       22    1    1    2    0    0  0.11357984098E-01 -0.13744477664E-01  0.30971262742E-01  0.35737005818E-01  0.00000000000E+00 0.  1.
  9000001    1    1    2    0    0 -0.11357984098E-01  0.13744477664E-01 -0.30971262742E-01  0.35750994182E-01  0.10000000475E-02 0. -1.
</event>
<event>
 4   0  0.4958067E-02  0.9118800E+02  0.7818609E-02  0.1379984E+01
      -11   -1    0    0    0    0  0.00000000000E+00  0.00000000000E+00  0.35740347158E-01  0.35744000000E-01  0.51099999109E-03 0.  1.
       11   -1    0    0    0    0 -0.00000000000E+00 -0.00000000000E+00 -0.35740347158E-01  0.35744000000E-01  0.51099999109E-03 0. -1.
       22    1    1    2    0    0 -0.68673115520E-02  0.14565331321E-02  0.35040720999E-01  0.35737005818E-01  0.00000000000E+00 0.  1.
  9000001    1    1    2    0    0  0.68673115520E-02 -0.14565331321E-02 -0.35040720999E-01  0.35750994182E-01  0.10000000475E-02 0. -1.
</event>
<event>
 4   0  0.4958067E-02  0.9118800E+02  0.7818609E-02  0.1379984E+01
      -11   -1    0    0    0    0  0.00000000000E+00  0.00000000000E+00  0.35740347158E-01  0.35744000000E-01  0.51099999109E-03 0.  1.
       11   -1    0    0    0    0 -0.00000000000E+00 -0.00000000000E+00 -0.35740347158E-01  0.35744000000E-01  0.51099999109E-03 0. -1.
       22    1    1    2    0    0  0.46027068961E-03  0.32808876451E-02 -0.35583107116E-01  0.35737005818E-01  0.00000000000E+00 0. -1.
  9000001    1    1    2    0    0 -0.46027068961E-03 -0.32808876451E-02  0.35583107116E-01  0.35750994182E-01  0.10000000475E-02 0.  1.
</event>
<event>
 4   0  0.4958067E-02  0.9118800E+02  0.7818609E-02  0.1379984E+01
      -11   -1    0    0    0    0  0.00000000000E+00  0.00000000000E+00  0.35740347158E-01  0.35744000000E-01  0.51099999109E-03 0.  1.
       11   -1    0    0    0    0 -0.00000000000E+00 -0.00000000000E+00 -0.35740347158E-01  0.35744000000E-01  0.51099999109E-03 0. -1.
       22    1    1    2    0    0  0.48594633391E-02 -0.94418008117E-02 -0.34122889654E-01  0.35737005818E-01  0.00000000000E+00 0. -1.
  9000001    1    1    2    0    0 -0.48594633391E-02  0.94418008117E-02  0.34122889654E-01  0.35750994182E-01  0.10000000475E-02 0.  1.
</event>
<event>
 4   0  0.4958067E-02  0.9118800E+02  0.7818609E-02  0.1379984E+01
      -11   -1    0    0    0    0  0.00000000000E+00  0.00000000000E+00  0.35740347158E-01  0.35744000000E-01  0.51099999109E-03 0. -1.
       11   -1    0    0    0    0 -0.00000000000E+00 -0.00000000000E+00 -0.35740347158E-01  0.35744000000E-01  0.51099999109E-03 0.  1.
       22    1    1    2    0    0 -0.86324113053E-02  0.13967992209E-01 -0.31741302014E-01  0.35737005818E-01  0.00000000000E+00 0.  1.
  9000001    1    1    2    0    0  0.86324113053E-02 -0.13967992209E-01  0.31741302014E-01  0.35750994182E-01  0.10000000475E-02 0. -1.
</event>
<event>
 4   0  0.4958067E-02  0.9118800E+02  0.7818609E-02  0.1379984E+01
      -11   -1    0    0    0    0  0.00000000000E+00  0.00000000000E+00  0.35740347158E-01  0.35744000000E-01  0.51099999109E-03 0.  1.
       11   -1    0    0    0    0 -0.00000000000E+00 -0.00000000000E+00 -0.35740347158E-01  0.35744000000E-01  0.51099999109E-03 0. -1.
       22    1    1    2    0    0  0.95199559092E-02  0.81035415969E-02 -0.33478898398E-01  0.35737005818E-01  0.00000000000E+00 0. -1.
  9000001    1    1    2    0    0 -0.95199559092E-02 -0.81035415969E-02  0.33478898398E-01  0.35750994182E-01  0.10000000475E-02 0.  1.
</event>
<event>
 4   0  0.4958067E-02  0.9118800E+02  0.7818609E-02  0.1379984E+01
      -11   -1    0    0    0    0  0.00000000000E+00  0.00000000000E+00  0.35740347158E-01  0.35744000000E-01  0.51099999109E-03 0. -1.
       11   -1    0    0    0    0 -0.00000000000E+00 -0.00000000000E+00 -0.35740347158E-01  0.35744000000E-01  0.51099999109E-03 0.  1.
       22    1    1    2    0    0  0.18611906541E-01  0.68353391644E-02 -0.29732283099E-01  0.35737005818E-01  0.00000000000E+00 0.  1.
  9000001    1    1    2    0    0 -0.18611906541E-01 -0.68353391644E-02  0.29732283099E-01  0.35750994182E-01  0.10000000475E-02 0. -1.
</event>
<event>
 4   0  0.4958067E-02  0.9118800E+02  0.7818609E-02  0.1379984E+01
      -11   -1    0    0    0    0  0.00000000000E+00  0.00000000000E+00  0.35740347158E-01  0.35744000000E-01  0.51099999109E-03 0.  1.
       11   -1    0    0    0    0 -0.00000000000E+00 -0.00000000000E+00 -0.35740347158E-01  0.35744000000E-01  0.51099999109E-03 0. -1.
       22    1    1    2    0    0  0.10590554361E-01  0.19216658989E-02 -0.34077572439E-01  0.35737005818E-01  0.00000000000E+00 0. -1.
  9000001    1    1    2    0    0 -0.10590554361E-01 -0.19216658989E-02  0.34077572439E-01  0.35750994182E-01  0.10000000475E-02 0.  1.
</event>
<event>
 4   0  0.4958067E-02  0.9118800E+02  0.7818609E-02  0.1379984E+01
      -11   -1    0    0    0    0  0.00000000000E+00  0.00000000000E+00  0.35740347158E-01  0.35744000000E-01  0.51099999109E-03 0. -1.
       11   -1    0    0    0    0 -0.00000000000E+00 -0.00000000000E+00 -0.35740347158E-01  0.35744000000E-01  0.51099999109E-03 0.  1.
       22    1    1    2    0    0  0.61970424370E-02  0.31951314871E-02  0.35050269395E-01  0.35737005818E-01  0.00000000000E+00 0. -1.
  9000001    1    1    2    0    0 -0.61970424370E-02 -0.31951314871E-02 -0.35050269395E-01  0.35750994182E-01  0.10000000475E-02 0.  1.
</event>
<event>
 4   0  0.4958067E-02  0.9118800E+02  0.7818609E-02  0.1379984E+01
      -11   -1    0    0    0    0  0.00000000000E+00  0.00000000000E+00  0.35740347158E-01  0.35744000000E-01  0.51099999109E-03 0.  1.
       11   -1    0    0    0    0 -0.00000000000E+00 -0.00000000000E+00 -0.35740347158E-01  0.35744000000E-01  0.51099999109E-03 0. -1.
       22    1    1    2    0    0 -0.22854479557E-01 -0.29189626376E-02  0.27318235781E-01  0.35737005818E-01  0.00000000000E+00 0.  1.
  9000001    1    1    2    0    0  0.22854479557E-01  0.29189626376E-02 -0.27318235781E-01  0.35750994182E-01  0.10000000475E-02 0. -1.
</event>
<event>
 4   0  0.4958067E-02  0.9118800E+02  0.7818609E-02  0.1379984E+01
      -11   -1    0    0    0    0  0.00000000000E+00  0.00000000000E+00  0.35740347158E-01  0.35744000000E-01  0.51099999109E-03 0.  1.
       11   -1    0    0    0    0 -0.00000000000E+00 -0.00000000000E+00 -0.35740347158E-01  0.35744000000E-01  0.51099999109E-03 0. -1.
       22    1    1    2    0    0  0.22918460686E-01  0.32419939887E-02 -0.27228059417E-01  0.35737005818E-01  0.00000000000E+00 0. -1.
  9000001    1    1    2    0    0 -0.22918460686E-01 -0.32419939887E-02  0.27228059417E-01  0.35750994182E-01  0.10000000475E-02 0.  1.
</event>
<event>
 4   0  0.4958067E-02  0.9118800E+02  0.7818609E-02  0.1379984E+01
      -11   -1    0    0    0    0  0.00000000000E+00  0.00000000000E+00  0.35740347158E-01  0.35744000000E-01  0.51099999109E-03 0. -1.
       11   -1    0    0    0    0 -0.00000000000E+00 -0.00000000000E+00 -0.35740347158E-01  0.35744000000E-01  0.51099999109E-03 0.  1.
       22    1    1    2    0    0  0.28078846195E-02  0.81026265095E-02  0.34692892824E-01  0.35737005818E-01  0.00000000000E+00 0. -1.
  9000001    1    1    2    0    0 -0.28078846195E-02 -0.81026265095E-02 -0.34692892824E-01  0.35750994182E-01  0.10000000475E-02 0.  1.
</event>
<event>
 4   0  0.4958067E-02  0.9118800E+02  0.7818609E-02  0.1379984E+01
      -11   -1    0    0    0    0  0.00000000000E+00  0.00000000000E+00  0.35740347158E-01  0.35744000000E-01  0.51099999109E-03 0.  1.
       11   -1    0    0    0    0 -0.00000000000E+00 -0.00000000000E+00 -0.35740347158E-01  0.35744000000E-01  0.51099999109E-03 0. -1.
       22    1    1    2    0    0 -0.11618911991E-01 -0.33751993930E-01 -0.17138771196E-02  0.35737005818E-01  0.00000000000E+00 0.  1.
  9000001    1    1    2    0    0  0.11618911991E-01  0.33751993930E-01  0.17138771196E-02  0.35750994182E-01  0.10000000475E-02 0. -1.
</event>
<event>
 4   0  0.4958067E-02  0.9118800E+02  0.7818609E-02  0.1379984E+01
      -11   -1    0    0    0    0  0.00000000000E+00  0.00000000000E+00  0.35740347158E-01  0.35744000000E-01  0.51099999109E-03 0. -1.
       11   -1    0    0    0    0 -0.00000000000E+00 -0.00000000000E+00 -0.35740347158E-01  0.35744000000E-01  0.51099999109E-03 0.  1.
       22    1    1    2    0    0 -0.54956199538E-02  0.54848826586E-02 -0.34883345717E-01  0.35737005818E-01  0.00000000000E+00 0.  1.
  9000001    1    1    2    0    0  0.54956199538E-02 -0.54848826586E-02  0.34883345717E-01  0.35750994182E-01  0.10000000475E-02 0. -1.
</event>
<event>
 4   0  0.4958067E-02  0.9118800E+02  0.7818609E-02  0.1379984E+01
      -11   -1    0    0    0    0  0.00000000000E+00  0.00000000000E+00  0.35740347158E-01  0.35744000000E-01  0.51099999109E-03 0. -1.
       11   -1    0    0    0    0 -0.00000000000E+00 -0.00000000000E+00 -0.35740347158E-01  0.35744000000E-01  0.51099999109E-03 0.  1.
       22    1    1    2    0    0 -0.49783352844E-02  0.60600326031E-02  0.34865825209E-01  0.35737005818E-01  0.00000000000E+00 0. -1.
  9000001    1    1    2    0    0  0.49783352844E-02 -0.60600326031E-02 -0.34865825209E-01  0.35750994182E-01  0.10000000475E-02 0.  1.
</event>
<event>
 4   0  0.4958067E-02  0.9118800E+02  0.7818609E-02  0.1379984E+01
      -11   -1    0    0    0    0  0.00000000000E+00  0.00000000000E+00  0.35740347158E-01  0.35744000000E-01  0.51099999109E-03 0.  1.
       11   -1    0    0    0    0 -0.00000000000E+00 -0.00000000000E+00 -0.35740347158E-01  0.35744000000E-01  0.51099999109E-03 0. -1.
       22    1    1    2    0    0  0.16558057979E-03  0.42572015490E-02  0.35482142028E-01  0.35737005818E-01  0.00000000000E+00 0.  1.
  9000001    1    1    2    0    0 -0.16558057979E-03 -0.42572015490E-02 -0.35482142028E-01  0.35750994182E-01  0.10000000475E-02 0. -1.
</event>
<event>
 4   0  0.4958067E-02  0.9118800E+02  0.7818609E-02  0.1379984E+01
      -11   -1    0    0    0    0  0.00000000000E+00  0.00000000000E+00  0.35740347158E-01  0.35744000000E-01  0.51099999109E-03 0.  1.
       11   -1    0    0    0    0 -0.00000000000E+00 -0.00000000000E+00 -0.35740347158E-01  0.35744000000E-01  0.51099999109E-03 0. -1.
       22    1    1    2    0    0  0.13634669154E-01 -0.13029289413E-01  0.30355674911E-01  0.35737005818E-01  0.00000000000E+00 0.  1.
  9000001    1    1    2    0    0 -0.13634669154E-01  0.13029289413E-01 -0.30355674911E-01  0.35750994182E-01  0.10000000475E-02 0. -1.
</event>
<event>
 4   0  0.4958067E-02  0.9118800E+02  0.7818609E-02  0.1379984E+01
      -11   -1    0    0    0    0  0.00000000000E+00  0.00000000000E+00  0.35740347158E-01  0.35744000000E-01  0.51099999109E-03 0.  1.
       11   -1    0    0    0    0 -0.00000000000E+00 -0.00000000000E+00 -0.35740347158E-01  0.35744000000E-01  0.51099999109E-03 0. -1.
       22    1    1    2    0    0 -0.17638000798E-02 -0.50827780627E-02  0.35329703669E-01  0.35737005818E-01  0.00000000000E+00 0.  1.
  9000001    1    1    2    0    0  0.17638000798E-02  0.50827780627E-02 -0.35329703669E-01  0.35750994182E-01  0.10000000475E-02 0. -1.
</event>
<event>
 4   0  0.4958067E-02  0.9118800E+02  0.7818609E-02  0.1379984E+01
      -11   -1    0    0    0    0  0.00000000000E+00  0.00000000000E+00  0.35740347158E-01  0.35744000000E-01  0.51099999109E-03 0.  1.
       11   -1    0    0    0    0 -0.00000000000E+00 -0.00000000000E+00 -0.35740347158E-01  0.35744000000E-01  0.51099999109E-03 0. -1.
       22    1    1    2    0    0 -0.26543070280E-02  0.12912963631E-01 -0.33216616464E-01  0.35737005818E-01  0.00000000000E+00 0. -1.
  9000001    1    1    2    0    0  0.26543070280E-02 -0.12912963631E-01  0.33216616464E-01  0.35750994182E-01  0.10000000475E-02 0.  1.
</event>
<event>
 4   0  0.4958067E-02  0.9118800E+02  0.7818609E-02  0.1379984E+01
      -11   -1    0    0    0    0  0.00000000000E+00  0.00000000000E+00  0.35740347158E-01  0.35744000000E-01  0.51099999109E-03 0.  1.
       11   -1    0    0    0    0 -0.00000000000E+00 -0.00000000000E+00 -0.35740347158E-01  0.35744000000E-01  0.51099999109E-03 0. -1.
       22    1    1    2    0    0 -0.22104384710E-01  0.12598427180E-01  0.25096003548E-01  0.35737005818E-01  0.00000000000E+00 0.  1.
  9000001    1    1    2    0    0  0.22104384710E-01 -0.12598427180E-01 -0.25096003548E-01  0.35750994182E-01  0.10000000475E-02 0. -1.
</event>
<event>
 4   0  0.4958067E-02  0.9118800E+02  0.7818609E-02  0.1379984E+01
      -11   -1    0    0    0    0  0.00000000000E+00  0.00000000000E+00  0.35740347158E-01  0.35744000000E-01  0.51099999109E-03 0. -1.
       11   -1    0    0    0    0 -0.00000000000E+00 -0.00000000000E+00 -0.35740347158E-01  0.35744000000E-01  0.51099999109E-03 0.  1.
       22    1    1    2    0    0  0.33687836367E-02  0.12883877768E-01 -0.33163090558E-01  0.35737005818E-01  0.00000000000E+00 0.  1.
  9000001    1    1    2    0    0 -0.33687836367E-02 -0.12883877768E-01  0.33163090558E-01  0.35750994182E-01  0.10000000475E-02 0. -1.
</event>
<event>
 4   0  0.4958067E-02  0.9118800E+02  0.7818609E-02  0.1379984E+01
      -11   -1    0    0    0    0  0.00000000000E+00  0.00000000000E+00  0.35740347158E-01  0.35744000000E-01  0.51099999109E-03 0. -1.
       11   -1    0    0    0    0 -0.00000000000E+00 -0.00000000000E+00 -0.35740347158E-01  0.35744000000E-01  0.51099999109E-03 0.  1.
       22    1    1    2    0    0 -0.48534250059E-02 -0.55618387219E-02 -0.34966323808E-01  0.35737005818E-01  0.00000000000E+00 0.  1.
  9000001    1    1    2    0    0  0.48534250059E-02  0.55618387219E-02  0.34966323808E-01  0.35750994182E-01  0.10000000475E-02 0. -1.
</event>
<event>
 4   0  0.4958067E-02  0.9118800E+02  0.7818609E-02  0.1379984E+01
      -11   -1    0    0    0    0  0.00000000000E+00  0.00000000000E+00  0.35740347158E-01  0.35744000000E-01  0.51099999109E-03 0.  1.
       11   -1    0    0    0    0 -0.00000000000E+00 -0.00000000000E+00 -0.35740347158E-01  0.35744000000E-01  0.51099999109E-03 0. -1.
       22    1    1    2    0    0  0.23350574672E-02 -0.32279340284E-02 -0.35514244092E-01  0.35737005818E-01  0.00000000000E+00 0. -1.
  9000001    1    1    2    0    0 -0.23350574672E-02  0.32279340284E-02  0.35514244092E-01  0.35750994182E-01  0.10000000475E-02 0.  1.
</event>
<event>
 4   0  0.4958067E-02  0.9118800E+02  0.7818609E-02  0.1379984E+01
      -11   -1    0    0    0    0  0.00000000000E+00  0.00000000000E+00  0.35740347158E-01  0.35744000000E-01  0.51099999109E-03 0. -1.
       11   -1    0    0    0    0 -0.00000000000E+00 -0.00000000000E+00 -0.35740347158E-01  0.35744000000E-01  0.51099999109E-03 0.  1.
       22    1    1    2    0    0 -0.34504811201E-02 -0.10424598213E-02  0.35554761178E-01  0.35737005818E-01  0.00000000000E+00 0. -1.
  9000001    1    1    2    0    0  0.34504811201E-02  0.10424598213E-02 -0.35554761178E-01  0.35750994182E-01  0.10000000475E-02 0.  1.
</event>
<event>
 4   0  0.4958067E-02  0.9118800E+02  0.7818609E-02  0.1379984E+01
      -11   -1    0    0    0    0  0.00000000000E+00  0.00000000000E+00  0.35740347158E-01  0.35744000000E-01  0.51099999109E-03 0.  1.
       11   -1    0    0    0    0 -0.00000000000E+00 -0.00000000000E+00 -0.35740347158E-01  0.35744000000E-01  0.51099999109E-03 0. -1.
       22    1    1    2    0    0  0.74927224315E-02  0.52852322788E-02  0.34540686374E-01  0.35737005818E-01  0.00000000000E+00 0.  1.
  9000001    1    1    2    0    0 -0.74927224315E-02 -0.52852322788E-02 -0.34540686374E-01  0.35750994182E-01  0.10000000475E-02 0. -1.
</event>
<event>
 4   0  0.4958067E-02  0.9118800E+02  0.7818609E-02  0.1379984E+01
      -11   -1    0    0    0    0  0.00000000000E+00  0.00000000000E+00  0.35740347158E-01  0.35744000000E-01  0.51099999109E-03 0.  1.
       11   -1    0    0    0    0 -0.00000000000E+00 -0.00000000000E+00 -0.35740347158E-01  0.35744000000E-01  0.51099999109E-03 0. -1.
       22    1    1    2    0    0 -0.93803391652E-02 -0.84135375777E-02 -0.33441818244E-01  0.35737005818E-01  0.00000000000E+00 0. -1.
  9000001    1    1    2    0    0  0.93803391652E-02  0.84135375777E-02  0.33441818244E-01  0.35750994182E-01  0.10000000475E-02 0.  1.
</event>
<event>
 4   0  0.4958067E-02  0.9118800E+02  0.7818609E-02  0.1379984E+01
      -11   -1    0    0    0    0  0.00000000000E+00  0.00000000000E+00  0.35740347158E-01  0.35744000000E-01  0.51099999109E-03 0.  1.
       11   -1    0    0    0    0 -0.00000000000E+00 -0.00000000000E+00 -0.35740347158E-01  0.35744000000E-01  0.51099999109E-03 0. -1.
       22    1    1    2    0    0 -0.24215578287E-03  0.59932903196E-02  0.35230035717E-01  0.35737005818E-01  0.00000000000E+00 0.  1.
  9000001    1    1    2    0    0  0.24215578287E-03 -0.59932903196E-02 -0.35230035717E-01  0.35750994182E-01  0.10000000475E-02 0. -1.
</event>
<event>
 4   0  0.4958067E-02  0.9118800E+02  0.7818609E-02  0.1379984E+01
      -11   -1    0    0    0    0  0.00000000000E+00  0.00000000000E+00  0.35740347158E-01  0.35744000000E-01  0.51099999109E-03 0. -1.
       11   -1    0    0    0    0 -0.00000000000E+00 -0.00000000000E+00 -0.35740347158E-01  0.35744000000E-01  0.51099999109E-03 0.  1.
       22    1    1    2    0    0  0.16861499419E-01  0.30023985208E-01 -0.95594840044E-02  0.35737005818E-01  0.00000000000E+00 0. -1.
  9000001    1    1    2    0    0 -0.16861499419E-01 -0.30023985208E-01  0.95594840044E-02  0.35750994182E-01  0.10000000475E-02 0.  1.
</event>
<event>
 4   0  0.4958067E-02  0.9118800E+02  0.7818609E-02  0.1379984E+01
      -11   -1    0    0    0    0  0.00000000000E+00  0.00000000000E+00  0.35740347158E-01  0.35744000000E-01  0.51099999109E-03 0.  1.
       11   -1    0    0    0    0 -0.00000000000E+00 -0.00000000000E+00 -0.35740347158E-01  0.35744000000E-01  0.51099999109E-03 0. -1.
       22    1    1    2    0    0 -0.82611291464E-02  0.75084857720E-03 -0.34760948729E-01  0.35737005818E-01  0.00000000000E+00 0. -1.
  9000001    1    1    2    0    0  0.82611291464E-02 -0.75084857720E-03  0.34760948729E-01  0.35750994182E-01  0.10000000475E-02 0.  1.
</event>
<event>
 4   0  0.4958067E-02  0.9118800E+02  0.7818609E-02  0.1379984E+01
      -11   -1    0    0    0    0  0.00000000000E+00  0.00000000000E+00  0.35740347158E-01  0.35744000000E-01  0.51099999109E-03 0.  1.
       11   -1    0    0    0    0 -0.00000000000E+00 -0.00000000000E+00 -0.35740347158E-01  0.35744000000E-01  0.51099999109E-03 0. -1.
       22    1    1    2    0    0 -0.13835402752E-01  0.16050027141E-02  0.32911079925E-01  0.35737005818E-01  0.00000000000E+00 0.  1.
  9000001    1    1    2    0    0  0.13835402752E-01 -0.16050027141E-02 -0.32911079925E-01  0.35750994182E-01  0.10000000475E-02 0. -1.
</event>
<event>
 4   0  0.4958067E-02  0.9118800E+02  0.7818609E-02  0.1379984E+01
      -11   -1    0    0    0    0  0.00000000000E+00  0.00000000000E+00  0.35740347158E-01  0.35744000000E-01  0.51099999109E-03 0.  1.
       11   -1    0    0    0    0 -0.00000000000E+00 -0.00000000000E+00 -0.35740347158E-01  0.35744000000E-01  0.51099999109E-03 0. -1.
       22    1    1    2    0    0  0.88759849159E-02 -0.15492773001E-01 -0.30956816073E-01  0.35737005818E-01  0.00000000000E+00 0. -1.
  9000001    1    1    2    0    0 -0.88759849159E-02  0.15492773001E-01  0.30956816073E-01  0.35750994182E-01  0.10000000475E-02 0.  1.
</event>
<event>
 4   0  0.4958067E-02  0.9118800E+02  0.7818609E-02  0.1379984E+01
      -11   -1    0    0    0    0  0.00000000000E+00  0.00000000000E+00  0.35740347158E-01  0.35744000000E-01  0.51099999109E-03 0. -1.
       11   -1    0    0    0    0 -0.00000000000E+00 -0.00000000000E+00 -0.35740347158E-01  0.35744000000E-01  0.51099999109E-03 0.  1.
       22    1    1    2    0    0  0.51397916758E-02  0.17189618914E-01  0.30906845973E-01  0.35737005818E-01  0.00000000000E+00 0. -1.
  9000001    1    1    2    0    0 -0.51397916758E-02 -0.17189618914E-01 -0.30906845973E-01  0.35750994182E-01  0.10000000475E-02 0.  1.
</event>
<event>
 4   0  0.4958067E-02  0.9118800E+02  0.7818609E-02  0.1379984E+01
      -11   -1    0    0    0    0  0.00000000000E+00  0.00000000000E+00  0.35740347158E-01  0.35744000000E-01  0.51099999109E-03 0.  1.
       11   -1    0    0    0    0 -0.00000000000E+00 -0.00000000000E+00 -0.35740347158E-01  0.35744000000E-01  0.51099999109E-03 0. -1.
       22    1    1    2    0    0 -0.87194422153E-02 -0.15546194233E-02 -0.34622074906E-01  0.35737005818E-01  0.00000000000E+00 0. -1.
  9000001    1    1    2    0    0  0.87194422153E-02  0.15546194233E-02  0.34622074906E-01  0.35750994182E-01  0.10000000475E-02 0.  1.
</event>
<event>
 4   0  0.4958067E-02  0.9118800E+02  0.7818609E-02  0.1379984E+01
      -11   -1    0    0    0    0  0.00000000000E+00  0.00000000000E+00  0.35740347158E-01  0.35744000000E-01  0.51099999109E-03 0.  1.
       11   -1    0    0    0    0 -0.00000000000E+00 -0.00000000000E+00 -0.35740347158E-01  0.35744000000E-01  0.51099999109E-03 0. -1.
       22    1    1    2    0    0 -0.10559698857E-01  0.15321885236E-01 -0.30510099602E-01  0.35737005818E-01  0.00000000000E+00 0. -1.
  9000001    1    1    2    0    0  0.10559698857E-01 -0.15321885236E-01  0.30510099602E-01  0.35750994182E-01  0.10000000475E-02 0.  1.
</event>
<event>
 4   0  0.4958067E-02  0.9118800E+02  0.7818609E-02  0.1379984E+01
      -11   -1    0    0    0    0  0.00000000000E+00  0.00000000000E+00  0.35740347158E-01  0.35744000000E-01  0.51099999109E-03 0.  1.
       11   -1    0    0    0    0 -0.00000000000E+00 -0.00000000000E+00 -0.35740347158E-01  0.35744000000E-01  0.51099999109E-03 0. -1.
       22    1    1    2    0    0  0.80731426887E-02 -0.83053497321E-02  0.33807974175E-01  0.35737005818E-01  0.00000000000E+00 0.  1.
  9000001    1    1    2    0    0 -0.80731426887E-02  0.83053497321E-02 -0.33807974175E-01  0.35750994182E-01  0.10000000475E-02 0. -1.
</event>
<event>
 4   0  0.4958067E-02  0.9118800E+02  0.7818609E-02  0.1379984E+01
      -11   -1    0    0    0    0  0.00000000000E+00  0.00000000000E+00  0.35740347158E-01  0.35744000000E-01  0.51099999109E-03 0. -1.
       11   -1    0    0    0    0 -0.00000000000E+00 -0.00000000000E+00 -0.35740347158E-01  0.35744000000E-01  0.51099999109E-03 0.  1.
       22    1    1    2    0    0  0.14810004351E-02  0.63683058688E-02 -0.35133814238E-01  0.35737005818E-01  0.00000000000E+00 0.  1.
  9000001    1    1    2    0    0 -0.14810004351E-02 -0.63683058688E-02  0.35133814238E-01  0.35750994182E-01  0.10000000475E-02 0. -1.
</event>
<event>
 4   0  0.4958067E-02  0.9118800E+02  0.7818609E-02  0.1379984E+01
      -11   -1    0    0    0    0  0.00000000000E+00  0.00000000000E+00  0.35740347158E-01  0.35744000000E-01  0.51099999109E-03 0. -1.
       11   -1    0    0    0    0 -0.00000000000E+00 -0.00000000000E+00 -0.35740347158E-01  0.35744000000E-01  0.51099999109E-03 0.  1.
       22    1    1    2    0    0 -0.79724724403E-02 -0.69164573197E-03 -0.34829511829E-01  0.35737005818E-01  0.00000000000E+00 0.  1.
  9000001    1    1    2    0    0  0.79724724403E-02  0.69164573197E-03  0.34829511829E-01  0.35750994182E-01  0.10000000475E-02 0. -1.
</event>
<event>
 4   0  0.4958067E-02  0.9118800E+02  0.7818609E-02  0.1379984E+01
      -11   -1    0    0    0    0  0.00000000000E+00  0.00000000000E+00  0.35740347158E-01  0.35744000000E-01  0.51099999109E-03 0.  1.
       11   -1    0    0    0    0 -0.00000000000E+00 -0.00000000000E+00 -0.35740347158E-01  0.35744000000E-01  0.51099999109E-03 0. -1.
       22    1    1    2    0    0 -0.58155921807E-03  0.60763675831E-02  0.35211832255E-01  0.35737005818E-01  0.00000000000E+00 0.  1.
  9000001    1    1    2    0    0  0.58155921807E-03 -0.60763675831E-02 -0.35211832255E-01  0.35750994182E-01  0.10000000475E-02 0. -1.
</event>
<event>
 4   0  0.4958067E-02  0.9118800E+02  0.7818609E-02  0.1379984E+01
      -11   -1    0    0    0    0  0.00000000000E+00  0.00000000000E+00  0.35740347158E-01  0.35744000000E-01  0.51099999109E-03 0.  1.
       11   -1    0    0    0    0 -0.00000000000E+00 -0.00000000000E+00 -0.35740347158E-01  0.35744000000E-01  0.51099999109E-03 0. -1.
       22    1    1    2    0    0  0.10131376500E-01 -0.14987779207E-02 -0.34238026518E-01  0.35737005818E-01  0.00000000000E+00 0. -1.
  9000001    1    1    2    0    0 -0.10131376500E-01  0.14987779207E-02  0.34238026518E-01  0.35750994182E-01  0.10000000475E-02 0.  1.
</event>
<event>
 4   0  0.4958067E-02  0.9118800E+02  0.7818609E-02  0.1379984E+01
      -11   -1    0    0    0    0  0.00000000000E+00  0.00000000000E+00  0.35740347158E-01  0.35744000000E-01  0.51099999109E-03 0.  1.
       11   -1    0    0    0    0 -0.00000000000E+00 -0.00000000000E+00 -0.35740347158E-01  0.35744000000E-01  0.51099999109E-03 0. -1.
       22    1    1    2    0    0  0.17593027095E-01 -0.17243438397E-01 -0.25889820678E-01  0.35737005818E-01  0.00000000000E+00 0. -1.
  9000001    1    1    2    0    0 -0.17593027095E-01  0.17243438397E-01  0.25889820678E-01  0.35750994182E-01  0.10000000475E-02 0.  1.
</event>
<event>
 4   0  0.4958067E-02  0.9118800E+02  0.7818609E-02  0.1379984E+01
      -11   -1    0    0    0    0  0.00000000000E+00  0.00000000000E+00  0.35740347158E-01  0.35744000000E-01  0.51099999109E-03 0. -1.
       11   -1    0    0    0    0 -0.00000000000E+00 -0.00000000000E+00 -0.35740347158E-01  0.35744000000E-01  0.51099999109E-03 0.  1.
       22    1    1    2    0    0 -0.37691043722E-02  0.17429468026E-02  0.35494923208E-01  0.35737005818E-01  0.00000000000E+00 0. -1.
  9000001    1    1    2    0    0  0.37691043722E-02 -0.17429468026E-02 -0.35494923208E-01  0.35750994182E-01  0.10000000475E-02 0.  1.
</event>
<event>
 4   0  0.4958067E-02  0.9118800E+02  0.7818609E-02  0.1379984E+01
      -11   -1    0    0    0    0  0.00000000000E+00  0.00000000000E+00  0.35740347158E-01  0.35744000000E-01  0.51099999109E-03 0.  1.
       11   -1    0    0    0    0 -0.00000000000E+00 -0.00000000000E+00 -0.35740347158E-01  0.35744000000E-01  0.51099999109E-03 0. -1.
       22    1    1    2    0    0  0.34793782536E-02 -0.14992670668E-01  0.32252865579E-01  0.35737005818E-01  0.00000000000E+00 0.  1.
  9000001    1    1    2    0    0 -0.34793782536E-02  0.14992670668E-01 -0.32252865579E-01  0.35750994182E-01  0.10000000475E-02 0. -1.
</event>
<event>
 4   0  0.4958067E-02  0.9118800E+02  0.7818609E-02  0.1379984E+01
      -11   -1    0    0    0    0  0.00000000000E+00  0.00000000000E+00  0.35740347158E-01  0.35744000000E-01  0.51099999109E-03 0.  1.
       11   -1    0    0    0    0 -0.00000000000E+00 -0.00000000000E+00 -0.35740347158E-01  0.35744000000E-01  0.51099999109E-03 0. -1.
       22    1    1    2    0    0 -0.38673633087E-03  0.57811344250E-02  0.35264181610E-01  0.35737005818E-01  0.00000000000E+00 0.  1.
  9000001    1    1    2    0    0  0.38673633087E-03 -0.57811344250E-02 -0.35264181610E-01  0.35750994182E-01  0.10000000475E-02 0. -1.
</event>
<event>
 4   0  0.4958067E-02  0.9118800E+02  0.7818609E-02  0.1379984E+01
      -11   -1    0    0    0    0  0.00000000000E+00  0.00000000000E+00  0.35740347158E-01  0.35744000000E-01  0.51099999109E-03 0. -1.
       11   -1    0    0    0    0 -0.00000000000E+00 -0.00000000000E+00 -0.35740347158E-01  0.35744000000E-01  0.51099999109E-03 0.  1.
       22    1    1    2    0    0 -0.46029537764E-02 -0.44915412179E-02  0.35153555423E-01  0.35737005818E-01  0.00000000000E+00 0. -1.
  9000001    1    1    2    0    0  0.46029537764E-02  0.44915412179E-02 -0.35153555423E-01  0.35750994182E-01  0.10000000475E-02 0.  1.
</event>
<event>
 4   0  0.4958067E-02  0.9118800E+02  0.7818609E-02  0.1379984E+01
      -11   -1    0    0    0    0  0.00000000000E+00  0.00000000000E+00  0.35740347158E-01  0.35744000000E-01  0.51099999109E-03 0. -1.
       11   -1    0    0    0    0 -0.00000000000E+00 -0.00000000000E+00 -0.35740347158E-01  0.35744000000E-01  0.51099999109E-03 0.  1.
       22    1    1    2    0    0  0.10983570735E-01  0.73758811290E-02 -0.33197758002E-01  0.35737005818E-01  0.00000000000E+00 0.  1.
  9000001    1    1    2    0    0 -0.10983570735E-01 -0.73758811290E-02  0.33197758002E-01  0.35750994182E-01  0.10000000475E-02 0. -1.
</event>
<event>
 4   0  0.4958067E-02  0.9118800E+02  0.7818609E-02  0.1379984E+01
      -11   -1    0    0    0    0  0.00000000000E+00  0.00000000000E+00  0.35740347158E-01  0.35744000000E-01  0.51099999109E-03 0. -1.
       11   -1    0    0    0    0 -0.00000000000E+00 -0.00000000000E+00 -0.35740347158E-01  0.35744000000E-01  0.51099999109E-03 0.  1.
       22    1    1    2    0    0 -0.60222842523E-03 -0.34304290100E-02  0.35566881542E-01  0.35737005818E-01  0.00000000000E+00 0. -1.
  9000001    1    1    2    0    0  0.60222842523E-03  0.34304290100E-02 -0.35566881542E-01  0.35750994182E-01  0.10000000475E-02 0.  1.
</event>
<event>
 4   0  0.4958067E-02  0.9118800E+02  0.7818609E-02  0.1379984E+01
      -11   -1    0    0    0    0  0.00000000000E+00  0.00000000000E+00  0.35740347158E-01  0.35744000000E-01  0.51099999109E-03 0.  1.
       11   -1    0    0    0    0 -0.00000000000E+00 -0.00000000000E+00 -0.35740347158E-01  0.35744000000E-01  0.51099999109E-03 0. -1.
       22    1    1    2    0    0  0.51243359885E-02  0.57879387389E-02 -0.34890894668E-01  0.35737005818E-01  0.00000000000E+00 0. -1.
  9000001    1    1    2    0    0 -0.51243359885E-02 -0.57879387389E-02  0.34890894668E-01  0.35750994182E-01  0.10000000475E-02 0.  1.
</event>
<event>
 4   0  0.4958067E-02  0.9118800E+02  0.7818609E-02  0.1379984E+01
      -11   -1    0    0    0    0  0.00000000000E+00  0.00000000000E+00  0.35740347158E-01  0.35744000000E-01  0.51099999109E-03 0. -1.
       11   -1    0    0    0    0 -0.00000000000E+00 -0.00000000000E+00 -0.35740347158E-01  0.35744000000E-01  0.51099999109E-03 0.  1.
       22    1    1    2    0    0 -0.12797638817E-01  0.12738958804E-01  0.30839470718E-01  0.35737005818E-01  0.00000000000E+00 0. -1.
  9000001    1    1    2    0    0  0.12797638817E-01 -0.12738958804E-01 -0.30839470718E-01  0.35750994182E-01  0.10000000475E-02 0.  1.
</event>
<event>
 4   0  0.4958067E-02  0.9118800E+02  0.7818609E-02  0.1379984E+01
      -11   -1    0    0    0    0  0.00000000000E+00  0.00000000000E+00  0.35740347158E-01  0.35744000000E-01  0.51099999109E-03 0. -1.
       11   -1    0    0    0    0 -0.00000000000E+00 -0.00000000000E+00 -0.35740347158E-01  0.35744000000E-01  0.51099999109E-03 0.  1.
       22    1    1    2    0    0  0.11537389985E-02 -0.59037058126E-02 -0.35227102192E-01  0.35737005818E-01  0.00000000000E+00 0.  1.
  9000001    1    1    2    0    0 -0.11537389985E-02  0.59037058126E-02  0.35227102192E-01  0.35750994182E-01  0.10000000475E-02 0. -1.
</event>
<event>
 4   0  0.4958067E-02  0.9118800E+02  0.7818609E-02  0.1379984E+01
      -11   -1    0    0    0    0  0.00000000000E+00  0.00000000000E+00  0.35740347158E-01  0.35744000000E-01  0.51099999109E-03 0. -1.
       11   -1    0    0    0    0 -0.00000000000E+00 -0.00000000000E+00 -0.35740347158E-01  0.35744000000E-01  0.51099999109E-03 0.  1.
       22    1    1    2    0    0 -0.26698475060E-03 -0.13577169129E-01  0.33056357671E-01  0.35737005818E-01  0.00000000000E+00 0. -1.
  9000001    1    1    2    0    0  0.26698475060E-03  0.13577169129E-01 -0.33056357671E-01  0.35750994182E-01  0.10000000475E-02 0.  1.
</event>
<event>
 4   0  0.4958067E-02  0.9118800E+02  0.7818609E-02  0.1379984E+01
      -11   -1    0    0    0    0  0.00000000000E+00  0.00000000000E+00  0.35740347158E-01  0.35744000000E-01  0.51099999109E-03 0.  1.
       11   -1    0    0    0    0 -0.00000000000E+00 -0.00000000000E+00 -0.35740347158E-01  0.35744000000E-01  0.51099999109E-03 0. -1.
       22    1    1    2    0    0 -0.31541835506E-02  0.26481585886E-02  0.35498900928E-01  0.35737005818E-01  0.00000000000E+00 0.  1.
  9000001    1    1    2    0    0  0.31541835506E-02 -0.26481585886E-02 -0.35498900928E-01  0.35750994182E-01  0.10000000475E-02 0. -1.
</event>
<event>
 4   0  0.4958067E-02  0.9118800E+02  0.7818609E-02  0.1379984E+01
      -11   -1    0    0    0    0  0.00000000000E+00  0.00000000000E+00  0.35740347158E-01  0.35744000000E-01  0.51099999109E-03 0.  1.
       11   -1    0    0    0    0 -0.00000000000E+00 -0.00000000000E+00 -0.35740347158E-01  0.35744000000E-01  0.51099999109E-03 0. -1.
       22    1    1    2    0    0  0.10500160963E-01 -0.59075861751E-03 -0.34154519597E-01  0.35737005818E-01  0.00000000000E+00 0. -1.
  9000001    1    1    2    0    0 -0.10500160963E-01  0.59075861751E-03  0.34154519597E-01  0.35750994182E-01  0.10000000475E-02 0.  1.
</event>
<event>
 4   0  0.4958067E-02  0.9118800E+02  0.7818609E-02  0.1379984E+01
      -11   -1    0    0    0    0  0.00000000000E+00  0.00000000000E+00  0.35740347158E-01  0.35744000000E-01  0.51099999109E-03 0.  1.
       11   -1    0    0    0    0 -0.00000000000E+00 -0.00000000000E+00 -0.35740347158E-01  0.35744000000E-01  0.51099999109E-03 0. -1.
       22    1    1    2    0    0  0.22470902256E-01 -0.12703103713E-02  0.27759294808E-01  0.35737005818E-01  0.00000000000E+00 0.  1.
  9000001    1    1    2    0    0 -0.22470902256E-01  0.12703103713E-02 -0.27759294808E-01  0.35750994182E-01  0.10000000475E-02 0. -1.
</event>
<event>
 4   0  0.4958067E-02  0.9118800E+02  0.7818609E-02  0.1379984E+01
      -11   -1    0    0    0    0  0.00000000000E+00  0.00000000000E+00  0.35740347158E-01  0.35744000000E-01  0.51099999109E-03 0.  1.
       11   -1    0    0    0    0 -0.00000000000E+00 -0.00000000000E+00 -0.35740347158E-01  0.35744000000E-01  0.51099999109E-03 0. -1.
       22    1    1    2    0    0  0.15687984801E-01 -0.29704331814E-02  0.31971819536E-01  0.35737005818E-01  0.00000000000E+00 0.  1.
  9000001    1    1    2    0    0 -0.15687984801E-01  0.29704331814E-02 -0.31971819536E-01  0.35750994182E-01  0.10000000475E-02 0. -1.
</event>
<event>
 4   0  0.4958067E-02  0.9118800E+02  0.7818609E-02  0.1379984E+01
      -11   -1    0    0    0    0  0.00000000000E+00  0.00000000000E+00  0.35740347158E-01  0.35744000000E-01  0.51099999109E-03 0. -1.
       11   -1    0    0    0    0 -0.00000000000E+00 -0.00000000000E+00 -0.35740347158E-01  0.35744000000E-01  0.51099999109E-03 0.  1.
       22    1    1    2    0    0  0.39458451499E-02 -0.12850043180E-02  0.35495248342E-01  0.35737005818E-01  0.00000000000E+00 0. -1.
  9000001    1    1    2    0    0 -0.39458451499E-02  0.12850043180E-02 -0.35495248342E-01  0.35750994182E-01  0.10000000475E-02 0.  1.
</event>
<event>
 4   0  0.4958067E-02  0.9118800E+02  0.7818609E-02  0.1379984E+01
      -11   -1    0    0    0    0  0.00000000000E+00  0.00000000000E+00  0.35740347158E-01  0.35744000000E-01  0.51099999109E-03 0.  1.
       11   -1    0    0    0    0 -0.00000000000E+00 -0.00000000000E+00 -0.35740347158E-01  0.35744000000E-01  0.51099999109E-03 0. -1.
       22    1    1    2    0    0  0.21302990637E-01 -0.27801962978E-01  0.70969732522E-02  0.35737005818E-01  0.00000000000E+00 0.  1.
  9000001    1    1    2    0    0 -0.21302990637E-01  0.27801962978E-01 -0.70969732522E-02  0.35750994182E-01  0.10000000475E-02 0. -1.
</event>
<event>
 4   0  0.4958067E-02  0.9118800E+02  0.7818609E-02  0.1379984E+01
      -11   -1    0    0    0    0  0.00000000000E+00  0.00000000000E+00  0.35740347158E-01  0.35744000000E-01  0.51099999109E-03 0.  1.
       11   -1    0    0    0    0 -0.00000000000E+00 -0.00000000000E+00 -0.35740347158E-01  0.35744000000E-01  0.51099999109E-03 0. -1.
       22    1    1    2    0    0  0.17377906699E-01  0.52980164689E-02  0.30774550608E-01  0.35737005818E-01  0.00000000000E+00 0.  1.
  9000001    1    1    2    0    0 -0.17377906699E-01 -0.52980164689E-02 -0.30774550608E-01  0.35750994182E-01  0.10000000475E-02 0. -1.
</event>
<event>
 4   0  0.4958067E-02  0.9118800E+02  0.7818609E-02  0.1379984E+01
      -11   -1    0    0    0    0  0.00000000000E+00  0.00000000000E+00  0.35740347158E-01  0.35744000000E-01  0.51099999109E-03 0. -1.
       11   -1    0    0    0    0 -0.00000000000E+00 -0.00000000000E+00 -0.35740347158E-01  0.35744000000E-01  0.51099999109E-03 0.  1.
       22    1    1    2    0    0 -0.18607367525E-01 -0.21795785898E-01 -0.21350484204E-01  0.35737005818E-01  0.00000000000E+00 0. -1.
  9000001    1    1    2    0    0  0.18607367525E-01  0.21795785898E-01  0.21350484204E-01  0.35750994182E-01  0.10000000475E-02 0.  1.
</event>
<event>
 4   0  0.4958067E-02  0.9118800E+02  0.7818609E-02  0.1379984E+01
      -11   -1    0    0    0    0  0.00000000000E+00  0.00000000000E+00  0.35740347158E-01  0.35744000000E-01  0.51099999109E-03 0.  1.
       11   -1    0    0    0    0 -0.00000000000E+00 -0.00000000000E+00 -0.35740347158E-01  0.35744000000E-01  0.51099999109E-03 0. -1.
       22    1    1    2    0    0 -0.14363428955E-01 -0.23880459510E-01  0.22372955708E-01  0.35737005818E-01  0.00000000000E+00 0.  1.
  9000001    1    1    2    0    0  0.14363428955E-01  0.23880459510E-01 -0.22372955708E-01  0.35750994182E-01  0.10000000475E-02 0. -1.
</event>
<event>
 4   0  0.4958067E-02  0.9118800E+02  0.7818609E-02  0.1379984E+01
      -11   -1    0    0    0    0  0.00000000000E+00  0.00000000000E+00  0.35740347158E-01  0.35744000000E-01  0.51099999109E-03 0.  1.
       11   -1    0    0    0    0 -0.00000000000E+00 -0.00000000000E+00 -0.35740347158E-01  0.35744000000E-01  0.51099999109E-03 0. -1.
       22    1    1    2    0    0 -0.10071160340E-01  0.18646162717E-01 -0.28775439705E-01  0.35737005818E-01  0.00000000000E+00 0. -1.
  9000001    1    1    2    0    0  0.10071160340E-01 -0.18646162717E-01  0.28775439705E-01  0.35750994182E-01  0.10000000475E-02 0.  1.
</event>
<event>
 4   0  0.4958067E-02  0.9118800E+02  0.7818609E-02  0.1379984E+01
      -11   -1    0    0    0    0  0.00000000000E+00  0.00000000000E+00  0.35740347158E-01  0.35744000000E-01  0.51099999109E-03 0. -1.
       11   -1    0    0    0    0 -0.00000000000E+00 -0.00000000000E+00 -0.35740347158E-01  0.35744000000E-01  0.51099999109E-03 0.  1.
       22    1    1    2    0    0  0.34555429551E-01 -0.60616491924E-02  0.68053128108E-02  0.35737005818E-01  0.00000000000E+00 0. -1.
  9000001    1    1    2    0    0 -0.34555429551E-01  0.60616491924E-02 -0.68053128108E-02  0.35750994182E-01  0.10000000475E-02 0.  1.
</event>
<event>
 4   0  0.4958067E-02  0.9118800E+02  0.7818609E-02  0.1379984E+01
      -11   -1    0    0    0    0  0.00000000000E+00  0.00000000000E+00  0.35740347158E-01  0.35744000000E-01  0.51099999109E-03 0. -1.
       11   -1    0    0    0    0 -0.00000000000E+00 -0.00000000000E+00 -0.35740347158E-01  0.35744000000E-01  0.51099999109E-03 0.  1.
       22    1    1    2    0    0 -0.86791968593E-02  0.16416815334E-01 -0.30533478364E-01  0.35737005818E-01  0.00000000000E+00 0.  1.
  9000001    1    1    2    0    0  0.86791968593E-02 -0.16416815334E-01  0.30533478364E-01  0.35750994182E-01  0.10000000475E-02 0. -1.
</event>
<event>
 4   0  0.4958067E-02  0.9118800E+02  0.7818609E-02  0.1379984E+01
      -11   -1    0    0    0    0  0.00000000000E+00  0.00000000000E+00  0.35740347158E-01  0.35744000000E-01  0.51099999109E-03 0. -1.
       11   -1    0    0    0    0 -0.00000000000E+00 -0.00000000000E+00 -0.35740347158E-01  0.35744000000E-01  0.51099999109E-03 0.  1.
       22    1    1    2    0    0  0.15808900804E-01 -0.14751197871E-01 -0.28453723862E-01  0.35737005818E-01  0.00000000000E+00 0.  1.
  9000001    1    1    2    0    0 -0.15808900804E-01  0.14751197871E-01  0.28453723862E-01  0.35750994182E-01  0.10000000475E-02 0. -1.
</event>
<event>
 4   0  0.4958067E-02  0.9118800E+02  0.7818609E-02  0.1379984E+01
      -11   -1    0    0    0    0  0.00000000000E+00  0.00000000000E+00  0.35740347158E-01  0.35744000000E-01  0.51099999109E-03 0. -1.
       11   -1    0    0    0    0 -0.00000000000E+00 -0.00000000000E+00 -0.35740347158E-01  0.35744000000E-01  0.51099999109E-03 0.  1.
       22    1    1    2    0    0 -0.14539041779E-01 -0.14072054896E-01  0.29457208286E-01  0.35737005818E-01  0.00000000000E+00 0. -1.
  9000001    1    1    2    0    0  0.14539041779E-01  0.14072054896E-01 -0.29457208286E-01  0.35750994182E-01  0.10000000475E-02 0.  1.
</event>
<event>
 4   0  0.4958067E-02  0.9118800E+02  0.7818609E-02  0.1379984E+01
      -11   -1    0    0    0    0  0.00000000000E+00  0.00000000000E+00  0.35740347158E-01  0.35744000000E-01  0.51099999109E-03 0.  1.
       11   -1    0    0    0    0 -0.00000000000E+00 -0.00000000000E+00 -0.35740347158E-01  0.35744000000E-01  0.51099999109E-03 0. -1.
       22    1    1    2    0    0 -0.31838102811E-02  0.35905141158E-02  0.35413346994E-01  0.35737005818E-01  0.00000000000E+00 0.  1.
  9000001    1    1    2    0    0  0.31838102811E-02 -0.35905141158E-02 -0.35413346994E-01  0.35750994182E-01  0.10000000475E-02 0. -1.
</event>
<event>
 4   0  0.4958067E-02  0.9118800E+02  0.7818609E-02  0.1379984E+01
      -11   -1    0    0    0    0  0.00000000000E+00  0.00000000000E+00  0.35740347158E-01  0.35744000000E-01  0.51099999109E-03 0.  1.
       11   -1    0    0    0    0 -0.00000000000E+00 -0.00000000000E+00 -0.35740347158E-01  0.35744000000E-01  0.51099999109E-03 0. -1.
       22    1    1    2    0    0 -0.11934189248E-01  0.51055373303E-02 -0.33296279078E-01  0.35737005818E-01  0.00000000000E+00 0. -1.
  9000001    1    1    2    0    0  0.11934189248E-01 -0.51055373303E-02  0.33296279078E-01  0.35750994182E-01  0.10000000475E-02 0.  1.
</event>
<event>
 4   0  0.4958067E-02  0.9118800E+02  0.7818609E-02  0.1379984E+01
      -11   -1    0    0    0    0  0.00000000000E+00  0.00000000000E+00  0.35740347158E-01  0.35744000000E-01  0.51099999109E-03 0. -1.
       11   -1    0    0    0    0 -0.00000000000E+00 -0.00000000000E+00 -0.35740347158E-01  0.35744000000E-01  0.51099999109E-03 0.  1.
       22    1    1    2    0    0 -0.29769817267E-02 -0.50248883494E-02  0.35256512331E-01  0.35737005818E-01  0.00000000000E+00 0. -1.
  9000001    1    1    2    0    0  0.29769817267E-02  0.50248883494E-02 -0.35256512331E-01  0.35750994182E-01  0.10000000475E-02 0.  1.
</event>
<event>
 4   0  0.4958067E-02  0.9118800E+02  0.7818609E-02  0.1379984E+01
      -11   -1    0    0    0    0  0.00000000000E+00  0.00000000000E+00  0.35740347158E-01  0.35744000000E-01  0.51099999109E-03 0. -1.
       11   -1    0    0    0    0 -0.00000000000E+00 -0.00000000000E+00 -0.35740347158E-01  0.35744000000E-01  0.51099999109E-03 0.  1.
       22    1    1    2    0    0 -0.40066764901E-02  0.34339732407E-01 -0.90478122538E-02  0.35737005818E-01  0.00000000000E+00 0.  1.
  9000001    1    1    2    0    0  0.40066764901E-02 -0.34339732407E-01  0.90478122538E-02  0.35750994182E-01  0.10000000475E-02 0. -1.
</event>
<event>
 4   0  0.4958067E-02  0.9118800E+02  0.7818609E-02  0.1379984E+01
      -11   -1    0    0    0    0  0.00000000000E+00  0.00000000000E+00  0.35740347158E-01  0.35744000000E-01  0.51099999109E-03 0. -1.
       11   -1    0    0    0    0 -0.00000000000E+00 -0.00000000000E+00 -0.35740347158E-01  0.35744000000E-01  0.51099999109E-03 0.  1.
       22    1    1    2    0    0 -0.43274251352E-02  0.39426793039E-02  0.35254251609E-01  0.35737005818E-01  0.00000000000E+00 0. -1.
  9000001    1    1    2    0    0  0.43274251352E-02 -0.39426793039E-02 -0.35254251609E-01  0.35750994182E-01  0.10000000475E-02 0.  1.
</event>
<event>
 4   0  0.4958067E-02  0.9118800E+02  0.7818609E-02  0.1379984E+01
      -11   -1    0    0    0    0  0.00000000000E+00  0.00000000000E+00  0.35740347158E-01  0.35744000000E-01  0.51099999109E-03 0.  1.
       11   -1    0    0    0    0 -0.00000000000E+00 -0.00000000000E+00 -0.35740347158E-01  0.35744000000E-01  0.51099999109E-03 0. -1.
       22    1    1    2    0    0 -0.25780276586E-02  0.37712265301E-02 -0.35443831744E-01  0.35737005818E-01  0.00000000000E+00 0. -1.
  9000001    1    1    2    0    0  0.25780276586E-02 -0.37712265301E-02  0.35443831744E-01  0.35750994182E-01  0.10000000475E-02 0.  1.
</event>
<event>
 4   0  0.4958067E-02  0.9118800E+02  0.7818609E-02  0.1379984E+01
      -11   -1    0    0    0    0  0.00000000000E+00  0.00000000000E+00  0.35740347158E-01  0.35744000000E-01  0.51099999109E-03 0. -1.
       11   -1    0    0    0    0 -0.00000000000E+00 -0.00000000000E+00 -0.35740347158E-01  0.35744000000E-01  0.51099999109E-03 0.  1.
       22    1    1    2    0    0 -0.81242369436E-02 -0.37369102170E-02  0.34600084696E-01  0.35737005818E-01  0.00000000000E+00 0. -1.
  9000001    1    1    2    0    0  0.81242369436E-02  0.37369102170E-02 -0.34600084696E-01  0.35750994182E-01  0.10000000475E-02 0.  1.
</event>
<event>
 4   0  0.4958067E-02  0.9118800E+02  0.7818609E-02  0.1379984E+01
      -11   -1    0    0    0    0  0.00000000000E+00  0.00000000000E+00  0.35740347158E-01  0.35744000000E-01  0.51099999109E-03 0. -1.
       11   -1    0    0    0    0 -0.00000000000E+00 -0.00000000000E+00 -0.35740347158E-01  0.35744000000E-01  0.51099999109E-03 0.  1.
       22    1    1    2    0    0 -0.23426503496E-02 -0.41220392945E-02  0.35421100580E-01  0.35737005818E-01  0.00000000000E+00 0. -1.
  9000001    1    1    2    0    0  0.23426503496E-02  0.41220392945E-02 -0.35421100580E-01  0.35750994182E-01  0.10000000475E-02 0.  1.
</event>
<event>
 4   0  0.4958067E-02  0.9118800E+02  0.7818609E-02  0.1379984E+01
      -11   -1    0    0    0    0  0.00000000000E+00  0.00000000000E+00  0.35740347158E-01  0.35744000000E-01  0.51099999109E-03 0. -1.
       11   -1    0    0    0    0 -0.00000000000E+00 -0.00000000000E+00 -0.35740347158E-01  0.35744000000E-01  0.51099999109E-03 0.  1.
       22    1    1    2    0    0 -0.13196101328E-01  0.10565339080E-01 -0.31486030311E-01  0.35737005818E-01  0.00000000000E+00 0.  1.
  9000001    1    1    2    0    0  0.13196101328E-01 -0.10565339080E-01  0.31486030311E-01  0.35750994182E-01  0.10000000475E-02 0. -1.
</event>
<event>
 4   0  0.4958067E-02  0.9118800E+02  0.7818609E-02  0.1379984E+01
      -11   -1    0    0    0    0  0.00000000000E+00  0.00000000000E+00  0.35740347158E-01  0.35744000000E-01  0.51099999109E-03 0.  1.
       11   -1    0    0    0    0 -0.00000000000E+00 -0.00000000000E+00 -0.35740347158E-01  0.35744000000E-01  0.51099999109E-03 0. -1.
       22    1    1    2    0    0  0.16725391508E-01  0.46411050652E-02 -0.31238678070E-01  0.35737005818E-01  0.00000000000E+00 0. -1.
  9000001    1    1    2    0    0 -0.16725391508E-01 -0.46411050652E-02  0.31238678070E-01  0.35750994182E-01  0.10000000475E-02 0.  1.
</event>
<event>
 4   0  0.4958067E-02  0.9118800E+02  0.7818609E-02  0.1379984E+01
      -11   -1    0    0    0    0  0.00000000000E+00  0.00000000000E+00  0.35740347158E-01  0.35744000000E-01  0.51099999109E-03 0.  1.
       11   -1    0    0    0    0 -0.00000000000E+00 -0.00000000000E+00 -0.35740347158E-01  0.35744000000E-01  0.51099999109E-03 0. -1.
       22    1    1    2    0    0 -0.66763853633E-02  0.80533976229E-03 -0.35098588166E-01  0.35737005818E-01  0.00000000000E+00 0. -1.
  9000001    1    1    2    0    0  0.66763853633E-02 -0.80533976229E-03  0.35098588166E-01  0.35750994182E-01  0.10000000475E-02 0.  1.
</event>
<event>
 4   0  0.4958067E-02  0.9118800E+02  0.7818609E-02  0.1379984E+01
      -11   -1    0    0    0    0  0.00000000000E+00  0.00000000000E+00  0.35740347158E-01  0.35744000000E-01  0.51099999109E-03 0.  1.
       11   -1    0    0    0    0 -0.00000000000E+00 -0.00000000000E+00 -0.35740347158E-01  0.35744000000E-01  0.51099999109E-03 0. -1.
       22    1    1    2    0    0  0.63236516372E-02 -0.13102802193E-01 -0.32641409123E-01  0.35737005818E-01  0.00000000000E+00 0. -1.
  9000001    1    1    2    0    0 -0.63236516372E-02  0.13102802193E-01  0.32641409123E-01  0.35750994182E-01  0.10000000475E-02 0.  1.
</event>
<event>
 4   0  0.4958067E-02  0.9118800E+02  0.7818609E-02  0.1379984E+01
      -11   -1    0    0    0    0  0.00000000000E+00  0.00000000000E+00  0.35740347158E-01  0.35744000000E-01  0.51099999109E-03 0.  1.
       11   -1    0    0    0    0 -0.00000000000E+00 -0.00000000000E+00 -0.35740347158E-01  0.35744000000E-01  0.51099999109E-03 0. -1.
       22    1    1    2    0    0  0.22447658351E-02  0.69799365257E-02 -0.34976779402E-01  0.35737005818E-01  0.00000000000E+00 0. -1.
  9000001    1    1    2    0    0 -0.22447658351E-02 -0.69799365257E-02  0.34976779402E-01  0.35750994182E-01  0.10000000475E-02 0.  1.
</event>
<event>
 4   0  0.4958067E-02  0.9118800E+02  0.7818609E-02  0.1379984E+01
      -11   -1    0    0    0    0  0.00000000000E+00  0.00000000000E+00  0.35740347158E-01  0.35744000000E-01  0.51099999109E-03 0. -1.
       11   -1    0    0    0    0 -0.00000000000E+00 -0.00000000000E+00 -0.35740347158E-01  0.35744000000E-01  0.51099999109E-03 0.  1.
       22    1    1    2    0    0 -0.38141794465E-02  0.10476109569E-02 -0.35517434188E-01  0.35737005818E-01  0.00000000000E+00 0.  1.
  9000001    1    1    2    0    0  0.38141794465E-02 -0.10476109569E-02  0.35517434188E-01  0.35750994182E-01  0.10000000475E-02 0. -1.
</event>
<event>
 4   0  0.4958067E-02  0.9118800E+02  0.7818609E-02  0.1379984E+01
      -11   -1    0    0    0    0  0.00000000000E+00  0.00000000000E+00  0.35740347158E-01  0.35744000000E-01  0.51099999109E-03 0.  1.
       11   -1    0    0    0    0 -0.00000000000E+00 -0.00000000000E+00 -0.35740347158E-01  0.35744000000E-01  0.51099999109E-03 0. -1.
       22    1    1    2    0    0 -0.28020119722E-03 -0.47404630165E-02  0.35420094333E-01  0.35737005818E-01  0.00000000000E+00 0.  1.
  9000001    1    1    2    0    0  0.28020119722E-03  0.47404630165E-02 -0.35420094333E-01  0.35750994182E-01  0.10000000475E-02 0. -1.
</event>
<event>
 4   0  0.4958067E-02  0.9118800E+02  0.7818609E-02  0.1379984E+01
      -11   -1    0    0    0    0  0.00000000000E+00  0.00000000000E+00  0.35740347158E-01  0.35744000000E-01  0.51099999109E-03 0.  1.
       11   -1    0    0    0    0 -0.00000000000E+00 -0.00000000000E+00 -0.35740347158E-01  0.35744000000E-01  0.51099999109E-03 0. -1.
       22    1    1    2    0    0 -0.15297657788E-02  0.33566993380E-02 -0.35546110492E-01  0.35737005818E-01  0.00000000000E+00 0. -1.
  9000001    1    1    2    0    0  0.15297657788E-02 -0.33566993380E-02  0.35546110492E-01  0.35750994182E-01  0.10000000475E-02 0.  1.
</event>
<event>
 4   0  0.4958067E-02  0.9118800E+02  0.7818609E-02  0.1379984E+01
      -11   -1    0    0    0    0  0.00000000000E+00  0.00000000000E+00  0.35740347158E-01  0.35744000000E-01  0.51099999109E-03 0. -1.
       11   -1    0    0    0    0 -0.00000000000E+00 -0.00000000000E+00 -0.35740347158E-01  0.35744000000E-01  0.51099999109E-03 0.  1.
       22    1    1    2    0    0  0.10094405770E-01 -0.87094941046E-03  0.34270658064E-01  0.35737005818E-01  0.00000000000E+00 0. -1.
  9000001    1    1    2    0    0 -0.10094405770E-01  0.87094941046E-03 -0.34270658064E-01  0.35750994182E-01  0.10000000475E-02 0.  1.
</event>
<event>
 4   0  0.4958067E-02  0.9118800E+02  0.7818609E-02  0.1379984E+01
      -11   -1    0    0    0    0  0.00000000000E+00  0.00000000000E+00  0.35740347158E-01  0.35744000000E-01  0.51099999109E-03 0. -1.
       11   -1    0    0    0    0 -0.00000000000E+00 -0.00000000000E+00 -0.35740347158E-01  0.35744000000E-01  0.51099999109E-03 0.  1.
       22    1    1    2    0    0 -0.33910786457E-02 -0.18246415409E-01 -0.30540178375E-01  0.35737005818E-01  0.00000000000E+00 0.  1.
  9000001    1    1    2    0    0  0.33910786457E-02  0.18246415409E-01  0.30540178375E-01  0.35750994182E-01  0.10000000475E-02 0. -1.
</event>
<event>
 4   0  0.4958067E-02  0.9118800E+02  0.7818609E-02  0.1379984E+01
      -11   -1    0    0    0    0  0.00000000000E+00  0.00000000000E+00  0.35740347158E-01  0.35744000000E-01  0.51099999109E-03 0.  1.
       11   -1    0    0    0    0 -0.00000000000E+00 -0.00000000000E+00 -0.35740347158E-01  0.35744000000E-01  0.51099999109E-03 0. -1.
       22    1    1    2    0    0 -0.11858765460E-01  0.16729548836E-01  0.29268164657E-01  0.35737005818E-01  0.00000000000E+00 0.  1.
  9000001    1    1    2    0    0  0.11858765460E-01 -0.16729548836E-01 -0.29268164657E-01  0.35750994182E-01  0.10000000475E-02 0. -1.
</event>
<event>
 4   0  0.4958067E-02  0.9118800E+02  0.7818609E-02  0.1379984E+01
      -11   -1    0    0    0    0  0.00000000000E+00  0.00000000000E+00  0.35740347158E-01  0.35744000000E-01  0.51099999109E-03 0. -1.
       11   -1    0    0    0    0 -0.00000000000E+00 -0.00000000000E+00 -0.35740347158E-01  0.35744000000E-01  0.51099999109E-03 0.  1.
       22    1    1    2    0    0 -0.16715594562E-01 -0.11305874710E-01 -0.29494061781E-01  0.35737005818E-01  0.00000000000E+00 0.  1.
  9000001    1    1    2    0    0  0.16715594562E-01  0.11305874710E-01  0.29494061781E-01  0.35750994182E-01  0.10000000475E-02 0. -1.
</event>
<event>
 4   0  0.4958067E-02  0.9118800E+02  0.7818609E-02  0.1379984E+01
      -11   -1    0    0    0    0  0.00000000000E+00  0.00000000000E+00  0.35740347158E-01  0.35744000000E-01  0.51099999109E-03 0.  1.
       11   -1    0    0    0    0 -0.00000000000E+00 -0.00000000000E+00 -0.35740347158E-01  0.35744000000E-01  0.51099999109E-03 0. -1.
       22    1    1    2    0    0  0.88075808349E-02  0.67544967641E-02  0.33969646424E-01  0.35737005818E-01  0.00000000000E+00 0.  1.
  9000001    1    1    2    0    0 -0.88075808349E-02 -0.67544967641E-02 -0.33969646424E-01  0.35750994182E-01  0.10000000475E-02 0. -1.
</event>
<event>
 4   0  0.4958067E-02  0.9118800E+02  0.7818609E-02  0.1379984E+01
      -11   -1    0    0    0    0  0.00000000000E+00  0.00000000000E+00  0.35740347158E-01  0.35744000000E-01  0.51099999109E-03 0. -1.
       11   -1    0    0    0    0 -0.00000000000E+00 -0.00000000000E+00 -0.35740347158E-01  0.35744000000E-01  0.51099999109E-03 0.  1.
       22    1    1    2    0    0 -0.14504250630E-01  0.15270111157E-01 -0.28871854872E-01  0.35737005818E-01  0.00000000000E+00 0.  1.
  9000001    1    1    2    0    0  0.14504250630E-01 -0.15270111157E-01  0.28871854872E-01  0.35750994182E-01  0.10000000475E-02 0. -1.
</event>
<event>
 4   0  0.4958067E-02  0.9118800E+02  0.7818609E-02  0.1379984E+01
      -11   -1    0    0    0    0  0.00000000000E+00  0.00000000000E+00  0.35740347158E-01  0.35744000000E-01  0.51099999109E-03 0.  1.
       11   -1    0    0    0    0 -0.00000000000E+00 -0.00000000000E+00 -0.35740347158E-01  0.35744000000E-01  0.51099999109E-03 0. -1.
       22    1    1    2    0    0 -0.14574025473E-02  0.40203465777E-02  0.35480225141E-01  0.35737005818E-01  0.00000000000E+00 0.  1.
  9000001    1    1    2    0    0  0.14574025473E-02 -0.40203465777E-02 -0.35480225141E-01  0.35750994182E-01  0.10000000475E-02 0. -1.
</event>
<event>
 4   0  0.4958067E-02  0.9118800E+02  0.7818609E-02  0.1379984E+01
      -11   -1    0    0    0    0  0.00000000000E+00  0.00000000000E+00  0.35740347158E-01  0.35744000000E-01  0.51099999109E-03 0. -1.
       11   -1    0    0    0    0 -0.00000000000E+00 -0.00000000000E+00 -0.35740347158E-01  0.35744000000E-01  0.51099999109E-03 0.  1.
       22    1    1    2    0    0 -0.18022477581E-02  0.92270323443E-02 -0.34478215760E-01  0.35737005818E-01  0.00000000000E+00 0.  1.
  9000001    1    1    2    0    0  0.18022477581E-02 -0.92270323443E-02  0.34478215760E-01  0.35750994182E-01  0.10000000475E-02 0. -1.
</event>
<event>
 4   0  0.4958067E-02  0.9118800E+02  0.7818609E-02  0.1379984E+01
      -11   -1    0    0    0    0  0.00000000000E+00  0.00000000000E+00  0.35740347158E-01  0.35744000000E-01  0.51099999109E-03 0. -1.
       11   -1    0    0    0    0 -0.00000000000E+00 -0.00000000000E+00 -0.35740347158E-01  0.35744000000E-01  0.51099999109E-03 0.  1.
       22    1    1    2    0    0  0.85898450315E-02 -0.11618022360E-03  0.34689114278E-01  0.35737005818E-01  0.00000000000E+00 0. -1.
  9000001    1    1    2    0    0 -0.85898450315E-02  0.11618022360E-03 -0.34689114278E-01  0.35750994182E-01  0.10000000475E-02 0.  1.
</event>
<event>
 4   0  0.4958067E-02  0.9118800E+02  0.7818609E-02  0.1379984E+01
      -11   -1    0    0    0    0  0.00000000000E+00  0.00000000000E+00  0.35740347158E-01  0.35744000000E-01  0.51099999109E-03 0. -1.
       11   -1    0    0    0    0 -0.00000000000E+00 -0.00000000000E+00 -0.35740347158E-01  0.35744000000E-01  0.51099999109E-03 0.  1.
       22    1    1    2    0    0  0.29102853074E-01  0.15193245574E-02 -0.20684515482E-01  0.35737005818E-01  0.00000000000E+00 0.  1.
  9000001    1    1    2    0    0 -0.29102853074E-01 -0.15193245574E-02  0.20684515482E-01  0.35750994182E-01  0.10000000475E-02 0. -1.
</event>
<event>
 4   0  0.4958067E-02  0.9118800E+02  0.7818609E-02  0.1379984E+01
      -11   -1    0    0    0    0  0.00000000000E+00  0.00000000000E+00  0.35740347158E-01  0.35744000000E-01  0.51099999109E-03 0. -1.
       11   -1    0    0    0    0 -0.00000000000E+00 -0.00000000000E+00 -0.35740347158E-01  0.35744000000E-01  0.51099999109E-03 0.  1.
       22    1    1    2    0    0  0.11202369876E-01  0.21103808370E-01 -0.26575736421E-01  0.35737005818E-01  0.00000000000E+00 0.  1.
  9000001    1    1    2    0    0 -0.11202369876E-01 -0.21103808370E-01  0.26575736421E-01  0.35750994182E-01  0.10000000475E-02 0. -1.
</event>
<event>
 4   0  0.4958067E-02  0.9118800E+02  0.7818609E-02  0.1379984E+01
      -11   -1    0    0    0    0  0.00000000000E+00  0.00000000000E+00  0.35740347158E-01  0.35744000000E-01  0.51099999109E-03 0.  1.
       11   -1    0    0    0    0 -0.00000000000E+00 -0.00000000000E+00 -0.35740347158E-01  0.35744000000E-01  0.51099999109E-03 0. -1.
       22    1    1    2    0    0 -0.19734843337E-01 -0.15447577695E-01  0.25476300491E-01  0.35737005818E-01  0.00000000000E+00 0.  1.
  9000001    1    1    2    0    0  0.19734843337E-01  0.15447577695E-01 -0.25476300491E-01  0.35750994182E-01  0.10000000475E-02 0. -1.
</event>
<event>
 4   0  0.4958067E-02  0.9118800E+02  0.7818609E-02  0.1379984E+01
      -11   -1    0    0    0    0  0.00000000000E+00  0.00000000000E+00  0.35740347158E-01  0.35744000000E-01  0.51099999109E-03 0.  1.
       11   -1    0    0    0    0 -0.00000000000E+00 -0.00000000000E+00 -0.35740347158E-01  0.35744000000E-01  0.51099999109E-03 0. -1.
       22    1    1    2    0    0 -0.75284625672E-02 -0.90403062726E-02  0.33745054434E-01  0.35737005818E-01  0.00000000000E+00 0.  1.
  9000001    1    1    2    0    0  0.75284625672E-02  0.90403062726E-02 -0.33745054434E-01  0.35750994182E-01  0.10000000475E-02 0. -1.
</event>
<event>
 4   0  0.4958067E-02  0.9118800E+02  0.7818609E-02  0.1379984E+01
      -11   -1    0    0    0    0  0.00000000000E+00  0.00000000000E+00  0.35740347158E-01  0.35744000000E-01  0.51099999109E-03 0.  1.
       11   -1    0    0    0    0 -0.00000000000E+00 -0.00000000000E+00 -0.35740347158E-01  0.35744000000E-01  0.51099999109E-03 0. -1.
       22    1    1    2    0    0  0.18722929903E-01  0.29192421973E-01  0.86248466689E-02  0.35737005818E-01  0.00000000000E+00 0.  1.
  9000001    1    1    2    0    0 -0.18722929903E-01 -0.29192421973E-01 -0.86248466689E-02  0.35750994182E-01  0.10000000475E-02 0. -1.
</event>
<event>
 4   0  0.4958067E-02  0.9118800E+02  0.7818609E-02  0.1379984E+01
      -11   -1    0    0    0    0  0.00000000000E+00  0.00000000000E+00  0.35740347158E-01  0.35744000000E-01  0.51099999109E-03 0. -1.
       11   -1    0    0    0    0 -0.00000000000E+00 -0.00000000000E+00 -0.35740347158E-01  0.35744000000E-01  0.51099999109E-03 0.  1.
       22    1    1    2    0    0  0.24122036324E-01 -0.49469024270E-03  0.26363160471E-01  0.35737005818E-01  0.00000000000E+00 0. -1.
  9000001    1    1    2    0    0 -0.24122036324E-01  0.49469024270E-03 -0.26363160471E-01  0.35750994182E-01  0.10000000475E-02 0.  1.
</event>
<event>
 4   0  0.4958067E-02  0.9118800E+02  0.7818609E-02  0.1379984E+01
      -11   -1    0    0    0    0  0.00000000000E+00  0.00000000000E+00  0.35740347158E-01  0.35744000000E-01  0.51099999109E-03 0. -1.
       11   -1    0    0    0    0 -0.00000000000E+00 -0.00000000000E+00 -0.35740347158E-01  0.35744000000E-01  0.51099999109E-03 0.  1.
       22    1    1    2    0    0 -0.63075928592E-02  0.28522035120E-02  0.35060131094E-01  0.35737005818E-01  0.00000000000E+00 0. -1.
  9000001    1    1    2    0    0  0.63075928592E-02 -0.28522035120E-02 -0.35060131094E-01  0.35750994182E-01  0.10000000475E-02 0.  1.
</event>
<event>
 4   0  0.4958067E-02  0.9118800E+02  0.7818609E-02  0.1379984E+01
      -11   -1    0    0    0    0  0.00000000000E+00  0.00000000000E+00  0.35740347158E-01  0.35744000000E-01  0.51099999109E-03 0.  1.
       11   -1    0    0    0    0 -0.00000000000E+00 -0.00000000000E+00 -0.35740347158E-01  0.35744000000E-01  0.51099999109E-03 0. -1.
       22    1    1    2    0    0 -0.56295563793E-02  0.60812882491E-02  0.34762905705E-01  0.35737005818E-01  0.00000000000E+00 0.  1.
  9000001    1    1    2    0    0  0.56295563793E-02 -0.60812882491E-02 -0.34762905705E-01  0.35750994182E-01  0.10000000475E-02 0. -1.
</event>
<event>
 4   0  0.4958067E-02  0.9118800E+02  0.7818609E-02  0.1379984E+01
      -11   -1    0    0    0    0  0.00000000000E+00  0.00000000000E+00  0.35740347158E-01  0.35744000000E-01  0.51099999109E-03 0.  1.
       11   -1    0    0    0    0 -0.00000000000E+00 -0.00000000000E+00 -0.35740347158E-01  0.35744000000E-01  0.51099999109E-03 0. -1.
       22    1    1    2    0    0 -0.14005575940E-01  0.38189963562E-02 -0.32655668639E-01  0.35737005818E-01  0.00000000000E+00 0. -1.
  9000001    1    1    2    0    0  0.14005575940E-01 -0.38189963562E-02  0.32655668639E-01  0.35750994182E-01  0.10000000475E-02 0.  1.
</event>
<event>
 4   0  0.4958067E-02  0.9118800E+02  0.7818609E-02  0.1379984E+01
      -11   -1    0    0    0    0  0.00000000000E+00  0.00000000000E+00  0.35740347158E-01  0.35744000000E-01  0.51099999109E-03 0.  1.
       11   -1    0    0    0    0 -0.00000000000E+00 -0.00000000000E+00 -0.35740347158E-01  0.35744000000E-01  0.51099999109E-03 0. -1.
       22    1    1    2    0    0  0.92162704454E-02  0.14188195205E-01  0.31478390378E-01  0.35737005818E-01  0.00000000000E+00 0.  1.
  9000001    1    1    2    0    0 -0.92162704454E-02 -0.14188195205E-01 -0.31478390378E-01  0.35750994182E-01  0.10000000475E-02 0. -1.
</event>
<event>
 4   0  0.4958067E-02  0.9118800E+02  0.7818609E-02  0.1379984E+01
      -11   -1    0    0    0    0  0.00000000000E+00  0.00000000000E+00  0.35740347158E-01  0.35744000000E-01  0.51099999109E-03 0.  1.
       11   -1    0    0    0    0 -0.00000000000E+00 -0.00000000000E+00 -0.35740347158E-01  0.35744000000E-01  0.51099999109E-03 0. -1.
       22    1    1    2    0    0  0.20074930522E-01 -0.11751948982E-01  0.27129733588E-01  0.35737005818E-01  0.00000000000E+00 0.  1.
  9000001    1    1    2    0    0 -0.20074930522E-01  0.11751948982E-01 -0.27129733588E-01  0.35750994182E-01  0.10000000475E-02 0. -1.
</event>
<event>
 4   0  0.4958067E-02  0.9118800E+02  0.7818609E-02  0.1379984E+01
      -11   -1    0    0    0    0  0.00000000000E+00  0.00000000000E+00  0.35740347158E-01  0.35744000000E-01  0.51099999109E-03 0. -1.
       11   -1    0    0    0    0 -0.00000000000E+00 -0.00000000000E+00 -0.35740347158E-01  0.35744000000E-01  0.51099999109E-03 0.  1.
       22    1    1    2    0    0  0.28595747969E-02 -0.29382008051E-02  0.35501033687E-01  0.35737005818E-01  0.00000000000E+00 0. -1.
  9000001    1    1    2    0    0 -0.28595747969E-02  0.29382008051E-02 -0.35501033687E-01  0.35750994182E-01  0.10000000475E-02 0.  1.
</event>
<event>
 4   0  0.4958067E-02  0.9118800E+02  0.7818609E-02  0.1379984E+01
      -11   -1    0    0    0    0  0.00000000000E+00  0.00000000000E+00  0.35740347158E-01  0.35744000000E-01  0.51099999109E-03 0.  1.
       11   -1    0    0    0    0 -0.00000000000E+00 -0.00000000000E+00 -0.35740347158E-01  0.35744000000E-01  0.51099999109E-03 0. -1.
       22    1    1    2    0    0  0.10047168159E-01 -0.12131130537E-01  0.32078398787E-01  0.35737005818E-01  0.00000000000E+00 0.  1.
  9000001    1    1    2    0    0 -0.10047168159E-01  0.12131130537E-01 -0.32078398787E-01  0.35750994182E-01  0.10000000475E-02 0. -1.
</event>
<event>
 4   0  0.4958067E-02  0.9118800E+02  0.7818609E-02  0.1379984E+01
      -11   -1    0    0    0    0  0.00000000000E+00  0.00000000000E+00  0.35740347158E-01  0.35744000000E-01  0.51099999109E-03 0.  1.
       11   -1    0    0    0    0 -0.00000000000E+00 -0.00000000000E+00 -0.35740347158E-01  0.35744000000E-01  0.51099999109E-03 0. -1.
       22    1    1    2    0    0  0.35558275199E-03 -0.55080015497E-02 -0.35308201097E-01  0.35737005818E-01  0.00000000000E+00 0. -1.
  9000001    1    1    2    0    0 -0.35558275199E-03  0.55080015497E-02  0.35308201097E-01  0.35750994182E-01  0.10000000475E-02 0.  1.
</event>
<event>
 4   0  0.4958067E-02  0.9118800E+02  0.7818609E-02  0.1379984E+01
      -11   -1    0    0    0    0  0.00000000000E+00  0.00000000000E+00  0.35740347158E-01  0.35744000000E-01  0.51099999109E-03 0. -1.
       11   -1    0    0    0    0 -0.00000000000E+00 -0.00000000000E+00 -0.35740347158E-01  0.35744000000E-01  0.51099999109E-03 0.  1.
       22    1    1    2    0    0 -0.52046671384E-02 -0.91103310725E-02  0.34162068037E-01  0.35737005818E-01  0.00000000000E+00 0. -1.
  9000001    1    1    2    0    0  0.52046671384E-02  0.91103310725E-02 -0.34162068037E-01  0.35750994182E-01  0.10000000475E-02 0.  1.
</event>
<event>
 4   0  0.4958067E-02  0.9118800E+02  0.7818609E-02  0.1379984E+01
      -11   -1    0    0    0    0  0.00000000000E+00  0.00000000000E+00  0.35740347158E-01  0.35744000000E-01  0.51099999109E-03 0. -1.
       11   -1    0    0    0    0 -0.00000000000E+00 -0.00000000000E+00 -0.35740347158E-01  0.35744000000E-01  0.51099999109E-03 0.  1.
       22    1    1    2    0    0  0.11214507263E-01 -0.11862989705E-01 -0.31790531404E-01  0.35737005818E-01  0.00000000000E+00 0.  1.
  9000001    1    1    2    0    0 -0.11214507263E-01  0.11862989705E-01  0.31790531404E-01  0.35750994182E-01  0.10000000475E-02 0. -1.
</event>
<event>
 4   0  0.4958067E-02  0.9118800E+02  0.7818609E-02  0.1379984E+01
      -11   -1    0    0    0    0  0.00000000000E+00  0.00000000000E+00  0.35740347158E-01  0.35744000000E-01  0.51099999109E-03 0.  1.
       11   -1    0    0    0    0 -0.00000000000E+00 -0.00000000000E+00 -0.35740347158E-01  0.35744000000E-01  0.51099999109E-03 0. -1.
       22    1    1    2    0    0  0.40329333421E-02 -0.86267689744E-03  0.35498236887E-01  0.35737005818E-01  0.00000000000E+00 0.  1.
  9000001    1    1    2    0    0 -0.40329333421E-02  0.86267689744E-03 -0.35498236887E-01  0.35750994182E-01  0.10000000475E-02 0. -1.
</event>
<event>
 4   0  0.4958067E-02  0.9118800E+02  0.7818609E-02  0.1379984E+01
      -11   -1    0    0    0    0  0.00000000000E+00  0.00000000000E+00  0.35740347158E-01  0.35744000000E-01  0.51099999109E-03 0.  1.
       11   -1    0    0    0    0 -0.00000000000E+00 -0.00000000000E+00 -0.35740347158E-01  0.35744000000E-01  0.51099999109E-03 0. -1.
       22    1    1    2    0    0 -0.22410345298E-02 -0.33590619760E-02 -0.35508140641E-01  0.35737005818E-01  0.00000000000E+00 0. -1.
  9000001    1    1    2    0    0  0.22410345298E-02  0.33590619760E-02  0.35508140641E-01  0.35750994182E-01  0.10000000475E-02 0.  1.
</event>
<event>
 4   0  0.4958067E-02  0.9118800E+02  0.7818609E-02  0.1379984E+01
      -11   -1    0    0    0    0  0.00000000000E+00  0.00000000000E+00  0.35740347158E-01  0.35744000000E-01  0.51099999109E-03 0.  1.
       11   -1    0    0    0    0 -0.00000000000E+00 -0.00000000000E+00 -0.35740347158E-01  0.35744000000E-01  0.51099999109E-03 0. -1.
       22    1    1    2    0    0  0.27544614497E-02 -0.10404519085E-01  0.34077742144E-01  0.35737005818E-01  0.00000000000E+00 0.  1.
  9000001    1    1    2    0    0 -0.27544614497E-02  0.10404519085E-01 -0.34077742144E-01  0.35750994182E-01  0.10000000475E-02 0. -1.
</event>
<event>
 4   0  0.4958067E-02  0.9118800E+02  0.7818609E-02  0.1379984E+01
      -11   -1    0    0    0    0  0.00000000000E+00  0.00000000000E+00  0.35740347158E-01  0.35744000000E-01  0.51099999109E-03 0.  1.
       11   -1    0    0    0    0 -0.00000000000E+00 -0.00000000000E+00 -0.35740347158E-01  0.35744000000E-01  0.51099999109E-03 0. -1.
       22    1    1    2    0    0 -0.29688297870E-01  0.72981511627E-02  0.18506094781E-01  0.35737005818E-01  0.00000000000E+00 0.  1.
  9000001    1    1    2    0    0  0.29688297870E-01 -0.72981511627E-02 -0.18506094781E-01  0.35750994182E-01  0.10000000475E-02 0. -1.
</event>
<event>
 4   0  0.4958067E-02  0.9118800E+02  0.7818609E-02  0.1379984E+01
      -11   -1    0    0    0    0  0.00000000000E+00  0.00000000000E+00  0.35740347158E-01  0.35744000000E-01  0.51099999109E-03 0. -1.
       11   -1    0    0    0    0 -0.00000000000E+00 -0.00000000000E+00 -0.35740347158E-01  0.35744000000E-01  0.51099999109E-03 0.  1.
       22    1    1    2    0    0  0.27594912113E-01  0.11245405375E-01 -0.19728032550E-01  0.35737005818E-01  0.00000000000E+00 0.  1.
  9000001    1    1    2    0    0 -0.27594912113E-01 -0.11245405375E-01  0.19728032550E-01  0.35750994182E-01  0.10000000475E-02 0. -1.
</event>
<event>
 4   0  0.4958067E-02  0.9118800E+02  0.7818609E-02  0.1379984E+01
      -11   -1    0    0    0    0  0.00000000000E+00  0.00000000000E+00  0.35740347158E-01  0.35744000000E-01  0.51099999109E-03 0. -1.
       11   -1    0    0    0    0 -0.00000000000E+00 -0.00000000000E+00 -0.35740347158E-01  0.35744000000E-01  0.51099999109E-03 0.  1.
       22    1    1    2    0    0  0.18593724593E-02 -0.15074953178E-01 -0.32348448272E-01  0.35737005818E-01  0.00000000000E+00 0.  1.
  9000001    1    1    2    0    0 -0.18593724593E-02  0.15074953178E-01  0.32348448272E-01  0.35750994182E-01  0.10000000475E-02 0. -1.
</event>
<event>
 4   0  0.4958067E-02  0.9118800E+02  0.7818609E-02  0.1379984E+01
      -11   -1    0    0    0    0  0.00000000000E+00  0.00000000000E+00  0.35740347158E-01  0.35744000000E-01  0.51099999109E-03 0.  1.
       11   -1    0    0    0    0 -0.00000000000E+00 -0.00000000000E+00 -0.35740347158E-01  0.35744000000E-01  0.51099999109E-03 0. -1.
       22    1    1    2    0    0  0.20807541855E-01 -0.11552725354E-01 -0.26659225865E-01  0.35737005818E-01  0.00000000000E+00 0. -1.
  9000001    1    1    2    0    0 -0.20807541855E-01  0.11552725354E-01  0.26659225865E-01  0.35750994182E-01  0.10000000475E-02 0.  1.
</event>
<event>
 4   0  0.4958067E-02  0.9118800E+02  0.7818609E-02  0.1379984E+01
      -11   -1    0    0    0    0  0.00000000000E+00  0.00000000000E+00  0.35740347158E-01  0.35744000000E-01  0.51099999109E-03 0. -1.
       11   -1    0    0    0    0 -0.00000000000E+00 -0.00000000000E+00 -0.35740347158E-01  0.35744000000E-01  0.51099999109E-03 0.  1.
       22    1    1    2    0    0  0.31983141475E-02 -0.17882430006E-02 -0.35548650586E-01  0.35737005818E-01  0.00000000000E+00 0.  1.
  9000001    1    1    2    0    0 -0.31983141475E-02  0.17882430006E-02  0.35548650586E-01  0.35750994182E-01  0.10000000475E-02 0. -1.
</event>
<event>
 4   0  0.4958067E-02  0.9118800E+02  0.7818609E-02  0.1379984E+01
      -11   -1    0    0    0    0  0.00000000000E+00  0.00000000000E+00  0.35740347158E-01  0.35744000000E-01  0.51099999109E-03 0.  1.
       11   -1    0    0    0    0 -0.00000000000E+00 -0.00000000000E+00 -0.35740347158E-01  0.35744000000E-01  0.51099999109E-03 0. -1.
       22    1    1    2    0    0  0.18461209052E-01 -0.17943590159E-02  0.30546646640E-01  0.35737005818E-01  0.00000000000E+00 0.  1.
  9000001    1    1    2    0    0 -0.18461209052E-01  0.17943590159E-02 -0.30546646640E-01  0.35750994182E-01  0.10000000475E-02 0. -1.
</event>
<event>
 4   0  0.4958067E-02  0.9118800E+02  0.7818609E-02  0.1379984E+01
      -11   -1    0    0    0    0  0.00000000000E+00  0.00000000000E+00  0.35740347158E-01  0.35744000000E-01  0.51099999109E-03 0.  1.
       11   -1    0    0    0    0 -0.00000000000E+00 -0.00000000000E+00 -0.35740347158E-01  0.35744000000E-01  0.51099999109E-03 0. -1.
       22    1    1    2    0    0 -0.98433533378E-03 -0.50566636425E-02 -0.35363750107E-01  0.35737005818E-01  0.00000000000E+00 0. -1.
  9000001    1    1    2    0    0  0.98433533378E-03  0.50566636425E-02  0.35363750107E-01  0.35750994182E-01  0.10000000475E-02 0.  1.
</event>
<event>
 4   0  0.4958067E-02  0.9118800E+02  0.7818609E-02  0.1379984E+01
      -11   -1    0    0    0    0  0.00000000000E+00  0.00000000000E+00  0.35740347158E-01  0.35744000000E-01  0.51099999109E-03 0. -1.
       11   -1    0    0    0    0 -0.00000000000E+00 -0.00000000000E+00 -0.35740347158E-01  0.35744000000E-01  0.51099999109E-03 0.  1.
       22    1    1    2    0    0 -0.63756402909E-02  0.88134669371E-02  0.34041263142E-01  0.35737005818E-01  0.00000000000E+00 0. -1.
  9000001    1    1    2    0    0  0.63756402909E-02 -0.88134669371E-02 -0.34041263142E-01  0.35750994182E-01  0.10000000475E-02 0.  1.
</event>
<event>
 4   0  0.4958067E-02  0.9118800E+02  0.7818609E-02  0.1379984E+01
      -11   -1    0    0    0    0  0.00000000000E+00  0.00000000000E+00  0.35740347158E-01  0.35744000000E-01  0.51099999109E-03 0.  1.
       11   -1    0    0    0    0 -0.00000000000E+00 -0.00000000000E+00 -0.35740347158E-01  0.35744000000E-01  0.51099999109E-03 0. -1.
       22    1    1    2    0    0  0.25617818260E-02  0.21037337205E-02 -0.35582933594E-01  0.35737005818E-01  0.00000000000E+00 0. -1.
  9000001    1    1    2    0    0 -0.25617818260E-02 -0.21037337205E-02  0.35582933594E-01  0.35750994182E-01  0.10000000475E-02 0.  1.
</event>
<event>
 4   0  0.4958067E-02  0.9118800E+02  0.7818609E-02  0.1379984E+01
      -11   -1    0    0    0    0  0.00000000000E+00  0.00000000000E+00  0.35740347158E-01  0.35744000000E-01  0.51099999109E-03 0.  1.
       11   -1    0    0    0    0 -0.00000000000E+00 -0.00000000000E+00 -0.35740347158E-01  0.35744000000E-01  0.51099999109E-03 0. -1.
       22    1    1    2    0    0 -0.11953366951E-01  0.85021812578E-02  0.32587781718E-01  0.35737005818E-01  0.00000000000E+00 0.  1.
  9000001    1    1    2    0    0  0.11953366951E-01 -0.85021812578E-02 -0.32587781718E-01  0.35750994182E-01  0.10000000475E-02 0. -1.
</event>
<event>
 4   0  0.4958067E-02  0.9118800E+02  0.7818609E-02  0.1379984E+01
      -11   -1    0    0    0    0  0.00000000000E+00  0.00000000000E+00  0.35740347158E-01  0.35744000000E-01  0.51099999109E-03 0. -1.
       11   -1    0    0    0    0 -0.00000000000E+00 -0.00000000000E+00 -0.35740347158E-01  0.35744000000E-01  0.51099999109E-03 0.  1.
       22    1    1    2    0    0 -0.12717485104E-01  0.20422735194E-02  0.33335090766E-01  0.35737005818E-01  0.00000000000E+00 0. -1.
  9000001    1    1    2    0    0  0.12717485104E-01 -0.20422735194E-02 -0.33335090766E-01  0.35750994182E-01  0.10000000475E-02 0.  1.
</event>
<event>
 4   0  0.4958067E-02  0.9118800E+02  0.7818609E-02  0.1379984E+01
      -11   -1    0    0    0    0  0.00000000000E+00  0.00000000000E+00  0.35740347158E-01  0.35744000000E-01  0.51099999109E-03 0.  1.
       11   -1    0    0    0    0 -0.00000000000E+00 -0.00000000000E+00 -0.35740347158E-01  0.35744000000E-01  0.51099999109E-03 0. -1.
       22    1    1    2    0    0  0.21227095709E-01 -0.26625385945E-01 -0.10845866304E-01  0.35737005818E-01  0.00000000000E+00 0. -1.
  9000001    1    1    2    0    0 -0.21227095709E-01  0.26625385945E-01  0.10845866304E-01  0.35750994182E-01  0.10000000475E-02 0.  1.
</event>
<event>
 4   0  0.4958067E-02  0.9118800E+02  0.7818609E-02  0.1379984E+01
      -11   -1    0    0    0    0  0.00000000000E+00  0.00000000000E+00  0.35740347158E-01  0.35744000000E-01  0.51099999109E-03 0.  1.
       11   -1    0    0    0    0 -0.00000000000E+00 -0.00000000000E+00 -0.35740347158E-01  0.35744000000E-01  0.51099999109E-03 0. -1.
       22    1    1    2    0    0 -0.13663039884E-01 -0.15621882914E-02 -0.32985064707E-01  0.35737005818E-01  0.00000000000E+00 0. -1.
  9000001    1    1    2    0    0  0.13663039884E-01  0.15621882914E-02  0.32985064707E-01  0.35750994182E-01  0.10000000475E-02 0.  1.
</event>
<event>
 4   0  0.4958067E-02  0.9118800E+02  0.7818609E-02  0.1379984E+01
      -11   -1    0    0    0    0  0.00000000000E+00  0.00000000000E+00  0.35740347158E-01  0.35744000000E-01  0.51099999109E-03 0.  1.
       11   -1    0    0    0    0 -0.00000000000E+00 -0.00000000000E+00 -0.35740347158E-01  0.35744000000E-01  0.51099999109E-03 0. -1.
       22    1    1    2    0    0  0.68019354203E-02 -0.30765357950E-01  0.16862977484E-01  0.35737005818E-01  0.00000000000E+00 0.  1.
  9000001    1    1    2    0    0 -0.68019354203E-02  0.30765357950E-01 -0.16862977484E-01  0.35750994182E-01  0.10000000475E-02 0. -1.
</event>
<event>
 4   0  0.4958067E-02  0.9118800E+02  0.7818609E-02  0.1379984E+01
      -11   -1    0    0    0    0  0.00000000000E+00  0.00000000000E+00  0.35740347158E-01  0.35744000000E-01  0.51099999109E-03 0.  1.
       11   -1    0    0    0    0 -0.00000000000E+00 -0.00000000000E+00 -0.35740347158E-01  0.35744000000E-01  0.51099999109E-03 0. -1.
       22    1    1    2    0    0 -0.14770842092E-02 -0.29427938058E-02 -0.35584993631E-01  0.35737005818E-01  0.00000000000E+00 0. -1.
  9000001    1    1    2    0    0  0.14770842092E-02  0.29427938058E-02  0.35584993631E-01  0.35750994182E-01  0.10000000475E-02 0.  1.
</event>
<event>
 4   0  0.4958067E-02  0.9118800E+02  0.7818609E-02  0.1379984E+01
      -11   -1    0    0    0    0  0.00000000000E+00  0.00000000000E+00  0.35740347158E-01  0.35744000000E-01  0.51099999109E-03 0.  1.
       11   -1    0    0    0    0 -0.00000000000E+00 -0.00000000000E+00 -0.35740347158E-01  0.35744000000E-01  0.51099999109E-03 0. -1.
       22    1    1    2    0    0 -0.14183702623E-01  0.48046761006E-02 -0.32447977631E-01  0.35737005818E-01  0.00000000000E+00 0. -1.
  9000001    1    1    2    0    0  0.14183702623E-01 -0.48046761006E-02  0.32447977631E-01  0.35750994182E-01  0.10000000475E-02 0.  1.
</event>
<event>
 4   0  0.4958067E-02  0.9118800E+02  0.7818609E-02  0.1379984E+01
      -11   -1    0    0    0    0  0.00000000000E+00  0.00000000000E+00  0.35740347158E-01  0.35744000000E-01  0.51099999109E-03 0.  1.
       11   -1    0    0    0    0 -0.00000000000E+00 -0.00000000000E+00 -0.35740347158E-01  0.35744000000E-01  0.51099999109E-03 0. -1.
       22    1    1    2    0    0 -0.74830297908E-02 -0.33049784965E-01  0.11351192175E-01  0.35737005818E-01  0.00000000000E+00 0.  1.
  9000001    1    1    2    0    0  0.74830297908E-02  0.33049784965E-01 -0.11351192175E-01  0.35750994182E-01  0.10000000475E-02 0. -1.
</event>
<event>
 4   0  0.4958067E-02  0.9118800E+02  0.7818609E-02  0.1379984E+01
      -11   -1    0    0    0    0  0.00000000000E+00  0.00000000000E+00  0.35740347158E-01  0.35744000000E-01  0.51099999109E-03 0. -1.
       11   -1    0    0    0    0 -0.00000000000E+00 -0.00000000000E+00 -0.35740347158E-01  0.35744000000E-01  0.51099999109E-03 0.  1.
       22    1    1    2    0    0 -0.24227639832E-02 -0.14763269362E-01 -0.32454732741E-01  0.35737005818E-01  0.00000000000E+00 0.  1.
  9000001    1    1    2    0    0  0.24227639832E-02  0.14763269362E-01  0.32454732741E-01  0.35750994182E-01  0.10000000475E-02 0. -1.
</event>
<event>
 4   0  0.4958067E-02  0.9118800E+02  0.7818609E-02  0.1379984E+01
      -11   -1    0    0    0    0  0.00000000000E+00  0.00000000000E+00  0.35740347158E-01  0.35744000000E-01  0.51099999109E-03 0.  1.
       11   -1    0    0    0    0 -0.00000000000E+00 -0.00000000000E+00 -0.35740347158E-01  0.35744000000E-01  0.51099999109E-03 0. -1.
       22    1    1    2    0    0  0.60223940786E-02  0.23946525961E-01 -0.25834632741E-01  0.35737005818E-01  0.00000000000E+00 0. -1.
  9000001    1    1    2    0    0 -0.60223940786E-02 -0.23946525961E-01  0.25834632741E-01  0.35750994182E-01  0.10000000475E-02 0.  1.
</event>
<event>
 4   0  0.4958067E-02  0.9118800E+02  0.7818609E-02  0.1379984E+01
      -11   -1    0    0    0    0  0.00000000000E+00  0.00000000000E+00  0.35740347158E-01  0.35744000000E-01  0.51099999109E-03 0. -1.
       11   -1    0    0    0    0 -0.00000000000E+00 -0.00000000000E+00 -0.35740347158E-01  0.35744000000E-01  0.51099999109E-03 0.  1.
       22    1    1    2    0    0 -0.55860770175E-02  0.21438810266E-02 -0.35232557423E-01  0.35737005818E-01  0.00000000000E+00 0.  1.
  9000001    1    1    2    0    0  0.55860770175E-02 -0.21438810266E-02  0.35232557423E-01  0.35750994182E-01  0.10000000475E-02 0. -1.
</event>
<event>
 4   0  0.4958067E-02  0.9118800E+02  0.7818609E-02  0.1379984E+01
      -11   -1    0    0    0    0  0.00000000000E+00  0.00000000000E+00  0.35740347158E-01  0.35744000000E-01  0.51099999109E-03 0.  1.
       11   -1    0    0    0    0 -0.00000000000E+00 -0.00000000000E+00 -0.35740347158E-01  0.35744000000E-01  0.51099999109E-03 0. -1.
       22    1    1    2    0    0  0.25335917419E-02 -0.31893581169E-02  0.35504119375E-01  0.35737005818E-01  0.00000000000E+00 0.  1.
  9000001    1    1    2    0    0 -0.25335917419E-02  0.31893581169E-02 -0.35504119375E-01  0.35750994182E-01  0.10000000475E-02 0. -1.
</event>
<event>
 4   0  0.4958067E-02  0.9118800E+02  0.7818609E-02  0.1379984E+01
      -11   -1    0    0    0    0  0.00000000000E+00  0.00000000000E+00  0.35740347158E-01  0.35744000000E-01  0.51099999109E-03 0. -1.
       11   -1    0    0    0    0 -0.00000000000E+00 -0.00000000000E+00 -0.35740347158E-01  0.35744000000E-01  0.51099999109E-03 0.  1.
       22    1    1    2    0    0 -0.14336261613E-02  0.17696785307E-01  0.31014546437E-01  0.35737005818E-01  0.00000000000E+00 0. -1.
  9000001    1    1    2    0    0  0.14336261613E-02 -0.17696785307E-01 -0.31014546437E-01  0.35750994182E-01  0.10000000475E-02 0.  1.
</event>
<event>
 4   0  0.4958067E-02  0.9118800E+02  0.7818609E-02  0.1379984E+01
      -11   -1    0    0    0    0  0.00000000000E+00  0.00000000000E+00  0.35740347158E-01  0.35744000000E-01  0.51099999109E-03 0. -1.
       11   -1    0    0    0    0 -0.00000000000E+00 -0.00000000000E+00 -0.35740347158E-01  0.35744000000E-01  0.51099999109E-03 0.  1.
       22    1    1    2    0    0  0.32201843095E-01 -0.13193975798E-01 -0.81298148053E-02  0.35737005818E-01  0.00000000000E+00 0.  1.
  9000001    1    1    2    0    0 -0.32201843095E-01  0.13193975798E-01  0.81298148053E-02  0.35750994182E-01  0.10000000475E-02 0. -1.
</event>
<event>
 4   0  0.4958067E-02  0.9118800E+02  0.7818609E-02  0.1379984E+01
      -11   -1    0    0    0    0  0.00000000000E+00  0.00000000000E+00  0.35740347158E-01  0.35744000000E-01  0.51099999109E-03 0. -1.
       11   -1    0    0    0    0 -0.00000000000E+00 -0.00000000000E+00 -0.35740347158E-01  0.35744000000E-01  0.51099999109E-03 0.  1.
       22    1    1    2    0    0  0.55306355613E-02  0.65889664854E-02 -0.34686181338E-01  0.35737005818E-01  0.00000000000E+00 0.  1.
  9000001    1    1    2    0    0 -0.55306355613E-02 -0.65889664854E-02  0.34686181338E-01  0.35750994182E-01  0.10000000475E-02 0. -1.
</event>
<event>
 4   0  0.4958067E-02  0.9118800E+02  0.7818609E-02  0.1379984E+01
      -11   -1    0    0    0    0  0.00000000000E+00  0.00000000000E+00  0.35740347158E-01  0.35744000000E-01  0.51099999109E-03 0. -1.
       11   -1    0    0    0    0 -0.00000000000E+00 -0.00000000000E+00 -0.35740347158E-01  0.35744000000E-01  0.51099999109E-03 0.  1.
       22    1    1    2    0    0  0.41085860084E-02 -0.12947937761E-01 -0.33054561162E-01  0.35737005818E-01  0.00000000000E+00 0.  1.
  9000001    1    1    2    0    0 -0.41085860084E-02  0.12947937761E-01  0.33054561162E-01  0.35750994182E-01  0.10000000475E-02 0. -1.
</event>
<event>
 4   0  0.4958067E-02  0.9118800E+02  0.7818609E-02  0.1379984E+01
      -11   -1    0    0    0    0  0.00000000000E+00  0.00000000000E+00  0.35740347158E-01  0.35744000000E-01  0.51099999109E-03 0. -1.
       11   -1    0    0    0    0 -0.00000000000E+00 -0.00000000000E+00 -0.35740347158E-01  0.35744000000E-01  0.51099999109E-03 0.  1.
       22    1    1    2    0    0 -0.77978336258E-02 -0.24390061419E-02  0.34790496183E-01  0.35737005818E-01  0.00000000000E+00 0. -1.
  9000001    1    1    2    0    0  0.77978336258E-02  0.24390061419E-02 -0.34790496183E-01  0.35750994182E-01  0.10000000475E-02 0.  1.
</event>
<event>
 4   0  0.4958067E-02  0.9118800E+02  0.7818609E-02  0.1379984E+01
      -11   -1    0    0    0    0  0.00000000000E+00  0.00000000000E+00  0.35740347158E-01  0.35744000000E-01  0.51099999109E-03 0.  1.
       11   -1    0    0    0    0 -0.00000000000E+00 -0.00000000000E+00 -0.35740347158E-01  0.35744000000E-01  0.51099999109E-03 0. -1.
       22    1    1    2    0    0  0.88168471483E-02 -0.29864958295E-01 -0.17535137788E-01  0.35737005818E-01  0.00000000000E+00 0.  1.
  9000001    1    1    2    0    0 -0.88168471483E-02  0.29864958295E-01  0.17535137788E-01  0.35750994182E-01  0.10000000475E-02 0. -1.
</event>
<event>
 4   0  0.4958067E-02  0.9118800E+02  0.7818609E-02  0.1379984E+01
      -11   -1    0    0    0    0  0.00000000000E+00  0.00000000000E+00  0.35740347158E-01  0.35744000000E-01  0.51099999109E-03 0. -1.
       11   -1    0    0    0    0 -0.00000000000E+00 -0.00000000000E+00 -0.35740347158E-01  0.35744000000E-01  0.51099999109E-03 0.  1.
       22    1    1    2    0    0 -0.62020112746E-02 -0.12843780013E-01 -0.32767452693E-01  0.35737005818E-01  0.00000000000E+00 0.  1.
  9000001    1    1    2    0    0  0.62020112746E-02  0.12843780013E-01  0.32767452693E-01  0.35750994182E-01  0.10000000475E-02 0. -1.
</event>
<event>
 4   0  0.4958067E-02  0.9118800E+02  0.7818609E-02  0.1379984E+01
      -11   -1    0    0    0    0  0.00000000000E+00  0.00000000000E+00  0.35740347158E-01  0.35744000000E-01  0.51099999109E-03 0.  1.
       11   -1    0    0    0    0 -0.00000000000E+00 -0.00000000000E+00 -0.35740347158E-01  0.35744000000E-01  0.51099999109E-03 0. -1.
       22    1    1    2    0    0  0.39513004098E-02 -0.26822207175E-02 -0.35416472184E-01  0.35737005818E-01  0.00000000000E+00 0. -1.
  9000001    1    1    2    0    0 -0.39513004098E-02  0.26822207175E-02  0.35416472184E-01  0.35750994182E-01  0.10000000475E-02 0.  1.
</event>
<event>
 4   0  0.4958067E-02  0.9118800E+02  0.7818609E-02  0.1379984E+01
      -11   -1    0    0    0    0  0.00000000000E+00  0.00000000000E+00  0.35740347158E-01  0.35744000000E-01  0.51099999109E-03 0. -1.
       11   -1    0    0    0    0 -0.00000000000E+00 -0.00000000000E+00 -0.35740347158E-01  0.35744000000E-01  0.51099999109E-03 0.  1.
       22    1    1    2    0    0  0.18867000232E-02  0.33224898300E-02 -0.35532168654E-01  0.35737005818E-01  0.00000000000E+00 0.  1.
  9000001    1    1    2    0    0 -0.18867000232E-02 -0.33224898300E-02  0.35532168654E-01  0.35750994182E-01  0.10000000475E-02 0. -1.
</event>
<event>
 4   0  0.4958067E-02  0.9118800E+02  0.7818609E-02  0.1379984E+01
      -11   -1    0    0    0    0  0.00000000000E+00  0.00000000000E+00  0.35740347158E-01  0.35744000000E-01  0.51099999109E-03 0.  1.
       11   -1    0    0    0    0 -0.00000000000E+00 -0.00000000000E+00 -0.35740347158E-01  0.35744000000E-01  0.51099999109E-03 0. -1.
       22    1    1    2    0    0 -0.26270217023E-01 -0.21780902443E-01  0.10611388751E-01  0.35737005818E-01  0.00000000000E+00 0.  1.
  9000001    1    1    2    0    0  0.26270217023E-01  0.21780902443E-01 -0.10611388751E-01  0.35750994182E-01  0.10000000475E-02 0. -1.
</event>
<event>
 4   0  0.4958067E-02  0.9118800E+02  0.7818609E-02  0.1379984E+01
      -11   -1    0    0    0    0  0.00000000000E+00  0.00000000000E+00  0.35740347158E-01  0.35744000000E-01  0.51099999109E-03 0. -1.
       11   -1    0    0    0    0 -0.00000000000E+00 -0.00000000000E+00 -0.35740347158E-01  0.35744000000E-01  0.51099999109E-03 0.  1.
       22    1    1    2    0    0 -0.15828789929E-02  0.16086860997E-01  0.31872260388E-01  0.35737005818E-01  0.00000000000E+00 0. -1.
  9000001    1    1    2    0    0  0.15828789929E-02 -0.16086860997E-01 -0.31872260388E-01  0.35750994182E-01  0.10000000475E-02 0.  1.
</event>
<event>
 4   0  0.4958067E-02  0.9118800E+02  0.7818609E-02  0.1379984E+01
      -11   -1    0    0    0    0  0.00000000000E+00  0.00000000000E+00  0.35740347158E-01  0.35744000000E-01  0.51099999109E-03 0. -1.
       11   -1    0    0    0    0 -0.00000000000E+00 -0.00000000000E+00 -0.35740347158E-01  0.35744000000E-01  0.51099999109E-03 0.  1.
       22    1    1    2    0    0 -0.37685242919E-02 -0.29337895524E-02  0.35416446581E-01  0.35737005818E-01  0.00000000000E+00 0. -1.
  9000001    1    1    2    0    0  0.37685242919E-02  0.29337895524E-02 -0.35416446581E-01  0.35750994182E-01  0.10000000475E-02 0.  1.
</event>
<event>
 4   0  0.4958067E-02  0.9118800E+02  0.7818609E-02  0.1379984E+01
      -11   -1    0    0    0    0  0.00000000000E+00  0.00000000000E+00  0.35740347158E-01  0.35744000000E-01  0.51099999109E-03 0.  1.
       11   -1    0    0    0    0 -0.00000000000E+00 -0.00000000000E+00 -0.35740347158E-01  0.35744000000E-01  0.51099999109E-03 0. -1.
       22    1    1    2    0    0  0.10383879864E-01  0.34036012036E-01 -0.32952251069E-02  0.35737005818E-01  0.00000000000E+00 0.  1.
  9000001    1    1    2    0    0 -0.10383879864E-01 -0.34036012036E-01  0.32952251069E-02  0.35750994182E-01  0.10000000475E-02 0. -1.
</event>
<event>
 4   0  0.4958067E-02  0.9118800E+02  0.7818609E-02  0.1379984E+01
      -11   -1    0    0    0    0  0.00000000000E+00  0.00000000000E+00  0.35740347158E-01  0.35744000000E-01  0.51099999109E-03 0. -1.
       11   -1    0    0    0    0 -0.00000000000E+00 -0.00000000000E+00 -0.35740347158E-01  0.35744000000E-01  0.51099999109E-03 0.  1.
       22    1    1    2    0    0  0.45847483888E-02 -0.20441034926E-01 -0.28953026755E-01  0.35737005818E-01  0.00000000000E+00 0.  1.
  9000001    1    1    2    0    0 -0.45847483888E-02  0.20441034926E-01  0.28953026755E-01  0.35750994182E-01  0.10000000475E-02 0. -1.
</event>
<event>
 4   0  0.4958067E-02  0.9118800E+02  0.7818609E-02  0.1379984E+01
      -11   -1    0    0    0    0  0.00000000000E+00  0.00000000000E+00  0.35740347158E-01  0.35744000000E-01  0.51099999109E-03 0. -1.
       11   -1    0    0    0    0 -0.00000000000E+00 -0.00000000000E+00 -0.35740347158E-01  0.35744000000E-01  0.51099999109E-03 0.  1.
       22    1    1    2    0    0 -0.66556715977E-02  0.37422486305E-02  0.34911762998E-01  0.35737005818E-01  0.00000000000E+00 0. -1.
  9000001    1    1    2    0    0  0.66556715977E-02 -0.37422486305E-02 -0.34911762998E-01  0.35750994182E-01  0.10000000475E-02 0.  1.
</event>
<event>
 4   0  0.4958067E-02  0.9118800E+02  0.7818609E-02  0.1379984E+01
      -11   -1    0    0    0    0  0.00000000000E+00  0.00000000000E+00  0.35740347158E-01  0.35744000000E-01  0.51099999109E-03 0.  1.
       11   -1    0    0    0    0 -0.00000000000E+00 -0.00000000000E+00 -0.35740347158E-01  0.35744000000E-01  0.51099999109E-03 0. -1.
       22    1    1    2    0    0 -0.27061637828E-01  0.20817933228E-01 -0.10555330363E-01  0.35737005818E-01  0.00000000000E+00 0. -1.
  9000001    1    1    2    0    0  0.27061637828E-01 -0.20817933228E-01  0.10555330363E-01  0.35750994182E-01  0.10000000475E-02 0.  1.
</event>
<event>
 4   0  0.4958067E-02  0.9118800E+02  0.7818609E-02  0.1379984E+01
      -11   -1    0    0    0    0  0.00000000000E+00  0.00000000000E+00  0.35740347158E-01  0.35744000000E-01  0.51099999109E-03 0.  1.
       11   -1    0    0    0    0 -0.00000000000E+00 -0.00000000000E+00 -0.35740347158E-01  0.35744000000E-01  0.51099999109E-03 0. -1.
       22    1    1    2    0    0  0.15904305400E-01 -0.28578366387E-01 -0.14403597789E-01  0.35737005818E-01  0.00000000000E+00 0. -1.
  9000001    1    1    2    0    0 -0.15904305400E-01  0.28578366387E-01  0.14403597789E-01  0.35750994182E-01  0.10000000475E-02 0.  1.
</event>
<event>
 4   0  0.4958067E-02  0.9118800E+02  0.7818609E-02  0.1379984E+01
      -11   -1    0    0    0    0  0.00000000000E+00  0.00000000000E+00  0.35740347158E-01  0.35744000000E-01  0.51099999109E-03 0.  1.
       11   -1    0    0    0    0 -0.00000000000E+00 -0.00000000000E+00 -0.35740347158E-01  0.35744000000E-01  0.51099999109E-03 0. -1.
       22    1    1    2    0    0 -0.70468721197E-02  0.22495963706E-01 -0.26859017017E-01  0.35737005818E-01  0.00000000000E+00 0. -1.
  9000001    1    1    2    0    0  0.70468721197E-02 -0.22495963706E-01  0.26859017017E-01  0.35750994182E-01  0.10000000475E-02 0.  1.
</event>
<event>
 4   0  0.4958067E-02  0.9118800E+02  0.7818609E-02  0.1379984E+01
      -11   -1    0    0    0    0  0.00000000000E+00  0.00000000000E+00  0.35740347158E-01  0.35744000000E-01  0.51099999109E-03 0.  1.
       11   -1    0    0    0    0 -0.00000000000E+00 -0.00000000000E+00 -0.35740347158E-01  0.35744000000E-01  0.51099999109E-03 0. -1.
       22    1    1    2    0    0  0.36237587256E-02 -0.73480686439E-02 -0.34785167022E-01  0.35737005818E-01  0.00000000000E+00 0. -1.
  9000001    1    1    2    0    0 -0.36237587256E-02  0.73480686439E-02  0.34785167022E-01  0.35750994182E-01  0.10000000475E-02 0.  1.
</event>
<event>
 4   0  0.4958067E-02  0.9118800E+02  0.7818609E-02  0.1379984E+01
      -11   -1    0    0    0    0  0.00000000000E+00  0.00000000000E+00  0.35740347158E-01  0.35744000000E-01  0.51099999109E-03 0.  1.
       11   -1    0    0    0    0 -0.00000000000E+00 -0.00000000000E+00 -0.35740347158E-01  0.35744000000E-01  0.51099999109E-03 0. -1.
       22    1    1    2    0    0  0.50563014092E-02  0.10022166546E-02 -0.35363299658E-01  0.35737005818E-01  0.00000000000E+00 0. -1.
  9000001    1    1    2    0    0 -0.50563014092E-02 -0.10022166546E-02  0.35363299658E-01  0.35750994182E-01  0.10000000475E-02 0.  1.
</event>
<event>
 4   0  0.4958067E-02  0.9118800E+02  0.7818609E-02  0.1379984E+01
      -11   -1    0    0    0    0  0.00000000000E+00  0.00000000000E+00  0.35740347158E-01  0.35744000000E-01  0.51099999109E-03 0.  1.
       11   -1    0    0    0    0 -0.00000000000E+00 -0.00000000000E+00 -0.35740347158E-01  0.35744000000E-01  0.51099999109E-03 0. -1.
       22    1    1    2    0    0 -0.13812610802E-02 -0.15400087873E-01 -0.32218985027E-01  0.35737005818E-01  0.00000000000E+00 0. -1.
  9000001    1    1    2    0    0  0.13812610802E-02  0.15400087873E-01  0.32218985027E-01  0.35750994182E-01  0.10000000475E-02 0.  1.
</event>
<event>
 4   0  0.4958067E-02  0.9118800E+02  0.7818609E-02  0.1379984E+01
      -11   -1    0    0    0    0  0.00000000000E+00  0.00000000000E+00  0.35740347158E-01  0.35744000000E-01  0.51099999109E-03 0.  1.
       11   -1    0    0    0    0 -0.00000000000E+00 -0.00000000000E+00 -0.35740347158E-01  0.35744000000E-01  0.51099999109E-03 0. -1.
       22    1    1    2    0    0 -0.60122240055E-02  0.62476327848E-02 -0.34669205817E-01  0.35737005818E-01  0.00000000000E+00 0. -1.
  9000001    1    1    2    0    0  0.60122240055E-02 -0.62476327848E-02  0.34669205817E-01  0.35750994182E-01  0.10000000475E-02 0.  1.
</event>
<event>
 4   0  0.4958067E-02  0.9118800E+02  0.7818609E-02  0.1379984E+01
      -11   -1    0    0    0    0  0.00000000000E+00  0.00000000000E+00  0.35740347158E-01  0.35744000000E-01  0.51099999109E-03 0.  1.
       11   -1    0    0    0    0 -0.00000000000E+00 -0.00000000000E+00 -0.35740347158E-01  0.35744000000E-01  0.51099999109E-03 0. -1.
       22    1    1    2    0    0  0.10600962607E-03  0.75904709159E-02  0.34921441810E-01  0.35737005818E-01  0.00000000000E+00 0.  1.
  9000001    1    1    2    0    0 -0.10600962607E-03 -0.75904709159E-02 -0.34921441810E-01  0.35750994182E-01  0.10000000475E-02 0. -1.
</event>
<event>
 4   0  0.4958067E-02  0.9118800E+02  0.7818609E-02  0.1379984E+01
      -11   -1    0    0    0    0  0.00000000000E+00  0.00000000000E+00  0.35740347158E-01  0.35744000000E-01  0.51099999109E-03 0. -1.
       11   -1    0    0    0    0 -0.00000000000E+00 -0.00000000000E+00 -0.35740347158E-01  0.35744000000E-01  0.51099999109E-03 0.  1.
       22    1    1    2    0    0 -0.42803867367E-02  0.91717343815E-02  0.34273767851E-01  0.35737005818E-01  0.00000000000E+00 0. -1.
  9000001    1    1    2    0    0  0.42803867367E-02 -0.91717343815E-02 -0.34273767851E-01  0.35750994182E-01  0.10000000475E-02 0.  1.
</event>
<event>
 4   0  0.4958067E-02  0.9118800E+02  0.7818609E-02  0.1379984E+01
      -11   -1    0    0    0    0  0.00000000000E+00  0.00000000000E+00  0.35740347158E-01  0.35744000000E-01  0.51099999109E-03 0.  1.
       11   -1    0    0    0    0 -0.00000000000E+00 -0.00000000000E+00 -0.35740347158E-01  0.35744000000E-01  0.51099999109E-03 0. -1.
       22    1    1    2    0    0  0.31134583247E-02  0.21956134347E-02 -0.35533353962E-01  0.35737005818E-01  0.00000000000E+00 0. -1.
  9000001    1    1    2    0    0 -0.31134583247E-02 -0.21956134347E-02  0.35533353962E-01  0.35750994182E-01  0.10000000475E-02 0.  1.
</event>
<event>
 4   0  0.4958067E-02  0.9118800E+02  0.7818609E-02  0.1379984E+01
      -11   -1    0    0    0    0  0.00000000000E+00  0.00000000000E+00  0.35740347158E-01  0.35744000000E-01  0.51099999109E-03 0.  1.
       11   -1    0    0    0    0 -0.00000000000E+00 -0.00000000000E+00 -0.35740347158E-01  0.35744000000E-01  0.51099999109E-03 0. -1.
       22    1    1    2    0    0  0.57746881712E-02  0.11042637467E-01 -0.33493980342E-01  0.35737005818E-01  0.00000000000E+00 0. -1.
  9000001    1    1    2    0    0 -0.57746881712E-02 -0.11042637467E-01  0.33493980342E-01  0.35750994182E-01  0.10000000475E-02 0.  1.
</event>
<event>
 4   0  0.4958067E-02  0.9118800E+02  0.7818609E-02  0.1379984E+01
      -11   -1    0    0    0    0  0.00000000000E+00  0.00000000000E+00  0.35740347158E-01  0.35744000000E-01  0.51099999109E-03 0. -1.
       11   -1    0    0    0    0 -0.00000000000E+00 -0.00000000000E+00 -0.35740347158E-01  0.35744000000E-01  0.51099999109E-03 0.  1.
       22    1    1    2    0    0  0.27739110670E-01 -0.15052446149E-01  0.16766012915E-01  0.35737005818E-01  0.00000000000E+00 0. -1.
  9000001    1    1    2    0    0 -0.27739110670E-01  0.15052446149E-01 -0.16766012915E-01  0.35750994182E-01  0.10000000475E-02 0.  1.
</event>
<event>
 4   0  0.4958067E-02  0.9118800E+02  0.7818609E-02  0.1379984E+01
      -11   -1    0    0    0    0  0.00000000000E+00  0.00000000000E+00  0.35740347158E-01  0.35744000000E-01  0.51099999109E-03 0.  1.
       11   -1    0    0    0    0 -0.00000000000E+00 -0.00000000000E+00 -0.35740347158E-01  0.35744000000E-01  0.51099999109E-03 0. -1.
       22    1    1    2    0    0  0.21850618506E-02  0.44613897320E-02 -0.35390042261E-01  0.35737005818E-01  0.00000000000E+00 0. -1.
  9000001    1    1    2    0    0 -0.21850618506E-02 -0.44613897320E-02  0.35390042261E-01  0.35750994182E-01  0.10000000475E-02 0.  1.
</event>
<event>
 4   0  0.4958067E-02  0.9118800E+02  0.7818609E-02  0.1379984E+01
      -11   -1    0    0    0    0  0.00000000000E+00  0.00000000000E+00  0.35740347158E-01  0.35744000000E-01  0.51099999109E-03 0. -1.
       11   -1    0    0    0    0 -0.00000000000E+00 -0.00000000000E+00 -0.35740347158E-01  0.35744000000E-01  0.51099999109E-03 0.  1.
       22    1    1    2    0    0 -0.37451693207E-03  0.32436861449E-02 -0.35587523405E-01  0.35737005818E-01  0.00000000000E+00 0.  1.
  9000001    1    1    2    0    0  0.37451693207E-03 -0.32436861449E-02  0.35587523405E-01  0.35750994182E-01  0.10000000475E-02 0. -1.
</event>
<event>
 4   0  0.4958067E-02  0.9118800E+02  0.7818609E-02  0.1379984E+01
      -11   -1    0    0    0    0  0.00000000000E+00  0.00000000000E+00  0.35740347158E-01  0.35744000000E-01  0.51099999109E-03 0. -1.
       11   -1    0    0    0    0 -0.00000000000E+00 -0.00000000000E+00 -0.35740347158E-01  0.35744000000E-01  0.51099999109E-03 0.  1.
       22    1    1    2    0    0  0.14466650402E-01  0.45007961557E-02 -0.32366532792E-01  0.35737005818E-01  0.00000000000E+00 0.  1.
  9000001    1    1    2    0    0 -0.14466650402E-01 -0.45007961557E-02  0.32366532792E-01  0.35750994182E-01  0.10000000475E-02 0. -1.
</event>
<event>
 4   0  0.4958067E-02  0.9118800E+02  0.7818609E-02  0.1379984E+01
      -11   -1    0    0    0    0  0.00000000000E+00  0.00000000000E+00  0.35740347158E-01  0.35744000000E-01  0.51099999109E-03 0.  1.
       11   -1    0    0    0    0 -0.00000000000E+00 -0.00000000000E+00 -0.35740347158E-01  0.35744000000E-01  0.51099999109E-03 0. -1.
       22    1    1    2    0    0  0.19205736348E-01 -0.27655277034E-01  0.11977434132E-01  0.35737005818E-01  0.00000000000E+00 0.  1.
  9000001    1    1    2    0    0 -0.19205736348E-01  0.27655277034E-01 -0.11977434132E-01  0.35750994182E-01  0.10000000475E-02 0. -1.
</event>
<event>
 4   0  0.4958067E-02  0.9118800E+02  0.7818609E-02  0.1379984E+01
      -11   -1    0    0    0    0  0.00000000000E+00  0.00000000000E+00  0.35740347158E-01  0.35744000000E-01  0.51099999109E-03 0.  1.
       11   -1    0    0    0    0 -0.00000000000E+00 -0.00000000000E+00 -0.35740347158E-01  0.35744000000E-01  0.51099999109E-03 0. -1.
       22    1    1    2    0    0 -0.23870065816E-02  0.26823128801E-01  0.23493734182E-01  0.35737005818E-01  0.00000000000E+00 0.  1.
  9000001    1    1    2    0    0  0.23870065816E-02 -0.26823128801E-01 -0.23493734182E-01  0.35750994182E-01  0.10000000475E-02 0. -1.
</event>
<event>
 4   0  0.4958067E-02  0.9118800E+02  0.7818609E-02  0.1379984E+01
      -11   -1    0    0    0    0  0.00000000000E+00  0.00000000000E+00  0.35740347158E-01  0.35744000000E-01  0.51099999109E-03 0. -1.
       11   -1    0    0    0    0 -0.00000000000E+00 -0.00000000000E+00 -0.35740347158E-01  0.35744000000E-01  0.51099999109E-03 0.  1.
       22    1    1    2    0    0  0.11128031985E-02 -0.84680168036E-02 -0.34701411287E-01  0.35737005818E-01  0.00000000000E+00 0.  1.
  9000001    1    1    2    0    0 -0.11128031985E-02  0.84680168036E-02  0.34701411287E-01  0.35750994182E-01  0.10000000475E-02 0. -1.
</event>
<event>
 4   0  0.4958067E-02  0.9118800E+02  0.7818609E-02  0.1379984E+01
      -11   -1    0    0    0    0  0.00000000000E+00  0.00000000000E+00  0.35740347158E-01  0.35744000000E-01  0.51099999109E-03 0. -1.
       11   -1    0    0    0    0 -0.00000000000E+00 -0.00000000000E+00 -0.35740347158E-01  0.35744000000E-01  0.51099999109E-03 0.  1.
       22    1    1    2    0    0 -0.32792133056E-01  0.12000072241E-01 -0.76031480797E-02  0.35737005818E-01  0.00000000000E+00 0. -1.
  9000001    1    1    2    0    0  0.32792133056E-01 -0.12000072241E-01  0.76031480797E-02  0.35750994182E-01  0.10000000475E-02 0.  1.
</event>
<event>
 4   0  0.4958067E-02  0.9118800E+02  0.7818609E-02  0.1379984E+01
      -11   -1    0    0    0    0  0.00000000000E+00  0.00000000000E+00  0.35740347158E-01  0.35744000000E-01  0.51099999109E-03 0. -1.
       11   -1    0    0    0    0 -0.00000000000E+00 -0.00000000000E+00 -0.35740347158E-01  0.35744000000E-01  0.51099999109E-03 0.  1.
       22    1    1    2    0    0  0.46775757549E-02 -0.71559834129E-02  0.34699362693E-01  0.35737005818E-01  0.00000000000E+00 0. -1.
  9000001    1    1    2    0    0 -0.46775757549E-02  0.71559834129E-02 -0.34699362693E-01  0.35750994182E-01  0.10000000475E-02 0.  1.
</event>
<event>
 4   0  0.4958067E-02  0.9118800E+02  0.7818609E-02  0.1379984E+01
      -11   -1    0    0    0    0  0.00000000000E+00  0.00000000000E+00  0.35740347158E-01  0.35744000000E-01  0.51099999109E-03 0.  1.
       11   -1    0    0    0    0 -0.00000000000E+00 -0.00000000000E+00 -0.35740347158E-01  0.35744000000E-01  0.51099999109E-03 0. -1.
       22    1    1    2    0    0  0.38493769694E-02  0.46478876729E-04  0.35529054611E-01  0.35737005818E-01  0.00000000000E+00 0.  1.
  9000001    1    1    2    0    0 -0.38493769694E-02 -0.46478876729E-04 -0.35529054611E-01  0.35750994182E-01  0.10000000475E-02 0. -1.
</event>
<event>
 4   0  0.4958067E-02  0.9118800E+02  0.7818609E-02  0.1379984E+01
      -11   -1    0    0    0    0  0.00000000000E+00  0.00000000000E+00  0.35740347158E-01  0.35744000000E-01  0.51099999109E-03 0. -1.
       11   -1    0    0    0    0 -0.00000000000E+00 -0.00000000000E+00 -0.35740347158E-01  0.35744000000E-01  0.51099999109E-03 0.  1.
       22    1    1    2    0    0  0.27074896310E-01  0.12771105162E-01 -0.19518771673E-01  0.35737005818E-01  0.00000000000E+00 0.  1.
  9000001    1    1    2    0    0 -0.27074896310E-01 -0.12771105162E-01  0.19518771673E-01  0.35750994182E-01  0.10000000475E-02 0. -1.
</event>
<event>
 4   0  0.4958067E-02  0.9118800E+02  0.7818609E-02  0.1379984E+01
      -11   -1    0    0    0    0  0.00000000000E+00  0.00000000000E+00  0.35740347158E-01  0.35744000000E-01  0.51099999109E-03 0.  1.
       11   -1    0    0    0    0 -0.00000000000E+00 -0.00000000000E+00 -0.35740347158E-01  0.35744000000E-01  0.51099999109E-03 0. -1.
       22    1    1    2    0    0 -0.17560681218E-01  0.12140706682E-01  0.28659366729E-01  0.35737005818E-01  0.00000000000E+00 0. -1.
  9000001    1    1    2    0    0  0.17560681218E-01 -0.12140706682E-01 -0.28659366729E-01  0.35750994182E-01  0.10000000475E-02 0.  1.
</event>
<event>
 4   0  0.4958067E-02  0.9118800E+02  0.7818609E-02  0.1379984E+01
      -11   -1    0    0    0    0  0.00000000000E+00  0.00000000000E+00  0.35740347158E-01  0.35744000000E-01  0.51099999109E-03 0.  1.
       11   -1    0    0    0    0 -0.00000000000E+00 -0.00000000000E+00 -0.35740347158E-01  0.35744000000E-01  0.51099999109E-03 0. -1.
       22    1    1    2    0    0 -0.18883818722E-01  0.48856392597E-02 -0.29944373501E-01  0.35737005818E-01  0.00000000000E+00 0. -1.
  9000001    1    1    2    0    0  0.18883818722E-01 -0.48856392597E-02  0.29944373501E-01  0.35750994182E-01  0.10000000475E-02 0.  1.
</event>
<event>
 4   0  0.4958067E-02  0.9118800E+02  0.7818609E-02  0.1379984E+01
      -11   -1    0    0    0    0  0.00000000000E+00  0.00000000000E+00  0.35740347158E-01  0.35744000000E-01  0.51099999109E-03 0. -1.
       11   -1    0    0    0    0 -0.00000000000E+00 -0.00000000000E+00 -0.35740347158E-01  0.35744000000E-01  0.51099999109E-03 0.  1.
       22    1    1    2    0    0 -0.56487660909E-03  0.72830221567E-02 -0.34982453996E-01  0.35737005818E-01  0.00000000000E+00 0.  1.
  9000001    1    1    2    0    0  0.56487660909E-03 -0.72830221567E-02  0.34982453996E-01  0.35750994182E-01  0.10000000475E-02 0. -1.
</event>
<event>
 4   0  0.4958067E-02  0.9118800E+02  0.7818609E-02  0.1379984E+01
      -11   -1    0    0    0    0  0.00000000000E+00  0.00000000000E+00  0.35740347158E-01  0.35744000000E-01  0.51099999109E-03 0.  1.
       11   -1    0    0    0    0 -0.00000000000E+00 -0.00000000000E+00 -0.35740347158E-01  0.35744000000E-01  0.51099999109E-03 0. -1.
       22    1    1    2    0    0  0.51692530819E-02 -0.25654647484E-02  0.35267985455E-01  0.35737005818E-01  0.00000000000E+00 0.  1.
  9000001    1    1    2    0    0 -0.51692530819E-02  0.25654647484E-02 -0.35267985455E-01  0.35750994182E-01  0.10000000475E-02 0. -1.
</event>
<event>
 4   0  0.4958067E-02  0.9118800E+02  0.7818609E-02  0.1379984E+01
      -11   -1    0    0    0    0  0.00000000000E+00  0.00000000000E+00  0.35740347158E-01  0.35744000000E-01  0.51099999109E-03 0. -1.
       11   -1    0    0    0    0 -0.00000000000E+00 -0.00000000000E+00 -0.35740347158E-01  0.35744000000E-01  0.51099999109E-03 0.  1.
       22    1    1    2    0    0 -0.13001542915E-01  0.33187892729E-01 -0.25801633481E-02  0.35737005818E-01  0.00000000000E+00 0.  1.
  9000001    1    1    2    0    0  0.13001542915E-01 -0.33187892729E-01  0.25801633481E-02  0.35750994182E-01  0.10000000475E-02 0. -1.
</event>
<event>
 4   0  0.4958067E-02  0.9118800E+02  0.7818609E-02  0.1379984E+01
      -11   -1    0    0    0    0  0.00000000000E+00  0.00000000000E+00  0.35740347158E-01  0.35744000000E-01  0.51099999109E-03 0.  1.
       11   -1    0    0    0    0 -0.00000000000E+00 -0.00000000000E+00 -0.35740347158E-01  0.35744000000E-01  0.51099999109E-03 0. -1.
       22    1    1    2    0    0  0.10235292392E-01 -0.23134716429E-01 -0.25241974374E-01  0.35737005818E-01  0.00000000000E+00 0. -1.
  9000001    1    1    2    0    0 -0.10235292392E-01  0.23134716429E-01  0.25241974374E-01  0.35750994182E-01  0.10000000475E-02 0.  1.
</event>
<event>
 4   0  0.4958067E-02  0.9118800E+02  0.7818609E-02  0.1379984E+01
      -11   -1    0    0    0    0  0.00000000000E+00  0.00000000000E+00  0.35740347158E-01  0.35744000000E-01  0.51099999109E-03 0.  1.
       11   -1    0    0    0    0 -0.00000000000E+00 -0.00000000000E+00 -0.35740347158E-01  0.35744000000E-01  0.51099999109E-03 0. -1.
       22    1    1    2    0    0  0.38328390466E-02  0.19013242240E-02  0.35479964711E-01  0.35737005818E-01  0.00000000000E+00 0.  1.
  9000001    1    1    2    0    0 -0.38328390466E-02 -0.19013242240E-02 -0.35479964711E-01  0.35750994182E-01  0.10000000475E-02 0. -1.
</event>
<event>
 4   0  0.4958067E-02  0.9118800E+02  0.7818609E-02  0.1379984E+01
      -11   -1    0    0    0    0  0.00000000000E+00  0.00000000000E+00  0.35740347158E-01  0.35744000000E-01  0.51099999109E-03 0. -1.
       11   -1    0    0    0    0 -0.00000000000E+00 -0.00000000000E+00 -0.35740347158E-01  0.35744000000E-01  0.51099999109E-03 0.  1.
       22    1    1    2    0    0 -0.99403529477E-03  0.87377817243E-02  0.34638080912E-01  0.35737005818E-01  0.00000000000E+00 0. -1.
  9000001    1    1    2    0    0  0.99403529477E-03 -0.87377817243E-02 -0.34638080912E-01  0.35750994182E-01  0.10000000475E-02 0.  1.
</event>
<event>
 4   0  0.4958067E-02  0.9118800E+02  0.7818609E-02  0.1379984E+01
      -11   -1    0    0    0    0  0.00000000000E+00  0.00000000000E+00  0.35740347158E-01  0.35744000000E-01  0.51099999109E-03 0. -1.
       11   -1    0    0    0    0 -0.00000000000E+00 -0.00000000000E+00 -0.35740347158E-01  0.35744000000E-01  0.51099999109E-03 0.  1.
       22    1    1    2    0    0 -0.13551093413E-01 -0.30009832705E-03 -0.33066771738E-01  0.35737005818E-01  0.00000000000E+00 0.  1.
  9000001    1    1    2    0    0  0.13551093413E-01  0.30009832705E-03  0.33066771738E-01  0.35750994182E-01  0.10000000475E-02 0. -1.
</event>
<event>
 4   0  0.4958067E-02  0.9118800E+02  0.7818609E-02  0.1379984E+01
      -11   -1    0    0    0    0  0.00000000000E+00  0.00000000000E+00  0.35740347158E-01  0.35744000000E-01  0.51099999109E-03 0. -1.
       11   -1    0    0    0    0 -0.00000000000E+00 -0.00000000000E+00 -0.35740347158E-01  0.35744000000E-01  0.51099999109E-03 0.  1.
       22    1    1    2    0    0  0.17828506273E-01  0.55104396048E-02  0.30478074157E-01  0.35737005818E-01  0.00000000000E+00 0. -1.
  9000001    1    1    2    0    0 -0.17828506273E-01 -0.55104396048E-02 -0.30478074157E-01  0.35750994182E-01  0.10000000475E-02 0.  1.
</event>
<event>
 4   0  0.4958067E-02  0.9118800E+02  0.7818609E-02  0.1379984E+01
      -11   -1    0    0    0    0  0.00000000000E+00  0.00000000000E+00  0.35740347158E-01  0.35744000000E-01  0.51099999109E-03 0.  1.
       11   -1    0    0    0    0 -0.00000000000E+00 -0.00000000000E+00 -0.35740347158E-01  0.35744000000E-01  0.51099999109E-03 0. -1.
       22    1    1    2    0    0  0.87820585474E-02 -0.20481711529E-02  0.34580544060E-01  0.35737005818E-01  0.00000000000E+00 0.  1.
  9000001    1    1    2    0    0 -0.87820585474E-02  0.20481711529E-02 -0.34580544060E-01  0.35750994182E-01  0.10000000475E-02 0. -1.
</event>
<event>
 4   0  0.4958067E-02  0.9118800E+02  0.7818609E-02  0.1379984E+01
      -11   -1    0    0    0    0  0.00000000000E+00  0.00000000000E+00  0.35740347158E-01  0.35744000000E-01  0.51099999109E-03 0. -1.
       11   -1    0    0    0    0 -0.00000000000E+00 -0.00000000000E+00 -0.35740347158E-01  0.35744000000E-01  0.51099999109E-03 0.  1.
       22    1    1    2    0    0  0.60238573556E-02  0.88652199380E-02  0.34091855375E-01  0.35737005818E-01  0.00000000000E+00 0. -1.
  9000001    1    1    2    0    0 -0.60238573556E-02 -0.88652199380E-02 -0.34091855375E-01  0.35750994182E-01  0.10000000475E-02 0.  1.
</event>
<event>
 4   0  0.4958067E-02  0.9118800E+02  0.7818609E-02  0.1379984E+01
      -11   -1    0    0    0    0  0.00000000000E+00  0.00000000000E+00  0.35740347158E-01  0.35744000000E-01  0.51099999109E-03 0.  1.
       11   -1    0    0    0    0 -0.00000000000E+00 -0.00000000000E+00 -0.35740347158E-01  0.35744000000E-01  0.51099999109E-03 0. -1.
       22    1    1    2    0    0 -0.21488544100E-01  0.10075156545E-01 -0.26718294817E-01  0.35737005818E-01  0.00000000000E+00 0. -1.
  9000001    1    1    2    0    0  0.21488544100E-01 -0.10075156545E-01  0.26718294817E-01  0.35750994182E-01  0.10000000475E-02 0.  1.
</event>
<event>
 4   0  0.4958067E-02  0.9118800E+02  0.7818609E-02  0.1379984E+01
      -11   -1    0    0    0    0  0.00000000000E+00  0.00000000000E+00  0.35740347158E-01  0.35744000000E-01  0.51099999109E-03 0.  1.
       11   -1    0    0    0    0 -0.00000000000E+00 -0.00000000000E+00 -0.35740347158E-01  0.35744000000E-01  0.51099999109E-03 0. -1.
       22    1    1    2    0    0  0.83447875430E-02 -0.53575609844E-02 -0.34333578987E-01  0.35737005818E-01  0.00000000000E+00 0. -1.
  9000001    1    1    2    0    0 -0.83447875430E-02  0.53575609844E-02  0.34333578987E-01  0.35750994182E-01  0.10000000475E-02 0.  1.
</event>
<event>
 4   0  0.4958067E-02  0.9118800E+02  0.7818609E-02  0.1379984E+01
      -11   -1    0    0    0    0  0.00000000000E+00  0.00000000000E+00  0.35740347158E-01  0.35744000000E-01  0.51099999109E-03 0.  1.
       11   -1    0    0    0    0 -0.00000000000E+00 -0.00000000000E+00 -0.35740347158E-01  0.35744000000E-01  0.51099999109E-03 0. -1.
       22    1    1    2    0    0  0.16566228894E-01  0.11940810001E-01 -0.29327643984E-01  0.35737005818E-01  0.00000000000E+00 0. -1.
  9000001    1    1    2    0    0 -0.16566228894E-01 -0.11940810001E-01  0.29327643984E-01  0.35750994182E-01  0.10000000475E-02 0.  1.
</event>
<event>
 4   0  0.4958067E-02  0.9118800E+02  0.7818609E-02  0.1379984E+01
      -11   -1    0    0    0    0  0.00000000000E+00  0.00000000000E+00  0.35740347158E-01  0.35744000000E-01  0.51099999109E-03 0.  1.
       11   -1    0    0    0    0 -0.00000000000E+00 -0.00000000000E+00 -0.35740347158E-01  0.35744000000E-01  0.51099999109E-03 0. -1.
       22    1    1    2    0    0  0.15865303456E-01  0.20622941069E-01  0.24497347464E-01  0.35737005818E-01  0.00000000000E+00 0.  1.
  9000001    1    1    2    0    0 -0.15865303456E-01 -0.20622941069E-01 -0.24497347464E-01  0.35750994182E-01  0.10000000475E-02 0. -1.
</event>
<event>
 4   0  0.4958067E-02  0.9118800E+02  0.7818609E-02  0.1379984E+01
      -11   -1    0    0    0    0  0.00000000000E+00  0.00000000000E+00  0.35740347158E-01  0.35744000000E-01  0.51099999109E-03 0. -1.
       11   -1    0    0    0    0 -0.00000000000E+00 -0.00000000000E+00 -0.35740347158E-01  0.35744000000E-01  0.51099999109E-03 0.  1.
       22    1    1    2    0    0 -0.46046328709E-02 -0.14298112900E-01 -0.32426762226E-01  0.35737005818E-01  0.00000000000E+00 0.  1.
  9000001    1    1    2    0    0  0.46046328709E-02  0.14298112900E-01  0.32426762226E-01  0.35750994182E-01  0.10000000475E-02 0. -1.
</event>
<event>
 4   0  0.4958067E-02  0.9118800E+02  0.7818609E-02  0.1379984E+01
      -11   -1    0    0    0    0  0.00000000000E+00  0.00000000000E+00  0.35740347158E-01  0.35744000000E-01  0.51099999109E-03 0. -1.
       11   -1    0    0    0    0 -0.00000000000E+00 -0.00000000000E+00 -0.35740347158E-01  0.35744000000E-01  0.51099999109E-03 0.  1.
       22    1    1    2    0    0  0.38420455167E-02  0.36153593747E-02 -0.35345458658E-01  0.35737005818E-01  0.00000000000E+00 0.  1.
  9000001    1    1    2    0    0 -0.38420455167E-02 -0.36153593747E-02  0.35345458658E-01  0.35750994182E-01  0.10000000475E-02 0. -1.
</event>
<event>
 4   0  0.4958067E-02  0.9118800E+02  0.7818609E-02  0.1379984E+01
      -11   -1    0    0    0    0  0.00000000000E+00  0.00000000000E+00  0.35740347158E-01  0.35744000000E-01  0.51099999109E-03 0.  1.
       11   -1    0    0    0    0 -0.00000000000E+00 -0.00000000000E+00 -0.35740347158E-01  0.35744000000E-01  0.51099999109E-03 0. -1.
       22    1    1    2    0    0  0.14704816976E-02  0.19512150415E-01 -0.29903967206E-01  0.35737005818E-01  0.00000000000E+00 0. -1.
  9000001    1    1    2    0    0 -0.14704816976E-02 -0.19512150415E-01  0.29903967206E-01  0.35750994182E-01  0.10000000475E-02 0.  1.
</event>
<event>
 4   0  0.4958067E-02  0.9118800E+02  0.7818609E-02  0.1379984E+01
      -11   -1    0    0    0    0  0.00000000000E+00  0.00000000000E+00  0.35740347158E-01  0.35744000000E-01  0.51099999109E-03 0. -1.
       11   -1    0    0    0    0 -0.00000000000E+00 -0.00000000000E+00 -0.35740347158E-01  0.35744000000E-01  0.51099999109E-03 0.  1.
       22    1    1    2    0    0  0.11054993892E-01 -0.10571584728E-02  0.33967677443E-01  0.35737005818E-01  0.00000000000E+00 0. -1.
  9000001    1    1    2    0    0 -0.11054993892E-01  0.10571584728E-02 -0.33967677443E-01  0.35750994182E-01  0.10000000475E-02 0.  1.
</event>
<event>
 4   0  0.4958067E-02  0.9118800E+02  0.7818609E-02  0.1379984E+01
      -11   -1    0    0    0    0  0.00000000000E+00  0.00000000000E+00  0.35740347158E-01  0.35744000000E-01  0.51099999109E-03 0.  1.
       11   -1    0    0    0    0 -0.00000000000E+00 -0.00000000000E+00 -0.35740347158E-01  0.35744000000E-01  0.51099999109E-03 0. -1.
       22    1    1    2    0    0  0.56045435436E-02 -0.34136555151E-01  0.89676239310E-02  0.35737005818E-01  0.00000000000E+00 0. -1.
  9000001    1    1    2    0    0 -0.56045435436E-02  0.34136555151E-01 -0.89676239310E-02  0.35750994182E-01  0.10000000475E-02 0.  1.
</event>
<event>
 4   0  0.4958067E-02  0.9118800E+02  0.7818609E-02  0.1379984E+01
      -11   -1    0    0    0    0  0.00000000000E+00  0.00000000000E+00  0.35740347158E-01  0.35744000000E-01  0.51099999109E-03 0. -1.
       11   -1    0    0    0    0 -0.00000000000E+00 -0.00000000000E+00 -0.35740347158E-01  0.35744000000E-01  0.51099999109E-03 0.  1.
       22    1    1    2    0    0  0.17755539364E-01 -0.11868072650E-02 -0.30991384210E-01  0.35737005818E-01  0.00000000000E+00 0.  1.
  9000001    1    1    2    0    0 -0.17755539364E-01  0.11868072650E-02  0.30991384210E-01  0.35750994182E-01  0.10000000475E-02 0. -1.
</event>
<event>
 4   0  0.4958067E-02  0.9118800E+02  0.7818609E-02  0.1379984E+01
      -11   -1    0    0    0    0  0.00000000000E+00  0.00000000000E+00  0.35740347158E-01  0.35744000000E-01  0.51099999109E-03 0.  1.
       11   -1    0    0    0    0 -0.00000000000E+00 -0.00000000000E+00 -0.35740347158E-01  0.35744000000E-01  0.51099999109E-03 0. -1.
       22    1    1    2    0    0 -0.25599273566E-01 -0.37329428975E-02  0.24655139729E-01  0.35737005818E-01  0.00000000000E+00 0.  1.
  9000001    1    1    2    0    0  0.25599273566E-01  0.37329428975E-02 -0.24655139729E-01  0.35750994182E-01  0.10000000475E-02 0. -1.
</event>
<event>
 4   0  0.4958067E-02  0.9118800E+02  0.7818609E-02  0.1379984E+01
      -11   -1    0    0    0    0  0.00000000000E+00  0.00000000000E+00  0.35740347158E-01  0.35744000000E-01  0.51099999109E-03 0. -1.
       11   -1    0    0    0    0 -0.00000000000E+00 -0.00000000000E+00 -0.35740347158E-01  0.35744000000E-01  0.51099999109E-03 0.  1.
       22    1    1    2    0    0  0.30098541015E-02  0.36142135372E-02 -0.35426146046E-01  0.35737005818E-01  0.00000000000E+00 0.  1.
  9000001    1    1    2    0    0 -0.30098541015E-02 -0.36142135372E-02  0.35426146046E-01  0.35750994182E-01  0.10000000475E-02 0. -1.
</event>
<event>
 4   0  0.4958067E-02  0.9118800E+02  0.7818609E-02  0.1379984E+01
      -11   -1    0    0    0    0  0.00000000000E+00  0.00000000000E+00  0.35740347158E-01  0.35744000000E-01  0.51099999109E-03 0.  1.
       11   -1    0    0    0    0 -0.00000000000E+00 -0.00000000000E+00 -0.35740347158E-01  0.35744000000E-01  0.51099999109E-03 0. -1.
       22    1    1    2    0    0  0.81377303448E-03  0.29153114790E-02 -0.35608598924E-01  0.35737005818E-01  0.00000000000E+00 0. -1.
  9000001    1    1    2    0    0 -0.81377303448E-03 -0.29153114790E-02  0.35608598924E-01  0.35750994182E-01  0.10000000475E-02 0.  1.
</event>
<event>
 4   0  0.4958067E-02  0.9118800E+02  0.7818609E-02  0.1379984E+01
      -11   -1    0    0    0    0  0.00000000000E+00  0.00000000000E+00  0.35740347158E-01  0.35744000000E-01  0.51099999109E-03 0. -1.
       11   -1    0    0    0    0 -0.00000000000E+00 -0.00000000000E+00 -0.35740347158E-01  0.35744000000E-01  0.51099999109E-03 0.  1.
       22    1    1    2    0    0  0.36200950124E-02  0.29186375326E-02 -0.35433177277E-01  0.35737005818E-01  0.00000000000E+00 0.  1.
  9000001    1    1    2    0    0 -0.36200950124E-02 -0.29186375326E-02  0.35433177277E-01  0.35750994182E-01  0.10000000475E-02 0. -1.
</event>
<event>
 4   0  0.4958067E-02  0.9118800E+02  0.7818609E-02  0.1379984E+01
      -11   -1    0    0    0    0  0.00000000000E+00  0.00000000000E+00  0.35740347158E-01  0.35744000000E-01  0.51099999109E-03 0.  1.
       11   -1    0    0    0    0 -0.00000000000E+00 -0.00000000000E+00 -0.35740347158E-01  0.35744000000E-01  0.51099999109E-03 0. -1.
       22    1    1    2    0    0  0.12577187223E-02 -0.11255136195E-01 -0.33895038541E-01  0.35737005818E-01  0.00000000000E+00 0. -1.
  9000001    1    1    2    0    0 -0.12577187223E-02  0.11255136195E-01  0.33895038541E-01  0.35750994182E-01  0.10000000475E-02 0.  1.
</event>
<event>
 4   0  0.4958067E-02  0.9118800E+02  0.7818609E-02  0.1379984E+01
      -11   -1    0    0    0    0  0.00000000000E+00  0.00000000000E+00  0.35740347158E-01  0.35744000000E-01  0.51099999109E-03 0.  1.
       11   -1    0    0    0    0 -0.00000000000E+00 -0.00000000000E+00 -0.35740347158E-01  0.35744000000E-01  0.51099999109E-03 0. -1.
       22    1    1    2    0    0  0.54546461768E-02  0.29799864554E-03 -0.35317015966E-01  0.35737005818E-01  0.00000000000E+00 0. -1.
  9000001    1    1    2    0    0 -0.54546461768E-02 -0.29799864554E-03  0.35317015966E-01  0.35750994182E-01  0.10000000475E-02 0.  1.
</event>
<event>
 4   0  0.4958067E-02  0.9118800E+02  0.7818609E-02  0.1379984E+01
      -11   -1    0    0    0    0  0.00000000000E+00  0.00000000000E+00  0.35740347158E-01  0.35744000000E-01  0.51099999109E-03 0.  1.
       11   -1    0    0    0    0 -0.00000000000E+00 -0.00000000000E+00 -0.35740347158E-01  0.35744000000E-01  0.51099999109E-03 0. -1.
       22    1    1    2    0    0  0.35774508035E-02 -0.27469253214E-02  0.35451231740E-01  0.35737005818E-01  0.00000000000E+00 0.  1.
  9000001    1    1    2    0    0 -0.35774508035E-02  0.27469253214E-02 -0.35451231740E-01  0.35750994182E-01  0.10000000475E-02 0. -1.
</event>
<event>
 4   0  0.4958067E-02  0.9118800E+02  0.7818609E-02  0.1379984E+01
      -11   -1    0    0    0    0  0.00000000000E+00  0.00000000000E+00  0.35740347158E-01  0.35744000000E-01  0.51099999109E-03 0.  1.
       11   -1    0    0    0    0 -0.00000000000E+00 -0.00000000000E+00 -0.35740347158E-01  0.35744000000E-01  0.51099999109E-03 0. -1.
       22    1    1    2    0    0  0.40925814237E-02 -0.14851197317E-02  0.35470815913E-01  0.35737005818E-01  0.00000000000E+00 0.  1.
  9000001    1    1    2    0    0 -0.40925814237E-02  0.14851197317E-02 -0.35470815913E-01  0.35750994182E-01  0.10000000475E-02 0. -1.
</event>
<event>
 4   0  0.4958067E-02  0.9118800E+02  0.7818609E-02  0.1379984E+01
      -11   -1    0    0    0    0  0.00000000000E+00  0.00000000000E+00  0.35740347158E-01  0.35744000000E-01  0.51099999109E-03 0.  1.
       11   -1    0    0    0    0 -0.00000000000E+00 -0.00000000000E+00 -0.35740347158E-01  0.35744000000E-01  0.51099999109E-03 0. -1.
       22    1    1    2    0    0  0.17895010375E-02 -0.98294655655E-02 -0.34311993204E-01  0.35737005818E-01  0.00000000000E+00 0. -1.
  9000001    1    1    2    0    0 -0.17895010375E-02  0.98294655655E-02  0.34311993204E-01  0.35750994182E-01  0.10000000475E-02 0.  1.
</event>
<event>
 4   0  0.4958067E-02  0.9118800E+02  0.7818609E-02  0.1379984E+01
      -11   -1    0    0    0    0  0.00000000000E+00  0.00000000000E+00  0.35740347158E-01  0.35744000000E-01  0.51099999109E-03 0. -1.
       11   -1    0    0    0    0 -0.00000000000E+00 -0.00000000000E+00 -0.35740347158E-01  0.35744000000E-01  0.51099999109E-03 0.  1.
       22    1    1    2    0    0 -0.52559334621E-02  0.30411402476E-02 -0.35217328324E-01  0.35737005818E-01  0.00000000000E+00 0.  1.
  9000001    1    1    2    0    0  0.52559334621E-02 -0.30411402476E-02  0.35217328324E-01  0.35750994182E-01  0.10000000475E-02 0. -1.
</event>
<event>
 4   0  0.4958067E-02  0.9118800E+02  0.7818609E-02  0.1379984E+01
      -11   -1    0    0    0    0  0.00000000000E+00  0.00000000000E+00  0.35740347158E-01  0.35744000000E-01  0.51099999109E-03 0.  1.
       11   -1    0    0    0    0 -0.00000000000E+00 -0.00000000000E+00 -0.35740347158E-01  0.35744000000E-01  0.51099999109E-03 0. -1.
       22    1    1    2    0    0  0.41987931628E-02  0.40860355025E-02  0.35253482590E-01  0.35737005818E-01  0.00000000000E+00 0.  1.
  9000001    1    1    2    0    0 -0.41987931628E-02 -0.40860355025E-02 -0.35253482590E-01  0.35750994182E-01  0.10000000475E-02 0. -1.
</event>
<event>
 4   0  0.4958067E-02  0.9118800E+02  0.7818609E-02  0.1379984E+01
      -11   -1    0    0    0    0  0.00000000000E+00  0.00000000000E+00  0.35740347158E-01  0.35744000000E-01  0.51099999109E-03 0. -1.
       11   -1    0    0    0    0 -0.00000000000E+00 -0.00000000000E+00 -0.35740347158E-01  0.35744000000E-01  0.51099999109E-03 0.  1.
       22    1    1    2    0    0 -0.73302705035E-02 -0.16187722190E-01  0.31005779615E-01  0.35737005818E-01  0.00000000000E+00 0. -1.
  9000001    1    1    2    0    0  0.73302705035E-02  0.16187722190E-01 -0.31005779615E-01  0.35750994182E-01  0.10000000475E-02 0.  1.
</event>
<event>
 4   0  0.4958067E-02  0.9118800E+02  0.7818609E-02  0.1379984E+01
      -11   -1    0    0    0    0  0.00000000000E+00  0.00000000000E+00  0.35740347158E-01  0.35744000000E-01  0.51099999109E-03 0.  1.
       11   -1    0    0    0    0 -0.00000000000E+00 -0.00000000000E+00 -0.35740347158E-01  0.35744000000E-01  0.51099999109E-03 0. -1.
       22    1    1    2    0    0 -0.44401594089E-02 -0.12789862322E-02  0.35437025320E-01  0.35737005818E-01  0.00000000000E+00 0.  1.
  9000001    1    1    2    0    0  0.44401594089E-02  0.12789862322E-02 -0.35437025320E-01  0.35750994182E-01  0.10000000475E-02 0. -1.
</event>
<event>
 4   0  0.4958067E-02  0.9118800E+02  0.7818609E-02  0.1379984E+01
      -11   -1    0    0    0    0  0.00000000000E+00  0.00000000000E+00  0.35740347158E-01  0.35744000000E-01  0.51099999109E-03 0.  1.
       11   -1    0    0    0    0 -0.00000000000E+00 -0.00000000000E+00 -0.35740347158E-01  0.35744000000E-01  0.51099999109E-03 0. -1.
       22    1    1    2    0    0 -0.18464560405E-01  0.60153888479E-02  0.30000144848E-01  0.35737005818E-01  0.00000000000E+00 0.  1.
  9000001    1    1    2    0    0  0.18464560405E-01 -0.60153888479E-02 -0.30000144848E-01  0.35750994182E-01  0.10000000475E-02 0. -1.
</event>
<event>
 4   0  0.4958067E-02  0.9118800E+02  0.7818609E-02  0.1379984E+01
      -11   -1    0    0    0    0  0.00000000000E+00  0.00000000000E+00  0.35740347158E-01  0.35744000000E-01  0.51099999109E-03 0.  1.
       11   -1    0    0    0    0 -0.00000000000E+00 -0.00000000000E+00 -0.35740347158E-01  0.35744000000E-01  0.51099999109E-03 0. -1.
       22    1    1    2    0    0 -0.81988174397E-03 -0.13129492999E-01 -0.33227666069E-01  0.35737005818E-01  0.00000000000E+00 0. -1.
  9000001    1    1    2    0    0  0.81988174397E-03  0.13129492999E-01  0.33227666069E-01  0.35750994182E-01  0.10000000475E-02 0.  1.
</event>
<event>
 4   0  0.4958067E-02  0.9118800E+02  0.7818609E-02  0.1379984E+01
      -11   -1    0    0    0    0  0.00000000000E+00  0.00000000000E+00  0.35740347158E-01  0.35744000000E-01  0.51099999109E-03 0.  1.
       11   -1    0    0    0    0 -0.00000000000E+00 -0.00000000000E+00 -0.35740347158E-01  0.35744000000E-01  0.51099999109E-03 0. -1.
       22    1    1    2    0    0 -0.29158115382E-02 -0.10128843434E-01 -0.34147300898E-01  0.35737005818E-01  0.00000000000E+00 0. -1.
  9000001    1    1    2    0    0  0.29158115382E-02  0.10128843434E-01  0.34147300898E-01  0.35750994182E-01  0.10000000475E-02 0.  1.
</event>
<event>
 4   0  0.4958067E-02  0.9118800E+02  0.7818609E-02  0.1379984E+01
      -11   -1    0    0    0    0  0.00000000000E+00  0.00000000000E+00  0.35740347158E-01  0.35744000000E-01  0.51099999109E-03 0.  1.
       11   -1    0    0    0    0 -0.00000000000E+00 -0.00000000000E+00 -0.35740347158E-01  0.35744000000E-01  0.51099999109E-03 0. -1.
       22    1    1    2    0    0  0.49801731422E-02  0.33555584012E-02 -0.35228847386E-01  0.35737005818E-01  0.00000000000E+00 0. -1.
  9000001    1    1    2    0    0 -0.49801731422E-02 -0.33555584012E-02  0.35228847386E-01  0.35750994182E-01  0.10000000475E-02 0.  1.
</event>
<event>
 4   0  0.4958067E-02  0.9118800E+02  0.7818609E-02  0.1379984E+01
      -11   -1    0    0    0    0  0.00000000000E+00  0.00000000000E+00  0.35740347158E-01  0.35744000000E-01  0.51099999109E-03 0.  1.
       11   -1    0    0    0    0 -0.00000000000E+00 -0.00000000000E+00 -0.35740347158E-01  0.35744000000E-01  0.51099999109E-03 0. -1.
       22    1    1    2    0    0 -0.31302884953E-02 -0.37806418814E-02 -0.35398328008E-01  0.35737005818E-01  0.00000000000E+00 0. -1.
  9000001    1    1    2    0    0  0.31302884953E-02  0.37806418814E-02  0.35398328008E-01  0.35750994182E-01  0.10000000475E-02 0.  1.
</event>
<event>
 4   0  0.4958067E-02  0.9118800E+02  0.7818609E-02  0.1379984E+01
      -11   -1    0    0    0    0  0.00000000000E+00  0.00000000000E+00  0.35740347158E-01  0.35744000000E-01  0.51099999109E-03 0. -1.
       11   -1    0    0    0    0 -0.00000000000E+00 -0.00000000000E+00 -0.35740347158E-01  0.35744000000E-01  0.51099999109E-03 0.  1.
       22    1    1    2    0    0 -0.45929590700E-02  0.12168192451E-01 -0.33286234457E-01  0.35737005818E-01  0.00000000000E+00 0.  1.
  9000001    1    1    2    0    0  0.45929590700E-02 -0.12168192451E-01  0.33286234457E-01  0.35750994182E-01  0.10000000475E-02 0. -1.
</event>
<event>
 4   0  0.4958067E-02  0.9118800E+02  0.7818609E-02  0.1379984E+01
      -11   -1    0    0    0    0  0.00000000000E+00  0.00000000000E+00  0.35740347158E-01  0.35744000000E-01  0.51099999109E-03 0. -1.
       11   -1    0    0    0    0 -0.00000000000E+00 -0.00000000000E+00 -0.35740347158E-01  0.35744000000E-01  0.51099999109E-03 0.  1.
       22    1    1    2    0    0 -0.11748570810E-01  0.29087217975E-01 -0.17118364971E-01  0.35737005818E-01  0.00000000000E+00 0.  1.
  9000001    1    1    2    0    0  0.11748570810E-01 -0.29087217975E-01  0.17118364971E-01  0.35750994182E-01  0.10000000475E-02 0. -1.
</event>
<event>
 4   0  0.4958067E-02  0.9118800E+02  0.7818609E-02  0.1379984E+01
      -11   -1    0    0    0    0  0.00000000000E+00  0.00000000000E+00  0.35740347158E-01  0.35744000000E-01  0.51099999109E-03 0. -1.
       11   -1    0    0    0    0 -0.00000000000E+00 -0.00000000000E+00 -0.35740347158E-01  0.35744000000E-01  0.51099999109E-03 0.  1.
       22    1    1    2    0    0 -0.33268605963E-01  0.20258642347E-03  0.13049613056E-01  0.35737005818E-01  0.00000000000E+00 0.  1.
  9000001    1    1    2    0    0  0.33268605963E-01 -0.20258642347E-03 -0.13049613056E-01  0.35750994182E-01  0.10000000475E-02 0. -1.
</event>
<event>
 4   0  0.4958067E-02  0.9118800E+02  0.7818609E-02  0.1379984E+01
      -11   -1    0    0    0    0  0.00000000000E+00  0.00000000000E+00  0.35740347158E-01  0.35744000000E-01  0.51099999109E-03 0.  1.
       11   -1    0    0    0    0 -0.00000000000E+00 -0.00000000000E+00 -0.35740347158E-01  0.35744000000E-01  0.51099999109E-03 0. -1.
       22    1    1    2    0    0  0.46981434534E-02 -0.27624692505E-02 -0.35318972191E-01  0.35737005818E-01  0.00000000000E+00 0. -1.
  9000001    1    1    2    0    0 -0.46981434534E-02  0.27624692505E-02  0.35318972191E-01  0.35750994182E-01  0.10000000475E-02 0.  1.
</event>
<event>
 4   0  0.4958067E-02  0.9118800E+02  0.7818609E-02  0.1379984E+01
      -11   -1    0    0    0    0  0.00000000000E+00  0.00000000000E+00  0.35740347158E-01  0.35744000000E-01  0.51099999109E-03 0.  1.
       11   -1    0    0    0    0 -0.00000000000E+00 -0.00000000000E+00 -0.35740347158E-01  0.35744000000E-01  0.51099999109E-03 0. -1.
       22    1    1    2    0    0  0.28284466785E-01  0.35216974283E-02 -0.21557369292E-01  0.35737005818E-01  0.00000000000E+00 0. -1.
  9000001    1    1    2    0    0 -0.28284466785E-01 -0.35216974283E-02  0.21557369292E-01  0.35750994182E-01  0.10000000475E-02 0.  1.
</event>
<event>
 4   0  0.4958067E-02  0.9118800E+02  0.7818609E-02  0.1379984E+01
      -11   -1    0    0    0    0  0.00000000000E+00  0.00000000000E+00  0.35740347158E-01  0.35744000000E-01  0.51099999109E-03 0. -1.
       11   -1    0    0    0    0 -0.00000000000E+00 -0.00000000000E+00 -0.35740347158E-01  0.35744000000E-01  0.51099999109E-03 0.  1.
       22    1    1    2    0    0 -0.12208080620E-01  0.13524831473E-02 -0.33559903781E-01  0.35737005818E-01  0.00000000000E+00 0.  1.
  9000001    1    1    2    0    0  0.12208080620E-01 -0.13524831473E-02  0.33559903781E-01  0.35750994182E-01  0.10000000475E-02 0. -1.
</event>
<event>
 4   0  0.4958067E-02  0.9118800E+02  0.7818609E-02  0.1379984E+01
      -11   -1    0    0    0    0  0.00000000000E+00  0.00000000000E+00  0.35740347158E-01  0.35744000000E-01  0.51099999109E-03 0. -1.
       11   -1    0    0    0    0 -0.00000000000E+00 -0.00000000000E+00 -0.35740347158E-01  0.35744000000E-01  0.51099999109E-03 0.  1.
       22    1    1    2    0    0 -0.26941567364E-02 -0.46857860920E-02  0.35325890124E-01  0.35737005818E-01  0.00000000000E+00 0. -1.
  9000001    1    1    2    0    0  0.26941567364E-02  0.46857860920E-02 -0.35325890124E-01  0.35750994182E-01  0.10000000475E-02 0.  1.
</event>
<event>
 4   0  0.4958067E-02  0.9118800E+02  0.7818609E-02  0.1379984E+01
      -11   -1    0    0    0    0  0.00000000000E+00  0.00000000000E+00  0.35740347158E-01  0.35744000000E-01  0.51099999109E-03 0. -1.
       11   -1    0    0    0    0 -0.00000000000E+00 -0.00000000000E+00 -0.35740347158E-01  0.35744000000E-01  0.51099999109E-03 0.  1.
       22    1    1    2    0    0 -0.30380811644E-02  0.35400374376E-03  0.35605874923E-01  0.35737005818E-01  0.00000000000E+00 0. -1.
  9000001    1    1    2    0    0  0.30380811644E-02 -0.35400374376E-03 -0.35605874923E-01  0.35750994182E-01  0.10000000475E-02 0.  1.
</event>
<event>
 4   0  0.4958067E-02  0.9118800E+02  0.7818609E-02  0.1379984E+01
      -11   -1    0    0    0    0  0.00000000000E+00  0.00000000000E+00  0.35740347158E-01  0.35744000000E-01  0.51099999109E-03 0. -1.
       11   -1    0    0    0    0 -0.00000000000E+00 -0.00000000000E+00 -0.35740347158E-01  0.35744000000E-01  0.51099999109E-03 0.  1.
       22    1    1    2    0    0 -0.13978742219E-01 -0.21899649994E-01 -0.24538412357E-01  0.35737005818E-01  0.00000000000E+00 0.  1.
  9000001    1    1    2    0    0  0.13978742219E-01  0.21899649994E-01  0.24538412357E-01  0.35750994182E-01  0.10000000475E-02 0. -1.
</event>
<event>
 4   0  0.4958067E-02  0.9118800E+02  0.7818609E-02  0.1379984E+01
      -11   -1    0    0    0    0  0.00000000000E+00  0.00000000000E+00  0.35740347158E-01  0.35744000000E-01  0.51099999109E-03 0. -1.
       11   -1    0    0    0    0 -0.00000000000E+00 -0.00000000000E+00 -0.35740347158E-01  0.35744000000E-01  0.51099999109E-03 0.  1.
       22    1    1    2    0    0 -0.24334213812E-02 -0.19803072180E-02  0.35599022860E-01  0.35737005818E-01  0.00000000000E+00 0. -1.
  9000001    1    1    2    0    0  0.24334213812E-02  0.19803072180E-02 -0.35599022860E-01  0.35750994182E-01  0.10000000475E-02 0.  1.
</event>
<event>
 4   0  0.4958067E-02  0.9118800E+02  0.7818609E-02  0.1379984E+01
      -11   -1    0    0    0    0  0.00000000000E+00  0.00000000000E+00  0.35740347158E-01  0.35744000000E-01  0.51099999109E-03 0. -1.
       11   -1    0    0    0    0 -0.00000000000E+00 -0.00000000000E+00 -0.35740347158E-01  0.35744000000E-01  0.51099999109E-03 0.  1.
       22    1    1    2    0    0 -0.21080157708E-01 -0.26304164590E-01 -0.11868085823E-01  0.35737005818E-01  0.00000000000E+00 0. -1.
  9000001    1    1    2    0    0  0.21080157708E-01  0.26304164590E-01  0.11868085823E-01  0.35750994182E-01  0.10000000475E-02 0.  1.
</event>
<event>
 4   0  0.4958067E-02  0.9118800E+02  0.7818609E-02  0.1379984E+01
      -11   -1    0    0    0    0  0.00000000000E+00  0.00000000000E+00  0.35740347158E-01  0.35744000000E-01  0.51099999109E-03 0. -1.
       11   -1    0    0    0    0 -0.00000000000E+00 -0.00000000000E+00 -0.35740347158E-01  0.35744000000E-01  0.51099999109E-03 0.  1.
       22    1    1    2    0    0  0.15123446476E-02  0.15493422137E-01  0.32168311566E-01  0.35737005818E-01  0.00000000000E+00 0. -1.
  9000001    1    1    2    0    0 -0.15123446476E-02 -0.15493422137E-01 -0.32168311566E-01  0.35750994182E-01  0.10000000475E-02 0.  1.
</event>
<event>
 4   0  0.4958067E-02  0.9118800E+02  0.7818609E-02  0.1379984E+01
      -11   -1    0    0    0    0  0.00000000000E+00  0.00000000000E+00  0.35740347158E-01  0.35744000000E-01  0.51099999109E-03 0. -1.
       11   -1    0    0    0    0 -0.00000000000E+00 -0.00000000000E+00 -0.35740347158E-01  0.35744000000E-01  0.51099999109E-03 0.  1.
       22    1    1    2    0    0  0.42743951468E-02 -0.85267511075E-02 -0.34440639462E-01  0.35737005818E-01  0.00000000000E+00 0.  1.
  9000001    1    1    2    0    0 -0.42743951468E-02  0.85267511075E-02  0.34440639462E-01  0.35750994182E-01  0.10000000475E-02 0. -1.
</event>
<event>
 4   0  0.4958067E-02  0.9118800E+02  0.7818609E-02  0.1379984E+01
      -11   -1    0    0    0    0  0.00000000000E+00  0.00000000000E+00  0.35740347158E-01  0.35744000000E-01  0.51099999109E-03 0. -1.
       11   -1    0    0    0    0 -0.00000000000E+00 -0.00000000000E+00 -0.35740347158E-01  0.35744000000E-01  0.51099999109E-03 0.  1.
       22    1    1    2    0    0  0.60803651341E-03 -0.85191779505E-02 -0.34701404633E-01  0.35737005818E-01  0.00000000000E+00 0.  1.
  9000001    1    1    2    0    0 -0.60803651341E-03  0.85191779505E-02  0.34701404633E-01  0.35750994182E-01  0.10000000475E-02 0. -1.
</event>
<event>
 4   0  0.4958067E-02  0.9118800E+02  0.7818609E-02  0.1379984E+01
      -11   -1    0    0    0    0  0.00000000000E+00  0.00000000000E+00  0.35740347158E-01  0.35744000000E-01  0.51099999109E-03 0. -1.
       11   -1    0    0    0    0 -0.00000000000E+00 -0.00000000000E+00 -0.35740347158E-01  0.35744000000E-01  0.51099999109E-03 0.  1.
       22    1    1    2    0    0  0.18376377832E-02 -0.80216156286E-02 -0.34776577677E-01  0.35737005818E-01  0.00000000000E+00 0.  1.
  9000001    1    1    2    0    0 -0.18376377832E-02  0.80216156286E-02  0.34776577677E-01  0.35750994182E-01  0.10000000475E-02 0. -1.
</event>
<event>
 4   0  0.4958067E-02  0.9118800E+02  0.7818609E-02  0.1379984E+01
      -11   -1    0    0    0    0  0.00000000000E+00  0.00000000000E+00  0.35740347158E-01  0.35744000000E-01  0.51099999109E-03 0. -1.
       11   -1    0    0    0    0 -0.00000000000E+00 -0.00000000000E+00 -0.35740347158E-01  0.35744000000E-01  0.51099999109E-03 0.  1.
       22    1    1    2    0    0  0.68410672296E-02  0.52426323399E-02  0.34682101871E-01  0.35737005818E-01  0.00000000000E+00 0. -1.
  9000001    1    1    2    0    0 -0.68410672296E-02 -0.52426323399E-02 -0.34682101871E-01  0.35750994182E-01  0.10000000475E-02 0.  1.
</event>
<event>
 4   0  0.4958067E-02  0.9118800E+02  0.7818609E-02  0.1379984E+01
      -11   -1    0    0    0    0  0.00000000000E+00  0.00000000000E+00  0.35740347158E-01  0.35744000000E-01  0.51099999109E-03 0.  1.
       11   -1    0    0    0    0 -0.00000000000E+00 -0.00000000000E+00 -0.35740347158E-01  0.35744000000E-01  0.51099999109E-03 0. -1.
       22    1    1    2    0    0  0.59857768564E-02  0.30117650953E-01 -0.18281990082E-01  0.35737005818E-01  0.00000000000E+00 0. -1.
  9000001    1    1    2    0    0 -0.59857768564E-02 -0.30117650953E-01  0.18281990082E-01  0.35750994182E-01  0.10000000475E-02 0.  1.
</event>
<event>
 4   0  0.4958067E-02  0.9118800E+02  0.7818609E-02  0.1379984E+01
      -11   -1    0    0    0    0  0.00000000000E+00  0.00000000000E+00  0.35740347158E-01  0.35744000000E-01  0.51099999109E-03 0. -1.
       11   -1    0    0    0    0 -0.00000000000E+00 -0.00000000000E+00 -0.35740347158E-01  0.35744000000E-01  0.51099999109E-03 0.  1.
       22    1    1    2    0    0 -0.49068081043E-02 -0.11174118848E-01  0.33588627347E-01  0.35737005818E-01  0.00000000000E+00 0. -1.
  9000001    1    1    2    0    0  0.49068081043E-02  0.11174118848E-01 -0.33588627347E-01  0.35750994182E-01  0.10000000475E-02 0.  1.
</event>
<event>
 4   0  0.4958067E-02  0.9118800E+02  0.7818609E-02  0.1379984E+01
      -11   -1    0    0    0    0  0.00000000000E+00  0.00000000000E+00  0.35740347158E-01  0.35744000000E-01  0.51099999109E-03 0. -1.
       11   -1    0    0    0    0 -0.00000000000E+00 -0.00000000000E+00 -0.35740347158E-01  0.35744000000E-01  0.51099999109E-03 0.  1.
       22    1    1    2    0    0 -0.51847979537E-02  0.14306208185E-01 -0.32335489209E-01  0.35737005818E-01  0.00000000000E+00 0.  1.
  9000001    1    1    2    0    0  0.51847979537E-02 -0.14306208185E-01  0.32335489209E-01  0.35750994182E-01  0.10000000475E-02 0. -1.
</event>
<event>
 4   0  0.4958067E-02  0.9118800E+02  0.7818609E-02  0.1379984E+01
      -11   -1    0    0    0    0  0.00000000000E+00  0.00000000000E+00  0.35740347158E-01  0.35744000000E-01  0.51099999109E-03 0. -1.
       11   -1    0    0    0    0 -0.00000000000E+00 -0.00000000000E+00 -0.35740347158E-01  0.35744000000E-01  0.51099999109E-03 0.  1.
       22    1    1    2    0    0  0.51289911090E-02 -0.68387870429E-02 -0.34699539289E-01  0.35737005818E-01  0.00000000000E+00 0.  1.
  9000001    1    1    2    0    0 -0.51289911090E-02  0.68387870429E-02  0.34699539289E-01  0.35750994182E-01  0.10000000475E-02 0. -1.
</event>
<event>
 4   0  0.4958067E-02  0.9118800E+02  0.7818609E-02  0.1379984E+01
      -11   -1    0    0    0    0  0.00000000000E+00  0.00000000000E+00  0.35740347158E-01  0.35744000000E-01  0.51099999109E-03 0.  1.
       11   -1    0    0    0    0 -0.00000000000E+00 -0.00000000000E+00 -0.35740347158E-01  0.35744000000E-01  0.51099999109E-03 0. -1.
       22    1    1    2    0    0 -0.90186483155E-02  0.20016167054E-01 -0.28198415273E-01  0.35737005818E-01  0.00000000000E+00 0. -1.
  9000001    1    1    2    0    0  0.90186483155E-02 -0.20016167054E-01  0.28198415273E-01  0.35750994182E-01  0.10000000475E-02 0.  1.
</event>
<event>
 4   0  0.4958067E-02  0.9118800E+02  0.7818609E-02  0.1379984E+01
      -11   -1    0    0    0    0  0.00000000000E+00  0.00000000000E+00  0.35740347158E-01  0.35744000000E-01  0.51099999109E-03 0. -1.
       11   -1    0    0    0    0 -0.00000000000E+00 -0.00000000000E+00 -0.35740347158E-01  0.35744000000E-01  0.51099999109E-03 0. -1.
       22    1    1    2    0    0  0.11162087376E-02 -0.28553222348E-02 -0.35605263626E-01  0.35737005818E-01  0.00000000000E+00 0. -1.
  9000001    1    1    2    0    0 -0.11162087376E-02  0.28553222348E-02  0.35605263626E-01  0.35750994182E-01  0.10000000475E-02 0. -1.
</event>
<event>
 4   0  0.4958067E-02  0.9118800E+02  0.7818609E-02  0.1379984E+01
      -11   -1    0    0    0    0  0.00000000000E+00  0.00000000000E+00  0.35740347158E-01  0.35744000000E-01  0.51099999109E-03 0.  1.
       11   -1    0    0    0    0 -0.00000000000E+00 -0.00000000000E+00 -0.35740347158E-01  0.35744000000E-01  0.51099999109E-03 0. -1.
       22    1    1    2    0    0 -0.54492382931E-02  0.20976131607E-01  0.28415511428E-01  0.35737005818E-01  0.00000000000E+00 0.  1.
  9000001    1    1    2    0    0  0.54492382931E-02 -0.20976131607E-01 -0.28415511428E-01  0.35750994182E-01  0.10000000475E-02 0. -1.
</event>
<event>
 4   0  0.4958067E-02  0.9118800E+02  0.7818609E-02  0.1379984E+01
      -11   -1    0    0    0    0  0.00000000000E+00  0.00000000000E+00  0.35740347158E-01  0.35744000000E-01  0.51099999109E-03 0. -1.
       11   -1    0    0    0    0 -0.00000000000E+00 -0.00000000000E+00 -0.35740347158E-01  0.35744000000E-01  0.51099999109E-03 0.  1.
       22    1    1    2    0    0  0.59085180911E-03  0.35111482685E-02 -0.35559194547E-01  0.35737005818E-01  0.00000000000E+00 0.  1.
  9000001    1    1    2    0    0 -0.59085180911E-03 -0.35111482685E-02  0.35559194547E-01  0.35750994182E-01  0.10000000475E-02 0. -1.
</event>
<event>
 4   0  0.4958067E-02  0.9118800E+02  0.7818609E-02  0.1379984E+01
      -11   -1    0    0    0    0  0.00000000000E+00  0.00000000000E+00  0.35740347158E-01  0.35744000000E-01  0.51099999109E-03 0.  1.
       11   -1    0    0    0    0 -0.00000000000E+00 -0.00000000000E+00 -0.35740347158E-01  0.35744000000E-01  0.51099999109E-03 0. -1.
       22    1    1    2    0    0 -0.19682010538E-01  0.63722252403E-02 -0.29140123396E-01  0.35737005818E-01  0.00000000000E+00 0. -1.
  9000001    1    1    2    0    0  0.19682010538E-01 -0.63722252403E-02  0.29140123396E-01  0.35750994182E-01  0.10000000475E-02 0.  1.
</event>
<event>
 4   0  0.4958067E-02  0.9118800E+02  0.7818609E-02  0.1379984E+01
      -11   -1    0    0    0    0  0.00000000000E+00  0.00000000000E+00  0.35740347158E-01  0.35744000000E-01  0.51099999109E-03 0.  1.
       11   -1    0    0    0    0 -0.00000000000E+00 -0.00000000000E+00 -0.35740347158E-01  0.35744000000E-01  0.51099999109E-03 0. -1.
       22    1    1    2    0    0 -0.56259038021E-02 -0.28958456908E-02  0.35172387878E-01  0.35737005818E-01  0.00000000000E+00 0.  1.
  9000001    1    1    2    0    0  0.56259038021E-02  0.28958456908E-02 -0.35172387878E-01  0.35750994182E-01  0.10000000475E-02 0. -1.
</event>
<event>
 4   0  0.4958067E-02  0.9118800E+02  0.7818609E-02  0.1379984E+01
      -11   -1    0    0    0    0  0.00000000000E+00  0.00000000000E+00  0.35740347158E-01  0.35744000000E-01  0.51099999109E-03 0.  1.
       11   -1    0    0    0    0 -0.00000000000E+00 -0.00000000000E+00 -0.35740347158E-01  0.35744000000E-01  0.51099999109E-03 0. -1.
       22    1    1    2    0    0  0.31642096151E-02 -0.15691938234E-03 -0.35596302318E-01  0.35737005818E-01  0.00000000000E+00 0. -1.
  9000001    1    1    2    0    0 -0.31642096151E-02  0.15691938234E-03  0.35596302318E-01  0.35750994182E-01  0.10000000475E-02 0.  1.
</event>
<event>
 4   0  0.4958067E-02  0.9118800E+02  0.7818609E-02  0.1379984E+01
      -11   -1    0    0    0    0  0.00000000000E+00  0.00000000000E+00  0.35740347158E-01  0.35744000000E-01  0.51099999109E-03 0.  1.
       11   -1    0    0    0    0 -0.00000000000E+00 -0.00000000000E+00 -0.35740347158E-01  0.35744000000E-01  0.51099999109E-03 0. -1.
       22    1    1    2    0    0 -0.95127417773E-03 -0.10288044032E-01  0.34210887336E-01  0.35737005818E-01  0.00000000000E+00 0.  1.
  9000001    1    1    2    0    0  0.95127417773E-03  0.10288044032E-01 -0.34210887336E-01  0.35750994182E-01  0.10000000475E-02 0. -1.
</event>
<event>
 4   0  0.4958067E-02  0.9118800E+02  0.7818609E-02  0.1379984E+01
      -11   -1    0    0    0    0  0.00000000000E+00  0.00000000000E+00  0.35740347158E-01  0.35744000000E-01  0.51099999109E-03 0. -1.
       11   -1    0    0    0    0 -0.00000000000E+00 -0.00000000000E+00 -0.35740347158E-01  0.35744000000E-01  0.51099999109E-03 0.  1.
       22    1    1    2    0    0  0.46554851616E-02 -0.57981099353E-02 -0.34954856086E-01  0.35737005818E-01  0.00000000000E+00 0.  1.
  9000001    1    1    2    0    0 -0.46554851616E-02  0.57981099353E-02  0.34954856086E-01  0.35750994182E-01  0.10000000475E-02 0. -1.
</event>
<event>
 4   0  0.4958067E-02  0.9118800E+02  0.7818609E-02  0.1379984E+01
      -11   -1    0    0    0    0  0.00000000000E+00  0.00000000000E+00  0.35740347158E-01  0.35744000000E-01  0.51099999109E-03 0. -1.
       11   -1    0    0    0    0 -0.00000000000E+00 -0.00000000000E+00 -0.35740347158E-01  0.35744000000E-01  0.51099999109E-03 0.  1.
       22    1    1    2    0    0  0.99346596324E-02  0.10301501196E-01 -0.32746224148E-01  0.35737005818E-01  0.00000000000E+00 0.  1.
  9000001    1    1    2    0    0 -0.99346596324E-02 -0.10301501196E-01  0.32746224148E-01  0.35750994182E-01  0.10000000475E-02 0. -1.
</event>
<event>
 4   0  0.4958067E-02  0.9118800E+02  0.7818609E-02  0.1379984E+01
      -11   -1    0    0    0    0  0.00000000000E+00  0.00000000000E+00  0.35740347158E-01  0.35744000000E-01  0.51099999109E-03 0.  1.
       11   -1    0    0    0    0 -0.00000000000E+00 -0.00000000000E+00 -0.35740347158E-01  0.35744000000E-01  0.51099999109E-03 0. -1.
       22    1    1    2    0    0  0.29481193573E-01 -0.37194468315E-02 -0.19853426042E-01  0.35737005818E-01  0.00000000000E+00 0. -1.
  9000001    1    1    2    0    0 -0.29481193573E-01  0.37194468315E-02  0.19853426042E-01  0.35750994182E-01  0.10000000475E-02 0.  1.
</event>
<event>
 4   0  0.4958067E-02  0.9118800E+02  0.7818609E-02  0.1379984E+01
      -11   -1    0    0    0    0  0.00000000000E+00  0.00000000000E+00  0.35740347158E-01  0.35744000000E-01  0.51099999109E-03 0. -1.
       11   -1    0    0    0    0 -0.00000000000E+00 -0.00000000000E+00 -0.35740347158E-01  0.35744000000E-01  0.51099999109E-03 0.  1.
       22    1    1    2    0    0  0.97775521988E-02 -0.13075632308E-01  0.31789320496E-01  0.35737005818E-01  0.00000000000E+00 0. -1.
  9000001    1    1    2    0    0 -0.97775521988E-02  0.13075632308E-01 -0.31789320496E-01  0.35750994182E-01  0.10000000475E-02 0.  1.
</event>
<event>
 4   0  0.4958067E-02  0.9118800E+02  0.7818609E-02  0.1379984E+01
      -11   -1    0    0    0    0  0.00000000000E+00  0.00000000000E+00  0.35740347158E-01  0.35744000000E-01  0.51099999109E-03 0.  1.
       11   -1    0    0    0    0 -0.00000000000E+00 -0.00000000000E+00 -0.35740347158E-01  0.35744000000E-01  0.51099999109E-03 0. -1.
       22    1    1    2    0    0 -0.10651677404E-01  0.10503950418E-01 -0.32455236542E-01  0.35737005818E-01  0.00000000000E+00 0. -1.
  9000001    1    1    2    0    0  0.10651677404E-01 -0.10503950418E-01  0.32455236542E-01  0.35750994182E-01  0.10000000475E-02 0.  1.
</event>
<event>
 4   0  0.4958067E-02  0.9118800E+02  0.7818609E-02  0.1379984E+01
      -11   -1    0    0    0    0  0.00000000000E+00  0.00000000000E+00  0.35740347158E-01  0.35744000000E-01  0.51099999109E-03 0.  1.
       11   -1    0    0    0    0 -0.00000000000E+00 -0.00000000000E+00 -0.35740347158E-01  0.35744000000E-01  0.51099999109E-03 0. -1.
       22    1    1    2    0    0 -0.72656751626E-03  0.46485481058E-02  0.35425932380E-01  0.35737005818E-01  0.00000000000E+00 0.  1.
  9000001    1    1    2    0    0  0.72656751626E-03 -0.46485481058E-02 -0.35425932380E-01  0.35750994182E-01  0.10000000475E-02 0. -1.
</event>
<event>
 4   0  0.4958067E-02  0.9118800E+02  0.7818609E-02  0.1379984E+01
      -11   -1    0    0    0    0  0.00000000000E+00  0.00000000000E+00  0.35740347158E-01  0.35744000000E-01  0.51099999109E-03 0. -1.
       11   -1    0    0    0    0 -0.00000000000E+00 -0.00000000000E+00 -0.35740347158E-01  0.35744000000E-01  0.51099999109E-03 0.  1.
       22    1    1    2    0    0 -0.16394232822E-01 -0.91917868440E-03 -0.31741421291E-01  0.35737005818E-01  0.00000000000E+00 0.  1.
  9000001    1    1    2    0    0  0.16394232822E-01  0.91917868440E-03  0.31741421291E-01  0.35750994182E-01  0.10000000475E-02 0. -1.
</event>
<event>
 4   0  0.4958067E-02  0.9118800E+02  0.7818609E-02  0.1379984E+01
      -11   -1    0    0    0    0  0.00000000000E+00  0.00000000000E+00  0.35740347158E-01  0.35744000000E-01  0.51099999109E-03 0.  1.
       11   -1    0    0    0    0 -0.00000000000E+00 -0.00000000000E+00 -0.35740347158E-01  0.35744000000E-01  0.51099999109E-03 0. -1.
       22    1    1    2    0    0 -0.17860346517E-01  0.12444092640E-01 -0.28342303462E-01  0.35737005818E-01  0.00000000000E+00 0. -1.
  9000001    1    1    2    0    0  0.17860346517E-01 -0.12444092640E-01  0.28342303462E-01  0.35750994182E-01  0.10000000475E-02 0.  1.
</event>
<event>
 4   0  0.4958067E-02  0.9118800E+02  0.7818609E-02  0.1379984E+01
      -11   -1    0    0    0    0  0.00000000000E+00  0.00000000000E+00  0.35740347158E-01  0.35744000000E-01  0.51099999109E-03 0.  1.
       11   -1    0    0    0    0 -0.00000000000E+00 -0.00000000000E+00 -0.35740347158E-01  0.35744000000E-01  0.51099999109E-03 0. -1.
       22    1    1    2    0    0 -0.18776554641E-01 -0.83741223029E-02 -0.29230953736E-01  0.35737005818E-01  0.00000000000E+00 0. -1.
  9000001    1    1    2    0    0  0.18776554641E-01  0.83741223029E-02  0.29230953736E-01  0.35750994182E-01  0.10000000475E-02 0.  1.
</event>
<event>
 4   0  0.4958067E-02  0.9118800E+02  0.7818609E-02  0.1379984E+01
      -11   -1    0    0    0    0  0.00000000000E+00  0.00000000000E+00  0.35740347158E-01  0.35744000000E-01  0.51099999109E-03 0. -1.
       11   -1    0    0    0    0 -0.00000000000E+00 -0.00000000000E+00 -0.35740347158E-01  0.35744000000E-01  0.51099999109E-03 0.  1.
       22    1    1    2    0    0 -0.48085478544E-02 -0.25505547452E-02  0.35320052702E-01  0.35737005818E-01  0.00000000000E+00 0. -1.
  9000001    1    1    2    0    0  0.48085478544E-02  0.25505547452E-02 -0.35320052702E-01  0.35750994182E-01  0.10000000475E-02 0.  1.
</event>
<event>
 4   0  0.4958067E-02  0.9118800E+02  0.7818609E-02  0.1379984E+01
      -11   -1    0    0    0    0  0.00000000000E+00  0.00000000000E+00  0.35740347158E-01  0.35744000000E-01  0.51099999109E-03 0.  1.
       11   -1    0    0    0    0 -0.00000000000E+00 -0.00000000000E+00 -0.35740347158E-01  0.35744000000E-01  0.51099999109E-03 0. -1.
       22    1    1    2    0    0  0.12276785758E-02  0.32736286165E-02  0.35565569669E-01  0.35737005818E-01  0.00000000000E+00 0.  1.
  9000001    1    1    2    0    0 -0.12276785758E-02 -0.32736286165E-02 -0.35565569669E-01  0.35750994182E-01  0.10000000475E-02 0. -1.
</event>
<event>
 4   0  0.4958067E-02  0.9118800E+02  0.7818609E-02  0.1379984E+01
      -11   -1    0    0    0    0  0.00000000000E+00  0.00000000000E+00  0.35740347158E-01  0.35744000000E-01  0.51099999109E-03 0. -1.
       11   -1    0    0    0    0 -0.00000000000E+00 -0.00000000000E+00 -0.35740347158E-01  0.35744000000E-01  0.51099999109E-03 0.  1.
       22    1    1    2    0    0  0.17542356808E-01  0.13046117300E-02 -0.31107833270E-01  0.35737005818E-01  0.00000000000E+00 0.  1.
  9000001    1    1    2    0    0 -0.17542356808E-01 -0.13046117300E-02  0.31107833270E-01  0.35750994182E-01  0.10000000475E-02 0. -1.
</event>
<event>
 4   0  0.4958067E-02  0.9118800E+02  0.7818609E-02  0.1379984E+01
      -11   -1    0    0    0    0  0.00000000000E+00  0.00000000000E+00  0.35740347158E-01  0.35744000000E-01  0.51099999109E-03 0. -1.
       11   -1    0    0    0    0 -0.00000000000E+00 -0.00000000000E+00 -0.35740347158E-01  0.35744000000E-01  0.51099999109E-03 0.  1.
       22    1    1    2    0    0 -0.76910176240E-02 -0.41885590002E-02  0.34647334764E-01  0.35737005818E-01  0.00000000000E+00 0. -1.
  9000001    1    1    2    0    0  0.76910176240E-02  0.41885590002E-02 -0.34647334764E-01  0.35750994182E-01  0.10000000475E-02 0.  1.
</event>
<event>
 4   0  0.4958067E-02  0.9118800E+02  0.7818609E-02  0.1379984E+01
      -11   -1    0    0    0    0  0.00000000000E+00  0.00000000000E+00  0.35740347158E-01  0.35744000000E-01  0.51099999109E-03 0.  1.
       11   -1    0    0    0    0 -0.00000000000E+00 -0.00000000000E+00 -0.35740347158E-01  0.35744000000E-01  0.51099999109E-03 0. -1.
       22    1    1    2    0    0 -0.24526794848E-02  0.29008697459E-02  0.35534531134E-01  0.35737005818E-01  0.00000000000E+00 0.  1.
  9000001    1    1    2    0    0  0.24526794848E-02 -0.29008697459E-02 -0.35534531134E-01  0.35750994182E-01  0.10000000475E-02 0. -1.
</event>
<event>
 4   0  0.4958067E-02  0.9118800E+02  0.7818609E-02  0.1379984E+01
      -11   -1    0    0    0    0  0.00000000000E+00  0.00000000000E+00  0.35740347158E-01  0.35744000000E-01  0.51099999109E-03 0.  1.
       11   -1    0    0    0    0 -0.00000000000E+00 -0.00000000000E+00 -0.35740347158E-01  0.35744000000E-01  0.51099999109E-03 0. -1.
       22    1    1    2    0    0 -0.68223689482E-02  0.79877418586E-02  0.34158232489E-01  0.35737005818E-01  0.00000000000E+00 0.  1.
  9000001    1    1    2    0    0  0.68223689482E-02 -0.79877418586E-02 -0.34158232489E-01  0.35750994182E-01  0.10000000475E-02 0. -1.
</event>
<event>
 4   0  0.4958067E-02  0.9118800E+02  0.7818609E-02  0.1379984E+01
      -11   -1    0    0    0    0  0.00000000000E+00  0.00000000000E+00  0.35740347158E-01  0.35744000000E-01  0.51099999109E-03 0. -1.
       11   -1    0    0    0    0 -0.00000000000E+00 -0.00000000000E+00 -0.35740347158E-01  0.35744000000E-01  0.51099999109E-03 0.  1.
       22    1    1    2    0    0 -0.26744167939E-01  0.11735318831E-01 -0.20595275139E-01  0.35737005818E-01  0.00000000000E+00 0.  1.
  9000001    1    1    2    0    0  0.26744167939E-01 -0.11735318831E-01  0.20595275139E-01  0.35750994182E-01  0.10000000475E-02 0. -1.
</event>
<event>
 4   0  0.4958067E-02  0.9118800E+02  0.7818609E-02  0.1379984E+01
      -11   -1    0    0    0    0  0.00000000000E+00  0.00000000000E+00  0.35740347158E-01  0.35744000000E-01  0.51099999109E-03 0. -1.
       11   -1    0    0    0    0 -0.00000000000E+00 -0.00000000000E+00 -0.35740347158E-01  0.35744000000E-01  0.51099999109E-03 0.  1.
       22    1    1    2    0    0 -0.12012062739E-01  0.10238579695E-01  0.32062679543E-01  0.35737005818E-01  0.00000000000E+00 0. -1.
  9000001    1    1    2    0    0  0.12012062739E-01 -0.10238579695E-01 -0.32062679543E-01  0.35750994182E-01  0.10000000475E-02 0.  1.
</event>
<event>
 4   0  0.4958067E-02  0.9118800E+02  0.7818609E-02  0.1379984E+01
      -11   -1    0    0    0    0  0.00000000000E+00  0.00000000000E+00  0.35740347158E-01  0.35744000000E-01  0.51099999109E-03 0. -1.
       11   -1    0    0    0    0 -0.00000000000E+00 -0.00000000000E+00 -0.35740347158E-01  0.35744000000E-01  0.51099999109E-03 0.  1.
       22    1    1    2    0    0 -0.10872305086E-01 -0.18429472520E-02 -0.33993089186E-01  0.35737005818E-01  0.00000000000E+00 0.  1.
  9000001    1    1    2    0    0  0.10872305086E-01  0.18429472520E-02  0.33993089186E-01  0.35750994182E-01  0.10000000475E-02 0. -1.
</event>
<event>
 4   0  0.4958067E-02  0.9118800E+02  0.7818609E-02  0.1379984E+01
      -11   -1    0    0    0    0  0.00000000000E+00  0.00000000000E+00  0.35740347158E-01  0.35744000000E-01  0.51099999109E-03 0.  1.
       11   -1    0    0    0    0 -0.00000000000E+00 -0.00000000000E+00 -0.35740347158E-01  0.35744000000E-01  0.51099999109E-03 0. -1.
       22    1    1    2    0    0  0.18008107465E-02 -0.30276954368E-02  0.35562954403E-01  0.35737005818E-01  0.00000000000E+00 0.  1.
  9000001    1    1    2    0    0 -0.18008107465E-02  0.30276954368E-02 -0.35562954403E-01  0.35750994182E-01  0.10000000475E-02 0. -1.
</event>
<event>
 4   0  0.4958067E-02  0.9118800E+02  0.7818609E-02  0.1379984E+01
      -11   -1    0    0    0    0  0.00000000000E+00  0.00000000000E+00  0.35740347158E-01  0.35744000000E-01  0.51099999109E-03 0. -1.
       11   -1    0    0    0    0 -0.00000000000E+00 -0.00000000000E+00 -0.35740347158E-01  0.35744000000E-01  0.51099999109E-03 0.  1.
       22    1    1    2    0    0  0.95482740557E-02  0.33524677646E-01  0.78778192530E-02  0.35737005818E-01  0.00000000000E+00 0. -1.
  9000001    1    1    2    0    0 -0.95482740557E-02 -0.33524677646E-01 -0.78778192530E-02  0.35750994182E-01  0.10000000475E-02 0.  1.
</event>
<event>
 4   0  0.4958067E-02  0.9118800E+02  0.7818609E-02  0.1379984E+01
      -11   -1    0    0    0    0  0.00000000000E+00  0.00000000000E+00  0.35740347158E-01  0.35744000000E-01  0.51099999109E-03 0.  1.
       11   -1    0    0    0    0 -0.00000000000E+00 -0.00000000000E+00 -0.35740347158E-01  0.35744000000E-01  0.51099999109E-03 0. -1.
       22    1    1    2    0    0  0.50748315535E-02  0.87399493432E-02  0.34278170241E-01  0.35737005818E-01  0.00000000000E+00 0.  1.
  9000001    1    1    2    0    0 -0.50748315535E-02 -0.87399493432E-02 -0.34278170241E-01  0.35750994182E-01  0.10000000475E-02 0. -1.
</event>
<event>
 4   0  0.4958067E-02  0.9118800E+02  0.7818609E-02  0.1379984E+01
      -11   -1    0    0    0    0  0.00000000000E+00  0.00000000000E+00  0.35740347158E-01  0.35744000000E-01  0.51099999109E-03 0.  1.
       11   -1    0    0    0    0 -0.00000000000E+00 -0.00000000000E+00 -0.35740347158E-01  0.35744000000E-01  0.51099999109E-03 0. -1.
       22    1    1    2    0    0 -0.18618253174E-02  0.33044692070E-02  0.35535161103E-01  0.35737005818E-01  0.00000000000E+00 0.  1.
  9000001    1    1    2    0    0  0.18618253174E-02 -0.33044692070E-02 -0.35535161103E-01  0.35750994182E-01  0.10000000475E-02 0. -1.
</event>
<event>
 4   0  0.4958067E-02  0.9118800E+02  0.7818609E-02  0.1379984E+01
      -11   -1    0    0    0    0  0.00000000000E+00  0.00000000000E+00  0.35740347158E-01  0.35744000000E-01  0.51099999109E-03 0. -1.
       11   -1    0    0    0    0 -0.00000000000E+00 -0.00000000000E+00 -0.35740347158E-01  0.35744000000E-01  0.51099999109E-03 0.  1.
       22    1    1    2    0    0 -0.66049864115E-02  0.49934904463E-02 -0.34764533544E-01  0.35737005818E-01  0.00000000000E+00 0.  1.
  9000001    1    1    2    0    0  0.66049864115E-02 -0.49934904463E-02  0.34764533544E-01  0.35750994182E-01  0.10000000475E-02 0. -1.
</event>
<event>
 4   0  0.4958067E-02  0.9118800E+02  0.7818609E-02  0.1379984E+01
      -11   -1    0    0    0    0  0.00000000000E+00  0.00000000000E+00  0.35740347158E-01  0.35744000000E-01  0.51099999109E-03 0.  1.
       11   -1    0    0    0    0 -0.00000000000E+00 -0.00000000000E+00 -0.35740347158E-01  0.35744000000E-01  0.51099999109E-03 0. -1.
       22    1    1    2    0    0 -0.51633076693E-02 -0.17552890992E-01 -0.30698043205E-01  0.35737005818E-01  0.00000000000E+00 0. -1.
  9000001    1    1    2    0    0  0.51633076693E-02  0.17552890992E-01  0.30698043205E-01  0.35750994182E-01  0.10000000475E-02 0.  1.
</event>
<event>
 4   0  0.4958067E-02  0.9118800E+02  0.7818609E-02  0.1379984E+01
      -11   -1    0    0    0    0  0.00000000000E+00  0.00000000000E+00  0.35740347158E-01  0.35744000000E-01  0.51099999109E-03 0.  1.
       11   -1    0    0    0    0 -0.00000000000E+00 -0.00000000000E+00 -0.35740347158E-01  0.35744000000E-01  0.51099999109E-03 0. -1.
       22    1    1    2    0    0  0.80330424948E-02 -0.37958717635E-02  0.34614955882E-01  0.35737005818E-01  0.00000000000E+00 0.  1.
  9000001    1    1    2    0    0 -0.80330424948E-02  0.37958717635E-02 -0.34614955882E-01  0.35750994182E-01  0.10000000475E-02 0. -1.
</event>
<event>
 4   0  0.4958067E-02  0.9118800E+02  0.7818609E-02  0.1379984E+01
      -11   -1    0    0    0    0  0.00000000000E+00  0.00000000000E+00  0.35740347158E-01  0.35744000000E-01  0.51099999109E-03 0. -1.
       11   -1    0    0    0    0 -0.00000000000E+00 -0.00000000000E+00 -0.35740347158E-01  0.35744000000E-01  0.51099999109E-03 0.  1.
       22    1    1    2    0    0  0.30066809556E-01 -0.16871043427E-01  0.94068295220E-02  0.35737005818E-01  0.00000000000E+00 0. -1.
  9000001    1    1    2    0    0 -0.30066809556E-01  0.16871043427E-01 -0.94068295220E-02  0.35750994182E-01  0.10000000475E-02 0.  1.
</event>
<event>
 4   0  0.4958067E-02  0.9118800E+02  0.7818609E-02  0.1379984E+01
      -11   -1    0    0    0    0  0.00000000000E+00  0.00000000000E+00  0.35740347158E-01  0.35744000000E-01  0.51099999109E-03 0. -1.
       11   -1    0    0    0    0 -0.00000000000E+00 -0.00000000000E+00 -0.35740347158E-01  0.35744000000E-01  0.51099999109E-03 0.  1.
       22    1    1    2    0    0 -0.29461839860E-02  0.14403008256E-01 -0.32573101448E-01  0.35737005818E-01  0.00000000000E+00 0.  1.
  9000001    1    1    2    0    0  0.29461839860E-02 -0.14403008256E-01  0.32573101448E-01  0.35750994182E-01  0.10000000475E-02 0. -1.
</event>
<event>
 4   0  0.4958067E-02  0.9118800E+02  0.7818609E-02  0.1379984E+01
      -11   -1    0    0    0    0  0.00000000000E+00  0.00000000000E+00  0.35740347158E-01  0.35744000000E-01  0.51099999109E-03 0.  1.
       11   -1    0    0    0    0 -0.00000000000E+00 -0.00000000000E+00 -0.35740347158E-01  0.35744000000E-01  0.51099999109E-03 0. -1.
       22    1    1    2    0    0  0.11135011021E-01  0.12662011573E-01  0.31509023745E-01  0.35737005818E-01  0.00000000000E+00 0.  1.
  9000001    1    1    2    0    0 -0.11135011021E-01 -0.12662011573E-01 -0.31509023745E-01  0.35750994182E-01  0.10000000475E-02 0. -1.
</event>
<event>
 4   0  0.4958067E-02  0.9118800E+02  0.7818609E-02  0.1379984E+01
      -11   -1    0    0    0    0  0.00000000000E+00  0.00000000000E+00  0.35740347158E-01  0.35744000000E-01  0.51099999109E-03 0.  1.
       11   -1    0    0    0    0 -0.00000000000E+00 -0.00000000000E+00 -0.35740347158E-01  0.35744000000E-01  0.51099999109E-03 0. -1.
       22    1    1    2    0    0 -0.12816207940E-02  0.53080301000E-02 -0.35317359039E-01  0.35737005818E-01  0.00000000000E+00 0. -1.
  9000001    1    1    2    0    0  0.12816207940E-02 -0.53080301000E-02  0.35317359039E-01  0.35750994182E-01  0.10000000475E-02 0.  1.
</event>
<event>
 4   0  0.4958067E-02  0.9118800E+02  0.7818609E-02  0.1379984E+01
      -11   -1    0    0    0    0  0.00000000000E+00  0.00000000000E+00  0.35740347158E-01  0.35744000000E-01  0.51099999109E-03 0. -1.
       11   -1    0    0    0    0 -0.00000000000E+00 -0.00000000000E+00 -0.35740347158E-01  0.35744000000E-01  0.51099999109E-03 0.  1.
       22    1    1    2    0    0 -0.33207337527E-02 -0.73251522723E-03 -0.35574846924E-01  0.35737005818E-01  0.00000000000E+00 0.  1.
  9000001    1    1    2    0    0  0.33207337527E-02  0.73251522723E-03  0.35574846924E-01  0.35750994182E-01  0.10000000475E-02 0. -1.
</event>
<event>
 4   0  0.4958067E-02  0.9118800E+02  0.7818609E-02  0.1379984E+01
      -11   -1    0    0    0    0  0.00000000000E+00  0.00000000000E+00  0.35740347158E-01  0.35744000000E-01  0.51099999109E-03 0.  1.
       11   -1    0    0    0    0 -0.00000000000E+00 -0.00000000000E+00 -0.35740347158E-01  0.35744000000E-01  0.51099999109E-03 0. -1.
       22    1    1    2    0    0 -0.23510615177E-02  0.53969741324E-02 -0.35248812247E-01  0.35737005818E-01  0.00000000000E+00 0. -1.
  9000001    1    1    2    0    0  0.23510615177E-02 -0.53969741324E-02  0.35248812247E-01  0.35750994182E-01  0.10000000475E-02 0.  1.
</event>
<event>
 4   0  0.4958067E-02  0.9118800E+02  0.7818609E-02  0.1379984E+01
      -11   -1    0    0    0    0  0.00000000000E+00  0.00000000000E+00  0.35740347158E-01  0.35744000000E-01  0.51099999109E-03 0.  1.
       11   -1    0    0    0    0 -0.00000000000E+00 -0.00000000000E+00 -0.35740347158E-01  0.35744000000E-01  0.51099999109E-03 0. -1.
       22    1    1    2    0    0  0.15426811918E-01 -0.10646378170E-01  0.30426989512E-01  0.35737005818E-01  0.00000000000E+00 0. -1.
  9000001    1    1    2    0    0 -0.15426811918E-01  0.10646378170E-01 -0.30426989512E-01  0.35750994182E-01  0.10000000475E-02 0.  1.
</event>
<event>
 4   0  0.4958067E-02  0.9118800E+02  0.7818609E-02  0.1379984E+01
      -11   -1    0    0    0    0  0.00000000000E+00  0.00000000000E+00  0.35740347158E-01  0.35744000000E-01  0.51099999109E-03 0.  1.
       11   -1    0    0    0    0 -0.00000000000E+00 -0.00000000000E+00 -0.35740347158E-01  0.35744000000E-01  0.51099999109E-03 0. -1.
       22    1    1    2    0    0 -0.77514375572E-02  0.14343905530E-02  0.34856725670E-01  0.35737005818E-01  0.00000000000E+00 0.  1.
  9000001    1    1    2    0    0  0.77514375572E-02 -0.14343905530E-02 -0.34856725670E-01  0.35750994182E-01  0.10000000475E-02 0. -1.
</event>
<event>
 4   0  0.4958067E-02  0.9118800E+02  0.7818609E-02  0.1379984E+01
      -11   -1    0    0    0    0  0.00000000000E+00  0.00000000000E+00  0.35740347158E-01  0.35744000000E-01  0.51099999109E-03 0. -1.
       11   -1    0    0    0    0 -0.00000000000E+00 -0.00000000000E+00 -0.35740347158E-01  0.35744000000E-01  0.51099999109E-03 0.  1.
       22    1    1    2    0    0 -0.37795932250E-02 -0.14048468243E-03 -0.35536298681E-01  0.35737005818E-01  0.00000000000E+00 0.  1.
  9000001    1    1    2    0    0  0.37795932250E-02  0.14048468243E-03  0.35536298681E-01  0.35750994182E-01  0.10000000475E-02 0. -1.
</event>
<event>
 4   0  0.4958067E-02  0.9118800E+02  0.7818609E-02  0.1379984E+01
      -11   -1    0    0    0    0  0.00000000000E+00  0.00000000000E+00  0.35740347158E-01  0.35744000000E-01  0.51099999109E-03 0. -1.
       11   -1    0    0    0    0 -0.00000000000E+00 -0.00000000000E+00 -0.35740347158E-01  0.35744000000E-01  0.51099999109E-03 0.  1.
       22    1    1    2    0    0  0.60113449785E-02 -0.10942538343E-03  0.35227621868E-01  0.35737005818E-01  0.00000000000E+00 0. -1.
  9000001    1    1    2    0    0 -0.60113449785E-02  0.10942538343E-03 -0.35227621868E-01  0.35750994182E-01  0.10000000475E-02 0.  1.
</event>
<event>
 4   0  0.4958067E-02  0.9118800E+02  0.7818609E-02  0.1379984E+01
      -11   -1    0    0    0    0  0.00000000000E+00  0.00000000000E+00  0.35740347158E-01  0.35744000000E-01  0.51099999109E-03 0.  1.
       11   -1    0    0    0    0 -0.00000000000E+00 -0.00000000000E+00 -0.35740347158E-01  0.35744000000E-01  0.51099999109E-03 0. -1.
       22    1    1    2    0    0 -0.11015853369E-01 -0.19630177052E-01  0.27756813728E-01  0.35737005818E-01  0.00000000000E+00 0.  1.
  9000001    1    1    2    0    0  0.11015853369E-01  0.19630177052E-01 -0.27756813728E-01  0.35750994182E-01  0.10000000475E-02 0. -1.
</event>
<event>
 4   0  0.4958067E-02  0.9118800E+02  0.7818609E-02  0.1379984E+01
      -11   -1    0    0    0    0  0.00000000000E+00  0.00000000000E+00  0.35740347158E-01  0.35744000000E-01  0.51099999109E-03 0. -1.
       11   -1    0    0    0    0 -0.00000000000E+00 -0.00000000000E+00 -0.35740347158E-01  0.35744000000E-01  0.51099999109E-03 0.  1.
       22    1    1    2    0    0  0.89173460136E-02  0.22542284569E-02 -0.34533070802E-01  0.35737005818E-01  0.00000000000E+00 0.  1.
  9000001    1    1    2    0    0 -0.89173460136E-02 -0.22542284569E-02  0.34533070802E-01  0.35750994182E-01  0.10000000475E-02 0. -1.
</event>
<event>
 4   0  0.4958067E-02  0.9118800E+02  0.7818609E-02  0.1379984E+01
      -11   -1    0    0    0    0  0.00000000000E+00  0.00000000000E+00  0.35740347158E-01  0.35744000000E-01  0.51099999109E-03 0. -1.
       11   -1    0    0    0    0 -0.00000000000E+00 -0.00000000000E+00 -0.35740347158E-01  0.35744000000E-01  0.51099999109E-03 0.  1.
       22    1    1    2    0    0 -0.60918608443E-02  0.12265117694E-01  0.33008933704E-01  0.35737005818E-01  0.00000000000E+00 0. -1.
  9000001    1    1    2    0    0  0.60918608443E-02 -0.12265117694E-01 -0.33008933704E-01  0.35750994182E-01  0.10000000475E-02 0.  1.
</event>
<event>
 4   0  0.4958067E-02  0.9118800E+02  0.7818609E-02  0.1379984E+01
      -11   -1    0    0    0    0  0.00000000000E+00  0.00000000000E+00  0.35740347158E-01  0.35744000000E-01  0.51099999109E-03 0. -1.
       11   -1    0    0    0    0 -0.00000000000E+00 -0.00000000000E+00 -0.35740347158E-01  0.35744000000E-01  0.51099999109E-03 0.  1.
       22    1    1    2    0    0  0.19031691138E-01  0.30110709078E-01  0.28763720383E-02  0.35737005818E-01  0.00000000000E+00 0. -1.
  9000001    1    1    2    0    0 -0.19031691138E-01 -0.30110709078E-01 -0.28763720383E-02  0.35750994182E-01  0.10000000475E-02 0.  1.
</event>
<event>
 4   0  0.4958067E-02  0.9118800E+02  0.7818609E-02  0.1379984E+01
      -11   -1    0    0    0    0  0.00000000000E+00  0.00000000000E+00  0.35740347158E-01  0.35744000000E-01  0.51099999109E-03 0. -1.
       11   -1    0    0    0    0 -0.00000000000E+00 -0.00000000000E+00 -0.35740347158E-01  0.35744000000E-01  0.51099999109E-03 0.  1.
       22    1    1    2    0    0  0.73787195881E-02  0.22381131553E-01 -0.26865833925E-01  0.35737005818E-01  0.00000000000E+00 0.  1.
  9000001    1    1    2    0    0 -0.73787195881E-02 -0.22381131553E-01  0.26865833925E-01  0.35750994182E-01  0.10000000475E-02 0. -1.
</event>
<event>
 4   0  0.4958067E-02  0.9118800E+02  0.7818609E-02  0.1379984E+01
      -11   -1    0    0    0    0  0.00000000000E+00  0.00000000000E+00  0.35740347158E-01  0.35744000000E-01  0.51099999109E-03 0.  1.
       11   -1    0    0    0    0 -0.00000000000E+00 -0.00000000000E+00 -0.35740347158E-01  0.35744000000E-01  0.51099999109E-03 0. -1.
       22    1    1    2    0    0  0.60402152408E-02  0.20244766606E-02  0.35164625392E-01  0.35737005818E-01  0.00000000000E+00 0.  1.
  9000001    1    1    2    0    0 -0.60402152408E-02 -0.20244766606E-02 -0.35164625392E-01  0.35750994182E-01  0.10000000475E-02 0. -1.
</event>
<event>
 4   0  0.4958067E-02  0.9118800E+02  0.7818609E-02  0.1379984E+01
      -11   -1    0    0    0    0  0.00000000000E+00  0.00000000000E+00  0.35740347158E-01  0.35744000000E-01  0.51099999109E-03 0.  1.
       11   -1    0    0    0    0 -0.00000000000E+00 -0.00000000000E+00 -0.35740347158E-01  0.35744000000E-01  0.51099999109E-03 0. -1.
       22    1    1    2    0    0  0.24375615238E-01 -0.10491987940E-01  0.23934935882E-01  0.35737005818E-01  0.00000000000E+00 0.  1.
  9000001    1    1    2    0    0 -0.24375615238E-01  0.10491987940E-01 -0.23934935882E-01  0.35750994182E-01  0.10000000475E-02 0. -1.
</event>
<event>
 4   0  0.4958067E-02  0.9118800E+02  0.7818609E-02  0.1379984E+01
      -11   -1    0    0    0    0  0.00000000000E+00  0.00000000000E+00  0.35740347158E-01  0.35744000000E-01  0.51099999109E-03 0. -1.
       11   -1    0    0    0    0 -0.00000000000E+00 -0.00000000000E+00 -0.35740347158E-01  0.35744000000E-01  0.51099999109E-03 0.  1.
       22    1    1    2    0    0 -0.11058920181E-02  0.34491912000E-01 -0.92853968302E-02  0.35737005818E-01  0.00000000000E+00 0.  1.
  9000001    1    1    2    0    0  0.11058920181E-02 -0.34491912000E-01  0.92853968302E-02  0.35750994182E-01  0.10000000475E-02 0. -1.
</event>
<event>
 4   0  0.4958067E-02  0.9118800E+02  0.7818609E-02  0.1379984E+01
      -11   -1    0    0    0    0  0.00000000000E+00  0.00000000000E+00  0.35740347158E-01  0.35744000000E-01  0.51099999109E-03 0. -1.
       11   -1    0    0    0    0 -0.00000000000E+00 -0.00000000000E+00 -0.35740347158E-01  0.35744000000E-01  0.51099999109E-03 0.  1.
       22    1    1    2    0    0 -0.54472777026E-02 -0.40218650121E-02 -0.35089675865E-01  0.35737005818E-01  0.00000000000E+00 0.  1.
  9000001    1    1    2    0    0  0.54472777026E-02  0.40218650121E-02  0.35089675865E-01  0.35750994182E-01  0.10000000475E-02 0. -1.
</event>
<event>
 4   0  0.4958067E-02  0.9118800E+02  0.7818609E-02  0.1379984E+01
      -11   -1    0    0    0    0  0.00000000000E+00  0.00000000000E+00  0.35740347158E-01  0.35744000000E-01  0.51099999109E-03 0.  1.
       11   -1    0    0    0    0 -0.00000000000E+00 -0.00000000000E+00 -0.35740347158E-01  0.35744000000E-01  0.51099999109E-03 0. -1.
       22    1    1    2    0    0 -0.58416336597E-02  0.18133349086E-01  0.30235584201E-01  0.35737005818E-01  0.00000000000E+00 0.  1.
  9000001    1    1    2    0    0  0.58416336597E-02 -0.18133349086E-01 -0.30235584201E-01  0.35750994182E-01  0.10000000475E-02 0. -1.
</event>
<event>
 4   0  0.4958067E-02  0.9118800E+02  0.7818609E-02  0.1379984E+01
      -11   -1    0    0    0    0  0.00000000000E+00  0.00000000000E+00  0.35740347158E-01  0.35744000000E-01  0.51099999109E-03 0. -1.
       11   -1    0    0    0    0 -0.00000000000E+00 -0.00000000000E+00 -0.35740347158E-01  0.35744000000E-01  0.51099999109E-03 0.  1.
       22    1    1    2    0    0 -0.50927043743E-02  0.11446553894E-02  0.35353751018E-01  0.35737005818E-01  0.00000000000E+00 0. -1.
  9000001    1    1    2    0    0  0.50927043743E-02 -0.11446553894E-02 -0.35353751018E-01  0.35750994182E-01  0.10000000475E-02 0.  1.
</event>
<event>
 4   0  0.4958067E-02  0.9118800E+02  0.7818609E-02  0.1379984E+01
      -11   -1    0    0    0    0  0.00000000000E+00  0.00000000000E+00  0.35740347158E-01  0.35744000000E-01  0.51099999109E-03 0.  1.
       11   -1    0    0    0    0 -0.00000000000E+00 -0.00000000000E+00 -0.35740347158E-01  0.35744000000E-01  0.51099999109E-03 0. -1.
       22    1    1    2    0    0  0.58164049372E-02  0.25782350595E-02 -0.35166116113E-01  0.35737005818E-01  0.00000000000E+00 0. -1.
  9000001    1    1    2    0    0 -0.58164049372E-02 -0.25782350595E-02  0.35166116113E-01  0.35750994182E-01  0.10000000475E-02 0.  1.
</event>
<event>
 4   0  0.4958067E-02  0.9118800E+02  0.7818609E-02  0.1379984E+01
      -11   -1    0    0    0    0  0.00000000000E+00  0.00000000000E+00  0.35740347158E-01  0.35744000000E-01  0.51099999109E-03 0. -1.
       11   -1    0    0    0    0 -0.00000000000E+00 -0.00000000000E+00 -0.35740347158E-01  0.35744000000E-01  0.51099999109E-03 0.  1.
       22    1    1    2    0    0 -0.10245432244E-02  0.40482303279E-02 -0.35492192483E-01  0.35737005818E-01  0.00000000000E+00 0.  1.
  9000001    1    1    2    0    0  0.10245432244E-02 -0.40482303279E-02  0.35492192483E-01  0.35750994182E-01  0.10000000475E-02 0. -1.
</event>
<event>
 4   0  0.4958067E-02  0.9118800E+02  0.7818609E-02  0.1379984E+01
      -11   -1    0    0    0    0  0.00000000000E+00  0.00000000000E+00  0.35740347158E-01  0.35744000000E-01  0.51099999109E-03 0.  1.
       11   -1    0    0    0    0 -0.00000000000E+00 -0.00000000000E+00 -0.35740347158E-01  0.35744000000E-01  0.51099999109E-03 0. -1.
       22    1    1    2    0    0  0.14667140239E-01  0.11716612106E-01 -0.30409366696E-01  0.35737005818E-01  0.00000000000E+00 0. -1.
  9000001    1    1    2    0    0 -0.14667140239E-01 -0.11716612106E-01  0.30409366696E-01  0.35750994182E-01  0.10000000475E-02 0.  1.
</event>
<event>
 4   0  0.4958067E-02  0.9118800E+02  0.7818609E-02  0.1379984E+01
      -11   -1    0    0    0    0  0.00000000000E+00  0.00000000000E+00  0.35740347158E-01  0.35744000000E-01  0.51099999109E-03 0.  1.
       11   -1    0    0    0    0 -0.00000000000E+00 -0.00000000000E+00 -0.35740347158E-01  0.35744000000E-01  0.51099999109E-03 0. -1.
       22    1    1    2    0    0 -0.92470494973E-03  0.30922548994E-01 -0.17890625180E-01  0.35737005818E-01  0.00000000000E+00 0. -1.
  9000001    1    1    2    0    0  0.92470494973E-03 -0.30922548994E-01  0.17890625180E-01  0.35750994182E-01  0.10000000475E-02 0.  1.
</event>
<event>
 4   0  0.4958067E-02  0.9118800E+02  0.7818609E-02  0.1379984E+01
      -11   -1    0    0    0    0  0.00000000000E+00  0.00000000000E+00  0.35740347158E-01  0.35744000000E-01  0.51099999109E-03 0. -1.
       11   -1    0    0    0    0 -0.00000000000E+00 -0.00000000000E+00 -0.35740347158E-01  0.35744000000E-01  0.51099999109E-03 0.  1.
       22    1    1    2    0    0 -0.73893424054E-02  0.89638138561E-03 -0.34953221655E-01  0.35737005818E-01  0.00000000000E+00 0.  1.
  9000001    1    1    2    0    0  0.73893424054E-02 -0.89638138561E-03  0.34953221655E-01  0.35750994182E-01  0.10000000475E-02 0. -1.
</event>
<event>
 4   0  0.4958067E-02  0.9118800E+02  0.7818609E-02  0.1379984E+01
      -11   -1    0    0    0    0  0.00000000000E+00  0.00000000000E+00  0.35740347158E-01  0.35744000000E-01  0.51099999109E-03 0.  1.
       11   -1    0    0    0    0 -0.00000000000E+00 -0.00000000000E+00 -0.35740347158E-01  0.35744000000E-01  0.51099999109E-03 0. -1.
       22    1    1    2    0    0 -0.20405361862E-02 -0.27037102743E-02 -0.35576112037E-01  0.35737005818E-01  0.00000000000E+00 0. -1.
  9000001    1    1    2    0    0  0.20405361862E-02  0.27037102743E-02  0.35576112037E-01  0.35750994182E-01  0.10000000475E-02 0.  1.
</event>
<event>
 4   0  0.4958067E-02  0.9118800E+02  0.7818609E-02  0.1379984E+01
      -11   -1    0    0    0    0  0.00000000000E+00  0.00000000000E+00  0.35740347158E-01  0.35744000000E-01  0.51099999109E-03 0.  1.
       11   -1    0    0    0    0 -0.00000000000E+00 -0.00000000000E+00 -0.35740347158E-01  0.35744000000E-01  0.51099999109E-03 0. -1.
       22    1    1    2    0    0  0.27759021434E-01 -0.22031410892E-01 -0.46029607853E-02  0.35737005818E-01  0.00000000000E+00 0.  1.
  9000001    1    1    2    0    0 -0.27759021434E-01  0.22031410892E-01  0.46029607853E-02  0.35750994182E-01  0.10000000475E-02 0. -1.
</event>
<event>
 4   0  0.4958067E-02  0.9118800E+02  0.7818609E-02  0.1379984E+01
      -11   -1    0    0    0    0  0.00000000000E+00  0.00000000000E+00  0.35740347158E-01  0.35744000000E-01  0.51099999109E-03 0. -1.
       11   -1    0    0    0    0 -0.00000000000E+00 -0.00000000000E+00 -0.35740347158E-01  0.35744000000E-01  0.51099999109E-03 0.  1.
       22    1    1    2    0    0 -0.31931976661E-02 -0.27154527255E-01 -0.23012360224E-01  0.35737005818E-01  0.00000000000E+00 0.  1.
  9000001    1    1    2    0    0  0.31931976661E-02  0.27154527255E-01  0.23012360224E-01  0.35750994182E-01  0.10000000475E-02 0. -1.
</event>
<event>
 4   0  0.4958067E-02  0.9118800E+02  0.7818609E-02  0.1379984E+01
      -11   -1    0    0    0    0  0.00000000000E+00  0.00000000000E+00  0.35740347158E-01  0.35744000000E-01  0.51099999109E-03 0.  1.
       11   -1    0    0    0    0 -0.00000000000E+00 -0.00000000000E+00 -0.35740347158E-01  0.35744000000E-01  0.51099999109E-03 0. -1.
       22    1    1    2    0    0  0.35401707491E-05  0.45112161634E-02  0.35451128347E-01  0.35737005818E-01  0.00000000000E+00 0.  1.
  9000001    1    1    2    0    0 -0.35401707491E-05 -0.45112161634E-02 -0.35451128347E-01  0.35750994182E-01  0.10000000475E-02 0. -1.
</event>
<event>
 4   0  0.4958067E-02  0.9118800E+02  0.7818609E-02  0.1379984E+01
      -11   -1    0    0    0    0  0.00000000000E+00  0.00000000000E+00  0.35740347158E-01  0.35744000000E-01  0.51099999109E-03 0.  1.
       11   -1    0    0    0    0 -0.00000000000E+00 -0.00000000000E+00 -0.35740347158E-01  0.35744000000E-01  0.51099999109E-03 0. -1.
       22    1    1    2    0    0 -0.16657594220E-01 -0.27126969902E-01  0.16241479108E-01  0.35737005818E-01  0.00000000000E+00 0.  1.
  9000001    1    1    2    0    0  0.16657594220E-01  0.27126969902E-01 -0.16241479108E-01  0.35750994182E-01  0.10000000475E-02 0. -1.
</event>
<event>
 4   0  0.4958067E-02  0.9118800E+02  0.7818609E-02  0.1379984E+01
      -11   -1    0    0    0    0  0.00000000000E+00  0.00000000000E+00  0.35740347158E-01  0.35744000000E-01  0.51099999109E-03 0. -1.
       11   -1    0    0    0    0 -0.00000000000E+00 -0.00000000000E+00 -0.35740347158E-01  0.35744000000E-01  0.51099999109E-03 0.  1.
       22    1    1    2    0    0  0.28610970747E-01 -0.14015494241E-01 -0.16189869022E-01  0.35737005818E-01  0.00000000000E+00 0.  1.
  9000001    1    1    2    0    0 -0.28610970747E-01  0.14015494241E-01  0.16189869022E-01  0.35750994182E-01  0.10000000475E-02 0. -1.
</event>
<event>
 4   0  0.4958067E-02  0.9118800E+02  0.7818609E-02  0.1379984E+01
      -11   -1    0    0    0    0  0.00000000000E+00  0.00000000000E+00  0.35740347158E-01  0.35744000000E-01  0.51099999109E-03 0. -1.
       11   -1    0    0    0    0 -0.00000000000E+00 -0.00000000000E+00 -0.35740347158E-01  0.35744000000E-01  0.51099999109E-03 0.  1.
       22    1    1    2    0    0  0.27705232195E-01  0.75159323632E-03 -0.22560780162E-01  0.35737005818E-01  0.00000000000E+00 0.  1.
  9000001    1    1    2    0    0 -0.27705232195E-01 -0.75159323632E-03  0.22560780162E-01  0.35750994182E-01  0.10000000475E-02 0. -1.
</event>
<event>
 4   0  0.4958067E-02  0.9118800E+02  0.7818609E-02  0.1379984E+01
      -11   -1    0    0    0    0  0.00000000000E+00  0.00000000000E+00  0.35740347158E-01  0.35744000000E-01  0.51099999109E-03 0. -1.
       11   -1    0    0    0    0 -0.00000000000E+00 -0.00000000000E+00 -0.35740347158E-01  0.35744000000E-01  0.51099999109E-03 0.  1.
       22    1    1    2    0    0 -0.99010617660E-02  0.33881475749E-01 -0.55810538269E-02  0.35737005818E-01  0.00000000000E+00 0. -1.
  9000001    1    1    2    0    0  0.99010617660E-02 -0.33881475749E-01  0.55810538269E-02  0.35750994182E-01  0.10000000475E-02 0.  1.
</event>
<event>
 4   0  0.4958067E-02  0.9118800E+02  0.7818609E-02  0.1379984E+01
      -11   -1    0    0    0    0  0.00000000000E+00  0.00000000000E+00  0.35740347158E-01  0.35744000000E-01  0.51099999109E-03 0. -1.
       11   -1    0    0    0    0 -0.00000000000E+00 -0.00000000000E+00 -0.35740347158E-01  0.35744000000E-01  0.51099999109E-03 0.  1.
       22    1    1    2    0    0  0.15146975126E-01  0.13168219899E-01  0.29568576464E-01  0.35737005818E-01  0.00000000000E+00 0. -1.
  9000001    1    1    2    0    0 -0.15146975126E-01 -0.13168219899E-01 -0.29568576464E-01  0.35750994182E-01  0.10000000475E-02 0.  1.
</event>
<event>
 4   0  0.4958067E-02  0.9118800E+02  0.7818609E-02  0.1379984E+01
      -11   -1    0    0    0    0  0.00000000000E+00  0.00000000000E+00  0.35740347158E-01  0.35744000000E-01  0.51099999109E-03 0.  1.
       11   -1    0    0    0    0 -0.00000000000E+00 -0.00000000000E+00 -0.35740347158E-01  0.35744000000E-01  0.51099999109E-03 0. -1.
       22    1    1    2    0    0  0.54229818001E-03  0.53184531686E-02 -0.35334877295E-01  0.35737005818E-01  0.00000000000E+00 0. -1.
  9000001    1    1    2    0    0 -0.54229818001E-03 -0.53184531686E-02  0.35334877295E-01  0.35750994182E-01  0.10000000475E-02 0.  1.
</event>
<event>
 4   0  0.4958067E-02  0.9118800E+02  0.7818609E-02  0.1379984E+01
      -11   -1    0    0    0    0  0.00000000000E+00  0.00000000000E+00  0.35740347158E-01  0.35744000000E-01  0.51099999109E-03 0.  1.
       11   -1    0    0    0    0 -0.00000000000E+00 -0.00000000000E+00 -0.35740347158E-01  0.35744000000E-01  0.51099999109E-03 0. -1.
       22    1    1    2    0    0 -0.21118000990E-01 -0.10128619948E-02  0.28812110816E-01  0.35737005818E-01  0.00000000000E+00 0.  1.
  9000001    1    1    2    0    0  0.21118000990E-01  0.10128619948E-02 -0.28812110816E-01  0.35750994182E-01  0.10000000475E-02 0. -1.
</event>
<event>
 4   0  0.4958067E-02  0.9118800E+02  0.7818609E-02  0.1379984E+01
      -11   -1    0    0    0    0  0.00000000000E+00  0.00000000000E+00  0.35740347158E-01  0.35744000000E-01  0.51099999109E-03 0. -1.
       11   -1    0    0    0    0 -0.00000000000E+00 -0.00000000000E+00 -0.35740347158E-01  0.35744000000E-01  0.51099999109E-03 0.  1.
       22    1    1    2    0    0  0.61745489466E-02 -0.23324247364E-03  0.35198780208E-01  0.35737005818E-01  0.00000000000E+00 0. -1.
  9000001    1    1    2    0    0 -0.61745489466E-02  0.23324247364E-03 -0.35198780208E-01  0.35750994182E-01  0.10000000475E-02 0.  1.
</event>
<event>
 4   0  0.4958067E-02  0.9118800E+02  0.7818609E-02  0.1379984E+01
      -11   -1    0    0    0    0  0.00000000000E+00  0.00000000000E+00  0.35740347158E-01  0.35744000000E-01  0.51099999109E-03 0. -1.
       11   -1    0    0    0    0 -0.00000000000E+00 -0.00000000000E+00 -0.35740347158E-01  0.35744000000E-01  0.51099999109E-03 0.  1.
       22    1    1    2    0    0 -0.51985926121E-02 -0.30609748796E-03  0.35355544460E-01  0.35737005818E-01  0.00000000000E+00 0. -1.
  9000001    1    1    2    0    0  0.51985926121E-02  0.30609748796E-03 -0.35355544460E-01  0.35750994182E-01  0.10000000475E-02 0.  1.
</event>
<event>
 4   0  0.4958067E-02  0.9118800E+02  0.7818609E-02  0.1379984E+01
      -11   -1    0    0    0    0  0.00000000000E+00  0.00000000000E+00  0.35740347158E-01  0.35744000000E-01  0.51099999109E-03 0. -1.
       11   -1    0    0    0    0 -0.00000000000E+00 -0.00000000000E+00 -0.35740347158E-01  0.35744000000E-01  0.51099999109E-03 0.  1.
       22    1    1    2    0    0  0.77362111146E-02  0.63888799533E-02  0.34299662322E-01  0.35737005818E-01  0.00000000000E+00 0. -1.
  9000001    1    1    2    0    0 -0.77362111146E-02 -0.63888799533E-02 -0.34299662322E-01  0.35750994182E-01  0.10000000475E-02 0.  1.
</event>
<event>
 4   0  0.4958067E-02  0.9118800E+02  0.7818609E-02  0.1379984E+01
      -11   -1    0    0    0    0  0.00000000000E+00  0.00000000000E+00  0.35740347158E-01  0.35744000000E-01  0.51099999109E-03 0. -1.
       11   -1    0    0    0    0 -0.00000000000E+00 -0.00000000000E+00 -0.35740347158E-01  0.35744000000E-01  0.51099999109E-03 0.  1.
       22    1    1    2    0    0 -0.14345962165E-01 -0.32373895375E-01  0.48226395932E-02  0.35737005818E-01  0.00000000000E+00 0. -1.
  9000001    1    1    2    0    0  0.14345962165E-01  0.32373895375E-01 -0.48226395932E-02  0.35750994182E-01  0.10000000475E-02 0.  1.
</event>
<event>
 4   0  0.4958067E-02  0.9118800E+02  0.7818609E-02  0.1379984E+01
      -11   -1    0    0    0    0  0.00000000000E+00  0.00000000000E+00  0.35740347158E-01  0.35744000000E-01  0.51099999109E-03 0. -1.
       11   -1    0    0    0    0 -0.00000000000E+00 -0.00000000000E+00 -0.35740347158E-01  0.35744000000E-01  0.51099999109E-03 0.  1.
       22    1    1    2    0    0 -0.28631707416E-02  0.17331962174E-02  0.35579936327E-01  0.35737005818E-01  0.00000000000E+00 0. -1.
  9000001    1    1    2    0    0  0.28631707416E-02 -0.17331962174E-02 -0.35579936327E-01  0.35750994182E-01  0.10000000475E-02 0.  1.
</event>
<event>
 4   0  0.4958067E-02  0.9118800E+02  0.7818609E-02  0.1379984E+01
      -11   -1    0    0    0    0  0.00000000000E+00  0.00000000000E+00  0.35740347158E-01  0.35744000000E-01  0.51099999109E-03 0. -1.
       11   -1    0    0    0    0 -0.00000000000E+00 -0.00000000000E+00 -0.35740347158E-01  0.35744000000E-01  0.51099999109E-03 0.  1.
       22    1    1    2    0    0 -0.12302680735E-02  0.54497785097E-02 -0.35297591129E-01  0.35737005818E-01  0.00000000000E+00 0.  1.
  9000001    1    1    2    0    0  0.12302680735E-02 -0.54497785097E-02  0.35297591129E-01  0.35750994182E-01  0.10000000475E-02 0. -1.
</event>
<event>
 4   0  0.4958067E-02  0.9118800E+02  0.7818609E-02  0.1379984E+01
      -11   -1    0    0    0    0  0.00000000000E+00  0.00000000000E+00  0.35740347158E-01  0.35744000000E-01  0.51099999109E-03 0. -1.
       11   -1    0    0    0    0 -0.00000000000E+00 -0.00000000000E+00 -0.35740347158E-01  0.35744000000E-01  0.51099999109E-03 0.  1.
       22    1    1    2    0    0 -0.49724679721E-03  0.30801491278E-02 -0.35600547915E-01  0.35737005818E-01  0.00000000000E+00 0.  1.
  9000001    1    1    2    0    0  0.49724679721E-03 -0.30801491278E-02  0.35600547915E-01  0.35750994182E-01  0.10000000475E-02 0. -1.
</event>
<event>
 4   0  0.4958067E-02  0.9118800E+02  0.7818609E-02  0.1379984E+01
      -11   -1    0    0    0    0  0.00000000000E+00  0.00000000000E+00  0.35740347158E-01  0.35744000000E-01  0.51099999109E-03 0.  1.
       11   -1    0    0    0    0 -0.00000000000E+00 -0.00000000000E+00 -0.35740347158E-01  0.35744000000E-01  0.51099999109E-03 0. -1.
       22    1    1    2    0    0 -0.30122155987E-01 -0.13353676708E-01  0.13837218722E-01  0.35737005818E-01  0.00000000000E+00 0. -1.
  9000001    1    1    2    0    0  0.30122155987E-01  0.13353676708E-01 -0.13837218722E-01  0.35750994182E-01  0.10000000475E-02 0.  1.
</event>
<event>
 4   0  0.4958067E-02  0.9118800E+02  0.7818609E-02  0.1379984E+01
      -11   -1    0    0    0    0  0.00000000000E+00  0.00000000000E+00  0.35740347158E-01  0.35744000000E-01  0.51099999109E-03 0. -1.
       11   -1    0    0    0    0 -0.00000000000E+00 -0.00000000000E+00 -0.35740347158E-01  0.35744000000E-01  0.51099999109E-03 0.  1.
       22    1    1    2    0    0 -0.66653045733E-02 -0.11509658170E-01  0.33169791507E-01  0.35737005818E-01  0.00000000000E+00 0. -1.
  9000001    1    1    2    0    0  0.66653045733E-02  0.11509658170E-01 -0.33169791507E-01  0.35750994182E-01  0.10000000475E-02 0.  1.
</event>
<event>
 4   0  0.4958067E-02  0.9118800E+02  0.7818609E-02  0.1379984E+01
      -11   -1    0    0    0    0  0.00000000000E+00  0.00000000000E+00  0.35740347158E-01  0.35744000000E-01  0.51099999109E-03 0. -1.
       11   -1    0    0    0    0 -0.00000000000E+00 -0.00000000000E+00 -0.35740347158E-01  0.35744000000E-01  0.51099999109E-03 0.  1.
       22    1    1    2    0    0  0.32833900712E-02 -0.82937725020E-03  0.35576186809E-01  0.35737005818E-01  0.00000000000E+00 0. -1.
  9000001    1    1    2    0    0 -0.32833900712E-02  0.82937725020E-03 -0.35576186809E-01  0.35750994182E-01  0.10000000475E-02 0.  1.
</event>
<event>
 4   0  0.4958067E-02  0.9118800E+02  0.7818609E-02  0.1379984E+01
      -11   -1    0    0    0    0  0.00000000000E+00  0.00000000000E+00  0.35740347158E-01  0.35744000000E-01  0.51099999109E-03 0. -1.
       11   -1    0    0    0    0 -0.00000000000E+00 -0.00000000000E+00 -0.35740347158E-01  0.35744000000E-01  0.51099999109E-03 0.  1.
       22    1    1    2    0    0  0.23894691416E-01  0.17927727033E-01  0.19615654729E-01  0.35737005818E-01  0.00000000000E+00 0. -1.
  9000001    1    1    2    0    0 -0.23894691416E-01 -0.17927727033E-01 -0.19615654729E-01  0.35750994182E-01  0.10000000475E-02 0.  1.
</event>
<event>
 4   0  0.4958067E-02  0.9118800E+02  0.7818609E-02  0.1379984E+01
      -11   -1    0    0    0    0  0.00000000000E+00  0.00000000000E+00  0.35740347158E-01  0.35744000000E-01  0.51099999109E-03 0.  1.
       11   -1    0    0    0    0 -0.00000000000E+00 -0.00000000000E+00 -0.35740347158E-01  0.35744000000E-01  0.51099999109E-03 0. -1.
       22    1    1    2    0    0 -0.12745292432E-02  0.10896985296E-01 -0.34011246251E-01  0.35737005818E-01  0.00000000000E+00 0. -1.
  9000001    1    1    2    0    0  0.12745292432E-02 -0.10896985296E-01  0.34011246251E-01  0.35750994182E-01  0.10000000475E-02 0.  1.
</event>
<event>
 4   0  0.4958067E-02  0.9118800E+02  0.7818609E-02  0.1379984E+01
      -11   -1    0    0    0    0  0.00000000000E+00  0.00000000000E+00  0.35740347158E-01  0.35744000000E-01  0.51099999109E-03 0.  1.
       11   -1    0    0    0    0 -0.00000000000E+00 -0.00000000000E+00 -0.35740347158E-01  0.35744000000E-01  0.51099999109E-03 0. -1.
       22    1    1    2    0    0  0.53854180462E-02 -0.47308527250E-02 -0.35010711073E-01  0.35737005818E-01  0.00000000000E+00 0. -1.
  9000001    1    1    2    0    0 -0.53854180462E-02  0.47308527250E-02  0.35010711073E-01  0.35750994182E-01  0.10000000475E-02 0.  1.
</event>
<event>
 4   0  0.4958067E-02  0.9118800E+02  0.7818609E-02  0.1379984E+01
      -11   -1    0    0    0    0  0.00000000000E+00  0.00000000000E+00  0.35740347158E-01  0.35744000000E-01  0.51099999109E-03 0. -1.
       11   -1    0    0    0    0 -0.00000000000E+00 -0.00000000000E+00 -0.35740347158E-01  0.35744000000E-01  0.51099999109E-03 0.  1.
       22    1    1    2    0    0  0.12435017231E-01 -0.44052872771E-02 -0.33212909769E-01  0.35737005818E-01  0.00000000000E+00 0.  1.
  9000001    1    1    2    0    0 -0.12435017231E-01  0.44052872771E-02  0.33212909769E-01  0.35750994182E-01  0.10000000475E-02 0. -1.
</event>
<event>
 4   0  0.4958067E-02  0.9118800E+02  0.7818609E-02  0.1379984E+01
      -11   -1    0    0    0    0  0.00000000000E+00  0.00000000000E+00  0.35740347158E-01  0.35744000000E-01  0.51099999109E-03 0. -1.
       11   -1    0    0    0    0 -0.00000000000E+00 -0.00000000000E+00 -0.35740347158E-01  0.35744000000E-01  0.51099999109E-03 0.  1.
       22    1    1    2    0    0 -0.31424740514E-02 -0.13246249938E-02  0.35573920368E-01  0.35737005818E-01  0.00000000000E+00 0. -1.
  9000001    1    1    2    0    0  0.31424740514E-02  0.13246249938E-02 -0.35573920368E-01  0.35750994182E-01  0.10000000475E-02 0.  1.
</event>
<event>
 4   0  0.4958067E-02  0.9118800E+02  0.7818609E-02  0.1379984E+01
      -11   -1    0    0    0    0  0.00000000000E+00  0.00000000000E+00  0.35740347158E-01  0.35744000000E-01  0.51099999109E-03 0.  1.
       11   -1    0    0    0    0 -0.00000000000E+00 -0.00000000000E+00 -0.35740347158E-01  0.35744000000E-01  0.51099999109E-03 0. -1.
       22    1    1    2    0    0  0.31857776499E-02 -0.18223905706E-02  0.35548042115E-01  0.35737005818E-01  0.00000000000E+00 0.  1.
  9000001    1    1    2    0    0 -0.31857776499E-02  0.18223905706E-02 -0.35548042115E-01  0.35750994182E-01  0.10000000475E-02 0. -1.
</event>
<event>
 4   0  0.4958067E-02  0.9118800E+02  0.7818609E-02  0.1379984E+01
      -11   -1    0    0    0    0  0.00000000000E+00  0.00000000000E+00  0.35740347158E-01  0.35744000000E-01  0.51099999109E-03 0.  1.
       11   -1    0    0    0    0 -0.00000000000E+00 -0.00000000000E+00 -0.35740347158E-01  0.35744000000E-01  0.51099999109E-03 0. -1.
       22    1    1    2    0    0 -0.12381244380E-02 -0.42939055504E-02 -0.35456494580E-01  0.35737005818E-01  0.00000000000E+00 0. -1.
  9000001    1    1    2    0    0  0.12381244380E-02  0.42939055504E-02  0.35456494580E-01  0.35750994182E-01  0.10000000475E-02 0.  1.
</event>
<event>
 4   0  0.4958067E-02  0.9118800E+02  0.7818609E-02  0.1379984E+01
      -11   -1    0    0    0    0  0.00000000000E+00  0.00000000000E+00  0.35740347158E-01  0.35744000000E-01  0.51099999109E-03 0. -1.
       11   -1    0    0    0    0 -0.00000000000E+00 -0.00000000000E+00 -0.35740347158E-01  0.35744000000E-01  0.51099999109E-03 0.  1.
       22    1    1    2    0    0  0.27923400441E-01  0.13462076177E-01 -0.17781726510E-01  0.35737005818E-01  0.00000000000E+00 0.  1.
  9000001    1    1    2    0    0 -0.27923400441E-01 -0.13462076177E-01  0.17781726510E-01  0.35750994182E-01  0.10000000475E-02 0. -1.
</event>
<event>
 4   0  0.4958067E-02  0.9118800E+02  0.7818609E-02  0.1379984E+01
      -11   -1    0    0    0    0  0.00000000000E+00  0.00000000000E+00  0.35740347158E-01  0.35744000000E-01  0.51099999109E-03 0. -1.
       11   -1    0    0    0    0 -0.00000000000E+00 -0.00000000000E+00 -0.35740347158E-01  0.35744000000E-01  0.51099999109E-03 0.  1.
       22    1    1    2    0    0  0.32028070927E-02  0.35479758333E-01  0.28394295635E-02  0.35737005818E-01  0.00000000000E+00 0. -1.
  9000001    1    1    2    0    0 -0.32028070927E-02 -0.35479758333E-01 -0.28394295635E-02  0.35750994182E-01  0.10000000475E-02 0.  1.
</event>
<event>
 4   0  0.4958067E-02  0.9118800E+02  0.7818609E-02  0.1379984E+01
      -11   -1    0    0    0    0  0.00000000000E+00  0.00000000000E+00  0.35740347158E-01  0.35744000000E-01  0.51099999109E-03 0.  1.
       11   -1    0    0    0    0 -0.00000000000E+00 -0.00000000000E+00 -0.35740347158E-01  0.35744000000E-01  0.51099999109E-03 0. -1.
       22    1    1    2    0    0 -0.11306511987E-01 -0.62741861499E-02  0.33315626359E-01  0.35737005818E-01  0.00000000000E+00 0.  1.
  9000001    1    1    2    0    0  0.11306511987E-01  0.62741861499E-02 -0.33315626359E-01  0.35750994182E-01  0.10000000475E-02 0. -1.
</event>
<event>
 4   0  0.4958067E-02  0.9118800E+02  0.7818609E-02  0.1379984E+01
      -11   -1    0    0    0    0  0.00000000000E+00  0.00000000000E+00  0.35740347158E-01  0.35744000000E-01  0.51099999109E-03 0. -1.
       11   -1    0    0    0    0 -0.00000000000E+00 -0.00000000000E+00 -0.35740347158E-01  0.35744000000E-01  0.51099999109E-03 0.  1.
       22    1    1    2    0    0 -0.30650659611E-02 -0.39037364099E-03 -0.35603181936E-01  0.35737005818E-01  0.00000000000E+00 0.  1.
  9000001    1    1    2    0    0  0.30650659611E-02  0.39037364099E-03  0.35603181936E-01  0.35750994182E-01  0.10000000475E-02 0. -1.
</event>
<event>
 4   0  0.4958067E-02  0.9118800E+02  0.7818609E-02  0.1379984E+01
      -11   -1    0    0    0    0  0.00000000000E+00  0.00000000000E+00  0.35740347158E-01  0.35744000000E-01  0.51099999109E-03 0.  1.
       11   -1    0    0    0    0 -0.00000000000E+00 -0.00000000000E+00 -0.35740347158E-01  0.35744000000E-01  0.51099999109E-03 0. -1.
       22    1    1    2    0    0  0.31130112703E-01  0.14059256154E-01  0.10506521039E-01  0.35737005818E-01  0.00000000000E+00 0.  1.
  9000001    1    1    2    0    0 -0.31130112703E-01 -0.14059256154E-01 -0.10506521039E-01  0.35750994182E-01  0.10000000475E-02 0. -1.
</event>
<event>
 4   0  0.4958067E-02  0.9118800E+02  0.7818609E-02  0.1379984E+01
      -11   -1    0    0    0    0  0.00000000000E+00  0.00000000000E+00  0.35740347158E-01  0.35744000000E-01  0.51099999109E-03 0.  1.
       11   -1    0    0    0    0 -0.00000000000E+00 -0.00000000000E+00 -0.35740347158E-01  0.35744000000E-01  0.51099999109E-03 0. -1.
       22    1    1    2    0    0  0.31249968624E-02  0.10431522705E-02  0.35584825598E-01  0.35737005818E-01  0.00000000000E+00 0.  1.
  9000001    1    1    2    0    0 -0.31249968624E-02 -0.10431522705E-02 -0.35584825598E-01  0.35750994182E-01  0.10000000475E-02 0. -1.
</event>
<event>
 4   0  0.4958067E-02  0.9118800E+02  0.7818609E-02  0.1379984E+01
      -11   -1    0    0    0    0  0.00000000000E+00  0.00000000000E+00  0.35740347158E-01  0.35744000000E-01  0.51099999109E-03 0.  1.
       11   -1    0    0    0    0 -0.00000000000E+00 -0.00000000000E+00 -0.35740347158E-01  0.35744000000E-01  0.51099999109E-03 0. -1.
       22    1    1    2    0    0 -0.20635151104E-02 -0.10806582463E-01 -0.34001371527E-01  0.35737005818E-01  0.00000000000E+00 0. -1.
  9000001    1    1    2    0    0  0.20635151104E-02  0.10806582463E-01  0.34001371527E-01  0.35750994182E-01  0.10000000475E-02 0.  1.
</event>
<event>
 4   0  0.4958067E-02  0.9118800E+02  0.7818609E-02  0.1379984E+01
      -11   -1    0    0    0    0  0.00000000000E+00  0.00000000000E+00  0.35740347158E-01  0.35744000000E-01  0.51099999109E-03 0.  1.
       11   -1    0    0    0    0 -0.00000000000E+00 -0.00000000000E+00 -0.35740347158E-01  0.35744000000E-01  0.51099999109E-03 0. -1.
       22    1    1    2    0    0  0.82850141339E-02 -0.91003789728E-03 -0.34751459778E-01  0.35737005818E-01  0.00000000000E+00 0. -1.
  9000001    1    1    2    0    0 -0.82850141339E-02  0.91003789728E-03  0.34751459778E-01  0.35750994182E-01  0.10000000475E-02 0.  1.
</event>
<event>
 4   0  0.4958067E-02  0.9118800E+02  0.7818609E-02  0.1379984E+01
      -11   -1    0    0    0    0  0.00000000000E+00  0.00000000000E+00  0.35740347158E-01  0.35744000000E-01  0.51099999109E-03 0.  1.
       11   -1    0    0    0    0 -0.00000000000E+00 -0.00000000000E+00 -0.35740347158E-01  0.35744000000E-01  0.51099999109E-03 0. -1.
       22    1    1    2    0    0  0.16974845180E-01  0.31445578725E-01 -0.40471547456E-03  0.35737005818E-01  0.00000000000E+00 0. -1.
  9000001    1    1    2    0    0 -0.16974845180E-01 -0.31445578725E-01  0.40471547456E-03  0.35750994182E-01  0.10000000475E-02 0.  1.
</event>
<event>
 4   0  0.4958067E-02  0.9118800E+02  0.7818609E-02  0.1379984E+01
      -11   -1    0    0    0    0  0.00000000000E+00  0.00000000000E+00  0.35740347158E-01  0.35744000000E-01  0.51099999109E-03 0.  1.
       11   -1    0    0    0    0 -0.00000000000E+00 -0.00000000000E+00 -0.35740347158E-01  0.35744000000E-01  0.51099999109E-03 0. -1.
       22    1    1    2    0    0  0.31491034897E-01  0.52971050609E-02 -0.16043347031E-01  0.35737005818E-01  0.00000000000E+00 0. -1.
  9000001    1    1    2    0    0 -0.31491034897E-01 -0.52971050609E-02  0.16043347031E-01  0.35750994182E-01  0.10000000475E-02 0.  1.
</event>
<event>
 4   0  0.4958067E-02  0.9118800E+02  0.7818609E-02  0.1379984E+01
      -11   -1    0    0    0    0  0.00000000000E+00  0.00000000000E+00  0.35740347158E-01  0.35744000000E-01  0.51099999109E-03 0.  1.
       11   -1    0    0    0    0 -0.00000000000E+00 -0.00000000000E+00 -0.35740347158E-01  0.35744000000E-01  0.51099999109E-03 0. -1.
       22    1    1    2    0    0  0.10453792500E-01 -0.34161911786E-01 -0.90310044141E-03  0.35737005818E-01  0.00000000000E+00 0. -1.
  9000001    1    1    2    0    0 -0.10453792500E-01  0.34161911786E-01  0.90310044141E-03  0.35750994182E-01  0.10000000475E-02 0.  1.
</event>
<event>
 4   0  0.4958067E-02  0.9118800E+02  0.7818609E-02  0.1379984E+01
      -11   -1    0    0    0    0  0.00000000000E+00  0.00000000000E+00  0.35740347158E-01  0.35744000000E-01  0.51099999109E-03 0. -1.
       11   -1    0    0    0    0 -0.00000000000E+00 -0.00000000000E+00 -0.35740347158E-01  0.35744000000E-01  0.51099999109E-03 0.  1.
       22    1    1    2    0    0  0.79082819865E-02 -0.34959446335E-02 -0.34675222162E-01  0.35737005818E-01  0.00000000000E+00 0.  1.
  9000001    1    1    2    0    0 -0.79082819865E-02  0.34959446335E-02  0.34675222162E-01  0.35750994182E-01  0.10000000475E-02 0. -1.
</event>
<event>
 4   0  0.4958067E-02  0.9118800E+02  0.7818609E-02  0.1379984E+01
      -11   -1    0    0    0    0  0.00000000000E+00  0.00000000000E+00  0.35740347158E-01  0.35744000000E-01  0.51099999109E-03 0.  1.
       11   -1    0    0    0    0 -0.00000000000E+00 -0.00000000000E+00 -0.35740347158E-01  0.35744000000E-01  0.51099999109E-03 0. -1.
       22    1    1    2    0    0  0.26642169336E-02  0.11174178660E-01 -0.33840408749E-01  0.35737005818E-01  0.00000000000E+00 0. -1.
  9000001    1    1    2    0    0 -0.26642169336E-02 -0.11174178660E-01  0.33840408749E-01  0.35750994182E-01  0.10000000475E-02 0.  1.
</event>
<event>
 4   0  0.4958067E-02  0.9118800E+02  0.7818609E-02  0.1379984E+01
      -11   -1    0    0    0    0  0.00000000000E+00  0.00000000000E+00  0.35740347158E-01  0.35744000000E-01  0.51099999109E-03 0. -1.
       11   -1    0    0    0    0 -0.00000000000E+00 -0.00000000000E+00 -0.35740347158E-01  0.35744000000E-01  0.51099999109E-03 0.  1.
       22    1    1    2    0    0  0.11863006376E-01  0.77232490986E-02  0.32813931309E-01  0.35737005818E-01  0.00000000000E+00 0. -1.
  9000001    1    1    2    0    0 -0.11863006376E-01 -0.77232490986E-02 -0.32813931309E-01  0.35750994182E-01  0.10000000475E-02 0.  1.
</event>
<event>
 4   0  0.4958067E-02  0.9118800E+02  0.7818609E-02  0.1379984E+01
      -11   -1    0    0    0    0  0.00000000000E+00  0.00000000000E+00  0.35740347158E-01  0.35744000000E-01  0.51099999109E-03 0. -1.
       11   -1    0    0    0    0 -0.00000000000E+00 -0.00000000000E+00 -0.35740347158E-01  0.35744000000E-01  0.51099999109E-03 0.  1.
       22    1    1    2    0    0 -0.97261239006E-02  0.16062370733E-01  0.30406189257E-01  0.35737005818E-01  0.00000000000E+00 0. -1.
  9000001    1    1    2    0    0  0.97261239006E-02 -0.16062370733E-01 -0.30406189257E-01  0.35750994182E-01  0.10000000475E-02 0.  1.
</event>
<event>
 4   0  0.4958067E-02  0.9118800E+02  0.7818609E-02  0.1379984E+01
      -11   -1    0    0    0    0  0.00000000000E+00  0.00000000000E+00  0.35740347158E-01  0.35744000000E-01  0.51099999109E-03 0. -1.
       11   -1    0    0    0    0 -0.00000000000E+00 -0.00000000000E+00 -0.35740347158E-01  0.35744000000E-01  0.51099999109E-03 0.  1.
       22    1    1    2    0    0 -0.51641668885E-02  0.89882741234E-02 -0.34200524755E-01  0.35737005818E-01  0.00000000000E+00 0.  1.
  9000001    1    1    2    0    0  0.51641668885E-02 -0.89882741234E-02  0.34200524755E-01  0.35750994182E-01  0.10000000475E-02 0. -1.
</event>
<event>
 4   0  0.4958067E-02  0.9118800E+02  0.7818609E-02  0.1379984E+01
      -11   -1    0    0    0    0  0.00000000000E+00  0.00000000000E+00  0.35740347158E-01  0.35744000000E-01  0.51099999109E-03 0.  1.
       11   -1    0    0    0    0 -0.00000000000E+00 -0.00000000000E+00 -0.35740347158E-01  0.35744000000E-01  0.51099999109E-03 0. -1.
       22    1    1    2    0    0 -0.73443500349E-02  0.72711988985E-02  0.34209995236E-01  0.35737005818E-01  0.00000000000E+00 0.  1.
  9000001    1    1    2    0    0  0.73443500349E-02 -0.72711988985E-02 -0.34209995236E-01  0.35750994182E-01  0.10000000475E-02 0. -1.
</event>
<event>
 4   0  0.4958067E-02  0.9118800E+02  0.7818609E-02  0.1379984E+01
      -11   -1    0    0    0    0  0.00000000000E+00  0.00000000000E+00  0.35740347158E-01  0.35744000000E-01  0.51099999109E-03 0.  1.
       11   -1    0    0    0    0 -0.00000000000E+00 -0.00000000000E+00 -0.35740347158E-01  0.35744000000E-01  0.51099999109E-03 0. -1.
       22    1    1    2    0    0 -0.25972101390E-01 -0.18675922845E-01 -0.15930895774E-01  0.35737005818E-01  0.00000000000E+00 0. -1.
  9000001    1    1    2    0    0  0.25972101390E-01  0.18675922845E-01  0.15930895774E-01  0.35750994182E-01  0.10000000475E-02 0.  1.
</event>
<event>
 4   0  0.4958067E-02  0.9118800E+02  0.7818609E-02  0.1379984E+01
      -11   -1    0    0    0    0  0.00000000000E+00  0.00000000000E+00  0.35740347158E-01  0.35744000000E-01  0.51099999109E-03 0. -1.
       11   -1    0    0    0    0 -0.00000000000E+00 -0.00000000000E+00 -0.35740347158E-01  0.35744000000E-01  0.51099999109E-03 0.  1.
       22    1    1    2    0    0 -0.26645203199E-02 -0.23031398033E-02 -0.35563035070E-01  0.35737005818E-01  0.00000000000E+00 0.  1.
  9000001    1    1    2    0    0  0.26645203199E-02  0.23031398033E-02  0.35563035070E-01  0.35750994182E-01  0.10000000475E-02 0. -1.
</event>
<event>
 4   0  0.4958067E-02  0.9118800E+02  0.7818609E-02  0.1379984E+01
      -11   -1    0    0    0    0  0.00000000000E+00  0.00000000000E+00  0.35740347158E-01  0.35744000000E-01  0.51099999109E-03 0. -1.
       11   -1    0    0    0    0 -0.00000000000E+00 -0.00000000000E+00 -0.35740347158E-01  0.35744000000E-01  0.51099999109E-03 0.  1.
       22    1    1    2    0    0 -0.66532255582E-02 -0.11853996093E-01  0.33050732990E-01  0.35737005818E-01  0.00000000000E+00 0. -1.
  9000001    1    1    2    0    0  0.66532255582E-02  0.11853996093E-01 -0.33050732990E-01  0.35750994182E-01  0.10000000475E-02 0.  1.
</event>
<event>
 4   0  0.4958067E-02  0.9118800E+02  0.7818609E-02  0.1379984E+01
      -11   -1    0    0    0    0  0.00000000000E+00  0.00000000000E+00  0.35740347158E-01  0.35744000000E-01  0.51099999109E-03 0.  1.
       11   -1    0    0    0    0 -0.00000000000E+00 -0.00000000000E+00 -0.35740347158E-01  0.35744000000E-01  0.51099999109E-03 0. -1.
       22    1    1    2    0    0 -0.43940873947E-02  0.14299960127E-01 -0.32455149379E-01  0.35737005818E-01  0.00000000000E+00 0. -1.
  9000001    1    1    2    0    0  0.43940873947E-02 -0.14299960127E-01  0.32455149379E-01  0.35750994182E-01  0.10000000475E-02 0.  1.
</event>
<event>
 4   0  0.4958067E-02  0.9118800E+02  0.7818609E-02  0.1379984E+01
      -11   -1    0    0    0    0  0.00000000000E+00  0.00000000000E+00  0.35740347158E-01  0.35744000000E-01  0.51099999109E-03 0. -1.
       11   -1    0    0    0    0 -0.00000000000E+00 -0.00000000000E+00 -0.35740347158E-01  0.35744000000E-01  0.51099999109E-03 0.  1.
       22    1    1    2    0    0 -0.46381408450E-02  0.61230015975E-02  0.34901720385E-01  0.35737005818E-01  0.00000000000E+00 0. -1.
  9000001    1    1    2    0    0  0.46381408450E-02 -0.61230015975E-02 -0.34901720385E-01  0.35750994182E-01  0.10000000475E-02 0.  1.
</event>
<event>
 4   0  0.4958067E-02  0.9118800E+02  0.7818609E-02  0.1379984E+01
      -11   -1    0    0    0    0  0.00000000000E+00  0.00000000000E+00  0.35740347158E-01  0.35744000000E-01  0.51099999109E-03 0.  1.
       11   -1    0    0    0    0 -0.00000000000E+00 -0.00000000000E+00 -0.35740347158E-01  0.35744000000E-01  0.51099999109E-03 0. -1.
       22    1    1    2    0    0 -0.19359105527E-02  0.87439610836E-02 -0.34596661396E-01  0.35737005818E-01  0.00000000000E+00 0. -1.
  9000001    1    1    2    0    0  0.19359105527E-02 -0.87439610836E-02  0.34596661396E-01  0.35750994182E-01  0.10000000475E-02 0.  1.
</event>
<event>
 4   0  0.4958067E-02  0.9118800E+02  0.7818609E-02  0.1379984E+01
      -11   -1    0    0    0    0  0.00000000000E+00  0.00000000000E+00  0.35740347158E-01  0.35744000000E-01  0.51099999109E-03 0.  1.
       11   -1    0    0    0    0 -0.00000000000E+00 -0.00000000000E+00 -0.35740347158E-01  0.35744000000E-01  0.51099999109E-03 0. -1.
       22    1    1    2    0    0  0.31268279632E-02  0.86334137359E-02  0.34537236413E-01  0.35737005818E-01  0.00000000000E+00 0.  1.
  9000001    1    1    2    0    0 -0.31268279632E-02 -0.86334137359E-02 -0.34537236413E-01  0.35750994182E-01  0.10000000475E-02 0. -1.
</event>
<event>
 4   0  0.4958067E-02  0.9118800E+02  0.7818609E-02  0.1379984E+01
      -11   -1    0    0    0    0  0.00000000000E+00  0.00000000000E+00  0.35740347158E-01  0.35744000000E-01  0.51099999109E-03 0.  1.
       11   -1    0    0    0    0 -0.00000000000E+00 -0.00000000000E+00 -0.35740347158E-01  0.35744000000E-01  0.51099999109E-03 0. -1.
       22    1    1    2    0    0  0.29947121848E-02 -0.27669295198E-03  0.35610233428E-01  0.35737005818E-01  0.00000000000E+00 0.  1.
  9000001    1    1    2    0    0 -0.29947121848E-02  0.27669295198E-03 -0.35610233428E-01  0.35750994182E-01  0.10000000475E-02 0. -1.
</event>
<event>
 4   0  0.4958067E-02  0.9118800E+02  0.7818609E-02  0.1379984E+01
      -11   -1    0    0    0    0  0.00000000000E+00  0.00000000000E+00  0.35740347158E-01  0.35744000000E-01  0.51099999109E-03 0. -1.
       11   -1    0    0    0    0 -0.00000000000E+00 -0.00000000000E+00 -0.35740347158E-01  0.35744000000E-01  0.51099999109E-03 0.  1.
       22    1    1    2    0    0 -0.10563095359E-01 -0.21684738256E-01 -0.26369048676E-01  0.35737005818E-01  0.00000000000E+00 0.  1.
  9000001    1    1    2    0    0  0.10563095359E-01  0.21684738256E-01  0.26369048676E-01  0.35750994182E-01  0.10000000475E-02 0. -1.
</event>
<event>
 4   0  0.4958067E-02  0.9118800E+02  0.7818609E-02  0.1379984E+01
      -11   -1    0    0    0    0  0.00000000000E+00  0.00000000000E+00  0.35740347158E-01  0.35744000000E-01  0.51099999109E-03 0.  1.
       11   -1    0    0    0    0 -0.00000000000E+00 -0.00000000000E+00 -0.35740347158E-01  0.35744000000E-01  0.51099999109E-03 0. -1.
       22    1    1    2    0    0 -0.12490966842E-01  0.12142894669E-01  0.31203516489E-01  0.35737005818E-01  0.00000000000E+00 0.  1.
  9000001    1    1    2    0    0  0.12490966842E-01 -0.12142894669E-01 -0.31203516489E-01  0.35750994182E-01  0.10000000475E-02 0. -1.
</event>
<event>
 4   0  0.4958067E-02  0.9118800E+02  0.7818609E-02  0.1379984E+01
      -11   -1    0    0    0    0  0.00000000000E+00  0.00000000000E+00  0.35740347158E-01  0.35744000000E-01  0.51099999109E-03 0. -1.
       11   -1    0    0    0    0 -0.00000000000E+00 -0.00000000000E+00 -0.35740347158E-01  0.35744000000E-01  0.51099999109E-03 0.  1.
       22    1    1    2    0    0  0.18845570464E-01  0.23095486974E-01  0.19712344868E-01  0.35737005818E-01  0.00000000000E+00 0. -1.
  9000001    1    1    2    0    0 -0.18845570464E-01 -0.23095486974E-01 -0.19712344868E-01  0.35750994182E-01  0.10000000475E-02 0.  1.
</event>
<event>
 4   0  0.4958067E-02  0.9118800E+02  0.7818609E-02  0.1379984E+01
      -11   -1    0    0    0    0  0.00000000000E+00  0.00000000000E+00  0.35740347158E-01  0.35744000000E-01  0.51099999109E-03 0. -1.
       11   -1    0    0    0    0 -0.00000000000E+00 -0.00000000000E+00 -0.35740347158E-01  0.35744000000E-01  0.51099999109E-03 0.  1.
       22    1    1    2    0    0 -0.27409528091E-01 -0.97521229805E-02  0.20754456197E-01  0.35737005818E-01  0.00000000000E+00 0. -1.
  9000001    1    1    2    0    0  0.27409528091E-01  0.97521229805E-02 -0.20754456197E-01  0.35750994182E-01  0.10000000475E-02 0.  1.
</event>
<event>
 4   0  0.4958067E-02  0.9118800E+02  0.7818609E-02  0.1379984E+01
      -11   -1    0    0    0    0  0.00000000000E+00  0.00000000000E+00  0.35740347158E-01  0.35744000000E-01  0.51099999109E-03 0.  1.
       11   -1    0    0    0    0 -0.00000000000E+00 -0.00000000000E+00 -0.35740347158E-01  0.35744000000E-01  0.51099999109E-03 0. -1.
       22    1    1    2    0    0 -0.20375031397E-01  0.13511867872E-01 -0.26065707492E-01  0.35737005818E-01  0.00000000000E+00 0. -1.
  9000001    1    1    2    0    0  0.20375031397E-01 -0.13511867872E-01  0.26065707492E-01  0.35750994182E-01  0.10000000475E-02 0.  1.
</event>
<event>
 4   0  0.4958067E-02  0.9118800E+02  0.7818609E-02  0.1379984E+01
      -11   -1    0    0    0    0  0.00000000000E+00  0.00000000000E+00  0.35740347158E-01  0.35744000000E-01  0.51099999109E-03 0. -1.
       11   -1    0    0    0    0 -0.00000000000E+00 -0.00000000000E+00 -0.35740347158E-01  0.35744000000E-01  0.51099999109E-03 0.  1.
       22    1    1    2    0    0  0.77243934693E-03  0.81211177027E-02  0.34793452970E-01  0.35737005818E-01  0.00000000000E+00 0. -1.
  9000001    1    1    2    0    0 -0.77243934693E-03 -0.81211177027E-02 -0.34793452970E-01  0.35750994182E-01  0.10000000475E-02 0.  1.
</event>
<event>
 4   0  0.4958067E-02  0.9118800E+02  0.7818609E-02  0.1379984E+01
      -11   -1    0    0    0    0  0.00000000000E+00  0.00000000000E+00  0.35740347158E-01  0.35744000000E-01  0.51099999109E-03 0.  1.
       11   -1    0    0    0    0 -0.00000000000E+00 -0.00000000000E+00 -0.35740347158E-01  0.35744000000E-01  0.51099999109E-03 0. -1.
       22    1    1    2    0    0 -0.47599708783E-02  0.59591525728E-03 -0.35413572922E-01  0.35737005818E-01  0.00000000000E+00 0. -1.
  9000001    1    1    2    0    0  0.47599708783E-02 -0.59591525728E-03  0.35413572922E-01  0.35750994182E-01  0.10000000475E-02 0.  1.
</event>
<event>
 4   0  0.4958067E-02  0.9118800E+02  0.7818609E-02  0.1379984E+01
      -11   -1    0    0    0    0  0.00000000000E+00  0.00000000000E+00  0.35740347158E-01  0.35744000000E-01  0.51099999109E-03 0. -1.
       11   -1    0    0    0    0 -0.00000000000E+00 -0.00000000000E+00 -0.35740347158E-01  0.35744000000E-01  0.51099999109E-03 0.  1.
       22    1    1    2    0    0  0.42053090576E-02 -0.41192406601E-02  0.35248841357E-01  0.35737005818E-01  0.00000000000E+00 0. -1.
  9000001    1    1    2    0    0 -0.42053090576E-02  0.41192406601E-02 -0.35248841357E-01  0.35750994182E-01  0.10000000475E-02 0.  1.
</event>
<event>
 4   0  0.4958067E-02  0.9118800E+02  0.7818609E-02  0.1379984E+01
      -11   -1    0    0    0    0  0.00000000000E+00  0.00000000000E+00  0.35740347158E-01  0.35744000000E-01  0.51099999109E-03 0.  1.
       11   -1    0    0    0    0 -0.00000000000E+00 -0.00000000000E+00 -0.35740347158E-01  0.35744000000E-01  0.51099999109E-03 0. -1.
       22    1    1    2    0    0 -0.20704105835E-01  0.64866041700E-02  0.28397139870E-01  0.35737005818E-01  0.00000000000E+00 0.  1.
  9000001    1    1    2    0    0  0.20704105835E-01 -0.64866041700E-02 -0.28397139870E-01  0.35750994182E-01  0.10000000475E-02 0. -1.
</event>
<event>
 4   0  0.4958067E-02  0.9118800E+02  0.7818609E-02  0.1379984E+01
      -11   -1    0    0    0    0  0.00000000000E+00  0.00000000000E+00  0.35740347158E-01  0.35744000000E-01  0.51099999109E-03 0.  1.
       11   -1    0    0    0    0 -0.00000000000E+00 -0.00000000000E+00 -0.35740347158E-01  0.35744000000E-01  0.51099999109E-03 0. -1.
       22    1    1    2    0    0  0.15861538443E-02  0.21690345056E-01 -0.28357479299E-01  0.35737005818E-01  0.00000000000E+00 0. -1.
  9000001    1    1    2    0    0 -0.15861538443E-02 -0.21690345056E-01  0.28357479299E-01  0.35750994182E-01  0.10000000475E-02 0.  1.
</event>
<event>
 4   0  0.4958067E-02  0.9118800E+02  0.7818609E-02  0.1379984E+01
      -11   -1    0    0    0    0  0.00000000000E+00  0.00000000000E+00  0.35740347158E-01  0.35744000000E-01  0.51099999109E-03 0. -1.
       11   -1    0    0    0    0 -0.00000000000E+00 -0.00000000000E+00 -0.35740347158E-01  0.35744000000E-01  0.51099999109E-03 0.  1.
       22    1    1    2    0    0 -0.23731875767E-01  0.26005319085E-01  0.61363699950E-02  0.35737005818E-01  0.00000000000E+00 0. -1.
  9000001    1    1    2    0    0  0.23731875767E-01 -0.26005319085E-01 -0.61363699950E-02  0.35750994182E-01  0.10000000475E-02 0.  1.
</event>
<event>
 4   0  0.4958067E-02  0.9118800E+02  0.7818609E-02  0.1379984E+01
      -11   -1    0    0    0    0  0.00000000000E+00  0.00000000000E+00  0.35740347158E-01  0.35744000000E-01  0.51099999109E-03 0.  1.
       11   -1    0    0    0    0 -0.00000000000E+00 -0.00000000000E+00 -0.35740347158E-01  0.35744000000E-01  0.51099999109E-03 0. -1.
       22    1    1    2    0    0 -0.11905948692E-01  0.80603923577E-02 -0.32717152163E-01  0.35737005818E-01  0.00000000000E+00 0. -1.
  9000001    1    1    2    0    0  0.11905948692E-01 -0.80603923577E-02  0.32717152163E-01  0.35750994182E-01  0.10000000475E-02 0.  1.
</event>
<event>
 4   0  0.4958067E-02  0.9118800E+02  0.7818609E-02  0.1379984E+01
      -11   -1    0    0    0    0  0.00000000000E+00  0.00000000000E+00  0.35740347158E-01  0.35744000000E-01  0.51099999109E-03 0. -1.
       11   -1    0    0    0    0 -0.00000000000E+00 -0.00000000000E+00 -0.35740347158E-01  0.35744000000E-01  0.51099999109E-03 0.  1.
       22    1    1    2    0    0  0.20459945257E-01  0.93802451939E-02  0.27758516262E-01  0.35737005818E-01  0.00000000000E+00 0. -1.
  9000001    1    1    2    0    0 -0.20459945257E-01 -0.93802451939E-02 -0.27758516262E-01  0.35750994182E-01  0.10000000475E-02 0.  1.
</event>
<event>
 4   0  0.4958067E-02  0.9118800E+02  0.7818609E-02  0.1379984E+01
      -11   -1    0    0    0    0  0.00000000000E+00  0.00000000000E+00  0.35740347158E-01  0.35744000000E-01  0.51099999109E-03 0.  1.
       11   -1    0    0    0    0 -0.00000000000E+00 -0.00000000000E+00 -0.35740347158E-01  0.35744000000E-01  0.51099999109E-03 0. -1.
       22    1    1    2    0    0 -0.17921763211E-02  0.33916048169E-02 -0.35530532021E-01  0.35737005818E-01  0.00000000000E+00 0. -1.
  9000001    1    1    2    0    0  0.17921763211E-02 -0.33916048169E-02  0.35530532021E-01  0.35750994182E-01  0.10000000475E-02 0.  1.
</event>
<event>
 4   0  0.4958067E-02  0.9118800E+02  0.7818609E-02  0.1379984E+01
      -11   -1    0    0    0    0  0.00000000000E+00  0.00000000000E+00  0.35740347158E-01  0.35744000000E-01  0.51099999109E-03 0. -1.
       11   -1    0    0    0    0 -0.00000000000E+00 -0.00000000000E+00 -0.35740347158E-01  0.35744000000E-01  0.51099999109E-03 0.  1.
       22    1    1    2    0    0  0.31295400401E-02  0.46226773324E-03 -0.35596711541E-01  0.35737005818E-01  0.00000000000E+00 0.  1.
  9000001    1    1    2    0    0 -0.31295400401E-02 -0.46226773324E-03  0.35596711541E-01  0.35750994182E-01  0.10000000475E-02 0. -1.
</event>
<event>
 4   0  0.4958067E-02  0.9118800E+02  0.7818609E-02  0.1379984E+01
      -11   -1    0    0    0    0  0.00000000000E+00  0.00000000000E+00  0.35740347158E-01  0.35744000000E-01  0.51099999109E-03 0. -1.
       11   -1    0    0    0    0 -0.00000000000E+00 -0.00000000000E+00 -0.35740347158E-01  0.35744000000E-01  0.51099999109E-03 0.  1.
       22    1    1    2    0    0 -0.38737140026E-03 -0.32588225048E-02 -0.35586002925E-01  0.35737005818E-01  0.00000000000E+00 0.  1.
  9000001    1    1    2    0    0  0.38737140026E-03  0.32588225048E-02  0.35586002925E-01  0.35750994182E-01  0.10000000475E-02 0. -1.
</event>
<event>
 4   0  0.4958067E-02  0.9118800E+02  0.7818609E-02  0.1379984E+01
      -11   -1    0    0    0    0  0.00000000000E+00  0.00000000000E+00  0.35740347158E-01  0.35744000000E-01  0.51099999109E-03 0.  1.
       11   -1    0    0    0    0 -0.00000000000E+00 -0.00000000000E+00 -0.35740347158E-01  0.35744000000E-01  0.51099999109E-03 0. -1.
       22    1    1    2    0    0 -0.34318782090E-02 -0.72522008469E-02 -0.34824723685E-01  0.35737005818E-01  0.00000000000E+00 0. -1.
  9000001    1    1    2    0    0  0.34318782090E-02  0.72522008469E-02  0.34824723685E-01  0.35750994182E-01  0.10000000475E-02 0.  1.
</event>
<event>
 4   0  0.4958067E-02  0.9118800E+02  0.7818609E-02  0.1379984E+01
      -11   -1    0    0    0    0  0.00000000000E+00  0.00000000000E+00  0.35740347158E-01  0.35744000000E-01  0.51099999109E-03 0.  1.
       11   -1    0    0    0    0 -0.00000000000E+00 -0.00000000000E+00 -0.35740347158E-01  0.35744000000E-01  0.51099999109E-03 0. -1.
       22    1    1    2    0    0  0.32036404661E-03 -0.60770846749E-02  0.35215053508E-01  0.35737005818E-01  0.00000000000E+00 0.  1.
  9000001    1    1    2    0    0 -0.32036404661E-03  0.60770846749E-02 -0.35215053508E-01  0.35750994182E-01  0.10000000475E-02 0. -1.
</event>
<event>
 4   0  0.4958067E-02  0.9118800E+02  0.7818609E-02  0.1379984E+01
      -11   -1    0    0    0    0  0.00000000000E+00  0.00000000000E+00  0.35740347158E-01  0.35744000000E-01  0.51099999109E-03 0. -1.
       11   -1    0    0    0    0 -0.00000000000E+00 -0.00000000000E+00 -0.35740347158E-01  0.35744000000E-01  0.51099999109E-03 0.  1.
       22    1    1    2    0    0  0.21170739616E-02 -0.35067913992E-02 -0.35501464713E-01  0.35737005818E-01  0.00000000000E+00 0.  1.
  9000001    1    1    2    0    0 -0.21170739616E-02  0.35067913992E-02  0.35501464713E-01  0.35750994182E-01  0.10000000475E-02 0. -1.
</event>
<event>
 4   0  0.4958067E-02  0.9118800E+02  0.7818609E-02  0.1379984E+01
      -11   -1    0    0    0    0  0.00000000000E+00  0.00000000000E+00  0.35740347158E-01  0.35744000000E-01  0.51099999109E-03 0.  1.
       11   -1    0    0    0    0 -0.00000000000E+00 -0.00000000000E+00 -0.35740347158E-01  0.35744000000E-01  0.51099999109E-03 0. -1.
       22    1    1    2    0    0 -0.24833815793E-02 -0.20258240647E-02 -0.35593011079E-01  0.35737005818E-01  0.00000000000E+00 0. -1.
  9000001    1    1    2    0    0  0.24833815793E-02  0.20258240647E-02  0.35593011079E-01  0.35750994182E-01  0.10000000475E-02 0.  1.
</event>
<event>
 4   0  0.4958067E-02  0.9118800E+02  0.7818609E-02  0.1379984E+01
      -11   -1    0    0    0    0  0.00000000000E+00  0.00000000000E+00  0.35740347158E-01  0.35744000000E-01  0.51099999109E-03 0.  1.
       11   -1    0    0    0    0 -0.00000000000E+00 -0.00000000000E+00 -0.35740347158E-01  0.35744000000E-01  0.51099999109E-03 0. -1.
       22    1    1    2    0    0 -0.13744757958E-01 -0.10872801266E-01  0.31144781364E-01  0.35737005818E-01  0.00000000000E+00 0.  1.
  9000001    1    1    2    0    0  0.13744757958E-01  0.10872801266E-01 -0.31144781364E-01  0.35750994182E-01  0.10000000475E-02 0. -1.
</event>
<event>
 4   0  0.4958067E-02  0.9118800E+02  0.7818609E-02  0.1379984E+01
      -11   -1    0    0    0    0  0.00000000000E+00  0.00000000000E+00  0.35740347158E-01  0.35744000000E-01  0.51099999109E-03 0.  1.
       11   -1    0    0    0    0 -0.00000000000E+00 -0.00000000000E+00 -0.35740347158E-01  0.35744000000E-01  0.51099999109E-03 0. -1.
       22    1    1    2    0    0 -0.72080348620E-02 -0.32865838892E-02 -0.34847900721E-01  0.35737005818E-01  0.00000000000E+00 0. -1.
  9000001    1    1    2    0    0  0.72080348620E-02  0.32865838892E-02  0.34847900721E-01  0.35750994182E-01  0.10000000475E-02 0.  1.
</event>
<event>
 4   0  0.4958067E-02  0.9118800E+02  0.7818609E-02  0.1379984E+01
      -11   -1    0    0    0    0  0.00000000000E+00  0.00000000000E+00  0.35740347158E-01  0.35744000000E-01  0.51099999109E-03 0. -1.
       11   -1    0    0    0    0 -0.00000000000E+00 -0.00000000000E+00 -0.35740347158E-01  0.35744000000E-01  0.51099999109E-03 0.  1.
       22    1    1    2    0    0 -0.31274896651E-02  0.25332955822E-02 -0.35509643856E-01  0.35737005818E-01  0.00000000000E+00 0.  1.
  9000001    1    1    2    0    0  0.31274896651E-02 -0.25332955822E-02  0.35509643856E-01  0.35750994182E-01  0.10000000475E-02 0. -1.
</event>
<event>
 4   0  0.4958067E-02  0.9118800E+02  0.7818609E-02  0.1379984E+01
      -11   -1    0    0    0    0  0.00000000000E+00  0.00000000000E+00  0.35740347158E-01  0.35744000000E-01  0.51099999109E-03 0. -1.
       11   -1    0    0    0    0 -0.00000000000E+00 -0.00000000000E+00 -0.35740347158E-01  0.35744000000E-01  0.51099999109E-03 0.  1.
       22    1    1    2    0    0  0.18335463810E-01 -0.25383611839E-01 -0.17222560835E-01  0.35737005818E-01  0.00000000000E+00 0.  1.
  9000001    1    1    2    0    0 -0.18335463810E-01  0.25383611839E-01  0.17222560835E-01  0.35750994182E-01  0.10000000475E-02 0. -1.
</event>
<event>
 4   0  0.4958067E-02  0.9118800E+02  0.7818609E-02  0.1379984E+01
      -11   -1    0    0    0    0  0.00000000000E+00  0.00000000000E+00  0.35740347158E-01  0.35744000000E-01  0.51099999109E-03 0. -1.
       11   -1    0    0    0    0 -0.00000000000E+00 -0.00000000000E+00 -0.35740347158E-01  0.35744000000E-01  0.51099999109E-03 0.  1.
       22    1    1    2    0    0 -0.92586270076E-02  0.93067755222E-02  0.33238461760E-01  0.35737005818E-01  0.00000000000E+00 0. -1.
  9000001    1    1    2    0    0  0.92586270076E-02 -0.93067755222E-02 -0.33238461760E-01  0.35750994182E-01  0.10000000475E-02 0.  1.
</event>
<event>
 4   0  0.4958067E-02  0.9118800E+02  0.7818609E-02  0.1379984E+01
      -11   -1    0    0    0    0  0.00000000000E+00  0.00000000000E+00  0.35740347158E-01  0.35744000000E-01  0.51099999109E-03 0. -1.
       11   -1    0    0    0    0 -0.00000000000E+00 -0.00000000000E+00 -0.35740347158E-01  0.35744000000E-01  0.51099999109E-03 0.  1.
       22    1    1    2    0    0 -0.86939952943E-02  0.15943931734E-02  0.34626665174E-01  0.35737005818E-01  0.00000000000E+00 0. -1.
  9000001    1    1    2    0    0  0.86939952943E-02 -0.15943931734E-02 -0.34626665174E-01  0.35750994182E-01  0.10000000475E-02 0.  1.
</event>
<event>
 4   0  0.4958067E-02  0.9118800E+02  0.7818609E-02  0.1379984E+01
      -11   -1    0    0    0    0  0.00000000000E+00  0.00000000000E+00  0.35740347158E-01  0.35744000000E-01  0.51099999109E-03 0.  1.
       11   -1    0    0    0    0 -0.00000000000E+00 -0.00000000000E+00 -0.35740347158E-01  0.35744000000E-01  0.51099999109E-03 0. -1.
       22    1    1    2    0    0  0.20793456332E-01 -0.49417321397E-02 -0.28641666189E-01  0.35737005818E-01  0.00000000000E+00 0. -1.
  9000001    1    1    2    0    0 -0.20793456332E-01  0.49417321397E-02  0.28641666189E-01  0.35750994182E-01  0.10000000475E-02 0.  1.
</event>
<event>
 4   0  0.4958067E-02  0.9118800E+02  0.7818609E-02  0.1379984E+01
      -11   -1    0    0    0    0  0.00000000000E+00  0.00000000000E+00  0.35740347158E-01  0.35744000000E-01  0.51099999109E-03 0.  1.
       11   -1    0    0    0    0 -0.00000000000E+00 -0.00000000000E+00 -0.35740347158E-01  0.35744000000E-01  0.51099999109E-03 0. -1.
       22    1    1    2    0    0  0.38637980382E-02  0.49004476369E-04 -0.35527485812E-01  0.35737005818E-01  0.00000000000E+00 0. -1.
  9000001    1    1    2    0    0 -0.38637980382E-02 -0.49004476369E-04  0.35527485812E-01  0.35750994182E-01  0.10000000475E-02 0.  1.
</event>
<event>
 4   0  0.4958067E-02  0.9118800E+02  0.7818609E-02  0.1379984E+01
      -11   -1    0    0    0    0  0.00000000000E+00  0.00000000000E+00  0.35740347158E-01  0.35744000000E-01  0.51099999109E-03 0.  1.
       11   -1    0    0    0    0 -0.00000000000E+00 -0.00000000000E+00 -0.35740347158E-01  0.35744000000E-01  0.51099999109E-03 0. -1.
       22    1    1    2    0    0  0.17068982880E-01 -0.11996094896E-01 -0.29015118741E-01  0.35737005818E-01  0.00000000000E+00 0. -1.
  9000001    1    1    2    0    0 -0.17068982880E-01  0.11996094896E-01  0.29015118741E-01  0.35750994182E-01  0.10000000475E-02 0.  1.
</event>
<event>
 4   0  0.4958067E-02  0.9118800E+02  0.7818609E-02  0.1379984E+01
      -11   -1    0    0    0    0  0.00000000000E+00  0.00000000000E+00  0.35740347158E-01  0.35744000000E-01  0.51099999109E-03 0. -1.
       11   -1    0    0    0    0 -0.00000000000E+00 -0.00000000000E+00 -0.35740347158E-01  0.35744000000E-01  0.51099999109E-03 0.  1.
       22    1    1    2    0    0 -0.21044267223E-02  0.59599448961E-02 -0.35173626908E-01  0.35737005818E-01  0.00000000000E+00 0.  1.
  9000001    1    1    2    0    0  0.21044267223E-02 -0.59599448961E-02  0.35173626908E-01  0.35750994182E-01  0.10000000475E-02 0. -1.
</event>
<event>
 4   0  0.4958067E-02  0.9118800E+02  0.7818609E-02  0.1379984E+01
      -11   -1    0    0    0    0  0.00000000000E+00  0.00000000000E+00  0.35740347158E-01  0.35744000000E-01  0.51099999109E-03 0. -1.
       11   -1    0    0    0    0 -0.00000000000E+00 -0.00000000000E+00 -0.35740347158E-01  0.35744000000E-01  0.51099999109E-03 0.  1.
       22    1    1    2    0    0  0.67573601178E-02 -0.24240706985E-02  0.35008506828E-01  0.35737005818E-01  0.00000000000E+00 0. -1.
  9000001    1    1    2    0    0 -0.67573601178E-02  0.24240706985E-02 -0.35008506828E-01  0.35750994182E-01  0.10000000475E-02 0.  1.
</event>
<event>
 4   0  0.4958067E-02  0.9118800E+02  0.7818609E-02  0.1379984E+01
      -11   -1    0    0    0    0  0.00000000000E+00  0.00000000000E+00  0.35740347158E-01  0.35744000000E-01  0.51099999109E-03 0. -1.
       11   -1    0    0    0    0 -0.00000000000E+00 -0.00000000000E+00 -0.35740347158E-01  0.35744000000E-01  0.51099999109E-03 0.  1.
       22    1    1    2    0    0  0.21063361343E-01 -0.24756996512E-01  0.14851246328E-01  0.35737005818E-01  0.00000000000E+00 0. -1.
  9000001    1    1    2    0    0 -0.21063361343E-01  0.24756996512E-01 -0.14851246328E-01  0.35750994182E-01  0.10000000475E-02 0.  1.
</event>
<event>
 4   0  0.4958067E-02  0.9118800E+02  0.7818609E-02  0.1379984E+01
      -11   -1    0    0    0    0  0.00000000000E+00  0.00000000000E+00  0.35740347158E-01  0.35744000000E-01  0.51099999109E-03 0. -1.
       11   -1    0    0    0    0 -0.00000000000E+00 -0.00000000000E+00 -0.35740347158E-01  0.35744000000E-01  0.51099999109E-03 0.  1.
       22    1    1    2    0    0 -0.97681228356E-02  0.47420945357E-02 -0.34047465406E-01  0.35737005818E-01  0.00000000000E+00 0.  1.
  9000001    1    1    2    0    0  0.97681228356E-02 -0.47420945357E-02  0.34047465406E-01  0.35750994182E-01  0.10000000475E-02 0. -1.
</event>
<event>
 4   0  0.4958067E-02  0.9118800E+02  0.7818609E-02  0.1379984E+01
      -11   -1    0    0    0    0  0.00000000000E+00  0.00000000000E+00  0.35740347158E-01  0.35744000000E-01  0.51099999109E-03 0.  1.
       11   -1    0    0    0    0 -0.00000000000E+00 -0.00000000000E+00 -0.35740347158E-01  0.35744000000E-01  0.51099999109E-03 0. -1.
       22    1    1    2    0    0 -0.23479040191E-02  0.69297037332E-02 -0.34979996252E-01  0.35737005818E-01  0.00000000000E+00 0. -1.
  9000001    1    1    2    0    0  0.23479040191E-02 -0.69297037332E-02  0.34979996252E-01  0.35750994182E-01  0.10000000475E-02 0.  1.
</event>
<event>
 4   0  0.4958067E-02  0.9118800E+02  0.7818609E-02  0.1379984E+01
      -11   -1    0    0    0    0  0.00000000000E+00  0.00000000000E+00  0.35740347158E-01  0.35744000000E-01  0.51099999109E-03 0.  1.
       11   -1    0    0    0    0 -0.00000000000E+00 -0.00000000000E+00 -0.35740347158E-01  0.35744000000E-01  0.51099999109E-03 0. -1.
       22    1    1    2    0    0  0.34062465918E-01 -0.10493215957E-01  0.26027714701E-02  0.35737005818E-01  0.00000000000E+00 0.  1.
  9000001    1    1    2    0    0 -0.34062465918E-01  0.10493215957E-01 -0.26027714701E-02  0.35750994182E-01  0.10000000475E-02 0. -1.
</event>
<event>
 4   0  0.4958067E-02  0.9118800E+02  0.7818609E-02  0.1379984E+01
      -11   -1    0    0    0    0  0.00000000000E+00  0.00000000000E+00  0.35740347158E-01  0.35744000000E-01  0.51099999109E-03 0.  1.
       11   -1    0    0    0    0 -0.00000000000E+00 -0.00000000000E+00 -0.35740347158E-01  0.35744000000E-01  0.51099999109E-03 0. -1.
       22    1    1    2    0    0  0.34113557814E-02 -0.82805524945E-02 -0.34596657165E-01  0.35737005818E-01  0.00000000000E+00 0. -1.
  9000001    1    1    2    0    0 -0.34113557814E-02  0.82805524945E-02  0.34596657165E-01  0.35750994182E-01  0.10000000475E-02 0.  1.
</event>
<event>
 4   0  0.4958067E-02  0.9118800E+02  0.7818609E-02  0.1379984E+01
      -11   -1    0    0    0    0  0.00000000000E+00  0.00000000000E+00  0.35740347158E-01  0.35744000000E-01  0.51099999109E-03 0.  1.
       11   -1    0    0    0    0 -0.00000000000E+00 -0.00000000000E+00 -0.35740347158E-01  0.35744000000E-01  0.51099999109E-03 0. -1.
       22    1    1    2    0    0 -0.81098108637E-02 -0.99034566925E-04 -0.34804521901E-01  0.35737005818E-01  0.00000000000E+00 0. -1.
  9000001    1    1    2    0    0  0.81098108637E-02  0.99034566925E-04  0.34804521901E-01  0.35750994182E-01  0.10000000475E-02 0.  1.
</event>
<event>
 4   0  0.4958067E-02  0.9118800E+02  0.7818609E-02  0.1379984E+01
      -11   -1    0    0    0    0  0.00000000000E+00  0.00000000000E+00  0.35740347158E-01  0.35744000000E-01  0.51099999109E-03 0.  1.
       11   -1    0    0    0    0 -0.00000000000E+00 -0.00000000000E+00 -0.35740347158E-01  0.35744000000E-01  0.51099999109E-03 0. -1.
       22    1    1    2    0    0  0.30467976448E-02 -0.20079820102E-02 -0.35550226683E-01  0.35737005818E-01  0.00000000000E+00 0. -1.
  9000001    1    1    2    0    0 -0.30467976448E-02  0.20079820102E-02  0.35550226683E-01  0.35750994182E-01  0.10000000475E-02 0.  1.
</event>
<event>
 4   0  0.4958067E-02  0.9118800E+02  0.7818609E-02  0.1379984E+01
      -11   -1    0    0    0    0  0.00000000000E+00  0.00000000000E+00  0.35740347158E-01  0.35744000000E-01  0.51099999109E-03 0.  1.
       11   -1    0    0    0    0 -0.00000000000E+00 -0.00000000000E+00 -0.35740347158E-01  0.35744000000E-01  0.51099999109E-03 0. -1.
       22    1    1    2    0    0  0.20198799038E-01 -0.98232175211E-02  0.27796519563E-01  0.35737005818E-01  0.00000000000E+00 0.  1.
  9000001    1    1    2    0    0 -0.20198799038E-01  0.98232175211E-02 -0.27796519563E-01  0.35750994182E-01  0.10000000475E-02 0. -1.
</event>
<event>
 4   0  0.4958067E-02  0.9118800E+02  0.7818609E-02  0.1379984E+01
      -11   -1    0    0    0    0  0.00000000000E+00  0.00000000000E+00  0.35740347158E-01  0.35744000000E-01  0.51099999109E-03 0.  1.
       11   -1    0    0    0    0 -0.00000000000E+00 -0.00000000000E+00 -0.35740347158E-01  0.35744000000E-01  0.51099999109E-03 0. -1.
       22    1    1    2    0    0 -0.26717738952E-01  0.23487711757E-01  0.34093117476E-02  0.35737005818E-01  0.00000000000E+00 0.  1.
  9000001    1    1    2    0    0  0.26717738952E-01 -0.23487711757E-01 -0.34093117476E-02  0.35750994182E-01  0.10000000475E-02 0. -1.
</event>
<event>
 4   0  0.4958067E-02  0.9118800E+02  0.7818609E-02  0.1379984E+01
      -11   -1    0    0    0    0  0.00000000000E+00  0.00000000000E+00  0.35740347158E-01  0.35744000000E-01  0.51099999109E-03 0.  1.
       11   -1    0    0    0    0 -0.00000000000E+00 -0.00000000000E+00 -0.35740347158E-01  0.35744000000E-01  0.51099999109E-03 0. -1.
       22    1    1    2    0    0 -0.12201136226E-01  0.30512524651E-01 -0.14044632395E-01  0.35737005818E-01  0.00000000000E+00 0. -1.
  9000001    1    1    2    0    0  0.12201136226E-01 -0.30512524651E-01  0.14044632395E-01  0.35750994182E-01  0.10000000475E-02 0.  1.
</event>
<event>
 4   0  0.4958067E-02  0.9118800E+02  0.7818609E-02  0.1379984E+01
      -11   -1    0    0    0    0  0.00000000000E+00  0.00000000000E+00  0.35740347158E-01  0.35744000000E-01  0.51099999109E-03 0.  1.
       11   -1    0    0    0    0 -0.00000000000E+00 -0.00000000000E+00 -0.35740347158E-01  0.35744000000E-01  0.51099999109E-03 0. -1.
       22    1    1    2    0    0 -0.74236865451E-02  0.15435112712E-01  0.31365263565E-01  0.35737005818E-01  0.00000000000E+00 0.  1.
  9000001    1    1    2    0    0  0.74236865451E-02 -0.15435112712E-01 -0.31365263565E-01  0.35750994182E-01  0.10000000475E-02 0. -1.
</event>
<event>
 4   0  0.4958067E-02  0.9118800E+02  0.7818609E-02  0.1379984E+01
      -11   -1    0    0    0    0  0.00000000000E+00  0.00000000000E+00  0.35740347158E-01  0.35744000000E-01  0.51099999109E-03 0.  1.
       11   -1    0    0    0    0 -0.00000000000E+00 -0.00000000000E+00 -0.35740347158E-01  0.35744000000E-01  0.51099999109E-03 0. -1.
       22    1    1    2    0    0 -0.65352620885E-02  0.96862070339E-02 -0.33772789752E-01  0.35737005818E-01  0.00000000000E+00 0. -1.
  9000001    1    1    2    0    0  0.65352620885E-02 -0.96862070339E-02  0.33772789752E-01  0.35750994182E-01  0.10000000475E-02 0.  1.
</event>
<event>
 4   0  0.4958067E-02  0.9118800E+02  0.7818609E-02  0.1379984E+01
      -11   -1    0    0    0    0  0.00000000000E+00  0.00000000000E+00  0.35740347158E-01  0.35744000000E-01  0.51099999109E-03 0. -1.
       11   -1    0    0    0    0 -0.00000000000E+00 -0.00000000000E+00 -0.35740347158E-01  0.35744000000E-01  0.51099999109E-03 0.  1.
       22    1    1    2    0    0  0.76362366442E-02 -0.18205332104E-01  0.29789047614E-01  0.35737005818E-01  0.00000000000E+00 0. -1.
  9000001    1    1    2    0    0 -0.76362366442E-02  0.18205332104E-01 -0.29789047614E-01  0.35750994182E-01  0.10000000475E-02 0.  1.
</event>
<event>
 4   0  0.4958067E-02  0.9118800E+02  0.7818609E-02  0.1379984E+01
      -11   -1    0    0    0    0  0.00000000000E+00  0.00000000000E+00  0.35740347158E-01  0.35744000000E-01  0.51099999109E-03 0.  1.
       11   -1    0    0    0    0 -0.00000000000E+00 -0.00000000000E+00 -0.35740347158E-01  0.35744000000E-01  0.51099999109E-03 0. -1.
       22    1    1    2    0    0  0.31281137317E-02 -0.43800353925E-03  0.35597143737E-01  0.35737005818E-01  0.00000000000E+00 0.  1.
  9000001    1    1    2    0    0 -0.31281137317E-02  0.43800353925E-03 -0.35597143737E-01  0.35750994182E-01  0.10000000475E-02 0. -1.
</event>
<event>
 4   0  0.4958067E-02  0.9118800E+02  0.7818609E-02  0.1379984E+01
      -11   -1    0    0    0    0  0.00000000000E+00  0.00000000000E+00  0.35740347158E-01  0.35744000000E-01  0.51099999109E-03 0.  1.
       11   -1    0    0    0    0 -0.00000000000E+00 -0.00000000000E+00 -0.35740347158E-01  0.35744000000E-01  0.51099999109E-03 0. -1.
       22    1    1    2    0    0 -0.63214773492E-02 -0.68978589054E-04  0.35173395499E-01  0.35737005818E-01  0.00000000000E+00 0.  1.
  9000001    1    1    2    0    0  0.63214773492E-02  0.68978589054E-04 -0.35173395499E-01  0.35750994182E-01  0.10000000475E-02 0. -1.
</event>
<event>
 4   0  0.4958067E-02  0.9118800E+02  0.7818609E-02  0.1379984E+01
      -11   -1    0    0    0    0  0.00000000000E+00  0.00000000000E+00  0.35740347158E-01  0.35744000000E-01  0.51099999109E-03 0.  1.
       11   -1    0    0    0    0 -0.00000000000E+00 -0.00000000000E+00 -0.35740347158E-01  0.35744000000E-01  0.51099999109E-03 0. -1.
       22    1    1    2    0    0  0.43470724983E-02 -0.58271814767E-03 -0.35466843462E-01  0.35737005818E-01  0.00000000000E+00 0. -1.
  9000001    1    1    2    0    0 -0.43470724983E-02  0.58271814767E-03  0.35466843462E-01  0.35750994182E-01  0.10000000475E-02 0.  1.
</event>
<event>
 4   0  0.4958067E-02  0.9118800E+02  0.7818609E-02  0.1379984E+01
      -11   -1    0    0    0    0  0.00000000000E+00  0.00000000000E+00  0.35740347158E-01  0.35744000000E-01  0.51099999109E-03 0.  1.
       11   -1    0    0    0    0 -0.00000000000E+00 -0.00000000000E+00 -0.35740347158E-01  0.35744000000E-01  0.51099999109E-03 0. -1.
       22    1    1    2    0    0 -0.75546148216E-02 -0.83698034651E-02 -0.33911764474E-01  0.35737005818E-01  0.00000000000E+00 0. -1.
  9000001    1    1    2    0    0  0.75546148216E-02  0.83698034651E-02  0.33911764474E-01  0.35750994182E-01  0.10000000475E-02 0.  1.
</event>
<event>
 4   0  0.4958067E-02  0.9118800E+02  0.7818609E-02  0.1379984E+01
      -11   -1    0    0    0    0  0.00000000000E+00  0.00000000000E+00  0.35740347158E-01  0.35744000000E-01  0.51099999109E-03 0. -1.
       11   -1    0    0    0    0 -0.00000000000E+00 -0.00000000000E+00 -0.35740347158E-01  0.35744000000E-01  0.51099999109E-03 0.  1.
       22    1    1    2    0    0 -0.62468688066E-02  0.15337173737E-01  0.31668301450E-01  0.35737005818E-01  0.00000000000E+00 0. -1.
  9000001    1    1    2    0    0  0.62468688066E-02 -0.15337173737E-01 -0.31668301450E-01  0.35750994182E-01  0.10000000475E-02 0.  1.
</event>
<event>
 4   0  0.4958067E-02  0.9118800E+02  0.7818609E-02  0.1379984E+01
      -11   -1    0    0    0    0  0.00000000000E+00  0.00000000000E+00  0.35740347158E-01  0.35744000000E-01  0.51099999109E-03 0.  1.
       11   -1    0    0    0    0 -0.00000000000E+00 -0.00000000000E+00 -0.35740347158E-01  0.35744000000E-01  0.51099999109E-03 0. -1.
       22    1    1    2    0    0 -0.56221292430E-02  0.25588203301E-03 -0.35291072129E-01  0.35737005818E-01  0.00000000000E+00 0. -1.
  9000001    1    1    2    0    0  0.56221292430E-02 -0.25588203301E-03  0.35291072129E-01  0.35750994182E-01  0.10000000475E-02 0.  1.
</event>
<event>
 4   0  0.4958067E-02  0.9118800E+02  0.7818609E-02  0.1379984E+01
      -11   -1    0    0    0    0  0.00000000000E+00  0.00000000000E+00  0.35740347158E-01  0.35744000000E-01  0.51099999109E-03 0.  1.
       11   -1    0    0    0    0 -0.00000000000E+00 -0.00000000000E+00 -0.35740347158E-01  0.35744000000E-01  0.51099999109E-03 0. -1.
       22    1    1    2    0    0 -0.84848646924E-02  0.38746975453E-02 -0.34498222780E-01  0.35737005818E-01  0.00000000000E+00 0. -1.
  9000001    1    1    2    0    0  0.84848646924E-02 -0.38746975453E-02  0.34498222780E-01  0.35750994182E-01  0.10000000475E-02 0.  1.
</event>
<event>
 4   0  0.4958067E-02  0.9118800E+02  0.7818609E-02  0.1379984E+01
      -11   -1    0    0    0    0  0.00000000000E+00  0.00000000000E+00  0.35740347158E-01  0.35744000000E-01  0.51099999109E-03 0.  1.
       11   -1    0    0    0    0 -0.00000000000E+00 -0.00000000000E+00 -0.35740347158E-01  0.35744000000E-01  0.51099999109E-03 0. -1.
       22    1    1    2    0    0 -0.39887950150E-02  0.61094374262E-02  0.34984251793E-01  0.35737005818E-01  0.00000000000E+00 0.  1.
  9000001    1    1    2    0    0  0.39887950150E-02 -0.61094374262E-02 -0.34984251793E-01  0.35750994182E-01  0.10000000475E-02 0. -1.
</event>
<event>
 4   0  0.4958067E-02  0.9118800E+02  0.7818609E-02  0.1379984E+01
      -11   -1    0    0    0    0  0.00000000000E+00  0.00000000000E+00  0.35740347158E-01  0.35744000000E-01  0.51099999109E-03 0.  1.
       11   -1    0    0    0    0 -0.00000000000E+00 -0.00000000000E+00 -0.35740347158E-01  0.35744000000E-01  0.51099999109E-03 0. -1.
       22    1    1    2    0    0  0.52782305379E-02 -0.14423280845E-01 -0.32268294608E-01  0.35737005818E-01  0.00000000000E+00 0. -1.
  9000001    1    1    2    0    0 -0.52782305379E-02  0.14423280845E-01  0.32268294608E-01  0.35750994182E-01  0.10000000475E-02 0.  1.
</event>
<event>
 4   0  0.4958067E-02  0.9118800E+02  0.7818609E-02  0.1379984E+01
      -11   -1    0    0    0    0  0.00000000000E+00  0.00000000000E+00  0.35740347158E-01  0.35744000000E-01  0.51099999109E-03 0. -1.
       11   -1    0    0    0    0 -0.00000000000E+00 -0.00000000000E+00 -0.35740347158E-01  0.35744000000E-01  0.51099999109E-03 0.  1.
       22    1    1    2    0    0 -0.52914148410E-02  0.49751321549E-02 -0.34991178515E-01  0.35737005818E-01  0.00000000000E+00 0.  1.
  9000001    1    1    2    0    0  0.52914148410E-02 -0.49751321549E-02  0.34991178515E-01  0.35750994182E-01  0.10000000475E-02 0. -1.
</event>
<event>
 4   0  0.4958067E-02  0.9118800E+02  0.7818609E-02  0.1379984E+01
      -11   -1    0    0    0    0  0.00000000000E+00  0.00000000000E+00  0.35740347158E-01  0.35744000000E-01  0.51099999109E-03 0. -1.
       11   -1    0    0    0    0 -0.00000000000E+00 -0.00000000000E+00 -0.35740347158E-01  0.35744000000E-01  0.51099999109E-03 0.  1.
       22    1    1    2    0    0 -0.19113676036E-01  0.59878242568E-03  0.30190104884E-01  0.35737005818E-01  0.00000000000E+00 0. -1.
  9000001    1    1    2    0    0  0.19113676036E-01 -0.59878242568E-03 -0.30190104884E-01  0.35750994182E-01  0.10000000475E-02 0.  1.
</event>
<event>
 4   0  0.4958067E-02  0.9118800E+02  0.7818609E-02  0.1379984E+01
      -11   -1    0    0    0    0  0.00000000000E+00  0.00000000000E+00  0.35740347158E-01  0.35744000000E-01  0.51099999109E-03 0. -1.
       11   -1    0    0    0    0 -0.00000000000E+00 -0.00000000000E+00 -0.35740347158E-01  0.35744000000E-01  0.51099999109E-03 0.  1.
       22    1    1    2    0    0  0.19163719972E-01 -0.24749155717E-01 -0.17244266090E-01  0.35737005818E-01  0.00000000000E+00 0.  1.
  9000001    1    1    2    0    0 -0.19163719972E-01  0.24749155717E-01  0.17244266090E-01  0.35750994182E-01  0.10000000475E-02 0. -1.
</event>
<event>
 4   0  0.4958067E-02  0.9118800E+02  0.7818609E-02  0.1379984E+01
      -11   -1    0    0    0    0  0.00000000000E+00  0.00000000000E+00  0.35740347158E-01  0.35744000000E-01  0.51099999109E-03 0.  1.
       11   -1    0    0    0    0 -0.00000000000E+00 -0.00000000000E+00 -0.35740347158E-01  0.35744000000E-01  0.51099999109E-03 0. -1.
       22    1    1    2    0    0 -0.93519493872E-02 -0.90644078081E-03  0.34479747572E-01  0.35737005818E-01  0.00000000000E+00 0.  1.
  9000001    1    1    2    0    0  0.93519493872E-02  0.90644078081E-03 -0.34479747572E-01  0.35750994182E-01  0.10000000475E-02 0. -1.
</event>
<event>
 4   0  0.4958067E-02  0.9118800E+02  0.7818609E-02  0.1379984E+01
      -11   -1    0    0    0    0  0.00000000000E+00  0.00000000000E+00  0.35740347158E-01  0.35744000000E-01  0.51099999109E-03 0. -1.
       11   -1    0    0    0    0 -0.00000000000E+00 -0.00000000000E+00 -0.35740347158E-01  0.35744000000E-01  0.51099999109E-03 0.  1.
       22    1    1    2    0    0 -0.17721557667E-01  0.30030122743E-01  0.78276245922E-02  0.35737005818E-01  0.00000000000E+00 0. -1.
  9000001    1    1    2    0    0  0.17721557667E-01 -0.30030122743E-01 -0.78276245922E-02  0.35750994182E-01  0.10000000475E-02 0.  1.
</event>
<event>
 4   0  0.4958067E-02  0.9118800E+02  0.7818609E-02  0.1379984E+01
      -11   -1    0    0    0    0  0.00000000000E+00  0.00000000000E+00  0.35740347158E-01  0.35744000000E-01  0.51099999109E-03 0. -1.
       11   -1    0    0    0    0 -0.00000000000E+00 -0.00000000000E+00 -0.35740347158E-01  0.35744000000E-01  0.51099999109E-03 0.  1.
       22    1    1    2    0    0 -0.80965311531E-02  0.81375326178E-02  0.33843172591E-01  0.35737005818E-01  0.00000000000E+00 0. -1.
  9000001    1    1    2    0    0  0.80965311531E-02 -0.81375326178E-02 -0.33843172591E-01  0.35750994182E-01  0.10000000475E-02 0.  1.
</event>
<event>
 4   0  0.4958067E-02  0.9118800E+02  0.7818609E-02  0.1379984E+01
      -11   -1    0    0    0    0  0.00000000000E+00  0.00000000000E+00  0.35740347158E-01  0.35744000000E-01  0.51099999109E-03 0. -1.
       11   -1    0    0    0    0 -0.00000000000E+00 -0.00000000000E+00 -0.35740347158E-01  0.35744000000E-01  0.51099999109E-03 0.  1.
       22    1    1    2    0    0  0.38355852695E-02 -0.60218936473E-03 -0.35525473093E-01  0.35737005818E-01  0.00000000000E+00 0.  1.
  9000001    1    1    2    0    0 -0.38355852695E-02  0.60218936473E-03  0.35525473093E-01  0.35750994182E-01  0.10000000475E-02 0. -1.
</event>
<event>
 4   0  0.4958067E-02  0.9118800E+02  0.7818609E-02  0.1379984E+01
      -11   -1    0    0    0    0  0.00000000000E+00  0.00000000000E+00  0.35740347158E-01  0.35744000000E-01  0.51099999109E-03 0.  1.
       11   -1    0    0    0    0 -0.00000000000E+00 -0.00000000000E+00 -0.35740347158E-01  0.35744000000E-01  0.51099999109E-03 0. -1.
       22    1    1    2    0    0  0.66701890892E-02 -0.26735627808E-02  0.35007059637E-01  0.35737005818E-01  0.00000000000E+00 0.  1.
  9000001    1    1    2    0    0 -0.66701890892E-02  0.26735627808E-02 -0.35007059637E-01  0.35750994182E-01  0.10000000475E-02 0. -1.
</event>
<event>
 4   0  0.4958067E-02  0.9118800E+02  0.7818609E-02  0.1379984E+01
      -11   -1    0    0    0    0  0.00000000000E+00  0.00000000000E+00  0.35740347158E-01  0.35744000000E-01  0.51099999109E-03 0. -1.
       11   -1    0    0    0    0 -0.00000000000E+00 -0.00000000000E+00 -0.35740347158E-01  0.35744000000E-01  0.51099999109E-03 0.  1.
       22    1    1    2    0    0  0.99610650997E-03  0.96059151531E-02 -0.34407379307E-01  0.35737005818E-01  0.00000000000E+00 0.  1.
  9000001    1    1    2    0    0 -0.99610650997E-03 -0.96059151531E-02  0.34407379307E-01  0.35750994182E-01  0.10000000475E-02 0. -1.
</event>
<event>
 4   0  0.4958067E-02  0.9118800E+02  0.7818609E-02  0.1379984E+01
      -11   -1    0    0    0    0  0.00000000000E+00  0.00000000000E+00  0.35740347158E-01  0.35744000000E-01  0.51099999109E-03 0. -1.
       11   -1    0    0    0    0 -0.00000000000E+00 -0.00000000000E+00 -0.35740347158E-01  0.35744000000E-01  0.51099999109E-03 0.  1.
       22    1    1    2    0    0  0.17101433582E-02 -0.31385693765E-02  0.35557817380E-01  0.35737005818E-01  0.00000000000E+00 0. -1.
  9000001    1    1    2    0    0 -0.17101433582E-02  0.31385693765E-02 -0.35557817380E-01  0.35750994182E-01  0.10000000475E-02 0.  1.
</event>
<event>
 4   0  0.4958067E-02  0.9118800E+02  0.7818609E-02  0.1379984E+01
      -11   -1    0    0    0    0  0.00000000000E+00  0.00000000000E+00  0.35740347158E-01  0.35744000000E-01  0.51099999109E-03 0.  1.
       11   -1    0    0    0    0 -0.00000000000E+00 -0.00000000000E+00 -0.35740347158E-01  0.35744000000E-01  0.51099999109E-03 0. -1.
       22    1    1    2    0    0 -0.40479273380E-02  0.15764648124E-02  0.35471997799E-01  0.35737005818E-01  0.00000000000E+00 0.  1.
  9000001    1    1    2    0    0  0.40479273380E-02 -0.15764648124E-02 -0.35471997799E-01  0.35750994182E-01  0.10000000475E-02 0. -1.
</event>
<event>
 4   0  0.4958067E-02  0.9118800E+02  0.7818609E-02  0.1379984E+01
      -11   -1    0    0    0    0  0.00000000000E+00  0.00000000000E+00  0.35740347158E-01  0.35744000000E-01  0.51099999109E-03 0. -1.
       11   -1    0    0    0    0 -0.00000000000E+00 -0.00000000000E+00 -0.35740347158E-01  0.35744000000E-01  0.51099999109E-03 0.  1.
       22    1    1    2    0    0 -0.64770624849E-02  0.20578352659E-01  0.28490571218E-01  0.35737005818E-01  0.00000000000E+00 0. -1.
  9000001    1    1    2    0    0  0.64770624849E-02 -0.20578352659E-01 -0.28490571218E-01  0.35750994182E-01  0.10000000475E-02 0.  1.
</event>
<event>
 4   0  0.4958067E-02  0.9118800E+02  0.7818609E-02  0.1379984E+01
      -11   -1    0    0    0    0  0.00000000000E+00  0.00000000000E+00  0.35740347158E-01  0.35744000000E-01  0.51099999109E-03 0. -1.
       11   -1    0    0    0    0 -0.00000000000E+00 -0.00000000000E+00 -0.35740347158E-01  0.35744000000E-01  0.51099999109E-03 0.  1.
       22    1    1    2    0    0 -0.10313612948E-01  0.25824611623E-02  0.34118819839E-01  0.35737005818E-01  0.00000000000E+00 0. -1.
  9000001    1    1    2    0    0  0.10313612948E-01 -0.25824611623E-02 -0.34118819839E-01  0.35750994182E-01  0.10000000475E-02 0.  1.
</event>
<event>
 4   0  0.4958067E-02  0.9118800E+02  0.7818609E-02  0.1379984E+01
      -11   -1    0    0    0    0  0.00000000000E+00  0.00000000000E+00  0.35740347158E-01  0.35744000000E-01  0.51099999109E-03 0.  1.
       11   -1    0    0    0    0 -0.00000000000E+00 -0.00000000000E+00 -0.35740347158E-01  0.35744000000E-01  0.51099999109E-03 0. -1.
       22    1    1    2    0    0 -0.18221305900E-01 -0.22381013753E-01  0.21076238268E-01  0.35737005818E-01  0.00000000000E+00 0.  1.
  9000001    1    1    2    0    0  0.18221305900E-01  0.22381013753E-01 -0.21076238268E-01  0.35750994182E-01  0.10000000475E-02 0. -1.
</event>
<event>
 4   0  0.4958067E-02  0.9118800E+02  0.7818609E-02  0.1379984E+01
      -11   -1    0    0    0    0  0.00000000000E+00  0.00000000000E+00  0.35740347158E-01  0.35744000000E-01  0.51099999109E-03 0.  1.
       11   -1    0    0    0    0 -0.00000000000E+00 -0.00000000000E+00 -0.35740347158E-01  0.35744000000E-01  0.51099999109E-03 0. -1.
       22    1    1    2    0    0 -0.15718261686E-01  0.14617418497E-01 -0.28572730197E-01  0.35737005818E-01  0.00000000000E+00 0. -1.
  9000001    1    1    2    0    0  0.15718261686E-01 -0.14617418497E-01  0.28572730197E-01  0.35750994182E-01  0.10000000475E-02 0.  1.
</event>
<event>
 4   0  0.4958067E-02  0.9118800E+02  0.7818609E-02  0.1379984E+01
      -11   -1    0    0    0    0  0.00000000000E+00  0.00000000000E+00  0.35740347158E-01  0.35744000000E-01  0.51099999109E-03 0. -1.
       11   -1    0    0    0    0 -0.00000000000E+00 -0.00000000000E+00 -0.35740347158E-01  0.35744000000E-01  0.51099999109E-03 0.  1.
       22    1    1    2    0    0  0.31384396975E-02  0.58362288241E-04 -0.35598881653E-01  0.35737005818E-01  0.00000000000E+00 0.  1.
  9000001    1    1    2    0    0 -0.31384396975E-02 -0.58362288241E-04  0.35598881653E-01  0.35750994182E-01  0.10000000475E-02 0. -1.
</event>
<event>
 4   0  0.4958067E-02  0.9118800E+02  0.7818609E-02  0.1379984E+01
      -11   -1    0    0    0    0  0.00000000000E+00  0.00000000000E+00  0.35740347158E-01  0.35744000000E-01  0.51099999109E-03 0.  1.
       11   -1    0    0    0    0 -0.00000000000E+00 -0.00000000000E+00 -0.35740347158E-01  0.35744000000E-01  0.51099999109E-03 0. -1.
       22    1    1    2    0    0 -0.55787008194E-02 -0.97068594039E-02  0.33938010586E-01  0.35737005818E-01  0.00000000000E+00 0.  1.
  9000001    1    1    2    0    0  0.55787008194E-02  0.97068594039E-02 -0.33938010586E-01  0.35750994182E-01  0.10000000475E-02 0. -1.
</event>
<event>
 4   0  0.4958067E-02  0.9118800E+02  0.7818609E-02  0.1379984E+01
      -11   -1    0    0    0    0  0.00000000000E+00  0.00000000000E+00  0.35740347158E-01  0.35744000000E-01  0.51099999109E-03 0. -1.
       11   -1    0    0    0    0 -0.00000000000E+00 -0.00000000000E+00 -0.35740347158E-01  0.35744000000E-01  0.51099999109E-03 0.  1.
       22    1    1    2    0    0  0.38991749363E-02 -0.94700618993E-03 -0.35511029258E-01  0.35737005818E-01  0.00000000000E+00 0.  1.
  9000001    1    1    2    0    0 -0.38991749363E-02  0.94700618993E-03  0.35511029258E-01  0.35750994182E-01  0.10000000475E-02 0. -1.
</event>
<event>
 4   0  0.4958067E-02  0.9118800E+02  0.7818609E-02  0.1379984E+01
      -11   -1    0    0    0    0  0.00000000000E+00  0.00000000000E+00  0.35740347158E-01  0.35744000000E-01  0.51099999109E-03 0. -1.
       11   -1    0    0    0    0 -0.00000000000E+00 -0.00000000000E+00 -0.35740347158E-01  0.35744000000E-01  0.51099999109E-03 0.  1.
       22    1    1    2    0    0 -0.74931689785E-02 -0.87103238878E-02 -0.33839566506E-01  0.35737005818E-01  0.00000000000E+00 0.  1.
  9000001    1    1    2    0    0  0.74931689785E-02  0.87103238878E-02  0.33839566506E-01  0.35750994182E-01  0.10000000475E-02 0. -1.
</event>
<event>
 4   0  0.4958067E-02  0.9118800E+02  0.7818609E-02  0.1379984E+01
      -11   -1    0    0    0    0  0.00000000000E+00  0.00000000000E+00  0.35740347158E-01  0.35744000000E-01  0.51099999109E-03 0. -1.
       11   -1    0    0    0    0 -0.00000000000E+00 -0.00000000000E+00 -0.35740347158E-01  0.35744000000E-01  0.51099999109E-03 0.  1.
       22    1    1    2    0    0  0.14417552902E-01  0.12996016892E-01  0.30006187664E-01  0.35737005818E-01  0.00000000000E+00 0. -1.
  9000001    1    1    2    0    0 -0.14417552902E-01 -0.12996016892E-01 -0.30006187664E-01  0.35750994182E-01  0.10000000475E-02 0.  1.
</event>
<event>
 4   0  0.4958067E-02  0.9118800E+02  0.7818609E-02  0.1379984E+01
      -11   -1    0    0    0    0  0.00000000000E+00  0.00000000000E+00  0.35740347158E-01  0.35744000000E-01  0.51099999109E-03 0. -1.
       11   -1    0    0    0    0 -0.00000000000E+00 -0.00000000000E+00 -0.35740347158E-01  0.35744000000E-01  0.51099999109E-03 0.  1.
       22    1    1    2    0    0  0.98730990047E-02 -0.11620575609E-01  0.32320546459E-01  0.35737005818E-01  0.00000000000E+00 0. -1.
  9000001    1    1    2    0    0 -0.98730990047E-02  0.11620575609E-01 -0.32320546459E-01  0.35750994182E-01  0.10000000475E-02 0.  1.
</event>
<event>
 4   0  0.4958067E-02  0.9118800E+02  0.7818609E-02  0.1379984E+01
      -11   -1    0    0    0    0  0.00000000000E+00  0.00000000000E+00  0.35740347158E-01  0.35744000000E-01  0.51099999109E-03 0. -1.
       11   -1    0    0    0    0 -0.00000000000E+00 -0.00000000000E+00 -0.35740347158E-01  0.35744000000E-01  0.51099999109E-03 0.  1.
       22    1    1    2    0    0  0.28282719615E-01  0.10693785985E-01  0.19048997279E-01  0.35737005818E-01  0.00000000000E+00 0. -1.
  9000001    1    1    2    0    0 -0.28282719615E-01 -0.10693785985E-01 -0.19048997279E-01  0.35750994182E-01  0.10000000475E-02 0.  1.
</event>
<event>
 4   0  0.4958067E-02  0.9118800E+02  0.7818609E-02  0.1379984E+01
      -11   -1    0    0    0    0  0.00000000000E+00  0.00000000000E+00  0.35740347158E-01  0.35744000000E-01  0.51099999109E-03 0.  1.
       11   -1    0    0    0    0 -0.00000000000E+00 -0.00000000000E+00 -0.35740347158E-01  0.35744000000E-01  0.51099999109E-03 0. -1.
       22    1    1    2    0    0 -0.53931444994E-02  0.18334445805E-03 -0.35327241077E-01  0.35737005818E-01  0.00000000000E+00 0. -1.
  9000001    1    1    2    0    0  0.53931444994E-02 -0.18334445805E-03  0.35327241077E-01  0.35750994182E-01  0.10000000475E-02 0.  1.
</event>
<event>
 4   0  0.4958067E-02  0.9118800E+02  0.7818609E-02  0.1379984E+01
      -11   -1    0    0    0    0  0.00000000000E+00  0.00000000000E+00  0.35740347158E-01  0.35744000000E-01  0.51099999109E-03 0. -1.
       11   -1    0    0    0    0 -0.00000000000E+00 -0.00000000000E+00 -0.35740347158E-01  0.35744000000E-01  0.51099999109E-03 0.  1.
       22    1    1    2    0    0  0.12630914325E-01 -0.33126136233E-02 -0.33265901148E-01  0.35737005818E-01  0.00000000000E+00 0.  1.
  9000001    1    1    2    0    0 -0.12630914325E-01  0.33126136233E-02  0.33265901148E-01  0.35750994182E-01  0.10000000475E-02 0. -1.
</event>
<event>
 4   0  0.4958067E-02  0.9118800E+02  0.7818609E-02  0.1379984E+01
      -11   -1    0    0    0    0  0.00000000000E+00  0.00000000000E+00  0.35740347158E-01  0.35744000000E-01  0.51099999109E-03 0.  1.
       11   -1    0    0    0    0 -0.00000000000E+00 -0.00000000000E+00 -0.35740347158E-01  0.35744000000E-01  0.51099999109E-03 0. -1.
       22    1    1    2    0    0 -0.73856949885E-02  0.10256233434E-01 -0.33427455335E-01  0.35737005818E-01  0.00000000000E+00 0. -1.
  9000001    1    1    2    0    0  0.73856949885E-02 -0.10256233434E-01  0.33427455335E-01  0.35750994182E-01  0.10000000475E-02 0.  1.
</event>
<event>
 4   0  0.4958067E-02  0.9118800E+02  0.7818609E-02  0.1379984E+01
      -11   -1    0    0    0    0  0.00000000000E+00  0.00000000000E+00  0.35740347158E-01  0.35744000000E-01  0.51099999109E-03 0. -1.
       11   -1    0    0    0    0 -0.00000000000E+00 -0.00000000000E+00 -0.35740347158E-01  0.35744000000E-01  0.51099999109E-03 0.  1.
       22    1    1    2    0    0 -0.96117201443E-02 -0.22105461617E-02 -0.34349117986E-01  0.35737005818E-01  0.00000000000E+00 0.  1.
  9000001    1    1    2    0    0  0.96117201443E-02  0.22105461617E-02  0.34349117986E-01  0.35750994182E-01  0.10000000475E-02 0. -1.
</event>
<event>
 4   0  0.4958067E-02  0.9118800E+02  0.7818609E-02  0.1379984E+01
      -11   -1    0    0    0    0  0.00000000000E+00  0.00000000000E+00  0.35740347158E-01  0.35744000000E-01  0.51099999109E-03 0.  1.
       11   -1    0    0    0    0 -0.00000000000E+00 -0.00000000000E+00 -0.35740347158E-01  0.35744000000E-01  0.51099999109E-03 0. -1.
       22    1    1    2    0    0 -0.65112472601E-02 -0.63276776534E-02  0.34564399886E-01  0.35737005818E-01  0.00000000000E+00 0.  1.
  9000001    1    1    2    0    0  0.65112472601E-02  0.63276776534E-02 -0.34564399886E-01  0.35750994182E-01  0.10000000475E-02 0. -1.
</event>
<event>
 4   0  0.4958067E-02  0.9118800E+02  0.7818609E-02  0.1379984E+01
      -11   -1    0    0    0    0  0.00000000000E+00  0.00000000000E+00  0.35740347158E-01  0.35744000000E-01  0.51099999109E-03 0.  1.
       11   -1    0    0    0    0 -0.00000000000E+00 -0.00000000000E+00 -0.35740347158E-01  0.35744000000E-01  0.51099999109E-03 0. -1.
       22    1    1    2    0    0 -0.42813995504E-02 -0.11789382180E-01 -0.33463617117E-01  0.35737005818E-01  0.00000000000E+00 0. -1.
  9000001    1    1    2    0    0  0.42813995504E-02  0.11789382180E-01  0.33463617117E-01  0.35750994182E-01  0.10000000475E-02 0.  1.
</event>
<event>
 4   0  0.4958067E-02  0.9118800E+02  0.7818609E-02  0.1379984E+01
      -11   -1    0    0    0    0  0.00000000000E+00  0.00000000000E+00  0.35740347158E-01  0.35744000000E-01  0.51099999109E-03 0.  1.
       11   -1    0    0    0    0 -0.00000000000E+00 -0.00000000000E+00 -0.35740347158E-01  0.35744000000E-01  0.51099999109E-03 0. -1.
       22    1    1    2    0    0  0.54781269088E-03 -0.12483047066E-01  0.33481442951E-01  0.35737005818E-01  0.00000000000E+00 0.  1.
  9000001    1    1    2    0    0 -0.54781269088E-03  0.12483047066E-01 -0.33481442951E-01  0.35750994182E-01  0.10000000475E-02 0. -1.
</event>
<event>
 4   0  0.4958067E-02  0.9118800E+02  0.7818609E-02  0.1379984E+01
      -11   -1    0    0    0    0  0.00000000000E+00  0.00000000000E+00  0.35740347158E-01  0.35744000000E-01  0.51099999109E-03 0.  1.
       11   -1    0    0    0    0 -0.00000000000E+00 -0.00000000000E+00 -0.35740347158E-01  0.35744000000E-01  0.51099999109E-03 0. -1.
       22    1    1    2    0    0 -0.13581178550E-02  0.10660693132E-01  0.34082821519E-01  0.35737005818E-01  0.00000000000E+00 0.  1.
  9000001    1    1    2    0    0  0.13581178550E-02 -0.10660693132E-01 -0.34082821519E-01  0.35750994182E-01  0.10000000475E-02 0. -1.
</event>
<event>
 4   0  0.4958067E-02  0.9118800E+02  0.7818609E-02  0.1379984E+01
      -11   -1    0    0    0    0  0.00000000000E+00  0.00000000000E+00  0.35740347158E-01  0.35744000000E-01  0.51099999109E-03 0.  1.
       11   -1    0    0    0    0 -0.00000000000E+00 -0.00000000000E+00 -0.35740347158E-01  0.35744000000E-01  0.51099999109E-03 0. -1.
       22    1    1    2    0    0  0.33228157902E-01 -0.10136911478E-01 -0.83824896636E-02  0.35737005818E-01  0.00000000000E+00 0. -1.
  9000001    1    1    2    0    0 -0.33228157902E-01  0.10136911478E-01  0.83824896636E-02  0.35750994182E-01  0.10000000475E-02 0.  1.
</event>
<event>
 4   0  0.4958067E-02  0.9118800E+02  0.7818609E-02  0.1379984E+01
      -11   -1    0    0    0    0  0.00000000000E+00  0.00000000000E+00  0.35740347158E-01  0.35744000000E-01  0.51099999109E-03 0.  1.
       11   -1    0    0    0    0 -0.00000000000E+00 -0.00000000000E+00 -0.35740347158E-01  0.35744000000E-01  0.51099999109E-03 0. -1.
       22    1    1    2    0    0 -0.12429831757E-02 -0.59210289134E-02  0.35221158333E-01  0.35737005818E-01  0.00000000000E+00 0.  1.
  9000001    1    1    2    0    0  0.12429831757E-02  0.59210289134E-02 -0.35221158333E-01  0.35750994182E-01  0.10000000475E-02 0. -1.
</event>
<event>
 4   0  0.4958067E-02  0.9118800E+02  0.7818609E-02  0.1379984E+01
      -11   -1    0    0    0    0  0.00000000000E+00  0.00000000000E+00  0.35740347158E-01  0.35744000000E-01  0.51099999109E-03 0. -1.
       11   -1    0    0    0    0 -0.00000000000E+00 -0.00000000000E+00 -0.35740347158E-01  0.35744000000E-01  0.51099999109E-03 0.  1.
       22    1    1    2    0    0  0.17999906869E-01  0.28644979320E-01 -0.11515298403E-01  0.35737005818E-01  0.00000000000E+00 0.  1.
  9000001    1    1    2    0    0 -0.17999906869E-01 -0.28644979320E-01  0.11515298403E-01  0.35750994182E-01  0.10000000475E-02 0. -1.
</event>
<event>
 4   0  0.4958067E-02  0.9118800E+02  0.7818609E-02  0.1379984E+01
      -11   -1    0    0    0    0  0.00000000000E+00  0.00000000000E+00  0.35740347158E-01  0.35744000000E-01  0.51099999109E-03 0. -1.
       11   -1    0    0    0    0 -0.00000000000E+00 -0.00000000000E+00 -0.35740347158E-01  0.35744000000E-01  0.51099999109E-03 0.  1.
       22    1    1    2    0    0 -0.13932578261E-02 -0.36281013419E-02 -0.35525051698E-01  0.35737005818E-01  0.00000000000E+00 0.  1.
  9000001    1    1    2    0    0  0.13932578261E-02  0.36281013419E-02  0.35525051698E-01  0.35750994182E-01  0.10000000475E-02 0. -1.
</event>
<event>
 4   0  0.4958067E-02  0.9118800E+02  0.7818609E-02  0.1379984E+01
      -11   -1    0    0    0    0  0.00000000000E+00  0.00000000000E+00  0.35740347158E-01  0.35744000000E-01  0.51099999109E-03 0.  1.
       11   -1    0    0    0    0 -0.00000000000E+00 -0.00000000000E+00 -0.35740347158E-01  0.35744000000E-01  0.51099999109E-03 0. -1.
       22    1    1    2    0    0 -0.51934647300E-02 -0.84281536277E-02  0.34338429425E-01  0.35737005818E-01  0.00000000000E+00 0.  1.
  9000001    1    1    2    0    0  0.51934647300E-02  0.84281536277E-02 -0.34338429425E-01  0.35750994182E-01  0.10000000475E-02 0. -1.
</event>
<event>
 4   0  0.4958067E-02  0.9118800E+02  0.7818609E-02  0.1379984E+01
      -11   -1    0    0    0    0  0.00000000000E+00  0.00000000000E+00  0.35740347158E-01  0.35744000000E-01  0.51099999109E-03 0.  1.
       11   -1    0    0    0    0 -0.00000000000E+00 -0.00000000000E+00 -0.35740347158E-01  0.35744000000E-01  0.51099999109E-03 0. -1.
       22    1    1    2    0    0 -0.97282935793E-02  0.23419955841E-01 -0.25179347833E-01  0.35737005818E-01  0.00000000000E+00 0. -1.
  9000001    1    1    2    0    0  0.97282935793E-02 -0.23419955841E-01  0.25179347833E-01  0.35750994182E-01  0.10000000475E-02 0.  1.
</event>
<event>
 4   0  0.4958067E-02  0.9118800E+02  0.7818609E-02  0.1379984E+01
      -11   -1    0    0    0    0  0.00000000000E+00  0.00000000000E+00  0.35740347158E-01  0.35744000000E-01  0.51099999109E-03 0. -1.
       11   -1    0    0    0    0 -0.00000000000E+00 -0.00000000000E+00 -0.35740347158E-01  0.35744000000E-01  0.51099999109E-03 0.  1.
       22    1    1    2    0    0  0.85036009713E-02 -0.10830822246E-01 -0.32977502102E-01  0.35737005818E-01  0.00000000000E+00 0.  1.
  9000001    1    1    2    0    0 -0.85036009713E-02  0.10830822246E-01  0.32977502102E-01  0.35750994182E-01  0.10000000475E-02 0. -1.
</event>
<event>
 4   0  0.4958067E-02  0.9118800E+02  0.7818609E-02  0.1379984E+01
      -11   -1    0    0    0    0  0.00000000000E+00  0.00000000000E+00  0.35740347158E-01  0.35744000000E-01  0.51099999109E-03 0. -1.
       11   -1    0    0    0    0 -0.00000000000E+00 -0.00000000000E+00 -0.35740347158E-01  0.35744000000E-01  0.51099999109E-03 0.  1.
       22    1    1    2    0    0 -0.29199768881E-02  0.84470058821E-02 -0.34601378751E-01  0.35737005818E-01  0.00000000000E+00 0.  1.
  9000001    1    1    2    0    0  0.29199768881E-02 -0.84470058821E-02  0.34601378751E-01  0.35750994182E-01  0.10000000475E-02 0. -1.
</event>
<event>
 4   0  0.4958067E-02  0.9118800E+02  0.7818609E-02  0.1379984E+01
      -11   -1    0    0    0    0  0.00000000000E+00  0.00000000000E+00  0.35740347158E-01  0.35744000000E-01  0.51099999109E-03 0.  1.
       11   -1    0    0    0    0 -0.00000000000E+00 -0.00000000000E+00 -0.35740347158E-01  0.35744000000E-01  0.51099999109E-03 0. -1.
       22    1    1    2    0    0 -0.15956473512E-02 -0.11373416746E-01  0.33841289661E-01  0.35737005818E-01  0.00000000000E+00 0.  1.
  9000001    1    1    2    0    0  0.15956473512E-02  0.11373416746E-01 -0.33841289661E-01  0.35750994182E-01  0.10000000475E-02 0. -1.
</event>
<event>
 4   0  0.4958067E-02  0.9118800E+02  0.7818609E-02  0.1379984E+01
      -11   -1    0    0    0    0  0.00000000000E+00  0.00000000000E+00  0.35740347158E-01  0.35744000000E-01  0.51099999109E-03 0. -1.
       11   -1    0    0    0    0 -0.00000000000E+00 -0.00000000000E+00 -0.35740347158E-01  0.35744000000E-01  0.51099999109E-03 0.  1.
       22    1    1    2    0    0 -0.43703060210E-02  0.78440625120E-02 -0.34590528956E-01  0.35737005818E-01  0.00000000000E+00 0.  1.
  9000001    1    1    2    0    0  0.43703060210E-02 -0.78440625120E-02  0.34590528956E-01  0.35750994182E-01  0.10000000475E-02 0. -1.
</event>
<event>
 4   0  0.4958067E-02  0.9118800E+02  0.7818609E-02  0.1379984E+01
      -11   -1    0    0    0    0  0.00000000000E+00  0.00000000000E+00  0.35740347158E-01  0.35744000000E-01  0.51099999109E-03 0. -1.
       11   -1    0    0    0    0 -0.00000000000E+00 -0.00000000000E+00 -0.35740347158E-01  0.35744000000E-01  0.51099999109E-03 0.  1.
       22    1    1    2    0    0  0.30087745403E-02  0.71614104434E-02  0.34882589656E-01  0.35737005818E-01  0.00000000000E+00 0. -1.
  9000001    1    1    2    0    0 -0.30087745403E-02 -0.71614104434E-02 -0.34882589656E-01  0.35750994182E-01  0.10000000475E-02 0.  1.
</event>
<event>
 4   0  0.4958067E-02  0.9118800E+02  0.7818609E-02  0.1379984E+01
      -11   -1    0    0    0    0  0.00000000000E+00  0.00000000000E+00  0.35740347158E-01  0.35744000000E-01  0.51099999109E-03 0. -1.
       11   -1    0    0    0    0 -0.00000000000E+00 -0.00000000000E+00 -0.35740347158E-01  0.35744000000E-01  0.51099999109E-03 0.  1.
       22    1    1    2    0    0 -0.44762548843E-02  0.57540122878E-02  0.34985540866E-01  0.35737005818E-01  0.00000000000E+00 0. -1.
  9000001    1    1    2    0    0  0.44762548843E-02 -0.57540122878E-02 -0.34985540866E-01  0.35750994182E-01  0.10000000475E-02 0.  1.
</event>
<event>
 4   0  0.4958067E-02  0.9118800E+02  0.7818609E-02  0.1379984E+01
      -11   -1    0    0    0    0  0.00000000000E+00  0.00000000000E+00  0.35740347158E-01  0.35744000000E-01  0.51099999109E-03 0. -1.
       11   -1    0    0    0    0 -0.00000000000E+00 -0.00000000000E+00 -0.35740347158E-01  0.35744000000E-01  0.51099999109E-03 0.  1.
       22    1    1    2    0    0  0.57630335842E-02  0.47587122065E-03  0.35266054151E-01  0.35737005818E-01  0.00000000000E+00 0. -1.
  9000001    1    1    2    0    0 -0.57630335842E-02 -0.47587122065E-03 -0.35266054151E-01  0.35750994182E-01  0.10000000475E-02 0.  1.
</event>
<event>
 4   0  0.4958067E-02  0.9118800E+02  0.7818609E-02  0.1379984E+01
      -11   -1    0    0    0    0  0.00000000000E+00  0.00000000000E+00  0.35740347158E-01  0.35744000000E-01  0.51099999109E-03 0.  1.
       11   -1    0    0    0    0 -0.00000000000E+00 -0.00000000000E+00 -0.35740347158E-01  0.35744000000E-01  0.51099999109E-03 0. -1.
       22    1    1    2    0    0  0.68161312080E-03  0.37166798495E-02  0.35536675130E-01  0.35737005818E-01  0.00000000000E+00 0.  1.
  9000001    1    1    2    0    0 -0.68161312080E-03 -0.37166798495E-02 -0.35536675130E-01  0.35750994182E-01  0.10000000475E-02 0. -1.
</event>
<event>
 4   0  0.4958067E-02  0.9118800E+02  0.7818609E-02  0.1379984E+01
      -11   -1    0    0    0    0  0.00000000000E+00  0.00000000000E+00  0.35740347158E-01  0.35744000000E-01  0.51099999109E-03 0.  1.
       11   -1    0    0    0    0 -0.00000000000E+00 -0.00000000000E+00 -0.35740347158E-01  0.35744000000E-01  0.51099999109E-03 0. -1.
       22    1    1    2    0    0  0.13636365664E-01  0.67035108572E-02 -0.32345727052E-01  0.35737005818E-01  0.00000000000E+00 0. -1.
  9000001    1    1    2    0    0 -0.13636365664E-01 -0.67035108572E-02  0.32345727052E-01  0.35750994182E-01  0.10000000475E-02 0.  1.
</event>
<event>
 4   0  0.4958067E-02  0.9118800E+02  0.7818609E-02  0.1379984E+01
      -11   -1    0    0    0    0  0.00000000000E+00  0.00000000000E+00  0.35740347158E-01  0.35744000000E-01  0.51099999109E-03 0. -1.
       11   -1    0    0    0    0 -0.00000000000E+00 -0.00000000000E+00 -0.35740347158E-01  0.35744000000E-01  0.51099999109E-03 0.  1.
       22    1    1    2    0    0 -0.10662689157E-01 -0.31888939294E-01 -0.12105213568E-01  0.35737005818E-01  0.00000000000E+00 0.  1.
  9000001    1    1    2    0    0  0.10662689157E-01  0.31888939294E-01  0.12105213568E-01  0.35750994182E-01  0.10000000475E-02 0. -1.
</event>
<event>
 4   0  0.4958067E-02  0.9118800E+02  0.7818609E-02  0.1379984E+01
      -11   -1    0    0    0    0  0.00000000000E+00  0.00000000000E+00  0.35740347158E-01  0.35744000000E-01  0.51099999109E-03 0. -1.
       11   -1    0    0    0    0 -0.00000000000E+00 -0.00000000000E+00 -0.35740347158E-01  0.35744000000E-01  0.51099999109E-03 0.  1.
       22    1    1    2    0    0  0.71401024014E-02  0.17309073413E-02 -0.34973654118E-01  0.35737005818E-01  0.00000000000E+00 0.  1.
  9000001    1    1    2    0    0 -0.71401024014E-02 -0.17309073413E-02  0.34973654118E-01  0.35750994182E-01  0.10000000475E-02 0. -1.
</event>
<event>
 4   0  0.4958067E-02  0.9118800E+02  0.7818609E-02  0.1379984E+01
      -11   -1    0    0    0    0  0.00000000000E+00  0.00000000000E+00  0.35740347158E-01  0.35744000000E-01  0.51099999109E-03 0.  1.
       11   -1    0    0    0    0 -0.00000000000E+00 -0.00000000000E+00 -0.35740347158E-01  0.35744000000E-01  0.51099999109E-03 0. -1.
       22    1    1    2    0    0 -0.45947826627E-02  0.32207398099E-02 -0.35293744378E-01  0.35737005818E-01  0.00000000000E+00 0. -1.
  9000001    1    1    2    0    0  0.45947826627E-02 -0.32207398099E-02  0.35293744378E-01  0.35750994182E-01  0.10000000475E-02 0.  1.
</event>
<event>
 4   0  0.4958067E-02  0.9118800E+02  0.7818609E-02  0.1379984E+01
      -11   -1    0    0    0    0  0.00000000000E+00  0.00000000000E+00  0.35740347158E-01  0.35744000000E-01  0.51099999109E-03 0. -1.
       11   -1    0    0    0    0 -0.00000000000E+00 -0.00000000000E+00 -0.35740347158E-01  0.35744000000E-01  0.51099999109E-03 0.  1.
       22    1    1    2    0    0 -0.22848648649E-01 -0.11699905832E-01 -0.24863327277E-01  0.35737005818E-01  0.00000000000E+00 0.  1.
  9000001    1    1    2    0    0  0.22848648649E-01  0.11699905832E-01  0.24863327277E-01  0.35750994182E-01  0.10000000475E-02 0. -1.
</event>
<event>
 4   0  0.4958067E-02  0.9118800E+02  0.7818609E-02  0.1379984E+01
      -11   -1    0    0    0    0  0.00000000000E+00  0.00000000000E+00  0.35740347158E-01  0.35744000000E-01  0.51099999109E-03 0.  1.
       11   -1    0    0    0    0 -0.00000000000E+00 -0.00000000000E+00 -0.35740347158E-01  0.35744000000E-01  0.51099999109E-03 0. -1.
       22    1    1    2    0    0  0.83836428625E-02 -0.14098064094E-01 -0.31750475682E-01  0.35737005818E-01  0.00000000000E+00 0. -1.
  9000001    1    1    2    0    0 -0.83836428625E-02  0.14098064094E-01  0.31750475682E-01  0.35750994182E-01  0.10000000475E-02 0.  1.
</event>
<event>
 4   0  0.4958067E-02  0.9118800E+02  0.7818609E-02  0.1379984E+01
      -11   -1    0    0    0    0  0.00000000000E+00  0.00000000000E+00  0.35740347158E-01  0.35744000000E-01  0.51099999109E-03 0.  1.
       11   -1    0    0    0    0 -0.00000000000E+00 -0.00000000000E+00 -0.35740347158E-01  0.35744000000E-01  0.51099999109E-03 0. -1.
       22    1    1    2    0    0  0.25893385936E-02 -0.46419177261E-02 -0.35339517687E-01  0.35737005818E-01  0.00000000000E+00 0. -1.
  9000001    1    1    2    0    0 -0.25893385936E-02  0.46419177261E-02  0.35339517687E-01  0.35750994182E-01  0.10000000475E-02 0.  1.
</event>
<event>
 4   0  0.4958067E-02  0.9118800E+02  0.7818609E-02  0.1379984E+01
      -11   -1    0    0    0    0  0.00000000000E+00  0.00000000000E+00  0.35740347158E-01  0.35744000000E-01  0.51099999109E-03 0.  1.
       11   -1    0    0    0    0 -0.00000000000E+00 -0.00000000000E+00 -0.35740347158E-01  0.35744000000E-01  0.51099999109E-03 0. -1.
       22    1    1    2    0    0  0.59554944493E-02  0.24458996579E-01  0.25365787137E-01  0.35737005818E-01  0.00000000000E+00 0.  1.
  9000001    1    1    2    0    0 -0.59554944493E-02 -0.24458996579E-01 -0.25365787137E-01  0.35750994182E-01  0.10000000475E-02 0. -1.
</event>
<event>
 4   0  0.4958067E-02  0.9118800E+02  0.7818609E-02  0.1379984E+01
      -11   -1    0    0    0    0  0.00000000000E+00  0.00000000000E+00  0.35740347158E-01  0.35744000000E-01  0.51099999109E-03 0. -1.
       11   -1    0    0    0    0 -0.00000000000E+00 -0.00000000000E+00 -0.35740347158E-01  0.35744000000E-01  0.51099999109E-03 0.  1.
       22    1    1    2    0    0 -0.21081762265E-03 -0.51484000347E-02  0.35363584630E-01  0.35737005818E-01  0.00000000000E+00 0. -1.
  9000001    1    1    2    0    0  0.21081762265E-03  0.51484000347E-02 -0.35363584630E-01  0.35750994182E-01  0.10000000475E-02 0.  1.
</event>
<event>
 4   0  0.4958067E-02  0.9118800E+02  0.7818609E-02  0.1379984E+01
      -11   -1    0    0    0    0  0.00000000000E+00  0.00000000000E+00  0.35740347158E-01  0.35744000000E-01  0.51099999109E-03 0. -1.
       11   -1    0    0    0    0 -0.00000000000E+00 -0.00000000000E+00 -0.35740347158E-01  0.35744000000E-01  0.51099999109E-03 0.  1.
       22    1    1    2    0    0 -0.87806173656E-02  0.73776252510E-02 -0.33846786985E-01  0.35737005818E-01  0.00000000000E+00 0.  1.
  9000001    1    1    2    0    0  0.87806173656E-02 -0.73776252510E-02  0.33846786985E-01  0.35750994182E-01  0.10000000475E-02 0. -1.
</event>
<event>
 4   0  0.4958067E-02  0.9118800E+02  0.7818609E-02  0.1379984E+01
      -11   -1    0    0    0    0  0.00000000000E+00  0.00000000000E+00  0.35740347158E-01  0.35744000000E-01  0.51099999109E-03 0.  1.
       11   -1    0    0    0    0 -0.00000000000E+00 -0.00000000000E+00 -0.35740347158E-01  0.35744000000E-01  0.51099999109E-03 0. -1.
       22    1    1    2    0    0 -0.13173683301E-01  0.83795256311E-02  0.32146091572E-01  0.35737005818E-01  0.00000000000E+00 0.  1.
  9000001    1    1    2    0    0  0.13173683301E-01 -0.83795256311E-02 -0.32146091572E-01  0.35750994182E-01  0.10000000475E-02 0. -1.
</event>
<event>
 4   0  0.4958067E-02  0.9118800E+02  0.7818609E-02  0.1379984E+01
      -11   -1    0    0    0    0  0.00000000000E+00  0.00000000000E+00  0.35740347158E-01  0.35744000000E-01  0.51099999109E-03 0.  1.
       11   -1    0    0    0    0 -0.00000000000E+00 -0.00000000000E+00 -0.35740347158E-01  0.35744000000E-01  0.51099999109E-03 0. -1.
       22    1    1    2    0    0 -0.85131782242E-02 -0.11714799810E-01 -0.32671437783E-01  0.35737005818E-01  0.00000000000E+00 0.  1.
  9000001    1    1    2    0    0  0.85131782242E-02  0.11714799810E-01  0.32671437783E-01  0.35750994182E-01  0.10000000475E-02 0. -1.
</event>
<event>
 4   0  0.4958067E-02  0.9118800E+02  0.7818609E-02  0.1379984E+01
      -11   -1    0    0    0    0  0.00000000000E+00  0.00000000000E+00  0.35740347158E-01  0.35744000000E-01  0.51099999109E-03 0.  1.
       11   -1    0    0    0    0 -0.00000000000E+00 -0.00000000000E+00 -0.35740347158E-01  0.35744000000E-01  0.51099999109E-03 0. -1.
       22    1    1    2    0    0  0.36730596386E-02 -0.17055706459E-01  0.31188861713E-01  0.35737005818E-01  0.00000000000E+00 0.  1.
  9000001    1    1    2    0    0 -0.36730596386E-02  0.17055706459E-01 -0.31188861713E-01  0.35750994182E-01  0.10000000475E-02 0. -1.
</event>
<event>
 4   0  0.4958067E-02  0.9118800E+02  0.7818609E-02  0.1379984E+01
      -11   -1    0    0    0    0  0.00000000000E+00  0.00000000000E+00  0.35740347158E-01  0.35744000000E-01  0.51099999109E-03 0. -1.
       11   -1    0    0    0    0 -0.00000000000E+00 -0.00000000000E+00 -0.35740347158E-01  0.35744000000E-01  0.51099999109E-03 0.  1.
       22    1    1    2    0    0 -0.12421277343E-02 -0.54162308870E-02 -0.35302339109E-01  0.35737005818E-01  0.00000000000E+00 0.  1.
  9000001    1    1    2    0    0  0.12421277343E-02  0.54162308870E-02  0.35302339109E-01  0.35750994182E-01  0.10000000475E-02 0. -1.
</event>
<event>
 4   0  0.4958067E-02  0.9118800E+02  0.7818609E-02  0.1379984E+01
      -11   -1    0    0    0    0  0.00000000000E+00  0.00000000000E+00  0.35740347158E-01  0.35744000000E-01  0.51099999109E-03 0. -1.
       11   -1    0    0    0    0 -0.00000000000E+00 -0.00000000000E+00 -0.35740347158E-01  0.35744000000E-01  0.51099999109E-03 0.  1.
       22    1    1    2    0    0 -0.29542352213E-01 -0.13158948612E-01 -0.15206087007E-01  0.35737005818E-01  0.00000000000E+00 0.  1.
  9000001    1    1    2    0    0  0.29542352213E-01  0.13158948612E-01  0.15206087007E-01  0.35750994182E-01  0.10000000475E-02 0. -1.
</event>
<event>
 4   0  0.4958067E-02  0.9118800E+02  0.7818609E-02  0.1379984E+01
      -11   -1    0    0    0    0  0.00000000000E+00  0.00000000000E+00  0.35740347158E-01  0.35744000000E-01  0.51099999109E-03 0.  1.
       11   -1    0    0    0    0 -0.00000000000E+00 -0.00000000000E+00 -0.35740347158E-01  0.35744000000E-01  0.51099999109E-03 0. -1.
       22    1    1    2    0    0 -0.19867455835E-02  0.30228328771E-02 -0.35553465489E-01  0.35737005818E-01  0.00000000000E+00 0. -1.
  9000001    1    1    2    0    0  0.19867455835E-02 -0.30228328771E-02  0.35553465489E-01  0.35750994182E-01  0.10000000475E-02 0.  1.
</event>
<event>
 4   0  0.4958067E-02  0.9118800E+02  0.7818609E-02  0.1379984E+01
      -11   -1    0    0    0    0  0.00000000000E+00  0.00000000000E+00  0.35740347158E-01  0.35744000000E-01  0.51099999109E-03 0.  1.
       11   -1    0    0    0    0 -0.00000000000E+00 -0.00000000000E+00 -0.35740347158E-01  0.35744000000E-01  0.51099999109E-03 0. -1.
       22    1    1    2    0    0  0.51816236410E-02  0.40021940359E-02 -0.35132133499E-01  0.35737005818E-01  0.00000000000E+00 0. -1.
  9000001    1    1    2    0    0 -0.51816236410E-02 -0.40021940359E-02  0.35132133499E-01  0.35750994182E-01  0.10000000475E-02 0.  1.
</event>
<event>
 4   0  0.4958067E-02  0.9118800E+02  0.7818609E-02  0.1379984E+01
      -11   -1    0    0    0    0  0.00000000000E+00  0.00000000000E+00  0.35740347158E-01  0.35744000000E-01  0.51099999109E-03 0. -1.
       11   -1    0    0    0    0 -0.00000000000E+00 -0.00000000000E+00 -0.35740347158E-01  0.35744000000E-01  0.51099999109E-03 0.  1.
       22    1    1    2    0    0 -0.28463449248E-04  0.32473567907E-02 -0.35589147905E-01  0.35737005818E-01  0.00000000000E+00 0.  1.
  9000001    1    1    2    0    0  0.28463449248E-04 -0.32473567907E-02  0.35589147905E-01  0.35750994182E-01  0.10000000475E-02 0. -1.
</event>
<event>
 4   0  0.4958067E-02  0.9118800E+02  0.7818609E-02  0.1379984E+01
      -11   -1    0    0    0    0  0.00000000000E+00  0.00000000000E+00  0.35740347158E-01  0.35744000000E-01  0.51099999109E-03 0. -1.
       11   -1    0    0    0    0 -0.00000000000E+00 -0.00000000000E+00 -0.35740347158E-01  0.35744000000E-01  0.51099999109E-03 0.  1.
       22    1    1    2    0    0  0.42568904820E-02 -0.45524827236E-02  0.35189307600E-01  0.35737005818E-01  0.00000000000E+00 0. -1.
  9000001    1    1    2    0    0 -0.42568904820E-02  0.45524827236E-02 -0.35189307600E-01  0.35750994182E-01  0.10000000475E-02 0.  1.
</event>
<event>
 4   0  0.4958067E-02  0.9118800E+02  0.7818609E-02  0.1379984E+01
      -11   -1    0    0    0    0  0.00000000000E+00  0.00000000000E+00  0.35740347158E-01  0.35744000000E-01  0.51099999109E-03 0. -1.
       11   -1    0    0    0    0 -0.00000000000E+00 -0.00000000000E+00 -0.35740347158E-01  0.35744000000E-01  0.51099999109E-03 0.  1.
       22    1    1    2    0    0 -0.10471154222E-01  0.24167048072E-01 -0.24154550329E-01  0.35737005818E-01  0.00000000000E+00 0.  1.
  9000001    1    1    2    0    0  0.10471154222E-01 -0.24167048072E-01  0.24154550329E-01  0.35750994182E-01  0.10000000475E-02 0. -1.
</event>
<event>
 4   0  0.4958067E-02  0.9118800E+02  0.7818609E-02  0.1379984E+01
      -11   -1    0    0    0    0  0.00000000000E+00  0.00000000000E+00  0.35740347158E-01  0.35744000000E-01  0.51099999109E-03 0.  1.
       11   -1    0    0    0    0 -0.00000000000E+00 -0.00000000000E+00 -0.35740347158E-01  0.35744000000E-01  0.51099999109E-03 0. -1.
       22    1    1    2    0    0 -0.12032495828E-02 -0.42901160754E-02 -0.35458153919E-01  0.35737005818E-01  0.00000000000E+00 0. -1.
  9000001    1    1    2    0    0  0.12032495828E-02  0.42901160754E-02  0.35458153919E-01  0.35750994182E-01  0.10000000475E-02 0.  1.
</event>
<event>
 4   0  0.4958067E-02  0.9118800E+02  0.7818609E-02  0.1379984E+01
      -11   -1    0    0    0    0  0.00000000000E+00  0.00000000000E+00  0.35740347158E-01  0.35744000000E-01  0.51099999109E-03 0. -1.
       11   -1    0    0    0    0 -0.00000000000E+00 -0.00000000000E+00 -0.35740347158E-01  0.35744000000E-01  0.51099999109E-03 0.  1.
       22    1    1    2    0    0  0.61942427729E-02 -0.60342007485E-02  0.34674967378E-01  0.35737005818E-01  0.00000000000E+00 0. -1.
  9000001    1    1    2    0    0 -0.61942427729E-02  0.60342007485E-02 -0.34674967378E-01  0.35750994182E-01  0.10000000475E-02 0.  1.
</event>
<event>
 4   0  0.4958067E-02  0.9118800E+02  0.7818609E-02  0.1379984E+01
      -11   -1    0    0    0    0  0.00000000000E+00  0.00000000000E+00  0.35740347158E-01  0.35744000000E-01  0.51099999109E-03 0. -1.
       11   -1    0    0    0    0 -0.00000000000E+00 -0.00000000000E+00 -0.35740347158E-01  0.35744000000E-01  0.51099999109E-03 0.  1.
       22    1    1    2    0    0  0.95994574671E-02 -0.28434901230E-02 -0.34305955243E-01  0.35737005818E-01  0.00000000000E+00 0.  1.
  9000001    1    1    2    0    0 -0.95994574671E-02  0.28434901230E-02  0.34305955243E-01  0.35750994182E-01  0.10000000475E-02 0. -1.
</event>
<event>
 4   0  0.4958067E-02  0.9118800E+02  0.7818609E-02  0.1379984E+01
      -11   -1    0    0    0    0  0.00000000000E+00  0.00000000000E+00  0.35740347158E-01  0.35744000000E-01  0.51099999109E-03 0. -1.
       11   -1    0    0    0    0 -0.00000000000E+00 -0.00000000000E+00 -0.35740347158E-01  0.35744000000E-01  0.51099999109E-03 0.  1.
       22    1    1    2    0    0 -0.10942757038E-01 -0.78421967658E-03 -0.34011390045E-01  0.35737005818E-01  0.00000000000E+00 0.  1.
  9000001    1    1    2    0    0  0.10942757038E-01  0.78421967658E-03  0.34011390045E-01  0.35750994182E-01  0.10000000475E-02 0. -1.
</event>
<event>
 4   0  0.4958067E-02  0.9118800E+02  0.7818609E-02  0.1379984E+01
      -11   -1    0    0    0    0  0.00000000000E+00  0.00000000000E+00  0.35740347158E-01  0.35744000000E-01  0.51099999109E-03 0.  1.
       11   -1    0    0    0    0 -0.00000000000E+00 -0.00000000000E+00 -0.35740347158E-01  0.35744000000E-01  0.51099999109E-03 0. -1.
       22    1    1    2    0    0  0.88461504529E-02 -0.68904421314E-03 -0.34617978351E-01  0.35737005818E-01  0.00000000000E+00 0. -1.
  9000001    1    1    2    0    0 -0.88461504529E-02  0.68904421314E-03  0.34617978351E-01  0.35750994182E-01  0.10000000475E-02 0.  1.
</event>
<event>
 4   0  0.4958067E-02  0.9118800E+02  0.7818609E-02  0.1379984E+01
      -11   -1    0    0    0    0  0.00000000000E+00  0.00000000000E+00  0.35740347158E-01  0.35744000000E-01  0.51099999109E-03 0.  1.
       11   -1    0    0    0    0 -0.00000000000E+00 -0.00000000000E+00 -0.35740347158E-01  0.35744000000E-01  0.51099999109E-03 0. -1.
       22    1    1    2    0    0 -0.42388121189E-04  0.78230006290E-02 -0.34870222960E-01  0.35737005818E-01  0.00000000000E+00 0. -1.
  9000001    1    1    2    0    0  0.42388121189E-04 -0.78230006290E-02  0.34870222960E-01  0.35750994182E-01  0.10000000475E-02 0.  1.
</event>
<event>
 4   0  0.4958067E-02  0.9118800E+02  0.7818609E-02  0.1379984E+01
      -11   -1    0    0    0    0  0.00000000000E+00  0.00000000000E+00  0.35740347158E-01  0.35744000000E-01  0.51099999109E-03 0. -1.
       11   -1    0    0    0    0 -0.00000000000E+00 -0.00000000000E+00 -0.35740347158E-01  0.35744000000E-01  0.51099999109E-03 0.  1.
       22    1    1    2    0    0 -0.13657931852E-01 -0.20221502210E-01  0.26109104365E-01  0.35737005818E-01  0.00000000000E+00 0. -1.
  9000001    1    1    2    0    0  0.13657931852E-01  0.20221502210E-01 -0.26109104365E-01  0.35750994182E-01  0.10000000475E-02 0.  1.
</event>
<event>
 4   0  0.4958067E-02  0.9118800E+02  0.7818609E-02  0.1379984E+01
      -11   -1    0    0    0    0  0.00000000000E+00  0.00000000000E+00  0.35740347158E-01  0.35744000000E-01  0.51099999109E-03 0.  1.
       11   -1    0    0    0    0 -0.00000000000E+00 -0.00000000000E+00 -0.35740347158E-01  0.35744000000E-01  0.51099999109E-03 0. -1.
       22    1    1    2    0    0 -0.17336601528E-01 -0.14882557826E-01 -0.27478815565E-01  0.35737005818E-01  0.00000000000E+00 0. -1.
  9000001    1    1    2    0    0  0.17336601528E-01  0.14882557826E-01  0.27478815565E-01  0.35750994182E-01  0.10000000475E-02 0.  1.
</event>
<event>
 4   0  0.4958067E-02  0.9118800E+02  0.7818609E-02  0.1379984E+01
      -11   -1    0    0    0    0  0.00000000000E+00  0.00000000000E+00  0.35740347158E-01  0.35744000000E-01  0.51099999109E-03 0. -1.
       11   -1    0    0    0    0 -0.00000000000E+00 -0.00000000000E+00 -0.35740347158E-01  0.35744000000E-01  0.51099999109E-03 0.  1.
       22    1    1    2    0    0  0.11251268767E-01  0.14416944316E-01 -0.30703326409E-01  0.35737005818E-01  0.00000000000E+00 0.  1.
  9000001    1    1    2    0    0 -0.11251268767E-01 -0.14416944316E-01  0.30703326409E-01  0.35750994182E-01  0.10000000475E-02 0. -1.
</event>
<event>
 4   0  0.4958067E-02  0.9118800E+02  0.7818609E-02  0.1379984E+01
      -11   -1    0    0    0    0  0.00000000000E+00  0.00000000000E+00  0.35740347158E-01  0.35744000000E-01  0.51099999109E-03 0.  1.
       11   -1    0    0    0    0 -0.00000000000E+00 -0.00000000000E+00 -0.35740347158E-01  0.35744000000E-01  0.51099999109E-03 0. -1.
       22    1    1    2    0    0  0.25760045293E-02  0.18321717943E-02  0.35596923070E-01  0.35737005818E-01  0.00000000000E+00 0.  1.
  9000001    1    1    2    0    0 -0.25760045293E-02 -0.18321717943E-02 -0.35596923070E-01  0.35750994182E-01  0.10000000475E-02 0. -1.
</event>
<event>
 4   0  0.4958067E-02  0.9118800E+02  0.7818609E-02  0.1379984E+01
      -11   -1    0    0    0    0  0.00000000000E+00  0.00000000000E+00  0.35740347158E-01  0.35744000000E-01  0.51099999109E-03 0. -1.
       11   -1    0    0    0    0 -0.00000000000E+00 -0.00000000000E+00 -0.35740347158E-01  0.35744000000E-01  0.51099999109E-03 0.  1.
       22    1    1    2    0    0 -0.18733872234E-01 -0.50453700343E-02 -0.30011995222E-01  0.35737005818E-01  0.00000000000E+00 0.  1.
  9000001    1    1    2    0    0  0.18733872234E-01  0.50453700343E-02  0.30011995222E-01  0.35750994182E-01  0.10000000475E-02 0. -1.
</event>
<event>
 4   0  0.4958067E-02  0.9118800E+02  0.7818609E-02  0.1379984E+01
      -11   -1    0    0    0    0  0.00000000000E+00  0.00000000000E+00  0.35740347158E-01  0.35744000000E-01  0.51099999109E-03 0.  1.
       11   -1    0    0    0    0 -0.00000000000E+00 -0.00000000000E+00 -0.35740347158E-01  0.35744000000E-01  0.51099999109E-03 0. -1.
       22    1    1    2    0    0  0.16455364048E-01 -0.31898648890E-03  0.31721488404E-01  0.35737005818E-01  0.00000000000E+00 0.  1.
  9000001    1    1    2    0    0 -0.16455364048E-01  0.31898648890E-03 -0.31721488404E-01  0.35750994182E-01  0.10000000475E-02 0. -1.
</event>
<event>
 4   0  0.4958067E-02  0.9118800E+02  0.7818609E-02  0.1379984E+01
      -11   -1    0    0    0    0  0.00000000000E+00  0.00000000000E+00  0.35740347158E-01  0.35744000000E-01  0.51099999109E-03 0.  1.
       11   -1    0    0    0    0 -0.00000000000E+00 -0.00000000000E+00 -0.35740347158E-01  0.35744000000E-01  0.51099999109E-03 0. -1.
       22    1    1    2    0    0 -0.85085116606E-02  0.14402543572E-01  0.31580144915E-01  0.35737005818E-01  0.00000000000E+00 0.  1.
  9000001    1    1    2    0    0  0.85085116606E-02 -0.14402543572E-01 -0.31580144915E-01  0.35750994182E-01  0.10000000475E-02 0. -1.
</event>
<event>
 4   0  0.4958067E-02  0.9118800E+02  0.7818609E-02  0.1379984E+01
      -11   -1    0    0    0    0  0.00000000000E+00  0.00000000000E+00  0.35740347158E-01  0.35744000000E-01  0.51099999109E-03 0.  1.
       11   -1    0    0    0    0 -0.00000000000E+00 -0.00000000000E+00 -0.35740347158E-01  0.35744000000E-01  0.51099999109E-03 0. -1.
       22    1    1    2    0    0 -0.84929474706E-02 -0.11840542468E-02 -0.34692959569E-01  0.35737005818E-01  0.00000000000E+00 0. -1.
  9000001    1    1    2    0    0  0.84929474706E-02  0.11840542468E-02  0.34692959569E-01  0.35750994182E-01  0.10000000475E-02 0.  1.
</event>
<event>
 4   0  0.4958067E-02  0.9118800E+02  0.7818609E-02  0.1379984E+01
      -11   -1    0    0    0    0  0.00000000000E+00  0.00000000000E+00  0.35740347158E-01  0.35744000000E-01  0.51099999109E-03 0. -1.
       11   -1    0    0    0    0 -0.00000000000E+00 -0.00000000000E+00 -0.35740347158E-01  0.35744000000E-01  0.51099999109E-03 0.  1.
       22    1    1    2    0    0 -0.50100646531E-03  0.58536547173E-02 -0.35250777351E-01  0.35737005818E-01  0.00000000000E+00 0.  1.
  9000001    1    1    2    0    0  0.50100646531E-03 -0.58536547173E-02  0.35250777351E-01  0.35750994182E-01  0.10000000475E-02 0. -1.
</event>
<event>
 4   0  0.4958067E-02  0.9118800E+02  0.7818609E-02  0.1379984E+01
      -11   -1    0    0    0    0  0.00000000000E+00  0.00000000000E+00  0.35740347158E-01  0.35744000000E-01  0.51099999109E-03 0.  1.
       11   -1    0    0    0    0 -0.00000000000E+00 -0.00000000000E+00 -0.35740347158E-01  0.35744000000E-01  0.51099999109E-03 0. -1.
       22    1    1    2    0    0  0.30087316843E-02  0.24295694168E-03 -0.35609297809E-01  0.35737005818E-01  0.00000000000E+00 0. -1.
  9000001    1    1    2    0    0 -0.30087316843E-02 -0.24295694168E-03  0.35609297809E-01  0.35750994182E-01  0.10000000475E-02 0.  1.
</event>
<event>
 4   0  0.4958067E-02  0.9118800E+02  0.7818609E-02  0.1379984E+01
      -11   -1    0    0    0    0  0.00000000000E+00  0.00000000000E+00  0.35740347158E-01  0.35744000000E-01  0.51099999109E-03 0.  1.
       11   -1    0    0    0    0 -0.00000000000E+00 -0.00000000000E+00 -0.35740347158E-01  0.35744000000E-01  0.51099999109E-03 0. -1.
       22    1    1    2    0    0 -0.65044655699E-02 -0.22931057046E-02 -0.35065184710E-01  0.35737005818E-01  0.00000000000E+00 0. -1.
  9000001    1    1    2    0    0  0.65044655699E-02  0.22931057046E-02  0.35065184710E-01  0.35750994182E-01  0.10000000475E-02 0.  1.
</event>
<event>
 4   0  0.4958067E-02  0.9118800E+02  0.7818609E-02  0.1379984E+01
      -11   -1    0    0    0    0  0.00000000000E+00  0.00000000000E+00  0.35740347158E-01  0.35744000000E-01  0.51099999109E-03 0. -1.
       11   -1    0    0    0    0 -0.00000000000E+00 -0.00000000000E+00 -0.35740347158E-01  0.35744000000E-01  0.51099999109E-03 0.  1.
       22    1    1    2    0    0 -0.31841097721E-02  0.17842937538E-02  0.35550124130E-01  0.35737005818E-01  0.00000000000E+00 0. -1.
  9000001    1    1    2    0    0  0.31841097721E-02 -0.17842937538E-02 -0.35550124130E-01  0.35750994182E-01  0.10000000475E-02 0.  1.
</event>
<event>
 4   0  0.4958067E-02  0.9118800E+02  0.7818609E-02  0.1379984E+01
      -11   -1    0    0    0    0  0.00000000000E+00  0.00000000000E+00  0.35740347158E-01  0.35744000000E-01  0.51099999109E-03 0. -1.
       11   -1    0    0    0    0 -0.00000000000E+00 -0.00000000000E+00 -0.35740347158E-01  0.35744000000E-01  0.51099999109E-03 0.  1.
       22    1    1    2    0    0  0.17443561683E-02  0.36464643527E-02 -0.35507662612E-01  0.35737005818E-01  0.00000000000E+00 0.  1.
  9000001    1    1    2    0    0 -0.17443561683E-02 -0.36464643527E-02  0.35507662612E-01  0.35750994182E-01  0.10000000475E-02 0. -1.
</event>
<event>
 4   0  0.4958067E-02  0.9118800E+02  0.7818609E-02  0.1379984E+01
      -11   -1    0    0    0    0  0.00000000000E+00  0.00000000000E+00  0.35740347158E-01  0.35744000000E-01  0.51099999109E-03 0. -1.
       11   -1    0    0    0    0 -0.00000000000E+00 -0.00000000000E+00 -0.35740347158E-01  0.35744000000E-01  0.51099999109E-03 0.  1.
       22    1    1    2    0    0  0.37303768066E-02  0.12944810856E-01 -0.33100600382E-01  0.35737005818E-01  0.00000000000E+00 0.  1.
  9000001    1    1    2    0    0 -0.37303768066E-02 -0.12944810856E-01  0.33100600382E-01  0.35750994182E-01  0.10000000475E-02 0. -1.
</event>
<event>
 4   0  0.4958067E-02  0.9118800E+02  0.7818609E-02  0.1379984E+01
      -11   -1    0    0    0    0  0.00000000000E+00  0.00000000000E+00  0.35740347158E-01  0.35744000000E-01  0.51099999109E-03 0.  1.
       11   -1    0    0    0    0 -0.00000000000E+00 -0.00000000000E+00 -0.35740347158E-01  0.35744000000E-01  0.51099999109E-03 0. -1.
       22    1    1    2    0    0  0.62024177318E-02  0.20490790479E-01  0.28614526114E-01  0.35737005818E-01  0.00000000000E+00 0.  1.
  9000001    1    1    2    0    0 -0.62024177318E-02 -0.20490790479E-01 -0.28614526114E-01  0.35750994182E-01  0.10000000475E-02 0. -1.
</event>
<event>
 4   0  0.4958067E-02  0.9118800E+02  0.7818609E-02  0.1379984E+01
      -11   -1    0    0    0    0  0.00000000000E+00  0.00000000000E+00  0.35740347158E-01  0.35744000000E-01  0.51099999109E-03 0. -1.
       11   -1    0    0    0    0 -0.00000000000E+00 -0.00000000000E+00 -0.35740347158E-01  0.35744000000E-01  0.51099999109E-03 0.  1.
       22    1    1    2    0    0 -0.57987972577E-02 -0.52711136565E-03  0.35259462402E-01  0.35737005818E-01  0.00000000000E+00 0. -1.
  9000001    1    1    2    0    0  0.57987972577E-02  0.52711136565E-03 -0.35259462402E-01  0.35750994182E-01  0.10000000475E-02 0.  1.
</event>
<event>
 4   0  0.4958067E-02  0.9118800E+02  0.7818609E-02  0.1379984E+01
      -11   -1    0    0    0    0  0.00000000000E+00  0.00000000000E+00  0.35740347158E-01  0.35744000000E-01  0.51099999109E-03 0.  1.
       11   -1    0    0    0    0 -0.00000000000E+00 -0.00000000000E+00 -0.35740347158E-01  0.35744000000E-01  0.51099999109E-03 0. -1.
       22    1    1    2    0    0  0.22840568740E-02 -0.37816602254E-02  0.35462877985E-01  0.35737005818E-01  0.00000000000E+00 0.  1.
  9000001    1    1    2    0    0 -0.22840568740E-02  0.37816602254E-02 -0.35462877985E-01  0.35750994182E-01  0.10000000475E-02 0. -1.
</event>
<event>
 4   0  0.4958067E-02  0.9118800E+02  0.7818609E-02  0.1379984E+01
      -11   -1    0    0    0    0  0.00000000000E+00  0.00000000000E+00  0.35740347158E-01  0.35744000000E-01  0.51099999109E-03 0. -1.
       11   -1    0    0    0    0 -0.00000000000E+00 -0.00000000000E+00 -0.35740347158E-01  0.35744000000E-01  0.51099999109E-03 0.  1.
       22    1    1    2    0    0  0.23968909331E-01 -0.15996267217E-01  0.21136329044E-01  0.35737005818E-01  0.00000000000E+00 0. -1.
  9000001    1    1    2    0    0 -0.23968909331E-01  0.15996267217E-01 -0.21136329044E-01  0.35750994182E-01  0.10000000475E-02 0.  1.
</event>
<event>
 4   0  0.4958067E-02  0.9118800E+02  0.7818609E-02  0.1379984E+01
      -11   -1    0    0    0    0  0.00000000000E+00  0.00000000000E+00  0.35740347158E-01  0.35744000000E-01  0.51099999109E-03 0. -1.
       11   -1    0    0    0    0 -0.00000000000E+00 -0.00000000000E+00 -0.35740347158E-01  0.35744000000E-01  0.51099999109E-03 0.  1.
       22    1    1    2    0    0 -0.88158285053E-02  0.11167942297E-01 -0.32782492545E-01  0.35737005818E-01  0.00000000000E+00 0.  1.
  9000001    1    1    2    0    0  0.88158285053E-02 -0.11167942297E-01  0.32782492545E-01  0.35750994182E-01  0.10000000475E-02 0. -1.
</event>
<event>
 4   0  0.4958067E-02  0.9118800E+02  0.7818609E-02  0.1379984E+01
      -11   -1    0    0    0    0  0.00000000000E+00  0.00000000000E+00  0.35740347158E-01  0.35744000000E-01  0.51099999109E-03 0. -1.
       11   -1    0    0    0    0 -0.00000000000E+00 -0.00000000000E+00 -0.35740347158E-01  0.35744000000E-01  0.51099999109E-03 0.  1.
       22    1    1    2    0    0 -0.16180150762E-01  0.68651755708E-02 -0.31116003448E-01  0.35737005818E-01  0.00000000000E+00 0.  1.
  9000001    1    1    2    0    0  0.16180150762E-01 -0.68651755708E-02  0.31116003448E-01  0.35750994182E-01  0.10000000475E-02 0. -1.
</event>
<event>
 4   0  0.4958067E-02  0.9118800E+02  0.7818609E-02  0.1379984E+01
      -11   -1    0    0    0    0  0.00000000000E+00  0.00000000000E+00  0.35740347158E-01  0.35744000000E-01  0.51099999109E-03 0.  1.
       11   -1    0    0    0    0 -0.00000000000E+00 -0.00000000000E+00 -0.35740347158E-01  0.35744000000E-01  0.51099999109E-03 0. -1.
       22    1    1    2    0    0  0.12015041612E-01 -0.31904014423E-01 -0.10719432056E-01  0.35737005818E-01  0.00000000000E+00 0. -1.
  9000001    1    1    2    0    0 -0.12015041612E-01  0.31904014423E-01  0.10719432056E-01  0.35750994182E-01  0.10000000475E-02 0.  1.
</event>
<event>
 4   0  0.4958067E-02  0.9118800E+02  0.7818609E-02  0.1379984E+01
      -11   -1    0    0    0    0  0.00000000000E+00  0.00000000000E+00  0.35740347158E-01  0.35744000000E-01  0.51099999109E-03 0.  1.
       11   -1    0    0    0    0 -0.00000000000E+00 -0.00000000000E+00 -0.35740347158E-01  0.35744000000E-01  0.51099999109E-03 0. -1.
       22    1    1    2    0    0  0.31545194427E-02  0.58942675581E-02 -0.35106127697E-01  0.35737005818E-01  0.00000000000E+00 0. -1.
  9000001    1    1    2    0    0 -0.31545194427E-02 -0.58942675581E-02  0.35106127697E-01  0.35750994182E-01  0.10000000475E-02 0.  1.
</event>
<event>
 4   0  0.4958067E-02  0.9118800E+02  0.7818609E-02  0.1379984E+01
      -11   -1    0    0    0    0  0.00000000000E+00  0.00000000000E+00  0.35740347158E-01  0.35744000000E-01  0.51099999109E-03 0. -1.
       11   -1    0    0    0    0 -0.00000000000E+00 -0.00000000000E+00 -0.35740347158E-01  0.35744000000E-01  0.51099999109E-03 0.  1.
       22    1    1    2    0    0  0.32483246834E-01 -0.10102908974E-01  0.10950045218E-01  0.35737005818E-01  0.00000000000E+00 0.  1.
  9000001    1    1    2    0    0 -0.32483246834E-01  0.10102908974E-01 -0.10950045218E-01  0.35750994182E-01  0.10000000475E-02 0. -1.
</event>
<event>
 4   0  0.4958067E-02  0.9118800E+02  0.7818609E-02  0.1379984E+01
      -11   -1    0    0    0    0  0.00000000000E+00  0.00000000000E+00  0.35740347158E-01  0.35744000000E-01  0.51099999109E-03 0. -1.
       11   -1    0    0    0    0 -0.00000000000E+00 -0.00000000000E+00 -0.35740347158E-01  0.35744000000E-01  0.51099999109E-03 0.  1.
       22    1    1    2    0    0 -0.85389210229E-02 -0.96244532761E-02 -0.33340520568E-01  0.35737005818E-01  0.00000000000E+00 0.  1.
  9000001    1    1    2    0    0  0.85389210229E-02  0.96244532761E-02  0.33340520568E-01  0.35750994182E-01  0.10000000475E-02 0. -1.
</event>
<event>
 4   0  0.4958067E-02  0.9118800E+02  0.7818609E-02  0.1379984E+01
      -11   -1    0    0    0    0  0.00000000000E+00  0.00000000000E+00  0.35740347158E-01  0.35744000000E-01  0.51099999109E-03 0. -1.
       11   -1    0    0    0    0 -0.00000000000E+00 -0.00000000000E+00 -0.35740347158E-01  0.35744000000E-01  0.51099999109E-03 0.  1.
       22    1    1    2    0    0  0.16442505912E-01  0.28314346052E-01  0.14320453618E-01  0.35737005818E-01  0.00000000000E+00 0. -1.
  9000001    1    1    2    0    0 -0.16442505912E-01 -0.28314346052E-01 -0.14320453618E-01  0.35750994182E-01  0.10000000475E-02 0.  1.
</event>
<event>
 4   0  0.4958067E-02  0.9118800E+02  0.7818609E-02  0.1379984E+01
      -11   -1    0    0    0    0  0.00000000000E+00  0.00000000000E+00  0.35740347158E-01  0.35744000000E-01  0.51099999109E-03 0. -1.
       11   -1    0    0    0    0 -0.00000000000E+00 -0.00000000000E+00 -0.35740347158E-01  0.35744000000E-01  0.51099999109E-03 0.  1.
       22    1    1    2    0    0 -0.19014165751E-02 -0.37570250116E-02  0.35488067895E-01  0.35737005818E-01  0.00000000000E+00 0. -1.
  9000001    1    1    2    0    0  0.19014165751E-02  0.37570250116E-02 -0.35488067895E-01  0.35750994182E-01  0.10000000475E-02 0.  1.
</event>
<event>
 4   0  0.4958067E-02  0.9118800E+02  0.7818609E-02  0.1379984E+01
      -11   -1    0    0    0    0  0.00000000000E+00  0.00000000000E+00  0.35740347158E-01  0.35744000000E-01  0.51099999109E-03 0.  1.
       11   -1    0    0    0    0 -0.00000000000E+00 -0.00000000000E+00 -0.35740347158E-01  0.35744000000E-01  0.51099999109E-03 0. -1.
       22    1    1    2    0    0  0.12027640118E-01  0.27743272623E-02 -0.33537629110E-01  0.35737005818E-01  0.00000000000E+00 0. -1.
  9000001    1    1    2    0    0 -0.12027640118E-01 -0.27743272623E-02  0.33537629110E-01  0.35750994182E-01  0.10000000475E-02 0.  1.
</event>
<event>
 4   0  0.4958067E-02  0.9118800E+02  0.7818609E-02  0.1379984E+01
      -11   -1    0    0    0    0  0.00000000000E+00  0.00000000000E+00  0.35740347158E-01  0.35744000000E-01  0.51099999109E-03 0. -1.
       11   -1    0    0    0    0 -0.00000000000E+00 -0.00000000000E+00 -0.35740347158E-01  0.35744000000E-01  0.51099999109E-03 0.  1.
       22    1    1    2    0    0  0.77970792239E-02 -0.78611151137E-02 -0.33978552200E-01  0.35737005818E-01  0.00000000000E+00 0.  1.
  9000001    1    1    2    0    0 -0.77970792239E-02  0.78611151137E-02  0.33978552200E-01  0.35750994182E-01  0.10000000475E-02 0. -1.
</event>
<event>
 4   0  0.4958067E-02  0.9118800E+02  0.7818609E-02  0.1379984E+01
      -11   -1    0    0    0    0  0.00000000000E+00  0.00000000000E+00  0.35740347158E-01  0.35744000000E-01  0.51099999109E-03 0. -1.
       11   -1    0    0    0    0 -0.00000000000E+00 -0.00000000000E+00 -0.35740347158E-01  0.35744000000E-01  0.51099999109E-03 0.  1.
       22    1    1    2    0    0  0.21988715388E-02  0.24026578210E-02 -0.35588281558E-01  0.35737005818E-01  0.00000000000E+00 0.  1.
  9000001    1    1    2    0    0 -0.21988715388E-02 -0.24026578210E-02  0.35588281558E-01  0.35750994182E-01  0.10000000475E-02 0. -1.
</event>
<event>
 4   0  0.4958067E-02  0.9118800E+02  0.7818609E-02  0.1379984E+01
      -11   -1    0    0    0    0  0.00000000000E+00  0.00000000000E+00  0.35740347158E-01  0.35744000000E-01  0.51099999109E-03 0. -1.
       11   -1    0    0    0    0 -0.00000000000E+00 -0.00000000000E+00 -0.35740347158E-01  0.35744000000E-01  0.51099999109E-03 0.  1.
       22    1    1    2    0    0  0.87007311673E-03 -0.30363438853E-02  0.35597151199E-01  0.35737005818E-01  0.00000000000E+00 0. -1.
  9000001    1    1    2    0    0 -0.87007311673E-03  0.30363438853E-02 -0.35597151199E-01  0.35750994182E-01  0.10000000475E-02 0.  1.
</event>
<event>
 4   0  0.4958067E-02  0.9118800E+02  0.7818609E-02  0.1379984E+01
      -11   -1    0    0    0    0  0.00000000000E+00  0.00000000000E+00  0.35740347158E-01  0.35744000000E-01  0.51099999109E-03 0.  1.
       11   -1    0    0    0    0 -0.00000000000E+00 -0.00000000000E+00 -0.35740347158E-01  0.35744000000E-01  0.51099999109E-03 0. -1.
       22    1    1    2    0    0  0.69005236492E-02 -0.66068590478E-02  0.34436401841E-01  0.35737005818E-01  0.00000000000E+00 0.  1.
  9000001    1    1    2    0    0 -0.69005236492E-02  0.66068590478E-02 -0.34436401841E-01  0.35750994182E-01  0.10000000475E-02 0. -1.
</event>
<event>
 4   0  0.4958067E-02  0.9118800E+02  0.7818609E-02  0.1379984E+01
      -11   -1    0    0    0    0  0.00000000000E+00  0.00000000000E+00  0.35740347158E-01  0.35744000000E-01  0.51099999109E-03 0.  1.
       11   -1    0    0    0    0 -0.00000000000E+00 -0.00000000000E+00 -0.35740347158E-01  0.35744000000E-01  0.51099999109E-03 0. -1.
       22    1    1    2    0    0 -0.68872933830E-03  0.36920126664E-02 -0.35539109151E-01  0.35737005818E-01  0.00000000000E+00 0. -1.
  9000001    1    1    2    0    0  0.68872933830E-03 -0.36920126664E-02  0.35539109151E-01  0.35750994182E-01  0.10000000475E-02 0.  1.
</event>
<event>
 4   0  0.4958067E-02  0.9118800E+02  0.7818609E-02  0.1379984E+01
      -11   -1    0    0    0    0  0.00000000000E+00  0.00000000000E+00  0.35740347158E-01  0.35744000000E-01  0.51099999109E-03 0.  1.
       11   -1    0    0    0    0 -0.00000000000E+00 -0.00000000000E+00 -0.35740347158E-01  0.35744000000E-01  0.51099999109E-03 0. -1.
       22    1    1    2    0    0 -0.22215969590E-02 -0.44194571290E-02  0.35393028841E-01  0.35737005818E-01  0.00000000000E+00 0.  1.
  9000001    1    1    2    0    0  0.22215969590E-02  0.44194571290E-02 -0.35393028841E-01  0.35750994182E-01  0.10000000475E-02 0. -1.
</event>
<event>
 4   0  0.4958067E-02  0.9118800E+02  0.7818609E-02  0.1379984E+01
      -11   -1    0    0    0    0  0.00000000000E+00  0.00000000000E+00  0.35740347158E-01  0.35744000000E-01  0.51099999109E-03 0. -1.
       11   -1    0    0    0    0 -0.00000000000E+00 -0.00000000000E+00 -0.35740347158E-01  0.35744000000E-01  0.51099999109E-03 0.  1.
       22    1    1    2    0    0  0.16021961876E-01 -0.14145532328E-01  0.28641477574E-01  0.35737005818E-01  0.00000000000E+00 0. -1.
  9000001    1    1    2    0    0 -0.16021961876E-01  0.14145532328E-01 -0.28641477574E-01  0.35750994182E-01  0.10000000475E-02 0.  1.
</event>
<event>
 4   0  0.4958067E-02  0.9118800E+02  0.7818609E-02  0.1379984E+01
      -11   -1    0    0    0    0  0.00000000000E+00  0.00000000000E+00  0.35740347158E-01  0.35744000000E-01  0.51099999109E-03 0.  1.
       11   -1    0    0    0    0 -0.00000000000E+00 -0.00000000000E+00 -0.35740347158E-01  0.35744000000E-01  0.51099999109E-03 0. -1.
       22    1    1    2    0    0  0.54837286492E-03  0.37430744393E-02 -0.35536210628E-01  0.35737005818E-01  0.00000000000E+00 0. -1.
  9000001    1    1    2    0    0 -0.54837286492E-03 -0.37430744393E-02  0.35536210628E-01  0.35750994182E-01  0.10000000475E-02 0.  1.
</event>
<event>
 4   0  0.4958067E-02  0.9118800E+02  0.7818609E-02  0.1379984E+01
      -11   -1    0    0    0    0  0.00000000000E+00  0.00000000000E+00  0.35740347158E-01  0.35744000000E-01  0.51099999109E-03 0.  1.
       11   -1    0    0    0    0 -0.00000000000E+00 -0.00000000000E+00 -0.35740347158E-01  0.35744000000E-01  0.51099999109E-03 0. -1.
       22    1    1    2    0    0 -0.34744069468E-01  0.65710111577E-02  0.51773578247E-02  0.35737005818E-01  0.00000000000E+00 0.  1.
  9000001    1    1    2    0    0  0.34744069468E-01 -0.65710111577E-02 -0.51773578247E-02  0.35750994182E-01  0.10000000475E-02 0. -1.
</event>
<event>
 4   0  0.4958067E-02  0.9118800E+02  0.7818609E-02  0.1379984E+01
      -11   -1    0    0    0    0  0.00000000000E+00  0.00000000000E+00  0.35740347158E-01  0.35744000000E-01  0.51099999109E-03 0.  1.
       11   -1    0    0    0    0 -0.00000000000E+00 -0.00000000000E+00 -0.35740347158E-01  0.35744000000E-01  0.51099999109E-03 0. -1.
       22    1    1    2    0    0 -0.11661368903E-01 -0.16053247291E-01 -0.29722707003E-01  0.35737005818E-01  0.00000000000E+00 0. -1.
  9000001    1    1    2    0    0  0.11661368903E-01  0.16053247291E-01  0.29722707003E-01  0.35750994182E-01  0.10000000475E-02 0.  1.
</event>
<event>
 4   0  0.4958067E-02  0.9118800E+02  0.7818609E-02  0.1379984E+01
      -11   -1    0    0    0    0  0.00000000000E+00  0.00000000000E+00  0.35740347158E-01  0.35744000000E-01  0.51099999109E-03 0. -1.
       11   -1    0    0    0    0 -0.00000000000E+00 -0.00000000000E+00 -0.35740347158E-01  0.35744000000E-01  0.51099999109E-03 0.  1.
       22    1    1    2    0    0  0.38753542982E-02 -0.28251792667E-03 -0.35525137544E-01  0.35737005818E-01  0.00000000000E+00 0.  1.
  9000001    1    1    2    0    0 -0.38753542982E-02  0.28251792667E-03  0.35525137544E-01  0.35750994182E-01  0.10000000475E-02 0. -1.
</event>
<event>
 4   0  0.4958067E-02  0.9118800E+02  0.7818609E-02  0.1379984E+01
      -11   -1    0    0    0    0  0.00000000000E+00  0.00000000000E+00  0.35740347158E-01  0.35744000000E-01  0.51099999109E-03 0. -1.
       11   -1    0    0    0    0 -0.00000000000E+00 -0.00000000000E+00 -0.35740347158E-01  0.35744000000E-01  0.51099999109E-03 0.  1.
       22    1    1    2    0    0 -0.18414443714E-01 -0.13648188634E-01 -0.27418402480E-01  0.35737005818E-01  0.00000000000E+00 0.  1.
  9000001    1    1    2    0    0  0.18414443714E-01  0.13648188634E-01  0.27418402480E-01  0.35750994182E-01  0.10000000475E-02 0. -1.
</event>
<event>
 4   0  0.4958067E-02  0.9118800E+02  0.7818609E-02  0.1379984E+01
      -11   -1    0    0    0    0  0.00000000000E+00  0.00000000000E+00  0.35740347158E-01  0.35744000000E-01  0.51099999109E-03 0. -1.
       11   -1    0    0    0    0 -0.00000000000E+00 -0.00000000000E+00 -0.35740347158E-01  0.35744000000E-01  0.51099999109E-03 0.  1.
       22    1    1    2    0    0 -0.38697181563E-02 -0.12431856631E-01 -0.33280742284E-01  0.35737005818E-01  0.00000000000E+00 0.  1.
  9000001    1    1    2    0    0  0.38697181563E-02  0.12431856631E-01  0.33280742284E-01  0.35750994182E-01  0.10000000475E-02 0. -1.
</event>
<event>
 4   0  0.4958067E-02  0.9118800E+02  0.7818609E-02  0.1379984E+01
      -11   -1    0    0    0    0  0.00000000000E+00  0.00000000000E+00  0.35740347158E-01  0.35744000000E-01  0.51099999109E-03 0. -1.
       11   -1    0    0    0    0 -0.00000000000E+00 -0.00000000000E+00 -0.35740347158E-01  0.35744000000E-01  0.51099999109E-03 0.  1.
       22    1    1    2    0    0  0.16094441849E-01 -0.25125184140E-01  0.19667934522E-01  0.35737005818E-01  0.00000000000E+00 0. -1.
  9000001    1    1    2    0    0 -0.16094441849E-01  0.25125184140E-01 -0.19667934522E-01  0.35750994182E-01  0.10000000475E-02 0.  1.
</event>
<event>
 4   0  0.4958067E-02  0.9118800E+02  0.7818609E-02  0.1379984E+01
      -11   -1    0    0    0    0  0.00000000000E+00  0.00000000000E+00  0.35740347158E-01  0.35744000000E-01  0.51099999109E-03 0. -1.
       11   -1    0    0    0    0 -0.00000000000E+00 -0.00000000000E+00 -0.35740347158E-01  0.35744000000E-01  0.51099999109E-03 0.  1.
       22    1    1    2    0    0  0.54736312261E-02  0.45559336559E-03  0.35312396984E-01  0.35737005818E-01  0.00000000000E+00 0. -1.
  9000001    1    1    2    0    0 -0.54736312261E-02 -0.45559336559E-03 -0.35312396984E-01  0.35750994182E-01  0.10000000475E-02 0.  1.
</event>
<event>
 4   0  0.4958067E-02  0.9118800E+02  0.7818609E-02  0.1379984E+01
      -11   -1    0    0    0    0  0.00000000000E+00  0.00000000000E+00  0.35740347158E-01  0.35744000000E-01  0.51099999109E-03 0.  1.
       11   -1    0    0    0    0 -0.00000000000E+00 -0.00000000000E+00 -0.35740347158E-01  0.35744000000E-01  0.51099999109E-03 0. -1.
       22    1    1    2    0    0  0.11414104765E-01  0.11035296926E-01 -0.32016777149E-01  0.35737005818E-01  0.00000000000E+00 0. -1.
  9000001    1    1    2    0    0 -0.11414104765E-01 -0.11035296926E-01  0.32016777149E-01  0.35750994182E-01  0.10000000475E-02 0.  1.
</event>
<event>
 4   0  0.4958067E-02  0.9118800E+02  0.7818609E-02  0.1379984E+01
      -11   -1    0    0    0    0  0.00000000000E+00  0.00000000000E+00  0.35740347158E-01  0.35744000000E-01  0.51099999109E-03 0.  1.
       11   -1    0    0    0    0 -0.00000000000E+00 -0.00000000000E+00 -0.35740347158E-01  0.35744000000E-01  0.51099999109E-03 0.  1.
       22    1    1    2    0    0  0.88245955575E-02  0.42139259757E-02 -0.34372997047E-01  0.35737005818E-01  0.00000000000E+00 0.  1.
  9000001    1    1    2    0    0 -0.88245955575E-02 -0.42139259757E-02  0.34372997047E-01  0.35750994182E-01  0.10000000475E-02 0.  1.
</event>
<event>
 4   0  0.4958067E-02  0.9118800E+02  0.7818609E-02  0.1379984E+01
      -11   -1    0    0    0    0  0.00000000000E+00  0.00000000000E+00  0.35740347158E-01  0.35744000000E-01  0.51099999109E-03 0. -1.
       11   -1    0    0    0    0 -0.00000000000E+00 -0.00000000000E+00 -0.35740347158E-01  0.35744000000E-01  0.51099999109E-03 0.  1.
       22    1    1    2    0    0 -0.46590857413E-04 -0.42061499306E-02  0.35488585727E-01  0.35737005818E-01  0.00000000000E+00 0. -1.
  9000001    1    1    2    0    0  0.46590857413E-04  0.42061499306E-02 -0.35488585727E-01  0.35750994182E-01  0.10000000475E-02 0.  1.
</event>
<event>
 4   0  0.4958067E-02  0.9118800E+02  0.7818609E-02  0.1379984E+01
      -11   -1    0    0    0    0  0.00000000000E+00  0.00000000000E+00  0.35740347158E-01  0.35744000000E-01  0.51099999109E-03 0.  1.
       11   -1    0    0    0    0 -0.00000000000E+00 -0.00000000000E+00 -0.35740347158E-01  0.35744000000E-01  0.51099999109E-03 0. -1.
       22    1    1    2    0    0 -0.21436975481E-02 -0.38057881657E-02  0.35469058659E-01  0.35737005818E-01  0.00000000000E+00 0.  1.
  9000001    1    1    2    0    0  0.21436975481E-02  0.38057881657E-02 -0.35469058659E-01  0.35750994182E-01  0.10000000475E-02 0. -1.
</event>
<event>
 4   0  0.4958067E-02  0.9118800E+02  0.7818609E-02  0.1379984E+01
      -11   -1    0    0    0    0  0.00000000000E+00  0.00000000000E+00  0.35740347158E-01  0.35744000000E-01  0.51099999109E-03 0. -1.
       11   -1    0    0    0    0 -0.00000000000E+00 -0.00000000000E+00 -0.35740347158E-01  0.35744000000E-01  0.51099999109E-03 0.  1.
       22    1    1    2    0    0  0.53350124624E-03  0.32188393770E-02  0.35587751184E-01  0.35737005818E-01  0.00000000000E+00 0. -1.
  9000001    1    1    2    0    0 -0.53350124624E-03 -0.32188393770E-02 -0.35587751184E-01  0.35750994182E-01  0.10000000475E-02 0.  1.
</event>
<event>
 4   0  0.4958067E-02  0.9118800E+02  0.7818609E-02  0.1379984E+01
      -11   -1    0    0    0    0  0.00000000000E+00  0.00000000000E+00  0.35740347158E-01  0.35744000000E-01  0.51099999109E-03 0.  1.
       11   -1    0    0    0    0 -0.00000000000E+00 -0.00000000000E+00 -0.35740347158E-01  0.35744000000E-01  0.51099999109E-03 0. -1.
       22    1    1    2    0    0  0.15364092277E-01  0.10400026595E-01 -0.30543701482E-01  0.35737005818E-01  0.00000000000E+00 0. -1.
  9000001    1    1    2    0    0 -0.15364092277E-01 -0.10400026595E-01  0.30543701482E-01  0.35750994182E-01  0.10000000475E-02 0.  1.
</event>
<event>
 4   0  0.4958067E-02  0.9118800E+02  0.7818609E-02  0.1379984E+01
      -11   -1    0    0    0    0  0.00000000000E+00  0.00000000000E+00  0.35740347158E-01  0.35744000000E-01  0.51099999109E-03 0.  1.
       11   -1    0    0    0    0 -0.00000000000E+00 -0.00000000000E+00 -0.35740347158E-01  0.35744000000E-01  0.51099999109E-03 0. -1.
       22    1    1    2    0    0  0.14357222052E-01 -0.58572327191E-02  0.32197772977E-01  0.35737005818E-01  0.00000000000E+00 0.  1.
  9000001    1    1    2    0    0 -0.14357222052E-01  0.58572327191E-02 -0.32197772977E-01  0.35750994182E-01  0.10000000475E-02 0. -1.
</event>
<event>
 4   0  0.4958067E-02  0.9118800E+02  0.7818609E-02  0.1379984E+01
      -11   -1    0    0    0    0  0.00000000000E+00  0.00000000000E+00  0.35740347158E-01  0.35744000000E-01  0.51099999109E-03 0. -1.
       11   -1    0    0    0    0 -0.00000000000E+00 -0.00000000000E+00 -0.35740347158E-01  0.35744000000E-01  0.51099999109E-03 0.  1.
       22    1    1    2    0    0 -0.43735907032E-02 -0.58272124769E-02  0.34986409990E-01  0.35737005818E-01  0.00000000000E+00 0. -1.
  9000001    1    1    2    0    0  0.43735907032E-02  0.58272124769E-02 -0.34986409990E-01  0.35750994182E-01  0.10000000475E-02 0.  1.
</event>
<event>
 4   0  0.4958067E-02  0.9118800E+02  0.7818609E-02  0.1379984E+01
      -11   -1    0    0    0    0  0.00000000000E+00  0.00000000000E+00  0.35740347158E-01  0.35744000000E-01  0.51099999109E-03 0. -1.
       11   -1    0    0    0    0 -0.00000000000E+00 -0.00000000000E+00 -0.35740347158E-01  0.35744000000E-01  0.51099999109E-03 0.  1.
       22    1    1    2    0    0  0.17528840156E-01  0.58738347462E-02  0.30583842352E-01  0.35737005818E-01  0.00000000000E+00 0. -1.
  9000001    1    1    2    0    0 -0.17528840156E-01 -0.58738347462E-02 -0.30583842352E-01  0.35750994182E-01  0.10000000475E-02 0.  1.
</event>
<event>
 4   0  0.4958067E-02  0.9118800E+02  0.7818609E-02  0.1379984E+01
      -11   -1    0    0    0    0  0.00000000000E+00  0.00000000000E+00  0.35740347158E-01  0.35744000000E-01  0.51099999109E-03 0.  1.
       11   -1    0    0    0    0 -0.00000000000E+00 -0.00000000000E+00 -0.35740347158E-01  0.35744000000E-01  0.51099999109E-03 0. -1.
       22    1    1    2    0    0 -0.29549794760E-02  0.70794248399E-02 -0.34903917045E-01  0.35737005818E-01  0.00000000000E+00 0. -1.
  9000001    1    1    2    0    0  0.29549794760E-02 -0.70794248399E-02  0.34903917045E-01  0.35750994182E-01  0.10000000475E-02 0.  1.
</event>
<event>
 4   0  0.4958067E-02  0.9118800E+02  0.7818609E-02  0.1379984E+01
      -11   -1    0    0    0    0  0.00000000000E+00  0.00000000000E+00  0.35740347158E-01  0.35744000000E-01  0.51099999109E-03 0.  1.
       11   -1    0    0    0    0 -0.00000000000E+00 -0.00000000000E+00 -0.35740347158E-01  0.35744000000E-01  0.51099999109E-03 0. -1.
       22    1    1    2    0    0 -0.34572212493E-01  0.74060600193E-02 -0.52005752753E-02  0.35737005818E-01  0.00000000000E+00 0.  1.
  9000001    1    1    2    0    0  0.34572212493E-01 -0.74060600193E-02  0.52005752753E-02  0.35750994182E-01  0.10000000475E-02 0. -1.
</event>
<event>
 4   0  0.4958067E-02  0.9118800E+02  0.7818609E-02  0.1379984E+01
      -11   -1    0    0    0    0  0.00000000000E+00  0.00000000000E+00  0.35740347158E-01  0.35744000000E-01  0.51099999109E-03 0. -1.
       11   -1    0    0    0    0 -0.00000000000E+00 -0.00000000000E+00 -0.35740347158E-01  0.35744000000E-01  0.51099999109E-03 0.  1.
       22    1    1    2    0    0 -0.32367389181E-02  0.33372004736E-02  0.35433320463E-01  0.35737005818E-01  0.00000000000E+00 0. -1.
  9000001    1    1    2    0    0  0.32367389181E-02 -0.33372004736E-02 -0.35433320463E-01  0.35750994182E-01  0.10000000475E-02 0.  1.
</event>
<event>
 4   0  0.4958067E-02  0.9118800E+02  0.7818609E-02  0.1379984E+01
      -11   -1    0    0    0    0  0.00000000000E+00  0.00000000000E+00  0.35740347158E-01  0.35744000000E-01  0.51099999109E-03 0. -1.
       11   -1    0    0    0    0 -0.00000000000E+00 -0.00000000000E+00 -0.35740347158E-01  0.35744000000E-01  0.51099999109E-03 0.  1.
       22    1    1    2    0    0 -0.73789420175E-02 -0.84908389009E-02 -0.33920354573E-01  0.35737005818E-01  0.00000000000E+00 0.  1.
  9000001    1    1    2    0    0  0.73789420175E-02  0.84908389009E-02  0.33920354573E-01  0.35750994182E-01  0.10000000475E-02 0. -1.
</event>
<event>
 4   0  0.4958067E-02  0.9118800E+02  0.7818609E-02  0.1379984E+01
      -11   -1    0    0    0    0  0.00000000000E+00  0.00000000000E+00  0.35740347158E-01  0.35744000000E-01  0.51099999109E-03 0.  1.
       11   -1    0    0    0    0 -0.00000000000E+00 -0.00000000000E+00 -0.35740347158E-01  0.35744000000E-01  0.51099999109E-03 0. -1.
       22    1    1    2    0    0 -0.73731157577E-02  0.82216667014E-02 -0.33987864681E-01  0.35737005818E-01  0.00000000000E+00 0. -1.
  9000001    1    1    2    0    0  0.73731157577E-02 -0.82216667014E-02  0.33987864681E-01  0.35750994182E-01  0.10000000475E-02 0.  1.
</event>
<event>
 4   0  0.4958067E-02  0.9118800E+02  0.7818609E-02  0.1379984E+01
      -11   -1    0    0    0    0  0.00000000000E+00  0.00000000000E+00  0.35740347158E-01  0.35744000000E-01  0.51099999109E-03 0. -1.
       11   -1    0    0    0    0 -0.00000000000E+00 -0.00000000000E+00 -0.35740347158E-01  0.35744000000E-01  0.51099999109E-03 0.  1.
       22    1    1    2    0    0 -0.85763980401E-03 -0.57076584701E-02 -0.35267841919E-01  0.35737005818E-01  0.00000000000E+00 0.  1.
  9000001    1    1    2    0    0  0.85763980401E-03  0.57076584701E-02  0.35267841919E-01  0.35750994182E-01  0.10000000475E-02 0. -1.
</event>
<event>
 4   0  0.4958067E-02  0.9118800E+02  0.7818609E-02  0.1379984E+01
      -11   -1    0    0    0    0  0.00000000000E+00  0.00000000000E+00  0.35740347158E-01  0.35744000000E-01  0.51099999109E-03 0.  1.
       11   -1    0    0    0    0 -0.00000000000E+00 -0.00000000000E+00 -0.35740347158E-01  0.35744000000E-01  0.51099999109E-03 0. -1.
       22    1    1    2    0    0 -0.47714520324E-02 -0.73493452342E-02 -0.34646124675E-01  0.35737005818E-01  0.00000000000E+00 0. -1.
  9000001    1    1    2    0    0  0.47714520324E-02  0.73493452342E-02  0.34646124675E-01  0.35750994182E-01  0.10000000475E-02 0.  1.
</event>
<event>
 4   0  0.4958067E-02  0.9118800E+02  0.7818609E-02  0.1379984E+01
      -11   -1    0    0    0    0  0.00000000000E+00  0.00000000000E+00  0.35740347158E-01  0.35744000000E-01  0.51099999109E-03 0. -1.
       11   -1    0    0    0    0 -0.00000000000E+00 -0.00000000000E+00 -0.35740347158E-01  0.35744000000E-01  0.51099999109E-03 0.  1.
       22    1    1    2    0    0 -0.14811645095E-01 -0.48248850564E-02 -0.32163165868E-01  0.35737005818E-01  0.00000000000E+00 0.  1.
  9000001    1    1    2    0    0  0.14811645095E-01  0.48248850564E-02  0.32163165868E-01  0.35750994182E-01  0.10000000475E-02 0. -1.
</event>
<event>
 4   0  0.4958067E-02  0.9118800E+02  0.7818609E-02  0.1379984E+01
      -11   -1    0    0    0    0  0.00000000000E+00  0.00000000000E+00  0.35740347158E-01  0.35744000000E-01  0.51099999109E-03 0.  1.
       11   -1    0    0    0    0 -0.00000000000E+00 -0.00000000000E+00 -0.35740347158E-01  0.35744000000E-01  0.51099999109E-03 0. -1.
       22    1    1    2    0    0  0.51941385034E-02  0.51786180042E-03  0.35353731475E-01  0.35737005818E-01  0.00000000000E+00 0.  1.
  9000001    1    1    2    0    0 -0.51941385034E-02 -0.51786180042E-03 -0.35353731475E-01  0.35750994182E-01  0.10000000475E-02 0. -1.
</event>
<event>
 4   0  0.4958067E-02  0.9118800E+02  0.7818609E-02  0.1379984E+01
      -11   -1    0    0    0    0  0.00000000000E+00  0.00000000000E+00  0.35740347158E-01  0.35744000000E-01  0.51099999109E-03 0.  1.
       11   -1    0    0    0    0 -0.00000000000E+00 -0.00000000000E+00 -0.35740347158E-01  0.35744000000E-01  0.51099999109E-03 0. -1.
       22    1    1    2    0    0  0.15785231411E-02  0.24804965350E-01 -0.25677919378E-01  0.35737005818E-01  0.00000000000E+00 0. -1.
  9000001    1    1    2    0    0 -0.15785231411E-02 -0.24804965350E-01  0.25677919378E-01  0.35750994182E-01  0.10000000475E-02 0.  1.
</event>
<event>
 4   0  0.4958067E-02  0.9118800E+02  0.7818609E-02  0.1379984E+01
      -11   -1    0    0    0    0  0.00000000000E+00  0.00000000000E+00  0.35740347158E-01  0.35744000000E-01  0.51099999109E-03 0.  1.
       11   -1    0    0    0    0 -0.00000000000E+00 -0.00000000000E+00 -0.35740347158E-01  0.35744000000E-01  0.51099999109E-03 0. -1.
       22    1    1    2    0    0 -0.24003906190E-02  0.26143242147E-02  0.35560329282E-01  0.35737005818E-01  0.00000000000E+00 0.  1.
  9000001    1    1    2    0    0  0.24003906190E-02 -0.26143242147E-02 -0.35560329282E-01  0.35750994182E-01  0.10000000475E-02 0. -1.
</event>
<event>
 4   0  0.4958067E-02  0.9118800E+02  0.7818609E-02  0.1379984E+01
      -11   -1    0    0    0    0  0.00000000000E+00  0.00000000000E+00  0.35740347158E-01  0.35744000000E-01  0.51099999109E-03 0.  1.
       11   -1    0    0    0    0 -0.00000000000E+00 -0.00000000000E+00 -0.35740347158E-01  0.35744000000E-01  0.51099999109E-03 0. -1.
       22    1    1    2    0    0  0.43638455562E-02  0.13072434115E-01  0.32972744853E-01  0.35737005818E-01  0.00000000000E+00 0.  1.
  9000001    1    1    2    0    0 -0.43638455562E-02 -0.13072434115E-01 -0.32972744853E-01  0.35750994182E-01  0.10000000475E-02 0. -1.
</event>
<event>
 4   0  0.4958067E-02  0.9118800E+02  0.7818609E-02  0.1379984E+01
      -11   -1    0    0    0    0  0.00000000000E+00  0.00000000000E+00  0.35740347158E-01  0.35744000000E-01  0.51099999109E-03 0. -1.
       11   -1    0    0    0    0 -0.00000000000E+00 -0.00000000000E+00 -0.35740347158E-01  0.35744000000E-01  0.51099999109E-03 0.  1.
       22    1    1    2    0    0 -0.30635875027E-02 -0.57547855716E-02  0.35137308655E-01  0.35737005818E-01  0.00000000000E+00 0. -1.
  9000001    1    1    2    0    0  0.30635875027E-02  0.57547855716E-02 -0.35137308655E-01  0.35750994182E-01  0.10000000475E-02 0.  1.
</event>
<event>
 4   0  0.4958067E-02  0.9118800E+02  0.7818609E-02  0.1379984E+01
      -11   -1    0    0    0    0  0.00000000000E+00  0.00000000000E+00  0.35740347158E-01  0.35744000000E-01  0.51099999109E-03 0.  1.
       11   -1    0    0    0    0 -0.00000000000E+00 -0.00000000000E+00 -0.35740347158E-01  0.35744000000E-01  0.51099999109E-03 0. -1.
       22    1    1    2    0    0 -0.81084671555E-02  0.85090998218E-03 -0.34794572816E-01  0.35737005818E-01  0.00000000000E+00 0. -1.
  9000001    1    1    2    0    0  0.81084671555E-02 -0.85090998218E-03  0.34794572816E-01  0.35750994182E-01  0.10000000475E-02 0.  1.
</event>
<event>
 4   0  0.4958067E-02  0.9118800E+02  0.7818609E-02  0.1379984E+01
      -11   -1    0    0    0    0  0.00000000000E+00  0.00000000000E+00  0.35740347158E-01  0.35744000000E-01  0.51099999109E-03 0.  1.
       11   -1    0    0    0    0 -0.00000000000E+00 -0.00000000000E+00 -0.35740347158E-01  0.35744000000E-01  0.51099999109E-03 0. -1.
       22    1    1    2    0    0 -0.17344143808E-01 -0.41098410040E-02  0.30974561617E-01  0.35737005818E-01  0.00000000000E+00 0.  1.
  9000001    1    1    2    0    0  0.17344143808E-01  0.41098410040E-02 -0.30974561617E-01  0.35750994182E-01  0.10000000475E-02 0. -1.
</event>
<event>
 4   0  0.4958067E-02  0.9118800E+02  0.7818609E-02  0.1379984E+01
      -11   -1    0    0    0    0  0.00000000000E+00  0.00000000000E+00  0.35740347158E-01  0.35744000000E-01  0.51099999109E-03 0. -1.
       11   -1    0    0    0    0 -0.00000000000E+00 -0.00000000000E+00 -0.35740347158E-01  0.35744000000E-01  0.51099999109E-03 0.  1.
       22    1    1    2    0    0  0.15939988323E-02 -0.14264456460E-01 -0.32727939662E-01  0.35737005818E-01  0.00000000000E+00 0.  1.
  9000001    1    1    2    0    0 -0.15939988323E-02  0.14264456460E-01  0.32727939662E-01  0.35750994182E-01  0.10000000475E-02 0. -1.
</event>
<event>
 4   0  0.4958067E-02  0.9118800E+02  0.7818609E-02  0.1379984E+01
      -11   -1    0    0    0    0  0.00000000000E+00  0.00000000000E+00  0.35740347158E-01  0.35744000000E-01  0.51099999109E-03 0.  1.
       11   -1    0    0    0    0 -0.00000000000E+00 -0.00000000000E+00 -0.35740347158E-01  0.35744000000E-01  0.51099999109E-03 0. -1.
       22    1    1    2    0    0  0.36346719677E-02 -0.61564003669E-02 -0.35014589518E-01  0.35737005818E-01  0.00000000000E+00 0. -1.
  9000001    1    1    2    0    0 -0.36346719677E-02  0.61564003669E-02  0.35014589518E-01  0.35750994182E-01  0.10000000475E-02 0.  1.
</event>
<event>
 4   0  0.4958067E-02  0.9118800E+02  0.7818609E-02  0.1379984E+01
      -11   -1    0    0    0    0  0.00000000000E+00  0.00000000000E+00  0.35740347158E-01  0.35744000000E-01  0.51099999109E-03 0. -1.
       11   -1    0    0    0    0 -0.00000000000E+00 -0.00000000000E+00 -0.35740347158E-01  0.35744000000E-01  0.51099999109E-03 0.  1.
       22    1    1    2    0    0  0.15924364048E-01 -0.10807970895E-02  0.31974678922E-01  0.35737005818E-01  0.00000000000E+00 0. -1.
  9000001    1    1    2    0    0 -0.15924364048E-01  0.10807970895E-02 -0.31974678922E-01  0.35750994182E-01  0.10000000475E-02 0.  1.
</event>
<event>
 4   0  0.4958067E-02  0.9118800E+02  0.7818609E-02  0.1379984E+01
      -11   -1    0    0    0    0  0.00000000000E+00  0.00000000000E+00  0.35740347158E-01  0.35744000000E-01  0.51099999109E-03 0. -1.
       11   -1    0    0    0    0 -0.00000000000E+00 -0.00000000000E+00 -0.35740347158E-01  0.35744000000E-01  0.51099999109E-03 0.  1.
       22    1    1    2    0    0  0.19436880342E-02  0.23348831218E-02 -0.35607639384E-01  0.35737005818E-01  0.00000000000E+00 0.  1.
  9000001    1    1    2    0    0 -0.19436880342E-02 -0.23348831218E-02  0.35607639384E-01  0.35750994182E-01  0.10000000475E-02 0. -1.
</event>
<event>
 4   0  0.4958067E-02  0.9118800E+02  0.7818609E-02  0.1379984E+01
      -11   -1    0    0    0    0  0.00000000000E+00  0.00000000000E+00  0.35740347158E-01  0.35744000000E-01  0.51099999109E-03 0. -1.
       11   -1    0    0    0    0 -0.00000000000E+00 -0.00000000000E+00 -0.35740347158E-01  0.35744000000E-01  0.51099999109E-03 0.  1.
       22    1    1    2    0    0 -0.13316466619E-01 -0.79626861501E-02  0.32193181435E-01  0.35737005818E-01  0.00000000000E+00 0. -1.
  9000001    1    1    2    0    0  0.13316466619E-01  0.79626861501E-02 -0.32193181435E-01  0.35750994182E-01  0.10000000475E-02 0.  1.
</event>
<event>
 4   0  0.4958067E-02  0.9118800E+02  0.7818609E-02  0.1379984E+01
      -11   -1    0    0    0    0  0.00000000000E+00  0.00000000000E+00  0.35740347158E-01  0.35744000000E-01  0.51099999109E-03 0.  1.
       11   -1    0    0    0    0 -0.00000000000E+00 -0.00000000000E+00 -0.35740347158E-01  0.35744000000E-01  0.51099999109E-03 0. -1.
       22    1    1    2    0    0 -0.12010130605E-01  0.26992347141E-02 -0.33550029503E-01  0.35737005818E-01  0.00000000000E+00 0. -1.
  9000001    1    1    2    0    0  0.12010130605E-01 -0.26992347141E-02  0.33550029503E-01  0.35750994182E-01  0.10000000475E-02 0.  1.
</event>
<event>
 4   0  0.4958067E-02  0.9118800E+02  0.7818609E-02  0.1379984E+01
      -11   -1    0    0    0    0  0.00000000000E+00  0.00000000000E+00  0.35740347158E-01  0.35744000000E-01  0.51099999109E-03 0. -1.
       11   -1    0    0    0    0 -0.00000000000E+00 -0.00000000000E+00 -0.35740347158E-01  0.35744000000E-01  0.51099999109E-03 0.  1.
       22    1    1    2    0    0 -0.58896266559E-02 -0.47004950837E-02 -0.34933525855E-01  0.35737005818E-01  0.00000000000E+00 0.  1.
  9000001    1    1    2    0    0  0.58896266559E-02  0.47004950837E-02  0.34933525855E-01  0.35750994182E-01  0.10000000475E-02 0. -1.
</event>
<event>
 4   0  0.4958067E-02  0.9118800E+02  0.7818609E-02  0.1379984E+01
      -11   -1    0    0    0    0  0.00000000000E+00  0.00000000000E+00  0.35740347158E-01  0.35744000000E-01  0.51099999109E-03 0.  1.
       11   -1    0    0    0    0 -0.00000000000E+00 -0.00000000000E+00 -0.35740347158E-01  0.35744000000E-01  0.51099999109E-03 0. -1.
       22    1    1    2    0    0 -0.51189373748E-02 -0.19648405391E-02 -0.35313870741E-01  0.35737005818E-01  0.00000000000E+00 0. -1.
  9000001    1    1    2    0    0  0.51189373748E-02  0.19648405391E-02  0.35313870741E-01  0.35750994182E-01  0.10000000475E-02 0.  1.
</event>
<event>
 4   0  0.4958067E-02  0.9118800E+02  0.7818609E-02  0.1379984E+01
      -11   -1    0    0    0    0  0.00000000000E+00  0.00000000000E+00  0.35740347158E-01  0.35744000000E-01  0.51099999109E-03 0. -1.
       11   -1    0    0    0    0 -0.00000000000E+00 -0.00000000000E+00 -0.35740347158E-01  0.35744000000E-01  0.51099999109E-03 0.  1.
       22    1    1    2    0    0 -0.37411366227E-02 -0.29376287925E-01 -0.20004279277E-01  0.35737005818E-01  0.00000000000E+00 0.  1.
  9000001    1    1    2    0    0  0.37411366227E-02  0.29376287925E-01  0.20004279277E-01  0.35750994182E-01  0.10000000475E-02 0. -1.
</event>
<event>
 4   0  0.4958067E-02  0.9118800E+02  0.7818609E-02  0.1379984E+01
      -11   -1    0    0    0    0  0.00000000000E+00  0.00000000000E+00  0.35740347158E-01  0.35744000000E-01  0.51099999109E-03 0.  1.
       11   -1    0    0    0    0 -0.00000000000E+00 -0.00000000000E+00 -0.35740347158E-01  0.35744000000E-01  0.51099999109E-03 0. -1.
       22    1    1    2    0    0 -0.11199035564E-02 -0.57520489220E-02  0.35253274090E-01  0.35737005818E-01  0.00000000000E+00 0.  1.
  9000001    1    1    2    0    0  0.11199035564E-02  0.57520489220E-02 -0.35253274090E-01  0.35750994182E-01  0.10000000475E-02 0. -1.
</event>
<event>
 4   0  0.4958067E-02  0.9118800E+02  0.7818609E-02  0.1379984E+01
      -11   -1    0    0    0    0  0.00000000000E+00  0.00000000000E+00  0.35740347158E-01  0.35744000000E-01  0.51099999109E-03 0. -1.
       11   -1    0    0    0    0 -0.00000000000E+00 -0.00000000000E+00 -0.35740347158E-01  0.35744000000E-01  0.51099999109E-03 0.  1.
       22    1    1    2    0    0 -0.96148687247E-02 -0.40708148469E-02 -0.34177717167E-01  0.35737005818E-01  0.00000000000E+00 0.  1.
  9000001    1    1    2    0    0  0.96148687247E-02  0.40708148469E-02  0.34177717167E-01  0.35750994182E-01  0.10000000475E-02 0. -1.
</event>
<event>
 4   0  0.4958067E-02  0.9118800E+02  0.7818609E-02  0.1379984E+01
      -11   -1    0    0    0    0  0.00000000000E+00  0.00000000000E+00  0.35740347158E-01  0.35744000000E-01  0.51099999109E-03 0.  1.
       11   -1    0    0    0    0 -0.00000000000E+00 -0.00000000000E+00 -0.35740347158E-01  0.35744000000E-01  0.51099999109E-03 0. -1.
       22    1    1    2    0    0  0.21500893156E-01 -0.13352213513E-01 -0.25230211507E-01  0.35737005818E-01  0.00000000000E+00 0. -1.
  9000001    1    1    2    0    0 -0.21500893156E-01  0.13352213513E-01  0.25230211507E-01  0.35750994182E-01  0.10000000475E-02 0.  1.
</event>
<event>
 4   0  0.4958067E-02  0.9118800E+02  0.7818609E-02  0.1379984E+01
      -11   -1    0    0    0    0  0.00000000000E+00  0.00000000000E+00  0.35740347158E-01  0.35744000000E-01  0.51099999109E-03 0. -1.
       11   -1    0    0    0    0 -0.00000000000E+00 -0.00000000000E+00 -0.35740347158E-01  0.35744000000E-01  0.51099999109E-03 0.  1.
       22    1    1    2    0    0 -0.43559267058E-02  0.38956736906E-02  0.35255967068E-01  0.35737005818E-01  0.00000000000E+00 0. -1.
  9000001    1    1    2    0    0  0.43559267058E-02 -0.38956736906E-02 -0.35255967068E-01  0.35750994182E-01  0.10000000475E-02 0.  1.
</event>
<event>
 4   0  0.4958067E-02  0.9118800E+02  0.7818609E-02  0.1379984E+01
      -11   -1    0    0    0    0  0.00000000000E+00  0.00000000000E+00  0.35740347158E-01  0.35744000000E-01  0.51099999109E-03 0. -1.
       11   -1    0    0    0    0 -0.00000000000E+00 -0.00000000000E+00 -0.35740347158E-01  0.35744000000E-01  0.51099999109E-03 0.  1.
       22    1    1    2    0    0 -0.50459531375E-02  0.53082776226E-02  0.34978480963E-01  0.35737005818E-01  0.00000000000E+00 0. -1.
  9000001    1    1    2    0    0  0.50459531375E-02 -0.53082776226E-02 -0.34978480963E-01  0.35750994182E-01  0.10000000475E-02 0.  1.
</event>
<event>
 4   0  0.4958067E-02  0.9118800E+02  0.7818609E-02  0.1379984E+01
      -11   -1    0    0    0    0  0.00000000000E+00  0.00000000000E+00  0.35740347158E-01  0.35744000000E-01  0.51099999109E-03 0. -1.
       11   -1    0    0    0    0 -0.00000000000E+00 -0.00000000000E+00 -0.35740347158E-01  0.35744000000E-01  0.51099999109E-03 0. -1.
       22    1    1    2    0    0 -0.33339807155E-02 -0.14783238351E-02  0.35550424978E-01  0.35737005818E-01  0.00000000000E+00 0. -1.
  9000001    1    1    2    0    0  0.33339807155E-02  0.14783238351E-02 -0.35550424978E-01  0.35750994182E-01  0.10000000475E-02 0. -1.
</event>
<event>
 4   0  0.4958067E-02  0.9118800E+02  0.7818609E-02  0.1379984E+01
      -11   -1    0    0    0    0  0.00000000000E+00  0.00000000000E+00  0.35740347158E-01  0.35744000000E-01  0.51099999109E-03 0. -1.
       11   -1    0    0    0    0 -0.00000000000E+00 -0.00000000000E+00 -0.35740347158E-01  0.35744000000E-01  0.51099999109E-03 0.  1.
       22    1    1    2    0    0 -0.27994388837E-01 -0.19080523792E-02 -0.22131586356E-01  0.35737005818E-01  0.00000000000E+00 0.  1.
  9000001    1    1    2    0    0  0.27994388837E-01  0.19080523792E-02  0.22131586356E-01  0.35750994182E-01  0.10000000475E-02 0. -1.
</event>
<event>
 4   0  0.4958067E-02  0.9118800E+02  0.7818609E-02  0.1379984E+01
      -11   -1    0    0    0    0  0.00000000000E+00  0.00000000000E+00  0.35740347158E-01  0.35744000000E-01  0.51099999109E-03 0.  1.
       11   -1    0    0    0    0 -0.00000000000E+00 -0.00000000000E+00 -0.35740347158E-01  0.35744000000E-01  0.51099999109E-03 0. -1.
       22    1    1    2    0    0  0.65143449270E-02  0.13279089816E-01  0.32532486359E-01  0.35737005818E-01  0.00000000000E+00 0.  1.
  9000001    1    1    2    0    0 -0.65143449270E-02 -0.13279089816E-01 -0.32532486359E-01  0.35750994182E-01  0.10000000475E-02 0. -1.
</event>
<event>
 4   0  0.4958067E-02  0.9118800E+02  0.7818609E-02  0.1379984E+01
      -11   -1    0    0    0    0  0.00000000000E+00  0.00000000000E+00  0.35740347158E-01  0.35744000000E-01  0.51099999109E-03 0. -1.
       11   -1    0    0    0    0 -0.00000000000E+00 -0.00000000000E+00 -0.35740347158E-01  0.35744000000E-01  0.51099999109E-03 0.  1.
       22    1    1    2    0    0  0.21901196856E-02  0.89271078182E-02  0.34534673976E-01  0.35737005818E-01  0.00000000000E+00 0. -1.
  9000001    1    1    2    0    0 -0.21901196856E-02 -0.89271078182E-02 -0.34534673976E-01  0.35750994182E-01  0.10000000475E-02 0.  1.
</event>
<event>
 4   0  0.4958067E-02  0.9118800E+02  0.7818609E-02  0.1379984E+01
      -11   -1    0    0    0    0  0.00000000000E+00  0.00000000000E+00  0.35740347158E-01  0.35744000000E-01  0.51099999109E-03 0. -1.
       11   -1    0    0    0    0 -0.00000000000E+00 -0.00000000000E+00 -0.35740347158E-01  0.35744000000E-01  0.51099999109E-03 0.  1.
       22    1    1    2    0    0  0.42262408745E-02 -0.43145893561E-02  0.35222958303E-01  0.35737005818E-01  0.00000000000E+00 0. -1.
  9000001    1    1    2    0    0 -0.42262408745E-02  0.43145893561E-02 -0.35222958303E-01  0.35750994182E-01  0.10000000475E-02 0.  1.
</event>
<event>
 4   0  0.4958067E-02  0.9118800E+02  0.7818609E-02  0.1379984E+01
      -11   -1    0    0    0    0  0.00000000000E+00  0.00000000000E+00  0.35740347158E-01  0.35744000000E-01  0.51099999109E-03 0. -1.
       11   -1    0    0    0    0 -0.00000000000E+00 -0.00000000000E+00 -0.35740347158E-01  0.35744000000E-01  0.51099999109E-03 0.  1.
       22    1    1    2    0    0 -0.17648284300E-01 -0.74201431140E-02  0.30176366950E-01  0.35737005818E-01  0.00000000000E+00 0. -1.
  9000001    1    1    2    0    0  0.17648284300E-01  0.74201431140E-02 -0.30176366950E-01  0.35750994182E-01  0.10000000475E-02 0.  1.
</event>
<event>
 4   0  0.4958067E-02  0.9118800E+02  0.7818609E-02  0.1379984E+01
      -11   -1    0    0    0    0  0.00000000000E+00  0.00000000000E+00  0.35740347158E-01  0.35744000000E-01  0.51099999109E-03 0. -1.
       11   -1    0    0    0    0 -0.00000000000E+00 -0.00000000000E+00 -0.35740347158E-01  0.35744000000E-01  0.51099999109E-03 0.  1.
       22    1    1    2    0    0  0.87535947930E-04  0.73434601889E-02 -0.34974269325E-01  0.35737005818E-01  0.00000000000E+00 0.  1.
  9000001    1    1    2    0    0 -0.87535947930E-04 -0.73434601889E-02  0.34974269325E-01  0.35750994182E-01  0.10000000475E-02 0. -1.
</event>
<event>
 4   0  0.4958067E-02  0.9118800E+02  0.7818609E-02  0.1379984E+01
      -11   -1    0    0    0    0  0.00000000000E+00  0.00000000000E+00  0.35740347158E-01  0.35744000000E-01  0.51099999109E-03 0.  1.
       11   -1    0    0    0    0 -0.00000000000E+00 -0.00000000000E+00 -0.35740347158E-01  0.35744000000E-01  0.51099999109E-03 0. -1.
       22    1    1    2    0    0  0.67454165262E-02 -0.30081213868E-01  0.18076324654E-01  0.35737005818E-01  0.00000000000E+00 0.  1.
  9000001    1    1    2    0    0 -0.67454165262E-02  0.30081213868E-01 -0.18076324654E-01  0.35750994182E-01  0.10000000475E-02 0. -1.
</event>
<event>
 4   0  0.4958067E-02  0.9118800E+02  0.7818609E-02  0.1379984E+01
      -11   -1    0    0    0    0  0.00000000000E+00  0.00000000000E+00  0.35740347158E-01  0.35744000000E-01  0.51099999109E-03 0.  1.
       11   -1    0    0    0    0 -0.00000000000E+00 -0.00000000000E+00 -0.35740347158E-01  0.35744000000E-01  0.51099999109E-03 0. -1.
       22    1    1    2    0    0  0.21251419158E-03 -0.23191240227E-01 -0.27189240506E-01  0.35737005818E-01  0.00000000000E+00 0. -1.
  9000001    1    1    2    0    0 -0.21251419158E-03  0.23191240227E-01  0.27189240506E-01  0.35750994182E-01  0.10000000475E-02 0.  1.
</event>
<event>
 4   0  0.4958067E-02  0.9118800E+02  0.7818609E-02  0.1379984E+01
      -11   -1    0    0    0    0  0.00000000000E+00  0.00000000000E+00  0.35740347158E-01  0.35744000000E-01  0.51099999109E-03 0.  1.
       11   -1    0    0    0    0 -0.00000000000E+00 -0.00000000000E+00 -0.35740347158E-01  0.35744000000E-01  0.51099999109E-03 0. -1.
       22    1    1    2    0    0  0.28668025881E-01 -0.11496741181E-02 -0.21306246182E-01  0.35737005818E-01  0.00000000000E+00 0. -1.
  9000001    1    1    2    0    0 -0.28668025881E-01  0.11496741181E-02  0.21306246182E-01  0.35750994182E-01  0.10000000475E-02 0.  1.
</event>
<event>
 4   0  0.4958067E-02  0.9118800E+02  0.7818609E-02  0.1379984E+01
      -11   -1    0    0    0    0  0.00000000000E+00  0.00000000000E+00  0.35740347158E-01  0.35744000000E-01  0.51099999109E-03 0.  1.
       11   -1    0    0    0    0 -0.00000000000E+00 -0.00000000000E+00 -0.35740347158E-01  0.35744000000E-01  0.51099999109E-03 0. -1.
       22    1    1    2    0    0  0.18461258227E-01  0.33918624359E-02 -0.30410702043E-01  0.35737005818E-01  0.00000000000E+00 0. -1.
  9000001    1    1    2    0    0 -0.18461258227E-01 -0.33918624359E-02  0.30410702043E-01  0.35750994182E-01  0.10000000475E-02 0.  1.
</event>
<event>
 4   0  0.4958067E-02  0.9118800E+02  0.7818609E-02  0.1379984E+01
      -11   -1    0    0    0    0  0.00000000000E+00  0.00000000000E+00  0.35740347158E-01  0.35744000000E-01  0.51099999109E-03 0. -1.
       11   -1    0    0    0    0 -0.00000000000E+00 -0.00000000000E+00 -0.35740347158E-01  0.35744000000E-01  0.51099999109E-03 0.  1.
       22    1    1    2    0    0  0.18837128841E-01 -0.36756733640E-02  0.30146070842E-01  0.35737005818E-01  0.00000000000E+00 0. -1.
  9000001    1    1    2    0    0 -0.18837128841E-01  0.36756733640E-02 -0.30146070842E-01  0.35750994182E-01  0.10000000475E-02 0.  1.
</event>
<event>
 4   0  0.4958067E-02  0.9118800E+02  0.7818609E-02  0.1379984E+01
      -11   -1    0    0    0    0  0.00000000000E+00  0.00000000000E+00  0.35740347158E-01  0.35744000000E-01  0.51099999109E-03 0.  1.
       11   -1    0    0    0    0 -0.00000000000E+00 -0.00000000000E+00 -0.35740347158E-01  0.35744000000E-01  0.51099999109E-03 0. -1.
       22    1    1    2    0    0 -0.68531932649E-03  0.11905362651E-01  0.33688666677E-01  0.35737005818E-01  0.00000000000E+00 0.  1.
  9000001    1    1    2    0    0  0.68531932649E-03 -0.11905362651E-01 -0.33688666677E-01  0.35750994182E-01  0.10000000475E-02 0. -1.
</event>
<event>
 4   0  0.4958067E-02  0.9118800E+02  0.7818609E-02  0.1379984E+01
      -11   -1    0    0    0    0  0.00000000000E+00  0.00000000000E+00  0.35740347158E-01  0.35744000000E-01  0.51099999109E-03 0.  1.
       11   -1    0    0    0    0 -0.00000000000E+00 -0.00000000000E+00 -0.35740347158E-01  0.35744000000E-01  0.51099999109E-03 0. -1.
       22    1    1    2    0    0 -0.26229987143E-03  0.34671343517E-02 -0.35567453705E-01  0.35737005818E-01  0.00000000000E+00 0. -1.
  9000001    1    1    2    0    0  0.26229987143E-03 -0.34671343517E-02  0.35567453705E-01  0.35750994182E-01  0.10000000475E-02 0.  1.
</event>
<event>
 4   0  0.4958067E-02  0.9118800E+02  0.7818609E-02  0.1379984E+01
      -11   -1    0    0    0    0  0.00000000000E+00  0.00000000000E+00  0.35740347158E-01  0.35744000000E-01  0.51099999109E-03 0.  1.
       11   -1    0    0    0    0 -0.00000000000E+00 -0.00000000000E+00 -0.35740347158E-01  0.35744000000E-01  0.51099999109E-03 0. -1.
       22    1    1    2    0    0 -0.17829827850E-02 -0.79291440303E-02  0.34800621147E-01  0.35737005818E-01  0.00000000000E+00 0.  1.
  9000001    1    1    2    0    0  0.17829827850E-02  0.79291440303E-02 -0.34800621147E-01  0.35750994182E-01  0.10000000475E-02 0. -1.
</event>
<event>
 4   0  0.4958067E-02  0.9118800E+02  0.7818609E-02  0.1379984E+01
      -11   -1    0    0    0    0  0.00000000000E+00  0.00000000000E+00  0.35740347158E-01  0.35744000000E-01  0.51099999109E-03 0.  1.
       11   -1    0    0    0    0 -0.00000000000E+00 -0.00000000000E+00 -0.35740347158E-01  0.35744000000E-01  0.51099999109E-03 0. -1.
       22    1    1    2    0    0  0.17472426517E-01 -0.96663668792E-02 -0.29637969698E-01  0.35737005818E-01  0.00000000000E+00 0. -1.
  9000001    1    1    2    0    0 -0.17472426517E-01  0.96663668792E-02  0.29637969698E-01  0.35750994182E-01  0.10000000475E-02 0.  1.
</event>
<event>
 4   0  0.4958067E-02  0.9118800E+02  0.7818609E-02  0.1379984E+01
      -11   -1    0    0    0    0  0.00000000000E+00  0.00000000000E+00  0.35740347158E-01  0.35744000000E-01  0.51099999109E-03 0.  1.
       11   -1    0    0    0    0 -0.00000000000E+00 -0.00000000000E+00 -0.35740347158E-01  0.35744000000E-01  0.51099999109E-03 0. -1.
       22    1    1    2    0    0  0.46131665254E-02  0.61661915379E-02 -0.34897426286E-01  0.35737005818E-01  0.00000000000E+00 0. -1.
  9000001    1    1    2    0    0 -0.46131665254E-02 -0.61661915379E-02  0.34897426286E-01  0.35750994182E-01  0.10000000475E-02 0.  1.
</event>
<event>
 4   0  0.4958067E-02  0.9118800E+02  0.7818609E-02  0.1379984E+01
      -11   -1    0    0    0    0  0.00000000000E+00  0.00000000000E+00  0.35740347158E-01  0.35744000000E-01  0.51099999109E-03 0. -1.
       11   -1    0    0    0    0 -0.00000000000E+00 -0.00000000000E+00 -0.35740347158E-01  0.35744000000E-01  0.51099999109E-03 0.  1.
       22    1    1    2    0    0  0.10961611031E-01  0.59263618162E-02  0.33494102527E-01  0.35737005818E-01  0.00000000000E+00 0. -1.
  9000001    1    1    2    0    0 -0.10961611031E-01 -0.59263618162E-02 -0.33494102527E-01  0.35750994182E-01  0.10000000475E-02 0.  1.
</event>
<event>
 4   0  0.4958067E-02  0.9118800E+02  0.7818609E-02  0.1379984E+01
      -11   -1    0    0    0    0  0.00000000000E+00  0.00000000000E+00  0.35740347158E-01  0.35744000000E-01  0.51099999109E-03 0.  1.
       11   -1    0    0    0    0 -0.00000000000E+00 -0.00000000000E+00 -0.35740347158E-01  0.35744000000E-01  0.51099999109E-03 0. -1.
       22    1    1    2    0    0 -0.23856758328E-02  0.38479962213E-02  0.35449048799E-01  0.35737005818E-01  0.00000000000E+00 0.  1.
  9000001    1    1    2    0    0  0.23856758328E-02 -0.38479962213E-02 -0.35449048799E-01  0.35750994182E-01  0.10000000475E-02 0. -1.
</event>
<event>
 4   0  0.4958067E-02  0.9118800E+02  0.7818609E-02  0.1379984E+01
      -11   -1    0    0    0    0  0.00000000000E+00  0.00000000000E+00  0.35740347158E-01  0.35744000000E-01  0.51099999109E-03 0.  1.
       11   -1    0    0    0    0 -0.00000000000E+00 -0.00000000000E+00 -0.35740347158E-01  0.35744000000E-01  0.51099999109E-03 0. -1.
       22    1    1    2    0    0  0.25184840191E-01 -0.19232512859E-02  0.25281584482E-01  0.35737005818E-01  0.00000000000E+00 0.  1.
  9000001    1    1    2    0    0 -0.25184840191E-01  0.19232512859E-02 -0.25281584482E-01  0.35750994182E-01  0.10000000475E-02 0. -1.
</event>
<event>
 4   0  0.4958067E-02  0.9118800E+02  0.7818609E-02  0.1379984E+01
      -11   -1    0    0    0    0  0.00000000000E+00  0.00000000000E+00  0.35740347158E-01  0.35744000000E-01  0.51099999109E-03 0.  1.
       11   -1    0    0    0    0 -0.00000000000E+00 -0.00000000000E+00 -0.35740347158E-01  0.35744000000E-01  0.51099999109E-03 0. -1.
       22    1    1    2    0    0  0.12802164348E-01 -0.16140436693E-01  0.29201446475E-01  0.35737005818E-01  0.00000000000E+00 0.  1.
  9000001    1    1    2    0    0 -0.12802164348E-01  0.16140436693E-01 -0.29201446475E-01  0.35750994182E-01  0.10000000475E-02 0. -1.
</event>
<event>
 4   0  0.4958067E-02  0.9118800E+02  0.7818609E-02  0.1379984E+01
      -11   -1    0    0    0    0  0.00000000000E+00  0.00000000000E+00  0.35740347158E-01  0.35744000000E-01  0.51099999109E-03 0. -1.
       11   -1    0    0    0    0 -0.00000000000E+00 -0.00000000000E+00 -0.35740347158E-01  0.35744000000E-01  0.51099999109E-03 0.  1.
       22    1    1    2    0    0 -0.33460325518E-01  0.70007289647E-02 -0.10417773037E-01  0.35737005818E-01  0.00000000000E+00 0. -1.
  9000001    1    1    2    0    0  0.33460325518E-01 -0.70007289647E-02  0.10417773037E-01  0.35750994182E-01  0.10000000475E-02 0.  1.
</event>
<event>
 4   0  0.4958067E-02  0.9118800E+02  0.7818609E-02  0.1379984E+01
      -11   -1    0    0    0    0  0.00000000000E+00  0.00000000000E+00  0.35740347158E-01  0.35744000000E-01  0.51099999109E-03 0. -1.
       11   -1    0    0    0    0 -0.00000000000E+00 -0.00000000000E+00 -0.35740347158E-01  0.35744000000E-01  0.51099999109E-03 0.  1.
       22    1    1    2    0    0  0.32974609735E-02 -0.10729568341E-02  0.35568372181E-01  0.35737005818E-01  0.00000000000E+00 0. -1.
  9000001    1    1    2    0    0 -0.32974609735E-02  0.10729568341E-02 -0.35568372181E-01  0.35750994182E-01  0.10000000475E-02 0.  1.
</event>
<event>
 4   0  0.4958067E-02  0.9118800E+02  0.7818609E-02  0.1379984E+01
      -11   -1    0    0    0    0  0.00000000000E+00  0.00000000000E+00  0.35740347158E-01  0.35744000000E-01  0.51099999109E-03 0. -1.
       11   -1    0    0    0    0 -0.00000000000E+00 -0.00000000000E+00 -0.35740347158E-01  0.35744000000E-01  0.51099999109E-03 0.  1.
       22    1    1    2    0    0 -0.14949558321E-01 -0.24567450003E-02 -0.32366783821E-01  0.35737005818E-01  0.00000000000E+00 0.  1.
  9000001    1    1    2    0    0  0.14949558321E-01  0.24567450003E-02  0.32366783821E-01  0.35750994182E-01  0.10000000475E-02 0. -1.
</event>
<event>
 4   0  0.4958067E-02  0.9118800E+02  0.7818609E-02  0.1379984E+01
      -11   -1    0    0    0    0  0.00000000000E+00  0.00000000000E+00  0.35740347158E-01  0.35744000000E-01  0.51099999109E-03 0.  1.
       11   -1    0    0    0    0 -0.00000000000E+00 -0.00000000000E+00 -0.35740347158E-01  0.35744000000E-01  0.51099999109E-03 0. -1.
       22    1    1    2    0    0 -0.50019149572E-02  0.32537231035E-01 -0.13908379783E-01  0.35737005818E-01  0.00000000000E+00 0. -1.
  9000001    1    1    2    0    0  0.50019149572E-02 -0.32537231035E-01  0.13908379783E-01  0.35750994182E-01  0.10000000475E-02 0.  1.
</event>
<event>
 4   0  0.4958067E-02  0.9118800E+02  0.7818609E-02  0.1379984E+01
      -11   -1    0    0    0    0  0.00000000000E+00  0.00000000000E+00  0.35740347158E-01  0.35744000000E-01  0.51099999109E-03 0. -1.
       11   -1    0    0    0    0 -0.00000000000E+00 -0.00000000000E+00 -0.35740347158E-01  0.35744000000E-01  0.51099999109E-03 0.  1.
       22    1    1    2    0    0  0.15156617032E-01 -0.28023080160E-01  0.16190043957E-01  0.35737005818E-01  0.00000000000E+00 0. -1.
  9000001    1    1    2    0    0 -0.15156617032E-01  0.28023080160E-01 -0.16190043957E-01  0.35750994182E-01  0.10000000475E-02 0.  1.
</event>
<event>
 4   0  0.4958067E-02  0.9118800E+02  0.7818609E-02  0.1379984E+01
      -11   -1    0    0    0    0  0.00000000000E+00  0.00000000000E+00  0.35740347158E-01  0.35744000000E-01  0.51099999109E-03 0. -1.
       11   -1    0    0    0    0 -0.00000000000E+00 -0.00000000000E+00 -0.35740347158E-01  0.35744000000E-01  0.51099999109E-03 0.  1.
       22    1    1    2    0    0 -0.59376784103E-02 -0.41796892125E-03  0.35237804443E-01  0.35737005818E-01  0.00000000000E+00 0. -1.
  9000001    1    1    2    0    0  0.59376784103E-02  0.41796892125E-03 -0.35237804443E-01  0.35750994182E-01  0.10000000475E-02 0.  1.
</event>
<event>
 4   0  0.4958067E-02  0.9118800E+02  0.7818609E-02  0.1379984E+01
      -11   -1    0    0    0    0  0.00000000000E+00  0.00000000000E+00  0.35740347158E-01  0.35744000000E-01  0.51099999109E-03 0.  1.
       11   -1    0    0    0    0 -0.00000000000E+00 -0.00000000000E+00 -0.35740347158E-01  0.35744000000E-01  0.51099999109E-03 0. -1.
       22    1    1    2    0    0  0.19830489979E-01 -0.14761030397E-01 -0.25806922204E-01  0.35737005818E-01  0.00000000000E+00 0. -1.
  9000001    1    1    2    0    0 -0.19830489979E-01  0.14761030397E-01  0.25806922204E-01  0.35750994182E-01  0.10000000475E-02 0.  1.
</event>
<event>
 4   0  0.4958067E-02  0.9118800E+02  0.7818609E-02  0.1379984E+01
      -11   -1    0    0    0    0  0.00000000000E+00  0.00000000000E+00  0.35740347158E-01  0.35744000000E-01  0.51099999109E-03 0. -1.
       11   -1    0    0    0    0 -0.00000000000E+00 -0.00000000000E+00 -0.35740347158E-01  0.35744000000E-01  0.51099999109E-03 0.  1.
       22    1    1    2    0    0 -0.34740800398E-01 -0.80157560665E-02  0.24409070520E-02  0.35737005818E-01  0.00000000000E+00 0.  1.
  9000001    1    1    2    0    0  0.34740800398E-01  0.80157560665E-02 -0.24409070520E-02  0.35750994182E-01  0.10000000475E-02 0. -1.
</event>
<event>
 4   0  0.4958067E-02  0.9118800E+02  0.7818609E-02  0.1379984E+01
      -11   -1    0    0    0    0  0.00000000000E+00  0.00000000000E+00  0.35740347158E-01  0.35744000000E-01  0.51099999109E-03 0. -1.
       11   -1    0    0    0    0 -0.00000000000E+00 -0.00000000000E+00 -0.35740347158E-01  0.35744000000E-01  0.51099999109E-03 0.  1.
       22    1    1    2    0    0  0.22661441738E-01 -0.62929590695E-02  0.26907086601E-01  0.35737005818E-01  0.00000000000E+00 0. -1.
  9000001    1    1    2    0    0 -0.22661441738E-01  0.62929590695E-02 -0.26907086601E-01  0.35750994182E-01  0.10000000475E-02 0.  1.
</event>
<event>
 4   0  0.4958067E-02  0.9118800E+02  0.7818609E-02  0.1379984E+01
      -11   -1    0    0    0    0  0.00000000000E+00  0.00000000000E+00  0.35740347158E-01  0.35744000000E-01  0.51099999109E-03 0.  1.
       11   -1    0    0    0    0 -0.00000000000E+00 -0.00000000000E+00 -0.35740347158E-01  0.35744000000E-01  0.51099999109E-03 0. -1.
       22    1    1    2    0    0  0.90380630242E-02 -0.25610930505E-02  0.34480252378E-01  0.35737005818E-01  0.00000000000E+00 0.  1.
  9000001    1    1    2    0    0 -0.90380630242E-02  0.25610930505E-02 -0.34480252378E-01  0.35750994182E-01  0.10000000475E-02 0. -1.
</event>
<event>
 4   0  0.4958067E-02  0.9118800E+02  0.7818609E-02  0.1379984E+01
      -11   -1    0    0    0    0  0.00000000000E+00  0.00000000000E+00  0.35740347158E-01  0.35744000000E-01  0.51099999109E-03 0. -1.
       11   -1    0    0    0    0 -0.00000000000E+00 -0.00000000000E+00 -0.35740347158E-01  0.35744000000E-01  0.51099999109E-03 0.  1.
       22    1    1    2    0    0  0.30637237552E-02  0.57499982863E-02  0.35138080502E-01  0.35737005818E-01  0.00000000000E+00 0. -1.
  9000001    1    1    2    0    0 -0.30637237552E-02 -0.57499982863E-02 -0.35138080502E-01  0.35750994182E-01  0.10000000475E-02 0.  1.
</event>
<event>
 4   0  0.4958067E-02  0.9118800E+02  0.7818609E-02  0.1379984E+01
      -11   -1    0    0    0    0  0.00000000000E+00  0.00000000000E+00  0.35740347158E-01  0.35744000000E-01  0.51099999109E-03 0. -1.
       11   -1    0    0    0    0 -0.00000000000E+00 -0.00000000000E+00 -0.35740347158E-01  0.35744000000E-01  0.51099999109E-03 0.  1.
       22    1    1    2    0    0  0.15584557682E-01  0.23218743571E-01 -0.22251855960E-01  0.35737005818E-01  0.00000000000E+00 0.  1.
  9000001    1    1    2    0    0 -0.15584557682E-01 -0.23218743571E-01  0.22251855960E-01  0.35750994182E-01  0.10000000475E-02 0. -1.
</event>
<event>
 4   0  0.4958067E-02  0.9118800E+02  0.7818609E-02  0.1379984E+01
      -11   -1    0    0    0    0  0.00000000000E+00  0.00000000000E+00  0.35740347158E-01  0.35744000000E-01  0.51099999109E-03 0.  1.
       11   -1    0    0    0    0 -0.00000000000E+00 -0.00000000000E+00 -0.35740347158E-01  0.35744000000E-01  0.51099999109E-03 0. -1.
       22    1    1    2    0    0  0.39496770907E-03  0.12875665508E-01  0.33334588990E-01  0.35737005818E-01  0.00000000000E+00 0.  1.
  9000001    1    1    2    0    0 -0.39496770907E-03 -0.12875665508E-01 -0.33334588990E-01  0.35750994182E-01  0.10000000475E-02 0. -1.
</event>
<event>
 4   0  0.4958067E-02  0.9118800E+02  0.7818609E-02  0.1379984E+01
      -11   -1    0    0    0    0  0.00000000000E+00  0.00000000000E+00  0.35740347158E-01  0.35744000000E-01  0.51099999109E-03 0.  1.
       11   -1    0    0    0    0 -0.00000000000E+00 -0.00000000000E+00 -0.35740347158E-01  0.35744000000E-01  0.51099999109E-03 0. -1.
       22    1    1    2    0    0 -0.47889092857E-02  0.15292187424E-01 -0.31942901191E-01  0.35737005818E-01  0.00000000000E+00 0. -1.
  9000001    1    1    2    0    0  0.47889092857E-02 -0.15292187424E-01  0.31942901191E-01  0.35750994182E-01  0.10000000475E-02 0.  1.
</event>
<event>
 4   0  0.4958067E-02  0.9118800E+02  0.7818609E-02  0.1379984E+01
      -11   -1    0    0    0    0  0.00000000000E+00  0.00000000000E+00  0.35740347158E-01  0.35744000000E-01  0.51099999109E-03 0.  1.
       11   -1    0    0    0    0 -0.00000000000E+00 -0.00000000000E+00 -0.35740347158E-01  0.35744000000E-01  0.51099999109E-03 0. -1.
       22    1    1    2    0    0 -0.37876471609E-02  0.99035902598E-03  0.35521915811E-01  0.35737005818E-01  0.00000000000E+00 0.  1.
  9000001    1    1    2    0    0  0.37876471609E-02 -0.99035902598E-03 -0.35521915811E-01  0.35750994182E-01  0.10000000475E-02 0. -1.
</event>
<event>
 4   0  0.4958067E-02  0.9118800E+02  0.7818609E-02  0.1379984E+01
      -11   -1    0    0    0    0  0.00000000000E+00  0.00000000000E+00  0.35740347158E-01  0.35744000000E-01  0.51099999109E-03 0. -1.
       11   -1    0    0    0    0 -0.00000000000E+00 -0.00000000000E+00 -0.35740347158E-01  0.35744000000E-01  0.51099999109E-03 0.  1.
       22    1    1    2    0    0  0.18049966418E-01 -0.11182684802E-01 -0.28745084063E-01  0.35737005818E-01  0.00000000000E+00 0.  1.
  9000001    1    1    2    0    0 -0.18049966418E-01  0.11182684802E-01  0.28745084063E-01  0.35750994182E-01  0.10000000475E-02 0. -1.
</event>
<event>
 4   0  0.4958067E-02  0.9118800E+02  0.7818609E-02  0.1379984E+01
      -11   -1    0    0    0    0  0.00000000000E+00  0.00000000000E+00  0.35740347158E-01  0.35744000000E-01  0.51099999109E-03 0. -1.
       11   -1    0    0    0    0 -0.00000000000E+00 -0.00000000000E+00 -0.35740347158E-01  0.35744000000E-01  0.51099999109E-03 0.  1.
       22    1    1    2    0    0  0.59279619079E-02  0.89895072570E-02 -0.34076114975E-01  0.35737005818E-01  0.00000000000E+00 0.  1.
  9000001    1    1    2    0    0 -0.59279619079E-02 -0.89895072570E-02  0.34076114975E-01  0.35750994182E-01  0.10000000475E-02 0. -1.
</event>
<event>
 4   0  0.4958067E-02  0.9118800E+02  0.7818609E-02  0.1379984E+01
      -11   -1    0    0    0    0  0.00000000000E+00  0.00000000000E+00  0.35740347158E-01  0.35744000000E-01  0.51099999109E-03 0. -1.
       11   -1    0    0    0    0 -0.00000000000E+00 -0.00000000000E+00 -0.35740347158E-01  0.35744000000E-01  0.51099999109E-03 0.  1.
       22    1    1    2    0    0 -0.22895849366E-01  0.18275763852E-01 -0.20467293966E-01  0.35737005818E-01  0.00000000000E+00 0.  1.
  9000001    1    1    2    0    0  0.22895849366E-01 -0.18275763852E-01  0.20467293966E-01  0.35750994182E-01  0.10000000475E-02 0. -1.
</event>
<event>
 4   0  0.4958067E-02  0.9118800E+02  0.7818609E-02  0.1379984E+01
      -11   -1    0    0    0    0  0.00000000000E+00  0.00000000000E+00  0.35740347158E-01  0.35744000000E-01  0.51099999109E-03 0.  1.
       11   -1    0    0    0    0 -0.00000000000E+00 -0.00000000000E+00 -0.35740347158E-01  0.35744000000E-01  0.51099999109E-03 0. -1.
       22    1    1    2    0    0  0.75315898069E-02 -0.11646146489E-02 -0.34914931084E-01  0.35737005818E-01  0.00000000000E+00 0. -1.
  9000001    1    1    2    0    0 -0.75315898069E-02  0.11646146489E-02  0.34914931084E-01  0.35750994182E-01  0.10000000475E-02 0.  1.
</event>
<event>
 4   0  0.4958067E-02  0.9118800E+02  0.7818609E-02  0.1379984E+01
      -11   -1    0    0    0    0  0.00000000000E+00  0.00000000000E+00  0.35740347158E-01  0.35744000000E-01  0.51099999109E-03 0. -1.
       11   -1    0    0    0    0 -0.00000000000E+00 -0.00000000000E+00 -0.35740347158E-01  0.35744000000E-01  0.51099999109E-03 0.  1.
       22    1    1    2    0    0  0.14339847657E-02  0.93918303059E-02 -0.34450991220E-01  0.35737005818E-01  0.00000000000E+00 0.  1.
  9000001    1    1    2    0    0 -0.14339847657E-02 -0.93918303059E-02  0.34450991220E-01  0.35750994182E-01  0.10000000475E-02 0. -1.
</event>
<event>
 4   0  0.4958067E-02  0.9118800E+02  0.7818609E-02  0.1379984E+01
      -11   -1    0    0    0    0  0.00000000000E+00  0.00000000000E+00  0.35740347158E-01  0.35744000000E-01  0.51099999109E-03 0. -1.
       11   -1    0    0    0    0 -0.00000000000E+00 -0.00000000000E+00 -0.35740347158E-01  0.35744000000E-01  0.51099999109E-03 0.  1.
       22    1    1    2    0    0  0.16975802240E-02  0.13574050379E-01 -0.33015102038E-01  0.35737005818E-01  0.00000000000E+00 0.  1.
  9000001    1    1    2    0    0 -0.16975802240E-02 -0.13574050379E-01  0.33015102038E-01  0.35750994182E-01  0.10000000475E-02 0. -1.
</event>
<event>
 4   0  0.4958067E-02  0.9118800E+02  0.7818609E-02  0.1379984E+01
      -11   -1    0    0    0    0  0.00000000000E+00  0.00000000000E+00  0.35740347158E-01  0.35744000000E-01  0.51099999109E-03 0.  1.
       11   -1    0    0    0    0 -0.00000000000E+00 -0.00000000000E+00 -0.35740347158E-01  0.35744000000E-01  0.51099999109E-03 0. -1.
       22    1    1    2    0    0  0.17935612685E-01  0.74824640704E-02  0.29991000549E-01  0.35737005818E-01  0.00000000000E+00 0.  1.
  9000001    1    1    2    0    0 -0.17935612685E-01 -0.74824640704E-02 -0.29991000549E-01  0.35750994182E-01  0.10000000475E-02 0. -1.
</event>
<event>
 4   0  0.4958067E-02  0.9118800E+02  0.7818609E-02  0.1379984E+01
      -11   -1    0    0    0    0  0.00000000000E+00  0.00000000000E+00  0.35740347158E-01  0.35744000000E-01  0.51099999109E-03 0. -1.
       11   -1    0    0    0    0 -0.00000000000E+00 -0.00000000000E+00 -0.35740347158E-01  0.35744000000E-01  0.51099999109E-03 0.  1.
       22    1    1    2    0    0 -0.23245126474E-02 -0.38826515923E-02  0.35449333455E-01  0.35737005818E-01  0.00000000000E+00 0. -1.
  9000001    1    1    2    0    0  0.23245126474E-02  0.38826515923E-02 -0.35449333455E-01  0.35750994182E-01  0.10000000475E-02 0.  1.
</event>
<event>
 4   0  0.4958067E-02  0.9118800E+02  0.7818609E-02  0.1379984E+01
      -11   -1    0    0    0    0  0.00000000000E+00  0.00000000000E+00  0.35740347158E-01  0.35744000000E-01  0.51099999109E-03 0. -1.
       11   -1    0    0    0    0 -0.00000000000E+00 -0.00000000000E+00 -0.35740347158E-01  0.35744000000E-01  0.51099999109E-03 0.  1.
       22    1    1    2    0    0 -0.14566181299E-01 -0.43700955368E-02 -0.32339793015E-01  0.35737005818E-01  0.00000000000E+00 0.  1.
  9000001    1    1    2    0    0  0.14566181299E-01  0.43700955368E-02  0.32339793015E-01  0.35750994182E-01  0.10000000475E-02 0. -1.
</event>
<event>
 4   0  0.4958067E-02  0.9118800E+02  0.7818609E-02  0.1379984E+01
      -11   -1    0    0    0    0  0.00000000000E+00  0.00000000000E+00  0.35740347158E-01  0.35744000000E-01  0.51099999109E-03 0. -1.
       11   -1    0    0    0    0 -0.00000000000E+00 -0.00000000000E+00 -0.35740347158E-01  0.35744000000E-01  0.51099999109E-03 0.  1.
       22    1    1    2    0    0  0.97436587289E-03 -0.32303600082E-02  0.35577365982E-01  0.35737005818E-01  0.00000000000E+00 0. -1.
  9000001    1    1    2    0    0 -0.97436587289E-03  0.32303600082E-02 -0.35577365982E-01  0.35750994182E-01  0.10000000475E-02 0.  1.
</event>
<event>
 4   0  0.4958067E-02  0.9118800E+02  0.7818609E-02  0.1379984E+01
      -11   -1    0    0    0    0  0.00000000000E+00  0.00000000000E+00  0.35740347158E-01  0.35744000000E-01  0.51099999109E-03 0.  1.
       11   -1    0    0    0    0 -0.00000000000E+00 -0.00000000000E+00 -0.35740347158E-01  0.35744000000E-01  0.51099999109E-03 0. -1.
       22    1    1    2    0    0 -0.19365170414E-01 -0.21089435051E-01  0.21385964765E-01  0.35737005818E-01  0.00000000000E+00 0. -1.
  9000001    1    1    2    0    0  0.19365170414E-01  0.21089435051E-01 -0.21385964765E-01  0.35750994182E-01  0.10000000475E-02 0.  1.
</event>
<event>
 4   0  0.4958067E-02  0.9118800E+02  0.7818609E-02  0.1379984E+01
      -11   -1    0    0    0    0  0.00000000000E+00  0.00000000000E+00  0.35740347158E-01  0.35744000000E-01  0.51099999109E-03 0. -1.
       11   -1    0    0    0    0 -0.00000000000E+00 -0.00000000000E+00 -0.35740347158E-01  0.35744000000E-01  0.51099999109E-03 0.  1.
       22    1    1    2    0    0  0.32125704524E-02 -0.17974785987E-02  0.35546899255E-01  0.35737005818E-01  0.00000000000E+00 0. -1.
  9000001    1    1    2    0    0 -0.32125704524E-02  0.17974785987E-02 -0.35546899255E-01  0.35750994182E-01  0.10000000475E-02 0.  1.
</event>
<event>
 4   0  0.4958067E-02  0.9118800E+02  0.7818609E-02  0.1379984E+01
      -11   -1    0    0    0    0  0.00000000000E+00  0.00000000000E+00  0.35740347158E-01  0.35744000000E-01  0.51099999109E-03 0.  1.
       11   -1    0    0    0    0 -0.00000000000E+00 -0.00000000000E+00 -0.35740347158E-01  0.35744000000E-01  0.51099999109E-03 0. -1.
       22    1    1    2    0    0  0.99970781981E-03  0.19368305015E-01 -0.30016710845E-01  0.35737005818E-01  0.00000000000E+00 0. -1.
  9000001    1    1    2    0    0 -0.99970781981E-03 -0.19368305015E-01  0.30016710845E-01  0.35750994182E-01  0.10000000475E-02 0.  1.
</event>
<event>
 4   0  0.4958067E-02  0.9118800E+02  0.7818609E-02  0.1379984E+01
      -11   -1    0    0    0    0  0.00000000000E+00  0.00000000000E+00  0.35740347158E-01  0.35744000000E-01  0.51099999109E-03 0.  1.
       11   -1    0    0    0    0 -0.00000000000E+00 -0.00000000000E+00 -0.35740347158E-01  0.35744000000E-01  0.51099999109E-03 0. -1.
       22    1    1    2    0    0 -0.24768869303E-01 -0.11373649969E-01 -0.23114428063E-01  0.35737005818E-01  0.00000000000E+00 0. -1.
  9000001    1    1    2    0    0  0.24768869303E-01  0.11373649969E-01  0.23114428063E-01  0.35750994182E-01  0.10000000475E-02 0.  1.
</event>
<event>
 4   0  0.4958067E-02  0.9118800E+02  0.7818609E-02  0.1379984E+01
      -11   -1    0    0    0    0  0.00000000000E+00  0.00000000000E+00  0.35740347158E-01  0.35744000000E-01  0.51099999109E-03 0. -1.
       11   -1    0    0    0    0 -0.00000000000E+00 -0.00000000000E+00 -0.35740347158E-01  0.35744000000E-01  0.51099999109E-03 0.  1.
       22    1    1    2    0    0  0.15209219705E-03  0.48163378319E-02 -0.35410638835E-01  0.35737005818E-01  0.00000000000E+00 0.  1.
  9000001    1    1    2    0    0 -0.15209219705E-03 -0.48163378319E-02  0.35410638835E-01  0.35750994182E-01  0.10000000475E-02 0. -1.
</event>
<event>
 4   0  0.4958067E-02  0.9118800E+02  0.7818609E-02  0.1379984E+01
      -11   -1    0    0    0    0  0.00000000000E+00  0.00000000000E+00  0.35740347158E-01  0.35744000000E-01  0.51099999109E-03 0.  1.
       11   -1    0    0    0    0 -0.00000000000E+00 -0.00000000000E+00 -0.35740347158E-01  0.35744000000E-01  0.51099999109E-03 0. -1.
       22    1    1    2    0    0  0.10753718273E-01 -0.19834625973E-01 -0.27714233540E-01  0.35737005818E-01  0.00000000000E+00 0. -1.
  9000001    1    1    2    0    0 -0.10753718273E-01  0.19834625973E-01  0.27714233540E-01  0.35750994182E-01  0.10000000475E-02 0.  1.
</event>
<event>
 4   0  0.4958067E-02  0.9118800E+02  0.7818609E-02  0.1379984E+01
      -11   -1    0    0    0    0  0.00000000000E+00  0.00000000000E+00  0.35740347158E-01  0.35744000000E-01  0.51099999109E-03 0.  1.
       11   -1    0    0    0    0 -0.00000000000E+00 -0.00000000000E+00 -0.35740347158E-01  0.35744000000E-01  0.51099999109E-03 0. -1.
       22    1    1    2    0    0  0.87159449920E-03 -0.19348124265E-01  0.30033714311E-01  0.35737005818E-01  0.00000000000E+00 0.  1.
  9000001    1    1    2    0    0 -0.87159449920E-03  0.19348124265E-01 -0.30033714311E-01  0.35750994182E-01  0.10000000475E-02 0. -1.
</event>
<event>
 4   0  0.4958067E-02  0.9118800E+02  0.7818609E-02  0.1379984E+01
      -11   -1    0    0    0    0  0.00000000000E+00  0.00000000000E+00  0.35740347158E-01  0.35744000000E-01  0.51099999109E-03 0.  1.
       11   -1    0    0    0    0 -0.00000000000E+00 -0.00000000000E+00 -0.35740347158E-01  0.35744000000E-01  0.51099999109E-03 0. -1.
       22    1    1    2    0    0 -0.46737596250E-02 -0.50628488286E-02  0.35066467139E-01  0.35737005818E-01  0.00000000000E+00 0.  1.
  9000001    1    1    2    0    0  0.46737596250E-02  0.50628488286E-02 -0.35066467139E-01  0.35750994182E-01  0.10000000475E-02 0. -1.
</event>
<event>
 4   0  0.4958067E-02  0.9118800E+02  0.7818609E-02  0.1379984E+01
      -11   -1    0    0    0    0  0.00000000000E+00  0.00000000000E+00  0.35740347158E-01  0.35744000000E-01  0.51099999109E-03 0.  1.
       11   -1    0    0    0    0 -0.00000000000E+00 -0.00000000000E+00 -0.35740347158E-01  0.35744000000E-01  0.51099999109E-03 0. -1.
       22    1    1    2    0    0 -0.13648487739E-01 -0.29938138944E-01  0.13948483928E-01  0.35737005818E-01  0.00000000000E+00 0. -1.
  9000001    1    1    2    0    0  0.13648487739E-01  0.29938138944E-01 -0.13948483928E-01  0.35750994182E-01  0.10000000475E-02 0.  1.
</event>
<event>
 4   0  0.4958067E-02  0.9118800E+02  0.7818609E-02  0.1379984E+01
      -11   -1    0    0    0    0  0.00000000000E+00  0.00000000000E+00  0.35740347158E-01  0.35744000000E-01  0.51099999109E-03 0.  1.
       11   -1    0    0    0    0 -0.00000000000E+00 -0.00000000000E+00 -0.35740347158E-01  0.35744000000E-01  0.51099999109E-03 0. -1.
       22    1    1    2    0    0 -0.92177296405E-02 -0.84140707111E-02  0.33486869952E-01  0.35737005818E-01  0.00000000000E+00 0.  1.
  9000001    1    1    2    0    0  0.92177296405E-02  0.84140707111E-02 -0.33486869952E-01  0.35750994182E-01  0.10000000475E-02 0. -1.
</event>
<event>
 4   0  0.4958067E-02  0.9118800E+02  0.7818609E-02  0.1379984E+01
      -11   -1    0    0    0    0  0.00000000000E+00  0.00000000000E+00  0.35740347158E-01  0.35744000000E-01  0.51099999109E-03 0. -1.
       11   -1    0    0    0    0 -0.00000000000E+00 -0.00000000000E+00 -0.35740347158E-01  0.35744000000E-01  0.51099999109E-03 0.  1.
       22    1    1    2    0    0  0.12309493391E-02 -0.71600478658E-02  0.34990742535E-01  0.35737005818E-01  0.00000000000E+00 0. -1.
  9000001    1    1    2    0    0 -0.12309493391E-02  0.71600478658E-02 -0.34990742535E-01  0.35750994182E-01  0.10000000475E-02 0.  1.
</event>
<event>
 4   0  0.4958067E-02  0.9118800E+02  0.7818609E-02  0.1379984E+01
      -11   -1    0    0    0    0  0.00000000000E+00  0.00000000000E+00  0.35740347158E-01  0.35744000000E-01  0.51099999109E-03 0. -1.
       11   -1    0    0    0    0 -0.00000000000E+00 -0.00000000000E+00 -0.35740347158E-01  0.35744000000E-01  0.51099999109E-03 0.  1.
       22    1    1    2    0    0 -0.89862937164E-02  0.25880406226E-03 -0.34587759837E-01  0.35737005818E-01  0.00000000000E+00 0.  1.
  9000001    1    1    2    0    0  0.89862937164E-02 -0.25880406226E-03  0.34587759837E-01  0.35750994182E-01  0.10000000475E-02 0. -1.
</event>
<event>
 4   0  0.4958067E-02  0.9118800E+02  0.7818609E-02  0.1379984E+01
      -11   -1    0    0    0    0  0.00000000000E+00  0.00000000000E+00  0.35740347158E-01  0.35744000000E-01  0.51099999109E-03 0. -1.
       11   -1    0    0    0    0 -0.00000000000E+00 -0.00000000000E+00 -0.35740347158E-01  0.35744000000E-01  0.51099999109E-03 0.  1.
       22    1    1    2    0    0  0.11745191819E-01 -0.34086564712E-02  0.33579236368E-01  0.35737005818E-01  0.00000000000E+00 0. -1.
  9000001    1    1    2    0    0 -0.11745191819E-01  0.34086564712E-02 -0.33579236368E-01  0.35750994182E-01  0.10000000475E-02 0.  1.
</event>
<event>
 4   0  0.4958067E-02  0.9118800E+02  0.7818609E-02  0.1379984E+01
      -11   -1    0    0    0    0  0.00000000000E+00  0.00000000000E+00  0.35740347158E-01  0.35744000000E-01  0.51099999109E-03 0.  1.
       11   -1    0    0    0    0 -0.00000000000E+00 -0.00000000000E+00 -0.35740347158E-01  0.35744000000E-01  0.51099999109E-03 0. -1.
       22    1    1    2    0    0  0.23741897805E-01  0.13663986208E-01 -0.22951064341E-01  0.35737005818E-01  0.00000000000E+00 0. -1.
  9000001    1    1    2    0    0 -0.23741897805E-01 -0.13663986208E-01  0.22951064341E-01  0.35750994182E-01  0.10000000475E-02 0.  1.
</event>
<event>
 4   0  0.4958067E-02  0.9118800E+02  0.7818609E-02  0.1379984E+01
      -11   -1    0    0    0    0  0.00000000000E+00  0.00000000000E+00  0.35740347158E-01  0.35744000000E-01  0.51099999109E-03 0.  1.
       11   -1    0    0    0    0 -0.00000000000E+00 -0.00000000000E+00 -0.35740347158E-01  0.35744000000E-01  0.51099999109E-03 0. -1.
       22    1    1    2    0    0  0.24939001355E-02 -0.61537707512E-02 -0.35114742666E-01  0.35737005818E-01  0.00000000000E+00 0. -1.
  9000001    1    1    2    0    0 -0.24939001355E-02  0.61537707512E-02  0.35114742666E-01  0.35750994182E-01  0.10000000475E-02 0.  1.
</event>
<event>
 4   0  0.4958067E-02  0.9118800E+02  0.7818609E-02  0.1379984E+01
      -11   -1    0    0    0    0  0.00000000000E+00  0.00000000000E+00  0.35740347158E-01  0.35744000000E-01  0.51099999109E-03 0.  1.
       11   -1    0    0    0    0 -0.00000000000E+00 -0.00000000000E+00 -0.35740347158E-01  0.35744000000E-01  0.51099999109E-03 0. -1.
       22    1    1    2    0    0 -0.11834592258E-01 -0.65425572861E-03  0.33714210067E-01  0.35737005818E-01  0.00000000000E+00 0.  1.
  9000001    1    1    2    0    0  0.11834592258E-01  0.65425572861E-03 -0.33714210067E-01  0.35750994182E-01  0.10000000475E-02 0. -1.
</event>
<event>
 4   0  0.4958067E-02  0.9118800E+02  0.7818609E-02  0.1379984E+01
      -11   -1    0    0    0    0  0.00000000000E+00  0.00000000000E+00  0.35740347158E-01  0.35744000000E-01  0.51099999109E-03 0. -1.
       11   -1    0    0    0    0 -0.00000000000E+00 -0.00000000000E+00 -0.35740347158E-01  0.35744000000E-01  0.51099999109E-03 0.  1.
       22    1    1    2    0    0 -0.10179878934E-01  0.12985380787E-01 -0.31699898038E-01  0.35737005818E-01  0.00000000000E+00 0.  1.
  9000001    1    1    2    0    0  0.10179878934E-01 -0.12985380787E-01  0.31699898038E-01  0.35750994182E-01  0.10000000475E-02 0. -1.
</event>
<event>
 4   0  0.4958067E-02  0.9118800E+02  0.7818609E-02  0.1379984E+01
      -11   -1    0    0    0    0  0.00000000000E+00  0.00000000000E+00  0.35740347158E-01  0.35744000000E-01  0.51099999109E-03 0.  1.
       11   -1    0    0    0    0 -0.00000000000E+00 -0.00000000000E+00 -0.35740347158E-01  0.35744000000E-01  0.51099999109E-03 0. -1.
       22    1    1    2    0    0 -0.12057583294E-01 -0.22508510767E-02  0.33566083170E-01  0.35737005818E-01  0.00000000000E+00 0.  1.
  9000001    1    1    2    0    0  0.12057583294E-01  0.22508510767E-02 -0.33566083170E-01  0.35750994182E-01  0.10000000475E-02 0. -1.
</event>
<event>
 4   0  0.4958067E-02  0.9118800E+02  0.7818609E-02  0.1379984E+01
      -11   -1    0    0    0    0  0.00000000000E+00  0.00000000000E+00  0.35740347158E-01  0.35744000000E-01  0.51099999109E-03 0.  1.
       11   -1    0    0    0    0 -0.00000000000E+00 -0.00000000000E+00 -0.35740347158E-01  0.35744000000E-01  0.51099999109E-03 0. -1.
       22    1    1    2    0    0 -0.21007328320E-02 -0.29349156026E-02 -0.35554279304E-01  0.35737005818E-01  0.00000000000E+00 0. -1.
  9000001    1    1    2    0    0  0.21007328320E-02  0.29349156026E-02  0.35554279304E-01  0.35750994182E-01  0.10000000475E-02 0.  1.
</event>
<event>
 4   0  0.4958067E-02  0.9118800E+02  0.7818609E-02  0.1379984E+01
      -11   -1    0    0    0    0  0.00000000000E+00  0.00000000000E+00  0.35740347158E-01  0.35744000000E-01  0.51099999109E-03 0.  1.
       11   -1    0    0    0    0 -0.00000000000E+00 -0.00000000000E+00 -0.35740347158E-01  0.35744000000E-01  0.51099999109E-03 0. -1.
       22    1    1    2    0    0 -0.14254707123E-01 -0.90091168464E-02  0.31508296104E-01  0.35737005818E-01  0.00000000000E+00 0.  1.
  9000001    1    1    2    0    0  0.14254707123E-01  0.90091168464E-02 -0.31508296104E-01  0.35750994182E-01  0.10000000475E-02 0. -1.
</event>
<event>
 4   0  0.4958067E-02  0.9118800E+02  0.7818609E-02  0.1379984E+01
      -11   -1    0    0    0    0  0.00000000000E+00  0.00000000000E+00  0.35740347158E-01  0.35744000000E-01  0.51099999109E-03 0. -1.
       11   -1    0    0    0    0 -0.00000000000E+00 -0.00000000000E+00 -0.35740347158E-01  0.35744000000E-01  0.51099999109E-03 0.  1.
       22    1    1    2    0    0  0.19758330112E-01 -0.42834402329E-02 -0.29468527548E-01  0.35737005818E-01  0.00000000000E+00 0.  1.
  9000001    1    1    2    0    0 -0.19758330112E-01  0.42834402329E-02  0.29468527548E-01  0.35750994182E-01  0.10000000475E-02 0. -1.
</event>
<event>
 4   0  0.4958067E-02  0.9118800E+02  0.7818609E-02  0.1379984E+01
      -11   -1    0    0    0    0  0.00000000000E+00  0.00000000000E+00  0.35740347158E-01  0.35744000000E-01  0.51099999109E-03 0. -1.
       11   -1    0    0    0    0 -0.00000000000E+00 -0.00000000000E+00 -0.35740347158E-01  0.35744000000E-01  0.51099999109E-03 0.  1.
       22    1    1    2    0    0  0.20916620753E-01  0.25209372499E-01 -0.14286920570E-01  0.35737005818E-01  0.00000000000E+00 0. -1.
  9000001    1    1    2    0    0 -0.20916620753E-01 -0.25209372499E-01  0.14286920570E-01  0.35750994182E-01  0.10000000475E-02 0.  1.
</event>
<event>
 4   0  0.4958067E-02  0.9118800E+02  0.7818609E-02  0.1379984E+01
      -11   -1    0    0    0    0  0.00000000000E+00  0.00000000000E+00  0.35740347158E-01  0.35744000000E-01  0.51099999109E-03 0.  1.
       11   -1    0    0    0    0 -0.00000000000E+00 -0.00000000000E+00 -0.35740347158E-01  0.35744000000E-01  0.51099999109E-03 0. -1.
       22    1    1    2    0    0 -0.11173197156E-01  0.14150216861E-01 -0.30855544283E-01  0.35737005818E-01  0.00000000000E+00 0. -1.
  9000001    1    1    2    0    0  0.11173197156E-01 -0.14150216861E-01  0.30855544283E-01  0.35750994182E-01  0.10000000475E-02 0.  1.
</event>
<event>
 4   0  0.4958067E-02  0.9118800E+02  0.7818609E-02  0.1379984E+01
      -11   -1    0    0    0    0  0.00000000000E+00  0.00000000000E+00  0.35740347158E-01  0.35744000000E-01  0.51099999109E-03 0. -1.
       11   -1    0    0    0    0 -0.00000000000E+00 -0.00000000000E+00 -0.35740347158E-01  0.35744000000E-01  0.51099999109E-03 0.  1.
       22    1    1    2    0    0 -0.30976593989E-02  0.84513334862E-02 -0.34584867405E-01  0.35737005818E-01  0.00000000000E+00 0.  1.
  9000001    1    1    2    0    0  0.30976593989E-02 -0.84513334862E-02  0.34584867405E-01  0.35750994182E-01  0.10000000475E-02 0. -1.
</event>
<event>
 4   0  0.4958067E-02  0.9118800E+02  0.7818609E-02  0.1379984E+01
      -11   -1    0    0    0    0  0.00000000000E+00  0.00000000000E+00  0.35740347158E-01  0.35744000000E-01  0.51099999109E-03 0. -1.
       11   -1    0    0    0    0 -0.00000000000E+00 -0.00000000000E+00 -0.35740347158E-01  0.35744000000E-01  0.51099999109E-03 0.  1.
       22    1    1    2    0    0 -0.78823110145E-02  0.30149091562E-01  0.17493857092E-01  0.35737005818E-01  0.00000000000E+00 0. -1.
  9000001    1    1    2    0    0  0.78823110145E-02 -0.30149091562E-01 -0.17493857092E-01  0.35750994182E-01  0.10000000475E-02 0.  1.
</event>
<event>
 4   0  0.4958067E-02  0.9118800E+02  0.7818609E-02  0.1379984E+01
      -11   -1    0    0    0    0  0.00000000000E+00  0.00000000000E+00  0.35740347158E-01  0.35744000000E-01  0.51099999109E-03 0. -1.
       11   -1    0    0    0    0 -0.00000000000E+00 -0.00000000000E+00 -0.35740347158E-01  0.35744000000E-01  0.51099999109E-03 0.  1.
       22    1    1    2    0    0 -0.11377744229E-01 -0.53642554393E-03  0.33873186575E-01  0.35737005818E-01  0.00000000000E+00 0. -1.
  9000001    1    1    2    0    0  0.11377744229E-01  0.53642554393E-03 -0.33873186575E-01  0.35750994182E-01  0.10000000475E-02 0.  1.
</event>
<event>
 4   0  0.4958067E-02  0.9118800E+02  0.7818609E-02  0.1379984E+01
      -11   -1    0    0    0    0  0.00000000000E+00  0.00000000000E+00  0.35740347158E-01  0.35744000000E-01  0.51099999109E-03 0. -1.
       11   -1    0    0    0    0 -0.00000000000E+00 -0.00000000000E+00 -0.35740347158E-01  0.35744000000E-01  0.51099999109E-03 0.  1.
       22    1    1    2    0    0  0.11521169164E-02 -0.34385883615E-02 -0.35552529046E-01  0.35737005818E-01  0.00000000000E+00 0.  1.
  9000001    1    1    2    0    0 -0.11521169164E-02  0.34385883615E-02  0.35552529046E-01  0.35750994182E-01  0.10000000475E-02 0. -1.
</event>
<event>
 4   0  0.4958067E-02  0.9118800E+02  0.7818609E-02  0.1379984E+01
      -11   -1    0    0    0    0  0.00000000000E+00  0.00000000000E+00  0.35740347158E-01  0.35744000000E-01  0.51099999109E-03 0. -1.
       11   -1    0    0    0    0 -0.00000000000E+00 -0.00000000000E+00 -0.35740347158E-01  0.35744000000E-01  0.51099999109E-03 0.  1.
       22    1    1    2    0    0  0.10916808544E-01 -0.33651173273E-01  0.50552362398E-02  0.35737005818E-01  0.00000000000E+00 0. -1.
  9000001    1    1    2    0    0 -0.10916808544E-01  0.33651173273E-01 -0.50552362398E-02  0.35750994182E-01  0.10000000475E-02 0.  1.
</event>
<event>
 4   0  0.4958067E-02  0.9118800E+02  0.7818609E-02  0.1379984E+01
      -11   -1    0    0    0    0  0.00000000000E+00  0.00000000000E+00  0.35740347158E-01  0.35744000000E-01  0.51099999109E-03 0. -1.
       11   -1    0    0    0    0 -0.00000000000E+00 -0.00000000000E+00 -0.35740347158E-01  0.35744000000E-01  0.51099999109E-03 0.  1.
       22    1    1    2    0    0 -0.22216221288E-02  0.63214531286E-02 -0.35103236465E-01  0.35737005818E-01  0.00000000000E+00 0.  1.
  9000001    1    1    2    0    0  0.22216221288E-02 -0.63214531286E-02  0.35103236465E-01  0.35750994182E-01  0.10000000475E-02 0. -1.
</event>
<event>
 4   0  0.4958067E-02  0.9118800E+02  0.7818609E-02  0.1379984E+01
      -11   -1    0    0    0    0  0.00000000000E+00  0.00000000000E+00  0.35740347158E-01  0.35744000000E-01  0.51099999109E-03 0. -1.
       11   -1    0    0    0    0 -0.00000000000E+00 -0.00000000000E+00 -0.35740347158E-01  0.35744000000E-01  0.51099999109E-03 0.  1.
       22    1    1    2    0    0  0.34265670778E-02  0.76810444085E-02 -0.34733179810E-01  0.35737005818E-01  0.00000000000E+00 0.  1.
  9000001    1    1    2    0    0 -0.34265670778E-02 -0.76810444085E-02  0.34733179810E-01  0.35750994182E-01  0.10000000475E-02 0. -1.
</event>
<event>
 4   0  0.4958067E-02  0.9118800E+02  0.7818609E-02  0.1379984E+01
      -11   -1    0    0    0    0  0.00000000000E+00  0.00000000000E+00  0.35740347158E-01  0.35744000000E-01  0.51099999109E-03 0. -1.
       11   -1    0    0    0    0 -0.00000000000E+00 -0.00000000000E+00 -0.35740347158E-01  0.35744000000E-01  0.51099999109E-03 0.  1.
       22    1    1    2    0    0 -0.43481019430E-02  0.25391107266E-02  0.35380510328E-01  0.35737005818E-01  0.00000000000E+00 0. -1.
  9000001    1    1    2    0    0  0.43481019430E-02 -0.25391107266E-02 -0.35380510328E-01  0.35750994182E-01  0.10000000475E-02 0.  1.
</event>
<event>
 4   0  0.4958067E-02  0.9118800E+02  0.7818609E-02  0.1379984E+01
      -11   -1    0    0    0    0  0.00000000000E+00  0.00000000000E+00  0.35740347158E-01  0.35744000000E-01  0.51099999109E-03 0.  1.
       11   -1    0    0    0    0 -0.00000000000E+00 -0.00000000000E+00 -0.35740347158E-01  0.35744000000E-01  0.51099999109E-03 0. -1.
       22    1    1    2    0    0  0.65367966206E-02 -0.11453727414E-02  0.35115409667E-01  0.35737005818E-01  0.00000000000E+00 0.  1.
  9000001    1    1    2    0    0 -0.65367966206E-02  0.11453727414E-02 -0.35115409667E-01  0.35750994182E-01  0.10000000475E-02 0. -1.
</event>
<event>
 4   0  0.4958067E-02  0.9118800E+02  0.7818609E-02  0.1379984E+01
      -11   -1    0    0    0    0  0.00000000000E+00  0.00000000000E+00  0.35740347158E-01  0.35744000000E-01  0.51099999109E-03 0. -1.
       11   -1    0    0    0    0 -0.00000000000E+00 -0.00000000000E+00 -0.35740347158E-01  0.35744000000E-01  0.51099999109E-03 0.  1.
       22    1    1    2    0    0  0.60602710269E-02  0.17568226940E-01  0.30524811255E-01  0.35737005818E-01  0.00000000000E+00 0. -1.
  9000001    1    1    2    0    0 -0.60602710269E-02 -0.17568226940E-01 -0.30524811255E-01  0.35750994182E-01  0.10000000475E-02 0.  1.
</event>
<event>
 4   0  0.4958067E-02  0.9118800E+02  0.7818609E-02  0.1379984E+01
      -11   -1    0    0    0    0  0.00000000000E+00  0.00000000000E+00  0.35740347158E-01  0.35744000000E-01  0.51099999109E-03 0. -1.
       11   -1    0    0    0    0 -0.00000000000E+00 -0.00000000000E+00 -0.35740347158E-01  0.35744000000E-01  0.51099999109E-03 0.  1.
       22    1    1    2    0    0  0.12012858734E-01  0.27768454696E-02 -0.33542718124E-01  0.35737005818E-01  0.00000000000E+00 0.  1.
  9000001    1    1    2    0    0 -0.12012858734E-01 -0.27768454696E-02  0.33542718124E-01  0.35750994182E-01  0.10000000475E-02 0. -1.
</event>
<event>
 4   0  0.4958067E-02  0.9118800E+02  0.7818609E-02  0.1379984E+01
      -11   -1    0    0    0    0  0.00000000000E+00  0.00000000000E+00  0.35740347158E-01  0.35744000000E-01  0.51099999109E-03 0.  1.
       11   -1    0    0    0    0 -0.00000000000E+00 -0.00000000000E+00 -0.35740347158E-01  0.35744000000E-01  0.51099999109E-03 0. -1.
       22    1    1    2    0    0 -0.15008962320E-02 -0.62337607267E-02 -0.35157092067E-01  0.35737005818E-01  0.00000000000E+00 0. -1.
  9000001    1    1    2    0    0  0.15008962320E-02  0.62337607267E-02  0.35157092067E-01  0.35750994182E-01  0.10000000475E-02 0.  1.
</event>
<event>
 4   0  0.4958067E-02  0.9118800E+02  0.7818609E-02  0.1379984E+01
      -11   -1    0    0    0    0  0.00000000000E+00  0.00000000000E+00  0.35740347158E-01  0.35744000000E-01  0.51099999109E-03 0. -1.
       11   -1    0    0    0    0 -0.00000000000E+00 -0.00000000000E+00 -0.35740347158E-01  0.35744000000E-01  0.51099999109E-03 0.  1.
       22    1    1    2    0    0 -0.97934609939E-02  0.12864708683E-01  0.31870377738E-01  0.35737005818E-01  0.00000000000E+00 0. -1.
  9000001    1    1    2    0    0  0.97934609939E-02 -0.12864708683E-01 -0.31870377738E-01  0.35750994182E-01  0.10000000475E-02 0.  1.
</event>
<event>
 4   0  0.4958067E-02  0.9118800E+02  0.7818609E-02  0.1379984E+01
      -11   -1    0    0    0    0  0.00000000000E+00  0.00000000000E+00  0.35740347158E-01  0.35744000000E-01  0.51099999109E-03 0.  1.
       11   -1    0    0    0    0 -0.00000000000E+00 -0.00000000000E+00 -0.35740347158E-01  0.35744000000E-01  0.51099999109E-03 0. -1.
       22    1    1    2    0    0 -0.89875575545E-02 -0.12070833698E-01  0.32413768184E-01  0.35737005818E-01  0.00000000000E+00 0.  1.
  9000001    1    1    2    0    0  0.89875575545E-02  0.12070833698E-01 -0.32413768184E-01  0.35750994182E-01  0.10000000475E-02 0. -1.
</event>
<event>
 4   0  0.4958067E-02  0.9118800E+02  0.7818609E-02  0.1379984E+01
      -11   -1    0    0    0    0  0.00000000000E+00  0.00000000000E+00  0.35740347158E-01  0.35744000000E-01  0.51099999109E-03 0. -1.
       11   -1    0    0    0    0 -0.00000000000E+00 -0.00000000000E+00 -0.35740347158E-01  0.35744000000E-01  0.51099999109E-03 0.  1.
       22    1    1    2    0    0  0.82912166909E-02  0.19209111165E-01  0.28972389596E-01  0.35737005818E-01  0.00000000000E+00 0. -1.
  9000001    1    1    2    0    0 -0.82912166909E-02 -0.19209111165E-01 -0.28972389596E-01  0.35750994182E-01  0.10000000475E-02 0.  1.
</event>
<event>
 4   0  0.4958067E-02  0.9118800E+02  0.7818609E-02  0.1379984E+01
      -11   -1    0    0    0    0  0.00000000000E+00  0.00000000000E+00  0.35740347158E-01  0.35744000000E-01  0.51099999109E-03 0.  1.
       11   -1    0    0    0    0 -0.00000000000E+00 -0.00000000000E+00 -0.35740347158E-01  0.35744000000E-01  0.51099999109E-03 0. -1.
       22    1    1    2    0    0 -0.70117074562E-02  0.52500485817E-02  0.34646883457E-01  0.35737005818E-01  0.00000000000E+00 0.  1.
  9000001    1    1    2    0    0  0.70117074562E-02 -0.52500485817E-02 -0.34646883457E-01  0.35750994182E-01  0.10000000475E-02 0. -1.
</event>
<event>
 4   0  0.4958067E-02  0.9118800E+02  0.7818609E-02  0.1379984E+01
      -11   -1    0    0    0    0  0.00000000000E+00  0.00000000000E+00  0.35740347158E-01  0.35744000000E-01  0.51099999109E-03 0. -1.
       11   -1    0    0    0    0 -0.00000000000E+00 -0.00000000000E+00 -0.35740347158E-01  0.35744000000E-01  0.51099999109E-03 0.  1.
       22    1    1    2    0    0  0.11772822914E-01 -0.31472232790E-02 -0.33595077186E-01  0.35737005818E-01  0.00000000000E+00 0.  1.
  9000001    1    1    2    0    0 -0.11772822914E-01  0.31472232790E-02  0.33595077186E-01  0.35750994182E-01  0.10000000475E-02 0. -1.
</event>
<event>
 4   0  0.4958067E-02  0.9118800E+02  0.7818609E-02  0.1379984E+01
      -11   -1    0    0    0    0  0.00000000000E+00  0.00000000000E+00  0.35740347158E-01  0.35744000000E-01  0.51099999109E-03 0.  1.
       11   -1    0    0    0    0 -0.00000000000E+00 -0.00000000000E+00 -0.35740347158E-01  0.35744000000E-01  0.51099999109E-03 0. -1.
       22    1    1    2    0    0  0.28353456374E-02  0.14355719551E-02 -0.35595414496E-01  0.35737005818E-01  0.00000000000E+00 0. -1.
  9000001    1    1    2    0    0 -0.28353456374E-02 -0.14355719551E-02  0.35595414496E-01  0.35750994182E-01  0.10000000475E-02 0.  1.
</event>
<event>
 4   0  0.4958067E-02  0.9118800E+02  0.7818609E-02  0.1379984E+01
      -11   -1    0    0    0    0  0.00000000000E+00  0.00000000000E+00  0.35740347158E-01  0.35744000000E-01  0.51099999109E-03 0. -1.
       11   -1    0    0    0    0 -0.00000000000E+00 -0.00000000000E+00 -0.35740347158E-01  0.35744000000E-01  0.51099999109E-03 0.  1.
       22    1    1    2    0    0  0.23587697186E-01  0.13317744704E-01  0.23310765804E-01  0.35737005818E-01  0.00000000000E+00 0. -1.
  9000001    1    1    2    0    0 -0.23587697186E-01 -0.13317744704E-01 -0.23310765804E-01  0.35750994182E-01  0.10000000475E-02 0.  1.
</event>
<event>
 4   0  0.4958067E-02  0.9118800E+02  0.7818609E-02  0.1379984E+01
      -11   -1    0    0    0    0  0.00000000000E+00  0.00000000000E+00  0.35740347158E-01  0.35744000000E-01  0.51099999109E-03 0.  1.
       11   -1    0    0    0    0 -0.00000000000E+00 -0.00000000000E+00 -0.35740347158E-01  0.35744000000E-01  0.51099999109E-03 0. -1.
       22    1    1    2    0    0 -0.54153831464E-02 -0.30168038719E-02  0.35195256849E-01  0.35737005818E-01  0.00000000000E+00 0.  1.
  9000001    1    1    2    0    0  0.54153831464E-02  0.30168038719E-02 -0.35195256849E-01  0.35750994182E-01  0.10000000475E-02 0. -1.
</event>
<event>
 4   0  0.4958067E-02  0.9118800E+02  0.7818609E-02  0.1379984E+01
      -11   -1    0    0    0    0  0.00000000000E+00  0.00000000000E+00  0.35740347158E-01  0.35744000000E-01  0.51099999109E-03 0. -1.
       11   -1    0    0    0    0 -0.00000000000E+00 -0.00000000000E+00 -0.35740347158E-01  0.35744000000E-01  0.51099999109E-03 0.  1.
       22    1    1    2    0    0 -0.26402528842E-02  0.70239722248E-02  0.34940327185E-01  0.35737005818E-01  0.00000000000E+00 0. -1.
  9000001    1    1    2    0    0  0.26402528842E-02 -0.70239722248E-02 -0.34940327185E-01  0.35750994182E-01  0.10000000475E-02 0.  1.
</event>
<event>
 4   0  0.4958067E-02  0.9118800E+02  0.7818609E-02  0.1379984E+01
      -11   -1    0    0    0    0  0.00000000000E+00  0.00000000000E+00  0.35740347158E-01  0.35744000000E-01  0.51099999109E-03 0. -1.
       11   -1    0    0    0    0 -0.00000000000E+00 -0.00000000000E+00 -0.35740347158E-01  0.35744000000E-01  0.51099999109E-03 0.  1.
       22    1    1    2    0    0 -0.21696301625E-01  0.56970366325E-02 -0.27819918301E-01  0.35737005818E-01  0.00000000000E+00 0.  1.
  9000001    1    1    2    0    0  0.21696301625E-01 -0.56970366325E-02  0.27819918301E-01  0.35750994182E-01  0.10000000475E-02 0. -1.
</event>
<event>
 4   0  0.4958067E-02  0.9118800E+02  0.7818609E-02  0.1379984E+01
      -11   -1    0    0    0    0  0.00000000000E+00  0.00000000000E+00  0.35740347158E-01  0.35744000000E-01  0.51099999109E-03 0.  1.
       11   -1    0    0    0    0 -0.00000000000E+00 -0.00000000000E+00 -0.35740347158E-01  0.35744000000E-01  0.51099999109E-03 0. -1.
       22    1    1    2    0    0 -0.18277294491E-01  0.40851566773E-02  0.30436583019E-01  0.35737005818E-01  0.00000000000E+00 0.  1.
  9000001    1    1    2    0    0  0.18277294491E-01 -0.40851566773E-02 -0.30436583019E-01  0.35750994182E-01  0.10000000475E-02 0. -1.
</event>
<event>
 4   0  0.4958067E-02  0.9118800E+02  0.7818609E-02  0.1379984E+01
      -11   -1    0    0    0    0  0.00000000000E+00  0.00000000000E+00  0.35740347158E-01  0.35744000000E-01  0.51099999109E-03 0.  1.
       11   -1    0    0    0    0 -0.00000000000E+00 -0.00000000000E+00 -0.35740347158E-01  0.35744000000E-01  0.51099999109E-03 0. -1.
       22    1    1    2    0    0 -0.21350209047E-02  0.36830641434E-02  0.35482535269E-01  0.35737005818E-01  0.00000000000E+00 0.  1.
  9000001    1    1    2    0    0  0.21350209047E-02 -0.36830641434E-02 -0.35482535269E-01  0.35750994182E-01  0.10000000475E-02 0. -1.
</event>
<event>
 4   0  0.4958067E-02  0.9118800E+02  0.7818609E-02  0.1379984E+01
      -11   -1    0    0    0    0  0.00000000000E+00  0.00000000000E+00  0.35740347158E-01  0.35744000000E-01  0.51099999109E-03 0.  1.
       11   -1    0    0    0    0 -0.00000000000E+00 -0.00000000000E+00 -0.35740347158E-01  0.35744000000E-01  0.51099999109E-03 0. -1.
       22    1    1    2    0    0  0.64461982215E-02  0.56547950874E-02 -0.34692987849E-01  0.35737005818E-01  0.00000000000E+00 0. -1.
  9000001    1    1    2    0    0 -0.64461982215E-02 -0.56547950874E-02  0.34692987849E-01  0.35750994182E-01  0.10000000475E-02 0.  1.
</event>
<event>
 4   0  0.4958067E-02  0.9118800E+02  0.7818609E-02  0.1379984E+01
      -11   -1    0    0    0    0  0.00000000000E+00  0.00000000000E+00  0.35740347158E-01  0.35744000000E-01  0.51099999109E-03 0. -1.
       11   -1    0    0    0    0 -0.00000000000E+00 -0.00000000000E+00 -0.35740347158E-01  0.35744000000E-01  0.51099999109E-03 0.  1.
       22    1    1    2    0    0 -0.12436376395E-01  0.15834409306E-01 -0.29525270684E-01  0.35737005818E-01  0.00000000000E+00 0.  1.
  9000001    1    1    2    0    0  0.12436376395E-01 -0.15834409306E-01  0.29525270684E-01  0.35750994182E-01  0.10000000475E-02 0. -1.
</event>
<event>
 4   0  0.4958067E-02  0.9118800E+02  0.7818609E-02  0.1379984E+01
      -11   -1    0    0    0    0  0.00000000000E+00  0.00000000000E+00  0.35740347158E-01  0.35744000000E-01  0.51099999109E-03 0.  1.
       11   -1    0    0    0    0 -0.00000000000E+00 -0.00000000000E+00 -0.35740347158E-01  0.35744000000E-01  0.51099999109E-03 0. -1.
       22    1    1    2    0    0 -0.91766455529E-02  0.91090639560E-03  0.34526699970E-01  0.35737005818E-01  0.00000000000E+00 0.  1.
  9000001    1    1    2    0    0  0.91766455529E-02 -0.91090639560E-03 -0.34526699970E-01  0.35750994182E-01  0.10000000475E-02 0. -1.
</event>
<event>
 4   0  0.4958067E-02  0.9118800E+02  0.7818609E-02  0.1379984E+01
      -11   -1    0    0    0    0  0.00000000000E+00  0.00000000000E+00  0.35740347158E-01  0.35744000000E-01  0.51099999109E-03 0.  1.
       11   -1    0    0    0    0 -0.00000000000E+00 -0.00000000000E+00 -0.35740347158E-01  0.35744000000E-01  0.51099999109E-03 0. -1.
       22    1    1    2    0    0  0.81514203737E-03  0.71993721016E-02 -0.34994830614E-01  0.35737005818E-01  0.00000000000E+00 0. -1.
  9000001    1    1    2    0    0 -0.81514203737E-03 -0.71993721016E-02  0.34994830614E-01  0.35750994182E-01  0.10000000475E-02 0.  1.
</event>
<event>
 4   0  0.4958067E-02  0.9118800E+02  0.7818609E-02  0.1379984E+01
      -11   -1    0    0    0    0  0.00000000000E+00  0.00000000000E+00  0.35740347158E-01  0.35744000000E-01  0.51099999109E-03 0.  1.
       11   -1    0    0    0    0 -0.00000000000E+00 -0.00000000000E+00 -0.35740347158E-01  0.35744000000E-01  0.51099999109E-03 0. -1.
       22    1    1    2    0    0  0.15395042205E-02  0.25984350247E-02  0.35609151170E-01  0.35737005818E-01  0.00000000000E+00 0.  1.
  9000001    1    1    2    0    0 -0.15395042205E-02 -0.25984350247E-02 -0.35609151170E-01  0.35750994182E-01  0.10000000475E-02 0. -1.
</event>
<event>
 4   0  0.4958067E-02  0.9118800E+02  0.7818609E-02  0.1379984E+01
      -11   -1    0    0    0    0  0.00000000000E+00  0.00000000000E+00  0.35740347158E-01  0.35744000000E-01  0.51099999109E-03 0. -1.
       11   -1    0    0    0    0 -0.00000000000E+00 -0.00000000000E+00 -0.35740347158E-01  0.35744000000E-01  0.51099999109E-03 0.  1.
       22    1    1    2    0    0  0.16582288211E-02  0.35557125663E-01  0.31740631060E-02  0.35737005818E-01  0.00000000000E+00 0. -1.
  9000001    1    1    2    0    0 -0.16582288211E-02 -0.35557125663E-01 -0.31740631060E-02  0.35750994182E-01  0.10000000475E-02 0.  1.
</event>
<event>
 4   0  0.4958067E-02  0.9118800E+02  0.7818609E-02  0.1379984E+01
      -11   -1    0    0    0    0  0.00000000000E+00  0.00000000000E+00  0.35740347158E-01  0.35744000000E-01  0.51099999109E-03 0. -1.
       11   -1    0    0    0    0 -0.00000000000E+00 -0.00000000000E+00 -0.35740347158E-01  0.35744000000E-01  0.51099999109E-03 0.  1.
       22    1    1    2    0    0 -0.16866495217E-01 -0.24960092810E-01 -0.19226250048E-01  0.35737005818E-01  0.00000000000E+00 0.  1.
  9000001    1    1    2    0    0  0.16866495217E-01  0.24960092810E-01  0.19226250048E-01  0.35750994182E-01  0.10000000475E-02 0. -1.
</event>
<event>
 4   0  0.4958067E-02  0.9118800E+02  0.7818609E-02  0.1379984E+01
      -11   -1    0    0    0    0  0.00000000000E+00  0.00000000000E+00  0.35740347158E-01  0.35744000000E-01  0.51099999109E-03 0.  1.
       11   -1    0    0    0    0 -0.00000000000E+00 -0.00000000000E+00 -0.35740347158E-01  0.35744000000E-01  0.51099999109E-03 0. -1.
       22    1    1    2    0    0  0.10004769050E-01  0.23500879918E-01  0.24994935972E-01  0.35737005818E-01  0.00000000000E+00 0.  1.
  9000001    1    1    2    0    0 -0.10004769050E-01 -0.23500879918E-01 -0.24994935972E-01  0.35750994182E-01  0.10000000475E-02 0. -1.
</event>
<event>
 4   0  0.4958067E-02  0.9118800E+02  0.7818609E-02  0.1379984E+01
      -11   -1    0    0    0    0  0.00000000000E+00  0.00000000000E+00  0.35740347158E-01  0.35744000000E-01  0.51099999109E-03 0. -1.
       11   -1    0    0    0    0 -0.00000000000E+00 -0.00000000000E+00 -0.35740347158E-01  0.35744000000E-01  0.51099999109E-03 0.  1.
       22    1    1    2    0    0 -0.27924833440E-03  0.58249114537E-02  0.35257992169E-01  0.35737005818E-01  0.00000000000E+00 0. -1.
  9000001    1    1    2    0    0  0.27924833440E-03 -0.58249114537E-02 -0.35257992169E-01  0.35750994182E-01  0.10000000475E-02 0.  1.
</event>
<event>
 4   0  0.4958067E-02  0.9118800E+02  0.7818609E-02  0.1379984E+01
      -11   -1    0    0    0    0  0.00000000000E+00  0.00000000000E+00  0.35740347158E-01  0.35744000000E-01  0.51099999109E-03 0. -1.
       11   -1    0    0    0    0 -0.00000000000E+00 -0.00000000000E+00 -0.35740347158E-01  0.35744000000E-01  0.51099999109E-03 0.  1.
       22    1    1    2    0    0  0.97747542283E-02  0.15345799285E-01 -0.30758644459E-01  0.35737005818E-01  0.00000000000E+00 0.  1.
  9000001    1    1    2    0    0 -0.97747542283E-02 -0.15345799285E-01  0.30758644459E-01  0.35750994182E-01  0.10000000475E-02 0. -1.
</event>
<event>
 4   0  0.4958067E-02  0.9118800E+02  0.7818609E-02  0.1379984E+01
      -11   -1    0    0    0    0  0.00000000000E+00  0.00000000000E+00  0.35740347158E-01  0.35744000000E-01  0.51099999109E-03 0. -1.
       11   -1    0    0    0    0 -0.00000000000E+00 -0.00000000000E+00 -0.35740347158E-01  0.35744000000E-01  0.51099999109E-03 0.  1.
       22    1    1    2    0    0  0.11536607350E-02  0.36428000909E-02  0.35532135586E-01  0.35737005818E-01  0.00000000000E+00 0. -1.
  9000001    1    1    2    0    0 -0.11536607350E-02 -0.36428000909E-02 -0.35532135586E-01  0.35750994182E-01  0.10000000475E-02 0.  1.
</event>
<event>
 4   0  0.4958067E-02  0.9118800E+02  0.7818609E-02  0.1379984E+01
      -11   -1    0    0    0    0  0.00000000000E+00  0.00000000000E+00  0.35740347158E-01  0.35744000000E-01  0.51099999109E-03 0. -1.
       11   -1    0    0    0    0 -0.00000000000E+00 -0.00000000000E+00 -0.35740347158E-01  0.35744000000E-01  0.51099999109E-03 0.  1.
       22    1    1    2    0    0 -0.60019236594E-02  0.35755128712E-02  0.35047485002E-01  0.35737005818E-01  0.00000000000E+00 0. -1.
  9000001    1    1    2    0    0  0.60019236594E-02 -0.35755128712E-02 -0.35047485002E-01  0.35750994182E-01  0.10000000475E-02 0.  1.
</event>
<event>
 4   0  0.4958067E-02  0.9118800E+02  0.7818609E-02  0.1379984E+01
      -11   -1    0    0    0    0  0.00000000000E+00  0.00000000000E+00  0.35740347158E-01  0.35744000000E-01  0.51099999109E-03 0.  1.
       11   -1    0    0    0    0 -0.00000000000E+00 -0.00000000000E+00 -0.35740347158E-01  0.35744000000E-01  0.51099999109E-03 0. -1.
       22    1    1    2    0    0 -0.24940264063E-02 -0.38394401470E-02 -0.35442518484E-01  0.35737005818E-01  0.00000000000E+00 0. -1.
  9000001    1    1    2    0    0  0.24940264063E-02  0.38394401470E-02  0.35442518484E-01  0.35750994182E-01  0.10000000475E-02 0.  1.
</event>
<event>
 4   0  0.4958067E-02  0.9118800E+02  0.7818609E-02  0.1379984E+01
      -11   -1    0    0    0    0  0.00000000000E+00  0.00000000000E+00  0.35740347158E-01  0.35744000000E-01  0.51099999109E-03 0.  1.
       11   -1    0    0    0    0 -0.00000000000E+00 -0.00000000000E+00 -0.35740347158E-01  0.35744000000E-01  0.51099999109E-03 0. -1.
       22    1    1    2    0    0 -0.14303935761E-01  0.15054925266E-01  0.29084020215E-01  0.35737005818E-01  0.00000000000E+00 0.  1.
  9000001    1    1    2    0    0  0.14303935761E-01 -0.15054925266E-01 -0.29084020215E-01  0.35750994182E-01  0.10000000475E-02 0. -1.
</event>
<event>
 4   0  0.4958067E-02  0.9118800E+02  0.7818609E-02  0.1379984E+01
      -11   -1    0    0    0    0  0.00000000000E+00  0.00000000000E+00  0.35740347158E-01  0.35744000000E-01  0.51099999109E-03 0.  1.
       11   -1    0    0    0    0 -0.00000000000E+00 -0.00000000000E+00 -0.35740347158E-01  0.35744000000E-01  0.51099999109E-03 0. -1.
       22    1    1    2    0    0 -0.31592099515E-03 -0.41196468668E-02 -0.35497356077E-01  0.35737005818E-01  0.00000000000E+00 0. -1.
  9000001    1    1    2    0    0  0.31592099515E-03  0.41196468668E-02  0.35497356077E-01  0.35750994182E-01  0.10000000475E-02 0.  1.
</event>
<event>
 4   0  0.4958067E-02  0.9118800E+02  0.7818609E-02  0.1379984E+01
      -11   -1    0    0    0    0  0.00000000000E+00  0.00000000000E+00  0.35740347158E-01  0.35744000000E-01  0.51099999109E-03 0. -1.
       11   -1    0    0    0    0 -0.00000000000E+00 -0.00000000000E+00 -0.35740347158E-01  0.35744000000E-01  0.51099999109E-03 0.  1.
       22    1    1    2    0    0  0.15027250050E-01  0.16216706679E-01 -0.28077282014E-01  0.35737005818E-01  0.00000000000E+00 0.  1.
  9000001    1    1    2    0    0 -0.15027250050E-01 -0.16216706679E-01  0.28077282014E-01  0.35750994182E-01  0.10000000475E-02 0. -1.
</event>
<event>
 4   0  0.4958067E-02  0.9118800E+02  0.7818609E-02  0.1379984E+01
      -11   -1    0    0    0    0  0.00000000000E+00  0.00000000000E+00  0.35740347158E-01  0.35744000000E-01  0.51099999109E-03 0.  1.
       11   -1    0    0    0    0 -0.00000000000E+00 -0.00000000000E+00 -0.35740347158E-01  0.35744000000E-01  0.51099999109E-03 0. -1.
       22    1    1    2    0    0 -0.13364985604E-01  0.10517805919E-01 -0.31430661834E-01  0.35737005818E-01  0.00000000000E+00 0. -1.
  9000001    1    1    2    0    0  0.13364985604E-01 -0.10517805919E-01  0.31430661834E-01  0.35750994182E-01  0.10000000475E-02 0.  1.
</event>
<event>
 4   0  0.4958067E-02  0.9118800E+02  0.7818609E-02  0.1379984E+01
      -11   -1    0    0    0    0  0.00000000000E+00  0.00000000000E+00  0.35740347158E-01  0.35744000000E-01  0.51099999109E-03 0.  1.
       11   -1    0    0    0    0 -0.00000000000E+00 -0.00000000000E+00 -0.35740347158E-01  0.35744000000E-01  0.51099999109E-03 0. -1.
       22    1    1    2    0    0  0.42137054541E-02  0.28413854443E-01  0.21261024127E-01  0.35737005818E-01  0.00000000000E+00 0.  1.
  9000001    1    1    2    0    0 -0.42137054541E-02 -0.28413854443E-01 -0.21261024127E-01  0.35750994182E-01  0.10000000475E-02 0. -1.
</event>
<event>
 4   0  0.4958067E-02  0.9118800E+02  0.7818609E-02  0.1379984E+01
      -11   -1    0    0    0    0  0.00000000000E+00  0.00000000000E+00  0.35740347158E-01  0.35744000000E-01  0.51099999109E-03 0.  1.
       11   -1    0    0    0    0 -0.00000000000E+00 -0.00000000000E+00 -0.35740347158E-01  0.35744000000E-01  0.51099999109E-03 0. -1.
       22    1    1    2    0    0 -0.87658465958E-02 -0.33422606001E-01 -0.91226600524E-02  0.35737005818E-01  0.00000000000E+00 0. -1.
  9000001    1    1    2    0    0  0.87658465958E-02  0.33422606001E-01  0.91226600524E-02  0.35750994182E-01  0.10000000475E-02 0.  1.
</event>
<event>
 4   0  0.4958067E-02  0.9118800E+02  0.7818609E-02  0.1379984E+01
      -11   -1    0    0    0    0  0.00000000000E+00  0.00000000000E+00  0.35740347158E-01  0.35744000000E-01  0.51099999109E-03 0. -1.
       11   -1    0    0    0    0 -0.00000000000E+00 -0.00000000000E+00 -0.35740347158E-01  0.35744000000E-01  0.51099999109E-03 0.  1.
       22    1    1    2    0    0 -0.48051279463E-02 -0.20814692970E-01  0.28649483186E-01  0.35737005818E-01  0.00000000000E+00 0. -1.
  9000001    1    1    2    0    0  0.48051279463E-02  0.20814692970E-01 -0.28649483186E-01  0.35750994182E-01  0.10000000475E-02 0.  1.
</event>
<event>
 4   0  0.4958067E-02  0.9118800E+02  0.7818609E-02  0.1379984E+01
      -11   -1    0    0    0    0  0.00000000000E+00  0.00000000000E+00  0.35740347158E-01  0.35744000000E-01  0.51099999109E-03 0.  1.
       11   -1    0    0    0    0 -0.00000000000E+00 -0.00000000000E+00 -0.35740347158E-01  0.35744000000E-01  0.51099999109E-03 0. -1.
       22    1    1    2    0    0  0.34022160277E-02 -0.14435866463E-01 -0.32514062656E-01  0.35737005818E-01  0.00000000000E+00 0. -1.
  9000001    1    1    2    0    0 -0.34022160277E-02  0.14435866463E-01  0.32514062656E-01  0.35750994182E-01  0.10000000475E-02 0.  1.
</event>
<event>
 4   0  0.4958067E-02  0.9118800E+02  0.7818609E-02  0.1379984E+01
      -11   -1    0    0    0    0  0.00000000000E+00  0.00000000000E+00  0.35740347158E-01  0.35744000000E-01  0.51099999109E-03 0. -1.
       11   -1    0    0    0    0 -0.00000000000E+00 -0.00000000000E+00 -0.35740347158E-01  0.35744000000E-01  0.51099999109E-03 0.  1.
       22    1    1    2    0    0  0.74829851630E-02 -0.15403091656E-01 -0.31366913864E-01  0.35737005818E-01  0.00000000000E+00 0.  1.
  9000001    1    1    2    0    0 -0.74829851630E-02  0.15403091656E-01  0.31366913864E-01  0.35750994182E-01  0.10000000475E-02 0. -1.
</event>
<event>
 4   0  0.4958067E-02  0.9118800E+02  0.7818609E-02  0.1379984E+01
      -11   -1    0    0    0    0  0.00000000000E+00  0.00000000000E+00  0.35740347158E-01  0.35744000000E-01  0.51099999109E-03 0. -1.
       11   -1    0    0    0    0 -0.00000000000E+00 -0.00000000000E+00 -0.35740347158E-01  0.35744000000E-01  0.51099999109E-03 0.  1.
       22    1    1    2    0    0 -0.56072038956E-02  0.13054123815E-01 -0.32791503485E-01  0.35737005818E-01  0.00000000000E+00 0.  1.
  9000001    1    1    2    0    0  0.56072038956E-02 -0.13054123815E-01  0.32791503485E-01  0.35750994182E-01  0.10000000475E-02 0. -1.
</event>
<event>
 4   0  0.4958067E-02  0.9118800E+02  0.7818609E-02  0.1379984E+01
      -11   -1    0    0    0    0  0.00000000000E+00  0.00000000000E+00  0.35740347158E-01  0.35744000000E-01  0.51099999109E-03 0.  1.
       11   -1    0    0    0    0 -0.00000000000E+00 -0.00000000000E+00 -0.35740347158E-01  0.35744000000E-01  0.51099999109E-03 0. -1.
       22    1    1    2    0    0 -0.50931413900E-02 -0.41936614631E-02  0.35122737638E-01  0.35737005818E-01  0.00000000000E+00 0.  1.
  9000001    1    1    2    0    0  0.50931413900E-02  0.41936614631E-02 -0.35122737638E-01  0.35750994182E-01  0.10000000475E-02 0. -1.
</event>
<event>
 4   0  0.4958067E-02  0.9118800E+02  0.7818609E-02  0.1379984E+01
      -11   -1    0    0    0    0  0.00000000000E+00  0.00000000000E+00  0.35740347158E-01  0.35744000000E-01  0.51099999109E-03 0.  1.
       11   -1    0    0    0    0 -0.00000000000E+00 -0.00000000000E+00 -0.35740347158E-01  0.35744000000E-01  0.51099999109E-03 0. -1.
       22    1    1    2    0    0  0.53062850709E-02  0.39912629546E-03  0.35338613751E-01  0.35737005818E-01  0.00000000000E+00 0.  1.
  9000001    1    1    2    0    0 -0.53062850709E-02 -0.39912629546E-03 -0.35338613751E-01  0.35750994182E-01  0.10000000475E-02 0. -1.
</event>
<event>
 4   0  0.4958067E-02  0.9118800E+02  0.7818609E-02  0.1379984E+01
      -11   -1    0    0    0    0  0.00000000000E+00  0.00000000000E+00  0.35740347158E-01  0.35744000000E-01  0.51099999109E-03 0. -1.
       11   -1    0    0    0    0 -0.00000000000E+00 -0.00000000000E+00 -0.35740347158E-01  0.35744000000E-01  0.51099999109E-03 0.  1.
       22    1    1    2    0    0 -0.28188674883E-01 -0.20431322143E-01 -0.80680399562E-02  0.35737005818E-01  0.00000000000E+00 0.  1.
  9000001    1    1    2    0    0  0.28188674883E-01  0.20431322143E-01  0.80680399562E-02  0.35750994182E-01  0.10000000475E-02 0. -1.
</event>
<event>
 4   0  0.4958067E-02  0.9118800E+02  0.7818609E-02  0.1379984E+01
      -11   -1    0    0    0    0  0.00000000000E+00  0.00000000000E+00  0.35740347158E-01  0.35744000000E-01  0.51099999109E-03 0. -1.
       11   -1    0    0    0    0 -0.00000000000E+00 -0.00000000000E+00 -0.35740347158E-01  0.35744000000E-01  0.51099999109E-03 0.  1.
       22    1    1    2    0    0 -0.31062708717E-02 -0.14255990732E-01 -0.32622866128E-01  0.35737005818E-01  0.00000000000E+00 0.  1.
  9000001    1    1    2    0    0  0.31062708717E-02  0.14255990732E-01  0.32622866128E-01  0.35750994182E-01  0.10000000475E-02 0. -1.
</event>
<event>
 4   0  0.4958067E-02  0.9118800E+02  0.7818609E-02  0.1379984E+01
      -11   -1    0    0    0    0  0.00000000000E+00  0.00000000000E+00  0.35740347158E-01  0.35744000000E-01  0.51099999109E-03 0. -1.
       11   -1    0    0    0    0 -0.00000000000E+00 -0.00000000000E+00 -0.35740347158E-01  0.35744000000E-01  0.51099999109E-03 0.  1.
       22    1    1    2    0    0  0.37483730137E-02 -0.14446051330E-02  0.35510511129E-01  0.35737005818E-01  0.00000000000E+00 0. -1.
  9000001    1    1    2    0    0 -0.37483730137E-02  0.14446051330E-02 -0.35510511129E-01  0.35750994182E-01  0.10000000475E-02 0.  1.
</event>
<event>
 4   0  0.4958067E-02  0.9118800E+02  0.7818609E-02  0.1379984E+01
      -11   -1    0    0    0    0  0.00000000000E+00  0.00000000000E+00  0.35740347158E-01  0.35744000000E-01  0.51099999109E-03 0. -1.
       11   -1    0    0    0    0 -0.00000000000E+00 -0.00000000000E+00 -0.35740347158E-01  0.35744000000E-01  0.51099999109E-03 0.  1.
       22    1    1    2    0    0 -0.11585807124E-01  0.16346931436E-01 -0.29591899074E-01  0.35737005818E-01  0.00000000000E+00 0.  1.
  9000001    1    1    2    0    0  0.11585807124E-01 -0.16346931436E-01  0.29591899074E-01  0.35750994182E-01  0.10000000475E-02 0. -1.
</event>
<event>
 4   0  0.4958067E-02  0.9118800E+02  0.7818609E-02  0.1379984E+01
      -11   -1    0    0    0    0  0.00000000000E+00  0.00000000000E+00  0.35740347158E-01  0.35744000000E-01  0.51099999109E-03 0. -1.
       11   -1    0    0    0    0 -0.00000000000E+00 -0.00000000000E+00 -0.35740347158E-01  0.35744000000E-01  0.51099999109E-03 0.  1.
       22    1    1    2    0    0  0.19461771059E-02 -0.43286437111E-02 -0.35420457693E-01  0.35737005818E-01  0.00000000000E+00 0.  1.
  9000001    1    1    2    0    0 -0.19461771059E-02  0.43286437111E-02  0.35420457693E-01  0.35750994182E-01  0.10000000475E-02 0. -1.
</event>
<event>
 4   0  0.4958067E-02  0.9118800E+02  0.7818609E-02  0.1379984E+01
      -11   -1    0    0    0    0  0.00000000000E+00  0.00000000000E+00  0.35740347158E-01  0.35744000000E-01  0.51099999109E-03 0. -1.
       11   -1    0    0    0    0 -0.00000000000E+00 -0.00000000000E+00 -0.35740347158E-01  0.35744000000E-01  0.51099999109E-03 0.  1.
       22    1    1    2    0    0  0.44549690366E-02  0.11320590987E-01  0.33602545372E-01  0.35737005818E-01  0.00000000000E+00 0. -1.
  9000001    1    1    2    0    0 -0.44549690366E-02 -0.11320590987E-01 -0.33602545372E-01  0.35750994182E-01  0.10000000475E-02 0.  1.
</event>
<event>
 4   0  0.4958067E-02  0.9118800E+02  0.7818609E-02  0.1379984E+01
      -11   -1    0    0    0    0  0.00000000000E+00  0.00000000000E+00  0.35740347158E-01  0.35744000000E-01  0.51099999109E-03 0.  1.
       11   -1    0    0    0    0 -0.00000000000E+00 -0.00000000000E+00 -0.35740347158E-01  0.35744000000E-01  0.51099999109E-03 0. -1.
       22    1    1    2    0    0  0.10251000685E-01  0.86757112738E-03  0.34224229577E-01  0.35737005818E-01  0.00000000000E+00 0.  1.
  9000001    1    1    2    0    0 -0.10251000685E-01 -0.86757112738E-03 -0.34224229577E-01  0.35750994182E-01  0.10000000475E-02 0. -1.
</event>
<event>
 4   0  0.4958067E-02  0.9118800E+02  0.7818609E-02  0.1379984E+01
      -11   -1    0    0    0    0  0.00000000000E+00  0.00000000000E+00  0.35740347158E-01  0.35744000000E-01  0.51099999109E-03 0. -1.
       11   -1    0    0    0    0 -0.00000000000E+00 -0.00000000000E+00 -0.35740347158E-01  0.35744000000E-01  0.51099999109E-03 0.  1.
       22    1    1    2    0    0 -0.39110119075E-02  0.79812366780E-02  0.34614121855E-01  0.35737005818E-01  0.00000000000E+00 0. -1.
  9000001    1    1    2    0    0  0.39110119075E-02 -0.79812366780E-02 -0.34614121855E-01  0.35750994182E-01  0.10000000475E-02 0.  1.
</event>
<event>
 4   0  0.4958067E-02  0.9118800E+02  0.7818609E-02  0.1379984E+01
      -11   -1    0    0    0    0  0.00000000000E+00  0.00000000000E+00  0.35740347158E-01  0.35744000000E-01  0.51099999109E-03 0.  1.
       11   -1    0    0    0    0 -0.00000000000E+00 -0.00000000000E+00 -0.35740347158E-01  0.35744000000E-01  0.51099999109E-03 0. -1.
       22    1    1    2    0    0 -0.41240384039E-02  0.33661035921E-02  0.35338297055E-01  0.35737005818E-01  0.00000000000E+00 0.  1.
  9000001    1    1    2    0    0  0.41240384039E-02 -0.33661035921E-02 -0.35338297055E-01  0.35750994182E-01  0.10000000475E-02 0. -1.
</event>
<event>
 4   0  0.4958067E-02  0.9118800E+02  0.7818609E-02  0.1379984E+01
      -11   -1    0    0    0    0  0.00000000000E+00  0.00000000000E+00  0.35740347158E-01  0.35744000000E-01  0.51099999109E-03 0.  1.
       11   -1    0    0    0    0 -0.00000000000E+00 -0.00000000000E+00 -0.35740347158E-01  0.35744000000E-01  0.51099999109E-03 0. -1.
       22    1    1    2    0    0  0.21700998156E-01  0.15472626541E-01  0.23807521749E-01  0.35737005818E-01  0.00000000000E+00 0.  1.
  9000001    1    1    2    0    0 -0.21700998156E-01 -0.15472626541E-01 -0.23807521749E-01  0.35750994182E-01  0.10000000475E-02 0. -1.
</event>
<event>
 4   0  0.4958067E-02  0.9118800E+02  0.7818609E-02  0.1379984E+01
      -11   -1    0    0    0    0  0.00000000000E+00  0.00000000000E+00  0.35740347158E-01  0.35744000000E-01  0.51099999109E-03 0. -1.
       11   -1    0    0    0    0 -0.00000000000E+00 -0.00000000000E+00 -0.35740347158E-01  0.35744000000E-01  0.51099999109E-03 0.  1.
       22    1    1    2    0    0 -0.27587193362E-01 -0.82534620983E-02  0.21165082345E-01  0.35737005818E-01  0.00000000000E+00 0. -1.
  9000001    1    1    2    0    0  0.27587193362E-01  0.82534620983E-02 -0.21165082345E-01  0.35750994182E-01  0.10000000475E-02 0.  1.
</event>
<event>
 4   0  0.4958067E-02  0.9118800E+02  0.7818609E-02  0.1379984E+01
      -11   -1    0    0    0    0  0.00000000000E+00  0.00000000000E+00  0.35740347158E-01  0.35744000000E-01  0.51099999109E-03 0. -1.
       11   -1    0    0    0    0 -0.00000000000E+00 -0.00000000000E+00 -0.35740347158E-01  0.35744000000E-01  0.51099999109E-03 0.  1.
       22    1    1    2    0    0 -0.28350938652E-01  0.35092717418E-02  0.21471908957E-01  0.35737005818E-01  0.00000000000E+00 0. -1.
  9000001    1    1    2    0    0  0.28350938652E-01 -0.35092717418E-02 -0.21471908957E-01  0.35750994182E-01  0.10000000475E-02 0.  1.
</event>
<event>
 4   0  0.4958067E-02  0.9118800E+02  0.7818609E-02  0.1379984E+01
      -11   -1    0    0    0    0  0.00000000000E+00  0.00000000000E+00  0.35740347158E-01  0.35744000000E-01  0.51099999109E-03 0.  1.
       11   -1    0    0    0    0 -0.00000000000E+00 -0.00000000000E+00 -0.35740347158E-01  0.35744000000E-01  0.51099999109E-03 0. -1.
       22    1    1    2    0    0 -0.15625145978E-02 -0.31706997370E-01 -0.16412143393E-01  0.35737005818E-01  0.00000000000E+00 0. -1.
  9000001    1    1    2    0    0  0.15625145978E-02  0.31706997370E-01  0.16412143393E-01  0.35750994182E-01  0.10000000475E-02 0.  1.
</event>
<event>
 4   0  0.4958067E-02  0.9118800E+02  0.7818609E-02  0.1379984E+01
      -11   -1    0    0    0    0  0.00000000000E+00  0.00000000000E+00  0.35740347158E-01  0.35744000000E-01  0.51099999109E-03 0. -1.
       11   -1    0    0    0    0 -0.00000000000E+00 -0.00000000000E+00 -0.35740347158E-01  0.35744000000E-01  0.51099999109E-03 0.  1.
       22    1    1    2    0    0 -0.77207395161E-02  0.61666253620E-03  0.34887583658E-01  0.35737005818E-01  0.00000000000E+00 0. -1.
  9000001    1    1    2    0    0  0.77207395161E-02 -0.61666253620E-03 -0.34887583658E-01  0.35750994182E-01  0.10000000475E-02 0.  1.
</event>
<event>
 4   0  0.4958067E-02  0.9118800E+02  0.7818609E-02  0.1379984E+01
      -11   -1    0    0    0    0  0.00000000000E+00  0.00000000000E+00  0.35740347158E-01  0.35744000000E-01  0.51099999109E-03 0. -1.
       11   -1    0    0    0    0 -0.00000000000E+00 -0.00000000000E+00 -0.35740347158E-01  0.35744000000E-01  0.51099999109E-03 0.  1.
       22    1    1    2    0    0  0.71985476498E-02 -0.57033492562E-02  0.34536738466E-01  0.35737005818E-01  0.00000000000E+00 0. -1.
  9000001    1    1    2    0    0 -0.71985476498E-02  0.57033492562E-02 -0.34536738466E-01  0.35750994182E-01  0.10000000475E-02 0.  1.
</event>
<event>
 4   0  0.4958067E-02  0.9118800E+02  0.7818609E-02  0.1379984E+01
      -11   -1    0    0    0    0  0.00000000000E+00  0.00000000000E+00  0.35740347158E-01  0.35744000000E-01  0.51099999109E-03 0. -1.
       11   -1    0    0    0    0 -0.00000000000E+00 -0.00000000000E+00 -0.35740347158E-01  0.35744000000E-01  0.51099999109E-03 0.  1.
       22    1    1    2    0    0 -0.29101409293E-01 -0.46046111856E-02 -0.20224715520E-01  0.35737005818E-01  0.00000000000E+00 0.  1.
  9000001    1    1    2    0    0  0.29101409293E-01  0.46046111856E-02  0.20224715520E-01  0.35750994182E-01  0.10000000475E-02 0. -1.
</event>
<event>
 4   0  0.4958067E-02  0.9118800E+02  0.7818609E-02  0.1379984E+01
      -11   -1    0    0    0    0  0.00000000000E+00  0.00000000000E+00  0.35740347158E-01  0.35744000000E-01  0.51099999109E-03 0. -1.
       11   -1    0    0    0    0 -0.00000000000E+00 -0.00000000000E+00 -0.35740347158E-01  0.35744000000E-01  0.51099999109E-03 0.  1.
       22    1    1    2    0    0  0.28445921403E-02  0.19711918865E-02  0.35569035452E-01  0.35737005818E-01  0.00000000000E+00 0. -1.
  9000001    1    1    2    0    0 -0.28445921403E-02 -0.19711918865E-02 -0.35569035452E-01  0.35750994182E-01  0.10000000475E-02 0.  1.
</event>
<event>
 4   0  0.4958067E-02  0.9118800E+02  0.7818609E-02  0.1379984E+01
      -11   -1    0    0    0    0  0.00000000000E+00  0.00000000000E+00  0.35740347158E-01  0.35744000000E-01  0.51099999109E-03 0. -1.
       11   -1    0    0    0    0 -0.00000000000E+00 -0.00000000000E+00 -0.35740347158E-01  0.35744000000E-01  0.51099999109E-03 0.  1.
       22    1    1    2    0    0  0.23389639481E-01 -0.24981540065E-01 -0.10294707658E-01  0.35737005818E-01  0.00000000000E+00 0.  1.
  9000001    1    1    2    0    0 -0.23389639481E-01  0.24981540065E-01  0.10294707658E-01  0.35750994182E-01  0.10000000475E-02 0. -1.
</event>
<event>
 4   0  0.4958067E-02  0.9118800E+02  0.7818609E-02  0.1379984E+01
      -11   -1    0    0    0    0  0.00000000000E+00  0.00000000000E+00  0.35740347158E-01  0.35744000000E-01  0.51099999109E-03 0. -1.
       11   -1    0    0    0    0 -0.00000000000E+00 -0.00000000000E+00 -0.35740347158E-01  0.35744000000E-01  0.51099999109E-03 0.  1.
       22    1    1    2    0    0 -0.19753298849E-01 -0.14228016789E-01 -0.26163033228E-01  0.35737005818E-01  0.00000000000E+00 0.  1.
  9000001    1    1    2    0    0  0.19753298849E-01  0.14228016789E-01  0.26163033228E-01  0.35750994182E-01  0.10000000475E-02 0. -1.
</event>
<event>
 4   0  0.4958067E-02  0.9118800E+02  0.7818609E-02  0.1379984E+01
      -11   -1    0    0    0    0  0.00000000000E+00  0.00000000000E+00  0.35740347158E-01  0.35744000000E-01  0.51099999109E-03 0.  1.
       11   -1    0    0    0    0 -0.00000000000E+00 -0.00000000000E+00 -0.35740347158E-01  0.35744000000E-01  0.51099999109E-03 0. -1.
       22    1    1    2    0    0  0.48890822083E-02  0.69530269155E-02 -0.34711466070E-01  0.35737005818E-01  0.00000000000E+00 0. -1.
  9000001    1    1    2    0    0 -0.48890822083E-02 -0.69530269155E-02  0.34711466070E-01  0.35750994182E-01  0.10000000475E-02 0.  1.
</event>
<event>
 4   0  0.4958067E-02  0.9118800E+02  0.7818609E-02  0.1379984E+01
      -11   -1    0    0    0    0  0.00000000000E+00  0.00000000000E+00  0.35740347158E-01  0.35744000000E-01  0.51099999109E-03 0. -1.
       11   -1    0    0    0    0 -0.00000000000E+00 -0.00000000000E+00 -0.35740347158E-01  0.35744000000E-01  0.51099999109E-03 0.  1.
       22    1    1    2    0    0 -0.17520071334E-02 -0.17801268489E-01 -0.30938307906E-01  0.35737005818E-01  0.00000000000E+00 0.  1.
  9000001    1    1    2    0    0  0.17520071334E-02  0.17801268489E-01  0.30938307906E-01  0.35750994182E-01  0.10000000475E-02 0. -1.
</event>
<event>
 4   0  0.4958067E-02  0.9118800E+02  0.7818609E-02  0.1379984E+01
      -11   -1    0    0    0    0  0.00000000000E+00  0.00000000000E+00  0.35740347158E-01  0.35744000000E-01  0.51099999109E-03 0.  1.
       11   -1    0    0    0    0 -0.00000000000E+00 -0.00000000000E+00 -0.35740347158E-01  0.35744000000E-01  0.51099999109E-03 0. -1.
       22    1    1    2    0    0  0.16970136361E-01 -0.30970279187E-01 -0.54763002004E-02  0.35737005818E-01  0.00000000000E+00 0.  1.
  9000001    1    1    2    0    0 -0.16970136361E-01  0.30970279187E-01  0.54763002004E-02  0.35750994182E-01  0.10000000475E-02 0. -1.
</event>
<event>
 4   0  0.4958067E-02  0.9118800E+02  0.7818609E-02  0.1379984E+01
      -11   -1    0    0    0    0  0.00000000000E+00  0.00000000000E+00  0.35740347158E-01  0.35744000000E-01  0.51099999109E-03 0.  1.
       11   -1    0    0    0    0 -0.00000000000E+00 -0.00000000000E+00 -0.35740347158E-01  0.35744000000E-01  0.51099999109E-03 0. -1.
       22    1    1    2    0    0 -0.98178053841E-03 -0.31186976616E-01 -0.17422461979E-01  0.35737005818E-01  0.00000000000E+00 0. -1.
  9000001    1    1    2    0    0  0.98178053841E-03  0.31186976616E-01  0.17422461979E-01  0.35750994182E-01  0.10000000475E-02 0.  1.
</event>
<event>
 4   0  0.4958067E-02  0.9118800E+02  0.7818609E-02  0.1379984E+01
      -11   -1    0    0    0    0  0.00000000000E+00  0.00000000000E+00  0.35740347158E-01  0.35744000000E-01  0.51099999109E-03 0.  1.
       11   -1    0    0    0    0 -0.00000000000E+00 -0.00000000000E+00 -0.35740347158E-01  0.35744000000E-01  0.51099999109E-03 0. -1.
       22    1    1    2    0    0 -0.59879677658E-02 -0.12899223070E-01  0.32785482627E-01  0.35737005818E-01  0.00000000000E+00 0.  1.
  9000001    1    1    2    0    0  0.59879677658E-02  0.12899223070E-01 -0.32785482627E-01  0.35750994182E-01  0.10000000475E-02 0. -1.
</event>
<event>
 4   0  0.4958067E-02  0.9118800E+02  0.7818609E-02  0.1379984E+01
      -11   -1    0    0    0    0  0.00000000000E+00  0.00000000000E+00  0.35740347158E-01  0.35744000000E-01  0.51099999109E-03 0.  1.
       11   -1    0    0    0    0 -0.00000000000E+00 -0.00000000000E+00 -0.35740347158E-01  0.35744000000E-01  0.51099999109E-03 0. -1.
       22    1    1    2    0    0 -0.74659676801E-02 -0.10770479333E-01  0.33247401198E-01  0.35737005818E-01  0.00000000000E+00 0.  1.
  9000001    1    1    2    0    0  0.74659676801E-02  0.10770479333E-01 -0.33247401198E-01  0.35750994182E-01  0.10000000475E-02 0. -1.
</event>
<event>
 4   0  0.4958067E-02  0.9118800E+02  0.7818609E-02  0.1379984E+01
      -11   -1    0    0    0    0  0.00000000000E+00  0.00000000000E+00  0.35740347158E-01  0.35744000000E-01  0.51099999109E-03 0. -1.
       11   -1    0    0    0    0 -0.00000000000E+00 -0.00000000000E+00 -0.35740347158E-01  0.35744000000E-01  0.51099999109E-03 0.  1.
       22    1    1    2    0    0 -0.24394619560E-01 -0.21122301947E-01 -0.15358531240E-01  0.35737005818E-01  0.00000000000E+00 0.  1.
  9000001    1    1    2    0    0  0.24394619560E-01  0.21122301947E-01  0.15358531240E-01  0.35750994182E-01  0.10000000475E-02 0. -1.
</event>
<event>
 4   0  0.4958067E-02  0.9118800E+02  0.7818609E-02  0.1379984E+01
      -11   -1    0    0    0    0  0.00000000000E+00  0.00000000000E+00  0.35740347158E-01  0.35744000000E-01  0.51099999109E-03 0.  1.
       11   -1    0    0    0    0 -0.00000000000E+00 -0.00000000000E+00 -0.35740347158E-01  0.35744000000E-01  0.51099999109E-03 0. -1.
       22    1    1    2    0    0  0.34335355195E-02  0.23470950232E-02  0.35494162388E-01  0.35737005818E-01  0.00000000000E+00 0.  1.
  9000001    1    1    2    0    0 -0.34335355195E-02 -0.23470950232E-02 -0.35494162388E-01  0.35750994182E-01  0.10000000475E-02 0. -1.
</event>
<event>
 4   0  0.4958067E-02  0.9118800E+02  0.7818609E-02  0.1379984E+01
      -11   -1    0    0    0    0  0.00000000000E+00  0.00000000000E+00  0.35740347158E-01  0.35744000000E-01  0.51099999109E-03 0.  1.
       11   -1    0    0    0    0 -0.00000000000E+00 -0.00000000000E+00 -0.35740347158E-01  0.35744000000E-01  0.51099999109E-03 0. -1.
       22    1    1    2    0    0  0.95504713024E-02 -0.20364219924E-03 -0.34436617323E-01  0.35737005818E-01  0.00000000000E+00 0. -1.
  9000001    1    1    2    0    0 -0.95504713024E-02  0.20364219924E-03  0.34436617323E-01  0.35750994182E-01  0.10000000475E-02 0.  1.
</event>
<event>
 4   0  0.4958067E-02  0.9118800E+02  0.7818609E-02  0.1379984E+01
      -11   -1    0    0    0    0  0.00000000000E+00  0.00000000000E+00  0.35740347158E-01  0.35744000000E-01  0.51099999109E-03 0.  1.
       11   -1    0    0    0    0 -0.00000000000E+00 -0.00000000000E+00 -0.35740347158E-01  0.35744000000E-01  0.51099999109E-03 0. -1.
       22    1    1    2    0    0 -0.31882316202E-01  0.83406938815E-02 -0.13823325361E-01  0.35737005818E-01  0.00000000000E+00 0. -1.
  9000001    1    1    2    0    0  0.31882316202E-01 -0.83406938815E-02  0.13823325361E-01  0.35750994182E-01  0.10000000475E-02 0.  1.
</event>
<event>
 4   0  0.4958067E-02  0.9118800E+02  0.7818609E-02  0.1379984E+01
      -11   -1    0    0    0    0  0.00000000000E+00  0.00000000000E+00  0.35740347158E-01  0.35744000000E-01  0.51099999109E-03 0.  1.
       11   -1    0    0    0    0 -0.00000000000E+00 -0.00000000000E+00 -0.35740347158E-01  0.35744000000E-01  0.51099999109E-03 0. -1.
       22    1    1    2    0    0  0.16137369156E-02  0.79748017907E-02  0.34798447874E-01  0.35737005818E-01  0.00000000000E+00 0.  1.
  9000001    1    1    2    0    0 -0.16137369156E-02 -0.79748017907E-02 -0.34798447874E-01  0.35750994182E-01  0.10000000475E-02 0. -1.
</event>
<event>
 4   0  0.4958067E-02  0.9118800E+02  0.7818609E-02  0.1379984E+01
      -11   -1    0    0    0    0  0.00000000000E+00  0.00000000000E+00  0.35740347158E-01  0.35744000000E-01  0.51099999109E-03 0.  1.
       11   -1    0    0    0    0 -0.00000000000E+00 -0.00000000000E+00 -0.35740347158E-01  0.35744000000E-01  0.51099999109E-03 0. -1.
       22    1    1    2    0    0  0.82026256594E-02  0.16446929912E-01 -0.30648801178E-01  0.35737005818E-01  0.00000000000E+00 0. -1.
  9000001    1    1    2    0    0 -0.82026256594E-02 -0.16446929912E-01  0.30648801178E-01  0.35750994182E-01  0.10000000475E-02 0.  1.
</event>
<event>
 4   0  0.4958067E-02  0.9118800E+02  0.7818609E-02  0.1379984E+01
      -11   -1    0    0    0    0  0.00000000000E+00  0.00000000000E+00  0.35740347158E-01  0.35744000000E-01  0.51099999109E-03 0.  1.
       11   -1    0    0    0    0 -0.00000000000E+00 -0.00000000000E+00 -0.35740347158E-01  0.35744000000E-01  0.51099999109E-03 0. -1.
       22    1    1    2    0    0 -0.19150387224E-01 -0.56436175245E-03 -0.30167494922E-01  0.35737005818E-01  0.00000000000E+00 0. -1.
  9000001    1    1    2    0    0  0.19150387224E-01  0.56436175245E-03  0.30167494922E-01  0.35750994182E-01  0.10000000475E-02 0.  1.
</event>
<event>
 4   0  0.4958067E-02  0.9118800E+02  0.7818609E-02  0.1379984E+01
      -11   -1    0    0    0    0  0.00000000000E+00  0.00000000000E+00  0.35740347158E-01  0.35744000000E-01  0.51099999109E-03 0. -1.
       11   -1    0    0    0    0 -0.00000000000E+00 -0.00000000000E+00 -0.35740347158E-01  0.35744000000E-01  0.51099999109E-03 0.  1.
       22    1    1    2    0    0 -0.80906178179E-02 -0.17401692646E-01 -0.30147248320E-01  0.35737005818E-01  0.00000000000E+00 0.  1.
  9000001    1    1    2    0    0  0.80906178179E-02  0.17401692646E-01  0.30147248320E-01  0.35750994182E-01  0.10000000475E-02 0. -1.
</event>
<event>
 4   0  0.4958067E-02  0.9118800E+02  0.7818609E-02  0.1379984E+01
      -11   -1    0    0    0    0  0.00000000000E+00  0.00000000000E+00  0.35740347158E-01  0.35744000000E-01  0.51099999109E-03 0. -1.
       11   -1    0    0    0    0 -0.00000000000E+00 -0.00000000000E+00 -0.35740347158E-01  0.35744000000E-01  0.51099999109E-03 0.  1.
       22    1    1    2    0    0 -0.22709726156E-01 -0.17214662610E-01 -0.21565187549E-01  0.35737005818E-01  0.00000000000E+00 0.  1.
  9000001    1    1    2    0    0  0.22709726156E-01  0.17214662610E-01  0.21565187549E-01  0.35750994182E-01  0.10000000475E-02 0. -1.
</event>
<event>
 4   0  0.4958067E-02  0.9118800E+02  0.7818609E-02  0.1379984E+01
      -11   -1    0    0    0    0  0.00000000000E+00  0.00000000000E+00  0.35740347158E-01  0.35744000000E-01  0.51099999109E-03 0. -1.
       11   -1    0    0    0    0 -0.00000000000E+00 -0.00000000000E+00 -0.35740347158E-01  0.35744000000E-01  0.51099999109E-03 0.  1.
       22    1    1    2    0    0  0.29423468284E-01  0.64045873384E-02 -0.19245112627E-01  0.35737005818E-01  0.00000000000E+00 0.  1.
  9000001    1    1    2    0    0 -0.29423468284E-01 -0.64045873384E-02  0.19245112627E-01  0.35750994182E-01  0.10000000475E-02 0. -1.
</event>
<event>
 4   0  0.4958067E-02  0.9118800E+02  0.7818609E-02  0.1379984E+01
      -11   -1    0    0    0    0  0.00000000000E+00  0.00000000000E+00  0.35740347158E-01  0.35744000000E-01  0.51099999109E-03 0.  1.
       11   -1    0    0    0    0 -0.00000000000E+00 -0.00000000000E+00 -0.35740347158E-01  0.35744000000E-01  0.51099999109E-03 0. -1.
       22    1    1    2    0    0 -0.28833173595E-02 -0.12111203318E-02 -0.35599905245E-01  0.35737005818E-01  0.00000000000E+00 0. -1.
  9000001    1    1    2    0    0  0.28833173595E-02  0.12111203318E-02  0.35599905245E-01  0.35750994182E-01  0.10000000475E-02 0.  1.
</event>
<event>
 4   0  0.4958067E-02  0.9118800E+02  0.7818609E-02  0.1379984E+01
      -11   -1    0    0    0    0  0.00000000000E+00  0.00000000000E+00  0.35740347158E-01  0.35744000000E-01  0.51099999109E-03 0.  1.
       11   -1    0    0    0    0 -0.00000000000E+00 -0.00000000000E+00 -0.35740347158E-01  0.35744000000E-01  0.51099999109E-03 0. -1.
       22    1    1    2    0    0 -0.72051853826E-02 -0.23971044471E-02 -0.34920950427E-01  0.35737005818E-01  0.00000000000E+00 0. -1.
  9000001    1    1    2    0    0  0.72051853826E-02  0.23971044471E-02  0.34920950427E-01  0.35750994182E-01  0.10000000475E-02 0.  1.
</event>
<event>
 4   0  0.4958067E-02  0.9118800E+02  0.7818609E-02  0.1379984E+01
      -11   -1    0    0    0    0  0.00000000000E+00  0.00000000000E+00  0.35740347158E-01  0.35744000000E-01  0.51099999109E-03 0.  1.
       11   -1    0    0    0    0 -0.00000000000E+00 -0.00000000000E+00 -0.35740347158E-01  0.35744000000E-01  0.51099999109E-03 0. -1.
       22    1    1    2    0    0  0.73340029385E-02  0.30518344715E-02  0.34842966179E-01  0.35737005818E-01  0.00000000000E+00 0.  1.
  9000001    1    1    2    0    0 -0.73340029385E-02 -0.30518344715E-02 -0.34842966179E-01  0.35750994182E-01  0.10000000475E-02 0. -1.
</event>
<event>
 4   0  0.4958067E-02  0.9118800E+02  0.7818609E-02  0.1379984E+01
      -11   -1    0    0    0    0  0.00000000000E+00  0.00000000000E+00  0.35740347158E-01  0.35744000000E-01  0.51099999109E-03 0. -1.
       11   -1    0    0    0    0 -0.00000000000E+00 -0.00000000000E+00 -0.35740347158E-01  0.35744000000E-01  0.51099999109E-03 0.  1.
       22    1    1    2    0    0  0.24993621816E-02  0.67880391557E-02  0.34997275579E-01  0.35737005818E-01  0.00000000000E+00 0. -1.
  9000001    1    1    2    0    0 -0.24993621816E-02 -0.67880391557E-02 -0.34997275579E-01  0.35750994182E-01  0.10000000475E-02 0.  1.
</event>
<event>
 4   0  0.4958067E-02  0.9118800E+02  0.7818609E-02  0.1379984E+01
      -11   -1    0    0    0    0  0.00000000000E+00  0.00000000000E+00  0.35740347158E-01  0.35744000000E-01  0.51099999109E-03 0.  1.
       11   -1    0    0    0    0 -0.00000000000E+00 -0.00000000000E+00 -0.35740347158E-01  0.35744000000E-01  0.51099999109E-03 0. -1.
       22    1    1    2    0    0  0.37367091486E-02 -0.29305405519E-01  0.20108798994E-01  0.35737005818E-01  0.00000000000E+00 0.  1.
  9000001    1    1    2    0    0 -0.37367091486E-02  0.29305405519E-01 -0.20108798994E-01  0.35750994182E-01  0.10000000475E-02 0. -1.
</event>
<event>
 4   0  0.4958067E-02  0.9118800E+02  0.7818609E-02  0.1379984E+01
      -11   -1    0    0    0    0  0.00000000000E+00  0.00000000000E+00  0.35740347158E-01  0.35744000000E-01  0.51099999109E-03 0. -1.
       11   -1    0    0    0    0 -0.00000000000E+00 -0.00000000000E+00 -0.35740347158E-01  0.35744000000E-01  0.51099999109E-03 0.  1.
       22    1    1    2    0    0 -0.78938937967E-02  0.36423923440E-02 -0.34663424580E-01  0.35737005818E-01  0.00000000000E+00 0.  1.
  9000001    1    1    2    0    0  0.78938937967E-02 -0.36423923440E-02  0.34663424580E-01  0.35750994182E-01  0.10000000475E-02 0. -1.
</event>
<event>
 4   0  0.4958067E-02  0.9118800E+02  0.7818609E-02  0.1379984E+01
      -11   -1    0    0    0    0  0.00000000000E+00  0.00000000000E+00  0.35740347158E-01  0.35744000000E-01  0.51099999109E-03 0. -1.
       11   -1    0    0    0    0 -0.00000000000E+00 -0.00000000000E+00 -0.35740347158E-01  0.35744000000E-01  0.51099999109E-03 0.  1.
       22    1    1    2    0    0  0.13943213781E-01  0.10067277635E-01  0.31326830279E-01  0.35737005818E-01  0.00000000000E+00 0. -1.
  9000001    1    1    2    0    0 -0.13943213781E-01 -0.10067277635E-01 -0.31326830279E-01  0.35750994182E-01  0.10000000475E-02 0.  1.
</event>
<event>
 4   0  0.4958067E-02  0.9118800E+02  0.7818609E-02  0.1379984E+01
      -11   -1    0    0    0    0  0.00000000000E+00  0.00000000000E+00  0.35740347158E-01  0.35744000000E-01  0.51099999109E-03 0.  1.
       11   -1    0    0    0    0 -0.00000000000E+00 -0.00000000000E+00 -0.35740347158E-01  0.35744000000E-01  0.51099999109E-03 0. -1.
       22    1    1    2    0    0 -0.35776469776E-02 -0.44863496410E-02 -0.35273314189E-01  0.35737005818E-01  0.00000000000E+00 0. -1.
  9000001    1    1    2    0    0  0.35776469776E-02  0.44863496410E-02  0.35273314189E-01  0.35750994182E-01  0.10000000475E-02 0.  1.
</event>
<event>
 4   0  0.4958067E-02  0.9118800E+02  0.7818609E-02  0.1379984E+01
      -11   -1    0    0    0    0  0.00000000000E+00  0.00000000000E+00  0.35740347158E-01  0.35744000000E-01  0.51099999109E-03 0. -1.
       11   -1    0    0    0    0 -0.00000000000E+00 -0.00000000000E+00 -0.35740347158E-01  0.35744000000E-01  0.51099999109E-03 0.  1.
       22    1    1    2    0    0  0.69509475211E-03  0.97583421228E-02 -0.34371866216E-01  0.35737005818E-01  0.00000000000E+00 0.  1.
  9000001    1    1    2    0    0 -0.69509475211E-03 -0.97583421228E-02  0.34371866216E-01  0.35750994182E-01  0.10000000475E-02 0. -1.
</event>
<event>
 4   0  0.4958067E-02  0.9118800E+02  0.7818609E-02  0.1379984E+01
      -11   -1    0    0    0    0  0.00000000000E+00  0.00000000000E+00  0.35740347158E-01  0.35744000000E-01  0.51099999109E-03 0. -1.
       11   -1    0    0    0    0 -0.00000000000E+00 -0.00000000000E+00 -0.35740347158E-01  0.35744000000E-01  0.51099999109E-03 0.  1.
       22    1    1    2    0    0 -0.84286878622E-02 -0.19363559914E-01 -0.28829556938E-01  0.35737005818E-01  0.00000000000E+00 0.  1.
  9000001    1    1    2    0    0  0.84286878622E-02  0.19363559914E-01  0.28829556938E-01  0.35750994182E-01  0.10000000475E-02 0. -1.
</event>
<event>
 4   0  0.4958067E-02  0.9118800E+02  0.7818609E-02  0.1379984E+01
      -11   -1    0    0    0    0  0.00000000000E+00  0.00000000000E+00  0.35740347158E-01  0.35744000000E-01  0.51099999109E-03 0.  1.
       11   -1    0    0    0    0 -0.00000000000E+00 -0.00000000000E+00 -0.35740347158E-01  0.35744000000E-01  0.51099999109E-03 0. -1.
       22    1    1    2    0    0 -0.87158719145E-02  0.76473643684E-02  0.33803623768E-01  0.35737005818E-01  0.00000000000E+00 0.  1.
  9000001    1    1    2    0    0  0.87158719145E-02 -0.76473643684E-02 -0.33803623768E-01  0.35750994182E-01  0.10000000475E-02 0. -1.
</event>
<event>
 4   0  0.4958067E-02  0.9118800E+02  0.7818609E-02  0.1379984E+01
      -11   -1    0    0    0    0  0.00000000000E+00  0.00000000000E+00  0.35740347158E-01  0.35744000000E-01  0.51099999109E-03 0. -1.
       11   -1    0    0    0    0 -0.00000000000E+00 -0.00000000000E+00 -0.35740347158E-01  0.35744000000E-01  0.51099999109E-03 0.  1.
       22    1    1    2    0    0  0.20197338338E-01  0.93521716849E-02  0.27959577853E-01  0.35737005818E-01  0.00000000000E+00 0. -1.
  9000001    1    1    2    0    0 -0.20197338338E-01 -0.93521716849E-02 -0.27959577853E-01  0.35750994182E-01  0.10000000475E-02 0.  1.
</event>
<event>
 4   0  0.4958067E-02  0.9118800E+02  0.7818609E-02  0.1379984E+01
      -11   -1    0    0    0    0  0.00000000000E+00  0.00000000000E+00  0.35740347158E-01  0.35744000000E-01  0.51099999109E-03 0. -1.
       11   -1    0    0    0    0 -0.00000000000E+00 -0.00000000000E+00 -0.35740347158E-01  0.35744000000E-01  0.51099999109E-03 0.  1.
       22    1    1    2    0    0  0.24968951530E-01  0.12501726021E-01 -0.22302284432E-01  0.35737005818E-01  0.00000000000E+00 0.  1.
  9000001    1    1    2    0    0 -0.24968951530E-01 -0.12501726021E-01  0.22302284432E-01  0.35750994182E-01  0.10000000475E-02 0. -1.
</event>
<event>
 4   0  0.4958067E-02  0.9118800E+02  0.7818609E-02  0.1379984E+01
      -11   -1    0    0    0    0  0.00000000000E+00  0.00000000000E+00  0.35740347158E-01  0.35744000000E-01  0.51099999109E-03 0. -1.
       11   -1    0    0    0    0 -0.00000000000E+00 -0.00000000000E+00 -0.35740347158E-01  0.35744000000E-01  0.51099999109E-03 0.  1.
       22    1    1    2    0    0 -0.35008760557E-02  0.14763697405E-03  0.35564809223E-01  0.35737005818E-01  0.00000000000E+00 0. -1.
  9000001    1    1    2    0    0  0.35008760557E-02 -0.14763697405E-03 -0.35564809223E-01  0.35750994182E-01  0.10000000475E-02 0.  1.
</event>
<event>
 4   0  0.4958067E-02  0.9118800E+02  0.7818609E-02  0.1379984E+01
      -11   -1    0    0    0    0  0.00000000000E+00  0.00000000000E+00  0.35740347158E-01  0.35744000000E-01  0.51099999109E-03 0. -1.
       11   -1    0    0    0    0 -0.00000000000E+00 -0.00000000000E+00 -0.35740347158E-01  0.35744000000E-01  0.51099999109E-03 0.  1.
       22    1    1    2    0    0  0.73316325140E-03 -0.18641746300E-01  0.30480835805E-01  0.35737005818E-01  0.00000000000E+00 0. -1.
  9000001    1    1    2    0    0 -0.73316325140E-03  0.18641746300E-01 -0.30480835805E-01  0.35750994182E-01  0.10000000475E-02 0.  1.
</event>
<event>
 4   0  0.4958067E-02  0.9118800E+02  0.7818609E-02  0.1379984E+01
      -11   -1    0    0    0    0  0.00000000000E+00  0.00000000000E+00  0.35740347158E-01  0.35744000000E-01  0.51099999109E-03 0.  1.
       11   -1    0    0    0    0 -0.00000000000E+00 -0.00000000000E+00 -0.35740347158E-01  0.35744000000E-01  0.51099999109E-03 0. -1.
       22    1    1    2    0    0 -0.53874342958E-02 -0.98670445252E-02  0.33922714645E-01  0.35737005818E-01  0.00000000000E+00 0.  1.
  9000001    1    1    2    0    0  0.53874342958E-02  0.98670445252E-02 -0.33922714645E-01  0.35750994182E-01  0.10000000475E-02 0. -1.
</event>
<event>
 4   0  0.4958067E-02  0.9118800E+02  0.7818609E-02  0.1379984E+01
      -11   -1    0    0    0    0  0.00000000000E+00  0.00000000000E+00  0.35740347158E-01  0.35744000000E-01  0.51099999109E-03 0. -1.
       11   -1    0    0    0    0 -0.00000000000E+00 -0.00000000000E+00 -0.35740347158E-01  0.35744000000E-01  0.51099999109E-03 0.  1.
       22    1    1    2    0    0  0.27748348596E-03 -0.57460171066E-02 -0.35270949451E-01  0.35737005818E-01  0.00000000000E+00 0.  1.
  9000001    1    1    2    0    0 -0.27748348596E-03  0.57460171066E-02  0.35270949451E-01  0.35750994182E-01  0.10000000475E-02 0. -1.
</event>
<event>
 4   0  0.4958067E-02  0.9118800E+02  0.7818609E-02  0.1379984E+01
      -11   -1    0    0    0    0  0.00000000000E+00  0.00000000000E+00  0.35740347158E-01  0.35744000000E-01  0.51099999109E-03 0.  1.
       11   -1    0    0    0    0 -0.00000000000E+00 -0.00000000000E+00 -0.35740347158E-01  0.35744000000E-01  0.51099999109E-03 0. -1.
       22    1    1    2    0    0  0.10392465920E-01  0.19093440571E-01  0.28364956621E-01  0.35737005818E-01  0.00000000000E+00 0.  1.
  9000001    1    1    2    0    0 -0.10392465920E-01 -0.19093440571E-01 -0.28364956621E-01  0.35750994182E-01  0.10000000475E-02 0. -1.
</event>
<event>
 4   0  0.4958067E-02  0.9118800E+02  0.7818609E-02  0.1379984E+01
      -11   -1    0    0    0    0  0.00000000000E+00  0.00000000000E+00  0.35740347158E-01  0.35744000000E-01  0.51099999109E-03 0.  1.
       11   -1    0    0    0    0 -0.00000000000E+00 -0.00000000000E+00 -0.35740347158E-01  0.35744000000E-01  0.51099999109E-03 0. -1.
       22    1    1    2    0    0  0.29145072517E-02  0.25803404465E-02  0.35524372979E-01  0.35737005818E-01  0.00000000000E+00 0.  1.
  9000001    1    1    2    0    0 -0.29145072517E-02 -0.25803404465E-02 -0.35524372979E-01  0.35750994182E-01  0.10000000475E-02 0. -1.
</event>
<event>
 4   0  0.4958067E-02  0.9118800E+02  0.7818609E-02  0.1379984E+01
      -11   -1    0    0    0    0  0.00000000000E+00  0.00000000000E+00  0.35740347158E-01  0.35744000000E-01  0.51099999109E-03 0.  1.
       11   -1    0    0    0    0 -0.00000000000E+00 -0.00000000000E+00 -0.35740347158E-01  0.35744000000E-01  0.51099999109E-03 0. -1.
       22    1    1    2    0    0 -0.11828015044E-01 -0.29558953492E-01 -0.16232680414E-01  0.35737005818E-01  0.00000000000E+00 0. -1.
  9000001    1    1    2    0    0  0.11828015044E-01  0.29558953492E-01  0.16232680414E-01  0.35750994182E-01  0.10000000475E-02 0.  1.
</event>
<event>
 4   0  0.4958067E-02  0.9118800E+02  0.7818609E-02  0.1379984E+01
      -11   -1    0    0    0    0  0.00000000000E+00  0.00000000000E+00  0.35740347158E-01  0.35744000000E-01  0.51099999109E-03 0.  1.
       11   -1    0    0    0    0 -0.00000000000E+00 -0.00000000000E+00 -0.35740347158E-01  0.35744000000E-01  0.51099999109E-03 0. -1.
       22    1    1    2    0    0  0.28087842784E-02  0.80059793317E-02  0.34715250405E-01  0.35737005818E-01  0.00000000000E+00 0.  1.
  9000001    1    1    2    0    0 -0.28087842784E-02 -0.80059793317E-02 -0.34715250405E-01  0.35750994182E-01  0.10000000475E-02 0. -1.
</event>
<event>
 4   0  0.4958067E-02  0.9118800E+02  0.7818609E-02  0.1379984E+01
      -11   -1    0    0    0    0  0.00000000000E+00  0.00000000000E+00  0.35740347158E-01  0.35744000000E-01  0.51099999109E-03 0.  1.
       11   -1    0    0    0    0 -0.00000000000E+00 -0.00000000000E+00 -0.35740347158E-01  0.35744000000E-01  0.51099999109E-03 0. -1.
       22    1    1    2    0    0 -0.58366588196E-02  0.11796769320E-01  0.33225039237E-01  0.35737005818E-01  0.00000000000E+00 0.  1.
  9000001    1    1    2    0    0  0.58366588196E-02 -0.11796769320E-01 -0.33225039237E-01  0.35750994182E-01  0.10000000475E-02 0. -1.
</event>
<event>
 4   0  0.4958067E-02  0.9118800E+02  0.7818609E-02  0.1379984E+01
      -11   -1    0    0    0    0  0.00000000000E+00  0.00000000000E+00  0.35740347158E-01  0.35744000000E-01  0.51099999109E-03 0. -1.
       11   -1    0    0    0    0 -0.00000000000E+00 -0.00000000000E+00 -0.35740347158E-01  0.35744000000E-01  0.51099999109E-03 0.  1.
       22    1    1    2    0    0 -0.32737482376E-03 -0.15438673879E-01  0.32228461947E-01  0.35737005818E-01  0.00000000000E+00 0. -1.
  9000001    1    1    2    0    0  0.32737482376E-03  0.15438673879E-01 -0.32228461947E-01  0.35750994182E-01  0.10000000475E-02 0.  1.
</event>
<event>
 4   0  0.4958067E-02  0.9118800E+02  0.7818609E-02  0.1379984E+01
      -11   -1    0    0    0    0  0.00000000000E+00  0.00000000000E+00  0.35740347158E-01  0.35744000000E-01  0.51099999109E-03 0.  1.
       11   -1    0    0    0    0 -0.00000000000E+00 -0.00000000000E+00 -0.35740347158E-01  0.35744000000E-01  0.51099999109E-03 0. -1.
       22    1    1    2    0    0  0.38384236471E-02 -0.35036165503E-02  0.35357103386E-01  0.35737005818E-01  0.00000000000E+00 0.  1.
  9000001    1    1    2    0    0 -0.38384236471E-02  0.35036165503E-02 -0.35357103386E-01  0.35750994182E-01  0.10000000475E-02 0. -1.
</event>
<event>
 4   0  0.4958067E-02  0.9118800E+02  0.7818609E-02  0.1379984E+01
      -11   -1    0    0    0    0  0.00000000000E+00  0.00000000000E+00  0.35740347158E-01  0.35744000000E-01  0.51099999109E-03 0.  1.
       11   -1    0    0    0    0 -0.00000000000E+00 -0.00000000000E+00 -0.35740347158E-01  0.35744000000E-01  0.51099999109E-03 0. -1.
       22    1    1    2    0    0  0.70196172171E-02  0.35321831952E-02  0.34862332694E-01  0.35737005818E-01  0.00000000000E+00 0.  1.
  9000001    1    1    2    0    0 -0.70196172171E-02 -0.35321831952E-02 -0.34862332694E-01  0.35750994182E-01  0.10000000475E-02 0. -1.
</event>
<event>
 4   0  0.4958067E-02  0.9118800E+02  0.7818609E-02  0.1379984E+01
      -11   -1    0    0    0    0  0.00000000000E+00  0.00000000000E+00  0.35740347158E-01  0.35744000000E-01  0.51099999109E-03 0.  1.
       11   -1    0    0    0    0 -0.00000000000E+00 -0.00000000000E+00 -0.35740347158E-01  0.35744000000E-01  0.51099999109E-03 0. -1.
       22    1    1    2    0    0 -0.37498157083E-02 -0.76193004839E-02 -0.34713379656E-01  0.35737005818E-01  0.00000000000E+00 0. -1.
  9000001    1    1    2    0    0  0.37498157083E-02  0.76193004839E-02  0.34713379656E-01  0.35750994182E-01  0.10000000475E-02 0.  1.
</event>
<event>
 4   0  0.4958067E-02  0.9118800E+02  0.7818609E-02  0.1379984E+01
      -11   -1    0    0    0    0  0.00000000000E+00  0.00000000000E+00  0.35740347158E-01  0.35744000000E-01  0.51099999109E-03 0. -1.
       11   -1    0    0    0    0 -0.00000000000E+00 -0.00000000000E+00 -0.35740347158E-01  0.35744000000E-01  0.51099999109E-03 0.  1.
       22    1    1    2    0    0  0.86474739725E-02 -0.22323519009E-02  0.34603054544E-01  0.35737005818E-01  0.00000000000E+00 0. -1.
  9000001    1    1    2    0    0 -0.86474739725E-02  0.22323519009E-02 -0.34603054544E-01  0.35750994182E-01  0.10000000475E-02 0.  1.
</event>
<event>
 4   0  0.4958067E-02  0.9118800E+02  0.7818609E-02  0.1379984E+01
      -11   -1    0    0    0    0  0.00000000000E+00  0.00000000000E+00  0.35740347158E-01  0.35744000000E-01  0.51099999109E-03 0. -1.
       11   -1    0    0    0    0 -0.00000000000E+00 -0.00000000000E+00 -0.35740347158E-01  0.35744000000E-01  0.51099999109E-03 0.  1.
       22    1    1    2    0    0 -0.39102762483E-02  0.15959411047E-02  0.35486565014E-01  0.35737005818E-01  0.00000000000E+00 0. -1.
  9000001    1    1    2    0    0  0.39102762483E-02 -0.15959411047E-02 -0.35486565014E-01  0.35750994182E-01  0.10000000475E-02 0.  1.
</event>
<event>
 4   0  0.4958067E-02  0.9118800E+02  0.7818609E-02  0.1379984E+01
      -11   -1    0    0    0    0  0.00000000000E+00  0.00000000000E+00  0.35740347158E-01  0.35744000000E-01  0.51099999109E-03 0. -1.
       11   -1    0    0    0    0 -0.00000000000E+00 -0.00000000000E+00 -0.35740347158E-01  0.35744000000E-01  0.51099999109E-03 0.  1.
       22    1    1    2    0    0  0.16630188919E-01 -0.93766539412E-02 -0.30210077164E-01  0.35737005818E-01  0.00000000000E+00 0.  1.
  9000001    1    1    2    0    0 -0.16630188919E-01  0.93766539412E-02  0.30210077164E-01  0.35750994182E-01  0.10000000475E-02 0. -1.
</event>
<event>
 4   0  0.4958067E-02  0.9118800E+02  0.7818609E-02  0.1379984E+01
      -11   -1    0    0    0    0  0.00000000000E+00  0.00000000000E+00  0.35740347158E-01  0.35744000000E-01  0.51099999109E-03 0. -1.
       11   -1    0    0    0    0 -0.00000000000E+00 -0.00000000000E+00 -0.35740347158E-01  0.35744000000E-01  0.51099999109E-03 0.  1.
       22    1    1    2    0    0 -0.64924568747E-02  0.49166654216E-03 -0.35138865272E-01  0.35737005818E-01  0.00000000000E+00 0.  1.
  9000001    1    1    2    0    0  0.64924568747E-02 -0.49166654216E-03  0.35138865272E-01  0.35750994182E-01  0.10000000475E-02 0. -1.
</event>
<event>
 4   0  0.4958067E-02  0.9118800E+02  0.7818609E-02  0.1379984E+01
      -11   -1    0    0    0    0  0.00000000000E+00  0.00000000000E+00  0.35740347158E-01  0.35744000000E-01  0.51099999109E-03 0. -1.
       11   -1    0    0    0    0 -0.00000000000E+00 -0.00000000000E+00 -0.35740347158E-01  0.35744000000E-01  0.51099999109E-03 0.  1.
       22    1    1    2    0    0 -0.38350182361E-02  0.68042421057E-02 -0.34873034129E-01  0.35737005818E-01  0.00000000000E+00 0.  1.
  9000001    1    1    2    0    0  0.38350182361E-02 -0.68042421057E-02  0.34873034129E-01  0.35750994182E-01  0.10000000475E-02 0. -1.
</event>
<event>
 4   0  0.4958067E-02  0.9118800E+02  0.7818609E-02  0.1379984E+01
      -11   -1    0    0    0    0  0.00000000000E+00  0.00000000000E+00  0.35740347158E-01  0.35744000000E-01  0.51099999109E-03 0. -1.
       11   -1    0    0    0    0 -0.00000000000E+00 -0.00000000000E+00 -0.35740347158E-01  0.35744000000E-01  0.51099999109E-03 0.  1.
       22    1    1    2    0    0  0.52597366041E-02  0.87896206797E-02  0.34237571819E-01  0.35737005818E-01  0.00000000000E+00 0. -1.
  9000001    1    1    2    0    0 -0.52597366041E-02 -0.87896206797E-02 -0.34237571819E-01  0.35750994182E-01  0.10000000475E-02 0.  1.
</event>
<event>
 4   0  0.4958067E-02  0.9118800E+02  0.7818609E-02  0.1379984E+01
      -11   -1    0    0    0    0  0.00000000000E+00  0.00000000000E+00  0.35740347158E-01  0.35744000000E-01  0.51099999109E-03 0.  1.
       11   -1    0    0    0    0 -0.00000000000E+00 -0.00000000000E+00 -0.35740347158E-01  0.35744000000E-01  0.51099999109E-03 0. -1.
       22    1    1    2    0    0 -0.15031600908E-01 -0.19668391227E-02 -0.32362263562E-01  0.35737005818E-01  0.00000000000E+00 0. -1.
  9000001    1    1    2    0    0  0.15031600908E-01  0.19668391227E-02  0.32362263562E-01  0.35750994182E-01  0.10000000475E-02 0.  1.
</event>
<event>
 4   0  0.4958067E-02  0.9118800E+02  0.7818609E-02  0.1379984E+01
      -11   -1    0    0    0    0  0.00000000000E+00  0.00000000000E+00  0.35740347158E-01  0.35744000000E-01  0.51099999109E-03 0. -1.
       11   -1    0    0    0    0 -0.00000000000E+00 -0.00000000000E+00 -0.35740347158E-01  0.35744000000E-01  0.51099999109E-03 0.  1.
       22    1    1    2    0    0  0.44602163174E-02 -0.12824785041E-02 -0.35434380256E-01  0.35737005818E-01  0.00000000000E+00 0.  1.
  9000001    1    1    2    0    0 -0.44602163174E-02  0.12824785041E-02  0.35434380256E-01  0.35750994182E-01  0.10000000475E-02 0. -1.
</event>
<event>
 4   0  0.4958067E-02  0.9118800E+02  0.7818609E-02  0.1379984E+01
      -11   -1    0    0    0    0  0.00000000000E+00  0.00000000000E+00  0.35740347158E-01  0.35744000000E-01  0.51099999109E-03 0. -1.
       11   -1    0    0    0    0 -0.00000000000E+00 -0.00000000000E+00 -0.35740347158E-01  0.35744000000E-01  0.51099999109E-03 0.  1.
       22    1    1    2    0    0  0.63453344349E-02  0.56649204174E-02  0.34709926425E-01  0.35737005818E-01  0.00000000000E+00 0. -1.
  9000001    1    1    2    0    0 -0.63453344349E-02 -0.56649204174E-02 -0.34709926425E-01  0.35750994182E-01  0.10000000475E-02 0.  1.
</event>
<event>
 4   0  0.4958067E-02  0.9118800E+02  0.7818609E-02  0.1379984E+01
      -11   -1    0    0    0    0  0.00000000000E+00  0.00000000000E+00  0.35740347158E-01  0.35744000000E-01  0.51099999109E-03 0.  1.
       11   -1    0    0    0    0 -0.00000000000E+00 -0.00000000000E+00 -0.35740347158E-01  0.35744000000E-01  0.51099999109E-03 0. -1.
       22    1    1    2    0    0 -0.61556511747E-02  0.24544412854E-02 -0.35117193246E-01  0.35737005818E-01  0.00000000000E+00 0. -1.
  9000001    1    1    2    0    0  0.61556511747E-02 -0.24544412854E-02  0.35117193246E-01  0.35750994182E-01  0.10000000475E-02 0.  1.
</event>
<event>
 4   0  0.4958067E-02  0.9118800E+02  0.7818609E-02  0.1379984E+01
      -11   -1    0    0    0    0  0.00000000000E+00  0.00000000000E+00  0.35740347158E-01  0.35744000000E-01  0.51099999109E-03 0. -1.
       11   -1    0    0    0    0 -0.00000000000E+00 -0.00000000000E+00 -0.35740347158E-01  0.35744000000E-01  0.51099999109E-03 0.  1.
       22    1    1    2    0    0  0.84520485258E-03  0.63388523855E-02 -0.35160178669E-01  0.35737005818E-01  0.00000000000E+00 0.  1.
  9000001    1    1    2    0    0 -0.84520485258E-03 -0.63388523855E-02  0.35160178669E-01  0.35750994182E-01  0.10000000475E-02 0. -1.
</event>
<event>
 4   0  0.4958067E-02  0.9118800E+02  0.7818609E-02  0.1379984E+01
      -11   -1    0    0    0    0  0.00000000000E+00  0.00000000000E+00  0.35740347158E-01  0.35744000000E-01  0.51099999109E-03 0.  1.
       11   -1    0    0    0    0 -0.00000000000E+00 -0.00000000000E+00 -0.35740347158E-01  0.35744000000E-01  0.51099999109E-03 0. -1.
       22    1    1    2    0    0  0.63968932925E-02  0.96063192807E-02  0.33822063375E-01  0.35737005818E-01  0.00000000000E+00 0.  1.
  9000001    1    1    2    0    0 -0.63968932925E-02 -0.96063192807E-02 -0.33822063375E-01  0.35750994182E-01  0.10000000475E-02 0. -1.
</event>
<event>
 4   0  0.4958067E-02  0.9118800E+02  0.7818609E-02  0.1379984E+01
      -11   -1    0    0    0    0  0.00000000000E+00  0.00000000000E+00  0.35740347158E-01  0.35744000000E-01  0.51099999109E-03 0.  1.
       11   -1    0    0    0    0 -0.00000000000E+00 -0.00000000000E+00 -0.35740347158E-01  0.35744000000E-01  0.51099999109E-03 0. -1.
       22    1    1    2    0    0 -0.11804141634E-02 -0.47771525097E-02  0.35396596181E-01  0.35737005818E-01  0.00000000000E+00 0.  1.
  9000001    1    1    2    0    0  0.11804141634E-02  0.47771525097E-02 -0.35396596181E-01  0.35750994182E-01  0.10000000475E-02 0. -1.
</event>
<event>
 4   0  0.4958067E-02  0.9118800E+02  0.7818609E-02  0.1379984E+01
      -11   -1    0    0    0    0  0.00000000000E+00  0.00000000000E+00  0.35740347158E-01  0.35744000000E-01  0.51099999109E-03 0. -1.
       11   -1    0    0    0    0 -0.00000000000E+00 -0.00000000000E+00 -0.35740347158E-01  0.35744000000E-01  0.51099999109E-03 0.  1.
       22    1    1    2    0    0 -0.14189855746E-01  0.63268514901E-02 -0.32183109374E-01  0.35737005818E-01  0.00000000000E+00 0.  1.
  9000001    1    1    2    0    0  0.14189855746E-01 -0.63268514901E-02  0.32183109374E-01  0.35750994182E-01  0.10000000475E-02 0. -1.
</event>
<event>
 4   0  0.4958067E-02  0.9118800E+02  0.7818609E-02  0.1379984E+01
      -11   -1    0    0    0    0  0.00000000000E+00  0.00000000000E+00  0.35740347158E-01  0.35744000000E-01  0.51099999109E-03 0.  1.
       11   -1    0    0    0    0 -0.00000000000E+00 -0.00000000000E+00 -0.35740347158E-01  0.35744000000E-01  0.51099999109E-03 0. -1.
       22    1    1    2    0    0  0.11154593899E-02  0.22300116506E-01 -0.27903299788E-01  0.35737005818E-01  0.00000000000E+00 0. -1.
  9000001    1    1    2    0    0 -0.11154593899E-02 -0.22300116506E-01  0.27903299788E-01  0.35750994182E-01  0.10000000475E-02 0.  1.
</event>
<event>
 4   0  0.4958067E-02  0.9118800E+02  0.7818609E-02  0.1379984E+01
      -11   -1    0    0    0    0  0.00000000000E+00  0.00000000000E+00  0.35740347158E-01  0.35744000000E-01  0.51099999109E-03 0.  1.
       11   -1    0    0    0    0 -0.00000000000E+00 -0.00000000000E+00 -0.35740347158E-01  0.35744000000E-01  0.51099999109E-03 0. -1.
       22    1    1    2    0    0  0.46035739935E-02 -0.36376041829E-02 -0.35252071246E-01  0.35737005818E-01  0.00000000000E+00 0. -1.
  9000001    1    1    2    0    0 -0.46035739935E-02  0.36376041829E-02  0.35252071246E-01  0.35750994182E-01  0.10000000475E-02 0.  1.
</event>
<event>
 4   0  0.4958067E-02  0.9118800E+02  0.7818609E-02  0.1379984E+01
      -11   -1    0    0    0    0  0.00000000000E+00  0.00000000000E+00  0.35740347158E-01  0.35744000000E-01  0.51099999109E-03 0.  1.
       11   -1    0    0    0    0 -0.00000000000E+00 -0.00000000000E+00 -0.35740347158E-01  0.35744000000E-01  0.51099999109E-03 0. -1.
       22    1    1    2    0    0 -0.30887659364E-02  0.10322216487E-01  0.34074109771E-01  0.35737005818E-01  0.00000000000E+00 0.  1.
  9000001    1    1    2    0    0  0.30887659364E-02 -0.10322216487E-01 -0.34074109771E-01  0.35750994182E-01  0.10000000475E-02 0. -1.
</event>
<event>
 4   0  0.4958067E-02  0.9118800E+02  0.7818609E-02  0.1379984E+01
      -11   -1    0    0    0    0  0.00000000000E+00  0.00000000000E+00  0.35740347158E-01  0.35744000000E-01  0.51099999109E-03 0.  1.
       11   -1    0    0    0    0 -0.00000000000E+00 -0.00000000000E+00 -0.35740347158E-01  0.35744000000E-01  0.51099999109E-03 0. -1.
       22    1    1    2    0    0  0.68495377122E-02  0.23478368176E-01 -0.26057314632E-01  0.35737005818E-01  0.00000000000E+00 0. -1.
  9000001    1    1    2    0    0 -0.68495377122E-02 -0.23478368176E-01  0.26057314632E-01  0.35750994182E-01  0.10000000475E-02 0.  1.
</event>
<event>
 4   0  0.4958067E-02  0.9118800E+02  0.7818609E-02  0.1379984E+01
      -11   -1    0    0    0    0  0.00000000000E+00  0.00000000000E+00  0.35740347158E-01  0.35744000000E-01  0.51099999109E-03 0. -1.
       11   -1    0    0    0    0 -0.00000000000E+00 -0.00000000000E+00 -0.35740347158E-01  0.35744000000E-01  0.51099999109E-03 0.  1.
       22    1    1    2    0    0  0.51408075713E-02  0.15139897555E-02  0.35332895684E-01  0.35737005818E-01  0.00000000000E+00 0. -1.
  9000001    1    1    2    0    0 -0.51408075713E-02 -0.15139897555E-02 -0.35332895684E-01  0.35750994182E-01  0.10000000475E-02 0.  1.
</event>
<event>
 4   0  0.4958067E-02  0.9118800E+02  0.7818609E-02  0.1379984E+01
      -11   -1    0    0    0    0  0.00000000000E+00  0.00000000000E+00  0.35740347158E-01  0.35744000000E-01  0.51099999109E-03 0.  1.
       11   -1    0    0    0    0 -0.00000000000E+00 -0.00000000000E+00 -0.35740347158E-01  0.35744000000E-01  0.51099999109E-03 0. -1.
       22    1    1    2    0    0  0.46011317594E-02  0.92239344424E-02  0.34218156070E-01  0.35737005818E-01  0.00000000000E+00 0.  1.
  9000001    1    1    2    0    0 -0.46011317594E-02 -0.92239344424E-02 -0.34218156070E-01  0.35750994182E-01  0.10000000475E-02 0. -1.
</event>
<event>
 4   0  0.4958067E-02  0.9118800E+02  0.7818609E-02  0.1379984E+01
      -11   -1    0    0    0    0  0.00000000000E+00  0.00000000000E+00  0.35740347158E-01  0.35744000000E-01  0.51099999109E-03 0. -1.
       11   -1    0    0    0    0 -0.00000000000E+00 -0.00000000000E+00 -0.35740347158E-01  0.35744000000E-01  0.51099999109E-03 0.  1.
       22    1    1    2    0    0  0.50564482027E-02  0.28600466964E-02  0.35261679616E-01  0.35737005818E-01  0.00000000000E+00 0. -1.
  9000001    1    1    2    0    0 -0.50564482027E-02 -0.28600466964E-02 -0.35261679616E-01  0.35750994182E-01  0.10000000475E-02 0.  1.
</event>
<event>
 4   0  0.4958067E-02  0.9118800E+02  0.7818609E-02  0.1379984E+01
      -11   -1    0    0    0    0  0.00000000000E+00  0.00000000000E+00  0.35740347158E-01  0.35744000000E-01  0.51099999109E-03 0. -1.
       11   -1    0    0    0    0 -0.00000000000E+00 -0.00000000000E+00 -0.35740347158E-01  0.35744000000E-01  0.51099999109E-03 0.  1.
       22    1    1    2    0    0  0.73651776520E-02  0.13811049125E-01 -0.32126977217E-01  0.35737005818E-01  0.00000000000E+00 0.  1.
  9000001    1    1    2    0    0 -0.73651776520E-02 -0.13811049125E-01  0.32126977217E-01  0.35750994182E-01  0.10000000475E-02 0. -1.
</event>
<event>
 4   0  0.4958067E-02  0.9118800E+02  0.7818609E-02  0.1379984E+01
      -11   -1    0    0    0    0  0.00000000000E+00  0.00000000000E+00  0.35740347158E-01  0.35744000000E-01  0.51099999109E-03 0. -1.
       11   -1    0    0    0    0 -0.00000000000E+00 -0.00000000000E+00 -0.35740347158E-01  0.35744000000E-01  0.51099999109E-03 0.  1.
       22    1    1    2    0    0 -0.65617082249E-02 -0.52192477284E-02  0.34739559917E-01  0.35737005818E-01  0.00000000000E+00 0. -1.
  9000001    1    1    2    0    0  0.65617082249E-02  0.52192477284E-02 -0.34739559917E-01  0.35750994182E-01  0.10000000475E-02 0.  1.
</event>
<event>
 4   0  0.4958067E-02  0.9118800E+02  0.7818609E-02  0.1379984E+01
      -11   -1    0    0    0    0  0.00000000000E+00  0.00000000000E+00  0.35740347158E-01  0.35744000000E-01  0.51099999109E-03 0.  1.
       11   -1    0    0    0    0 -0.00000000000E+00 -0.00000000000E+00 -0.35740347158E-01  0.35744000000E-01  0.51099999109E-03 0. -1.
       22    1    1    2    0    0 -0.51742455395E-02 -0.38612572232E-02  0.35148989468E-01  0.35737005818E-01  0.00000000000E+00 0.  1.
  9000001    1    1    2    0    0  0.51742455395E-02  0.38612572232E-02 -0.35148989468E-01  0.35750994182E-01  0.10000000475E-02 0. -1.
</event>
<event>
 4   0  0.4958067E-02  0.9118800E+02  0.7818609E-02  0.1379984E+01
      -11   -1    0    0    0    0  0.00000000000E+00  0.00000000000E+00  0.35740347158E-01  0.35744000000E-01  0.51099999109E-03 0. -1.
       11   -1    0    0    0    0 -0.00000000000E+00 -0.00000000000E+00 -0.35740347158E-01  0.35744000000E-01  0.51099999109E-03 0.  1.
       22    1    1    2    0    0  0.43972344738E-02 -0.17916442794E-02  0.35420162685E-01  0.35737005818E-01  0.00000000000E+00 0. -1.
  9000001    1    1    2    0    0 -0.43972344738E-02  0.17916442794E-02 -0.35420162685E-01  0.35750994182E-01  0.10000000475E-02 0.  1.
</event>
<event>
 4   0  0.4958067E-02  0.9118800E+02  0.7818609E-02  0.1379984E+01
      -11   -1    0    0    0    0  0.00000000000E+00  0.00000000000E+00  0.35740347158E-01  0.35744000000E-01  0.51099999109E-03 0.  1.
       11   -1    0    0    0    0 -0.00000000000E+00 -0.00000000000E+00 -0.35740347158E-01  0.35744000000E-01  0.51099999109E-03 0. -1.
       22    1    1    2    0    0  0.31836842829E-02 -0.96151383535E-03 -0.35581922804E-01  0.35737005818E-01  0.00000000000E+00 0. -1.
  9000001    1    1    2    0    0 -0.31836842829E-02  0.96151383535E-03  0.35581922804E-01  0.35750994182E-01  0.10000000475E-02 0.  1.
</event>
<event>
 4   0  0.4958067E-02  0.9118800E+02  0.7818609E-02  0.1379984E+01
      -11   -1    0    0    0    0  0.00000000000E+00  0.00000000000E+00  0.35740347158E-01  0.35744000000E-01  0.51099999109E-03 0. -1.
       11   -1    0    0    0    0 -0.00000000000E+00 -0.00000000000E+00 -0.35740347158E-01  0.35744000000E-01  0.51099999109E-03 0.  1.
       22    1    1    2    0    0  0.19504839317E-02  0.23195828942E-02  0.35608267755E-01  0.35737005818E-01  0.00000000000E+00 0. -1.
  9000001    1    1    2    0    0 -0.19504839317E-02 -0.23195828942E-02 -0.35608267755E-01  0.35750994182E-01  0.10000000475E-02 0.  1.
</event>
<event>
 4   0  0.4958067E-02  0.9118800E+02  0.7818609E-02  0.1379984E+01
      -11   -1    0    0    0    0  0.00000000000E+00  0.00000000000E+00  0.35740347158E-01  0.35744000000E-01  0.51099999109E-03 0.  1.
       11   -1    0    0    0    0 -0.00000000000E+00 -0.00000000000E+00 -0.35740347158E-01  0.35744000000E-01  0.51099999109E-03 0. -1.
       22    1    1    2    0    0 -0.17124826900E-01 -0.36126880311E-02 -0.31158022622E-01  0.35737005818E-01  0.00000000000E+00 0. -1.
  9000001    1    1    2    0    0  0.17124826900E-01  0.36126880311E-02  0.31158022622E-01  0.35750994182E-01  0.10000000475E-02 0.  1.
</event>
<event>
 4   0  0.4958067E-02  0.9118800E+02  0.7818609E-02  0.1379984E+01
      -11   -1    0    0    0    0  0.00000000000E+00  0.00000000000E+00  0.35740347158E-01  0.35744000000E-01  0.51099999109E-03 0.  1.
       11   -1    0    0    0    0 -0.00000000000E+00 -0.00000000000E+00 -0.35740347158E-01  0.35744000000E-01  0.51099999109E-03 0. -1.
       22    1    1    2    0    0 -0.83895482757E-02 -0.34720970289E-01  0.10969443014E-02  0.35737005818E-01  0.00000000000E+00 0.  1.
  9000001    1    1    2    0    0  0.83895482757E-02  0.34720970289E-01 -0.10969443014E-02  0.35750994182E-01  0.10000000475E-02 0. -1.
</event>
<event>
 4   0  0.4958067E-02  0.9118800E+02  0.7818609E-02  0.1379984E+01
      -11   -1    0    0    0    0  0.00000000000E+00  0.00000000000E+00  0.35740347158E-01  0.35744000000E-01  0.51099999109E-03 0.  1.
       11   -1    0    0    0    0 -0.00000000000E+00 -0.00000000000E+00 -0.35740347158E-01  0.35744000000E-01  0.51099999109E-03 0. -1.
       22    1    1    2    0    0  0.11226576240E-01  0.18824623056E-01  0.28226426228E-01  0.35737005818E-01  0.00000000000E+00 0.  1.
  9000001    1    1    2    0    0 -0.11226576240E-01 -0.18824623056E-01 -0.28226426228E-01  0.35750994182E-01  0.10000000475E-02 0. -1.
</event>
<event>
 4   0  0.4958067E-02  0.9118800E+02  0.7818609E-02  0.1379984E+01
      -11   -1    0    0    0    0  0.00000000000E+00  0.00000000000E+00  0.35740347158E-01  0.35744000000E-01  0.51099999109E-03 0.  1.
       11   -1    0    0    0    0 -0.00000000000E+00 -0.00000000000E+00 -0.35740347158E-01  0.35744000000E-01  0.51099999109E-03 0. -1.
       22    1    1    2    0    0 -0.76692519001E-02  0.45695586192E-02 -0.34603978011E-01  0.35737005818E-01  0.00000000000E+00 0. -1.
  9000001    1    1    2    0    0  0.76692519001E-02 -0.45695586192E-02  0.34603978011E-01  0.35750994182E-01  0.10000000475E-02 0.  1.
</event>
<event>
 4   0  0.4958067E-02  0.9118800E+02  0.7818609E-02  0.1379984E+01
      -11   -1    0    0    0    0  0.00000000000E+00  0.00000000000E+00  0.35740347158E-01  0.35744000000E-01  0.51099999109E-03 0. -1.
       11   -1    0    0    0    0 -0.00000000000E+00 -0.00000000000E+00 -0.35740347158E-01  0.35744000000E-01  0.51099999109E-03 0.  1.
       22    1    1    2    0    0 -0.90590008113E-04 -0.37500812771E-02 -0.35539587346E-01  0.35737005818E-01  0.00000000000E+00 0.  1.
  9000001    1    1    2    0    0  0.90590008113E-04  0.37500812771E-02  0.35539587346E-01  0.35750994182E-01  0.10000000475E-02 0. -1.
</event>
<event>
 4   0  0.4958067E-02  0.9118800E+02  0.7818609E-02  0.1379984E+01
      -11   -1    0    0    0    0  0.00000000000E+00  0.00000000000E+00  0.35740347158E-01  0.35744000000E-01  0.51099999109E-03 0.  1.
       11   -1    0    0    0    0 -0.00000000000E+00 -0.00000000000E+00 -0.35740347158E-01  0.35744000000E-01  0.51099999109E-03 0. -1.
       22    1    1    2    0    0  0.13354546697E-02  0.21126842007E-01 -0.28792476318E-01  0.35737005818E-01  0.00000000000E+00 0. -1.
  9000001    1    1    2    0    0 -0.13354546697E-02 -0.21126842007E-01  0.28792476318E-01  0.35750994182E-01  0.10000000475E-02 0.  1.
</event>
<event>
 4   0  0.4958067E-02  0.9118800E+02  0.7818609E-02  0.1379984E+01
      -11   -1    0    0    0    0  0.00000000000E+00  0.00000000000E+00  0.35740347158E-01  0.35744000000E-01  0.51099999109E-03 0.  1.
       11   -1    0    0    0    0 -0.00000000000E+00 -0.00000000000E+00 -0.35740347158E-01  0.35744000000E-01  0.51099999109E-03 0. -1.
       22    1    1    2    0    0 -0.34146128394E-01  0.10194673477E-01  0.26914927551E-02  0.35737005818E-01  0.00000000000E+00 0.  1.
  9000001    1    1    2    0    0  0.34146128394E-01 -0.10194673477E-01 -0.26914927551E-02  0.35750994182E-01  0.10000000475E-02 0. -1.
</event>
<event>
 4   0  0.4958067E-02  0.9118800E+02  0.7818609E-02  0.1379984E+01
      -11   -1    0    0    0    0  0.00000000000E+00  0.00000000000E+00  0.35740347158E-01  0.35744000000E-01  0.51099999109E-03 0.  1.
       11   -1    0    0    0    0 -0.00000000000E+00 -0.00000000000E+00 -0.35740347158E-01  0.35744000000E-01  0.51099999109E-03 0. -1.
       22    1    1    2    0    0  0.68830045017E-02 -0.92177616626E-02  0.33834755856E-01  0.35737005818E-01  0.00000000000E+00 0.  1.
  9000001    1    1    2    0    0 -0.68830045017E-02  0.92177616626E-02 -0.33834755856E-01  0.35750994182E-01  0.10000000475E-02 0. -1.
</event>
<event>
 4   0  0.4958067E-02  0.9118800E+02  0.7818609E-02  0.1379984E+01
      -11   -1    0    0    0    0  0.00000000000E+00  0.00000000000E+00  0.35740347158E-01  0.35744000000E-01  0.51099999109E-03 0.  1.
       11   -1    0    0    0    0 -0.00000000000E+00 -0.00000000000E+00 -0.35740347158E-01  0.35744000000E-01  0.51099999109E-03 0. -1.
       22    1    1    2    0    0  0.34237518481E-01  0.55162204404E-02 -0.86311775107E-02  0.35737005818E-01  0.00000000000E+00 0. -1.
  9000001    1    1    2    0    0 -0.34237518481E-01 -0.55162204404E-02  0.86311775107E-02  0.35750994182E-01  0.10000000475E-02 0.  1.
</event>
<event>
 4   0  0.4958067E-02  0.9118800E+02  0.7818609E-02  0.1379984E+01
      -11   -1    0    0    0    0  0.00000000000E+00  0.00000000000E+00  0.35740347158E-01  0.35744000000E-01  0.51099999109E-03 0.  1.
       11   -1    0    0    0    0 -0.00000000000E+00 -0.00000000000E+00 -0.35740347158E-01  0.35744000000E-01  0.51099999109E-03 0. -1.
       22    1    1    2    0    0  0.12836546124E-02 -0.29246066947E-02 -0.35593995159E-01  0.35737005818E-01  0.00000000000E+00 0. -1.
  9000001    1    1    2    0    0 -0.12836546124E-02  0.29246066947E-02  0.35593995159E-01  0.35750994182E-01  0.10000000475E-02 0.  1.
</event>
<event>
 4   0  0.4958067E-02  0.9118800E+02  0.7818609E-02  0.1379984E+01
      -11   -1    0    0    0    0  0.00000000000E+00  0.00000000000E+00  0.35740347158E-01  0.35744000000E-01  0.51099999109E-03 0.  1.
       11   -1    0    0    0    0 -0.00000000000E+00 -0.00000000000E+00 -0.35740347158E-01  0.35744000000E-01  0.51099999109E-03 0. -1.
       22    1    1    2    0    0  0.47644279771E-02 -0.23038959233E-01 -0.26900560745E-01  0.35737005818E-01  0.00000000000E+00 0. -1.
  9000001    1    1    2    0    0 -0.47644279771E-02  0.23038959233E-01  0.26900560745E-01  0.35750994182E-01  0.10000000475E-02 0.  1.
</event>
<event>
 4   0  0.4958067E-02  0.9118800E+02  0.7818609E-02  0.1379984E+01
      -11   -1    0    0    0    0  0.00000000000E+00  0.00000000000E+00  0.35740347158E-01  0.35744000000E-01  0.51099999109E-03 0. -1.
       11   -1    0    0    0    0 -0.00000000000E+00 -0.00000000000E+00 -0.35740347158E-01  0.35744000000E-01  0.51099999109E-03 0.  1.
       22    1    1    2    0    0  0.60522243933E-02 -0.36830229732E-02  0.35027696278E-01  0.35737005818E-01  0.00000000000E+00 0. -1.
  9000001    1    1    2    0    0 -0.60522243933E-02  0.36830229732E-02 -0.35027696278E-01  0.35750994182E-01  0.10000000475E-02 0.  1.
</event>
<event>
 4   0  0.4958067E-02  0.9118800E+02  0.7818609E-02  0.1379984E+01
      -11   -1    0    0    0    0  0.00000000000E+00  0.00000000000E+00  0.35740347158E-01  0.35744000000E-01  0.51099999109E-03 0.  1.
       11   -1    0    0    0    0 -0.00000000000E+00 -0.00000000000E+00 -0.35740347158E-01  0.35744000000E-01  0.51099999109E-03 0. -1.
       22    1    1    2    0    0  0.35248218916E-02  0.77415047636E-03  0.35554323317E-01  0.35737005818E-01  0.00000000000E+00 0.  1.
  9000001    1    1    2    0    0 -0.35248218916E-02 -0.77415047636E-03 -0.35554323317E-01  0.35750994182E-01  0.10000000475E-02 0. -1.
</event>
<event>
 4   0  0.4958067E-02  0.9118800E+02  0.7818609E-02  0.1379984E+01
      -11   -1    0    0    0    0  0.00000000000E+00  0.00000000000E+00  0.35740347158E-01  0.35744000000E-01  0.51099999109E-03 0. -1.
       11   -1    0    0    0    0 -0.00000000000E+00 -0.00000000000E+00 -0.35740347158E-01  0.35744000000E-01  0.51099999109E-03 0.  1.
       22    1    1    2    0    0  0.81735630975E-02 -0.25356618460E-01  0.23819495197E-01  0.35737005818E-01  0.00000000000E+00 0. -1.
  9000001    1    1    2    0    0 -0.81735630975E-02  0.25356618460E-01 -0.23819495197E-01  0.35750994182E-01  0.10000000475E-02 0.  1.
</event>
<event>
 4   0  0.4958067E-02  0.9118800E+02  0.7818609E-02  0.1379984E+01
      -11   -1    0    0    0    0  0.00000000000E+00  0.00000000000E+00  0.35740347158E-01  0.35744000000E-01  0.51099999109E-03 0.  1.
       11   -1    0    0    0    0 -0.00000000000E+00 -0.00000000000E+00 -0.35740347158E-01  0.35744000000E-01  0.51099999109E-03 0. -1.
       22    1    1    2    0    0 -0.14369060391E-01 -0.77755109421E-02 -0.31783724104E-01  0.35737005818E-01  0.00000000000E+00 0. -1.
  9000001    1    1    2    0    0  0.14369060391E-01  0.77755109421E-02  0.31783724104E-01  0.35750994182E-01  0.10000000475E-02 0.  1.
</event>
<event>
 4   0  0.4958067E-02  0.9118800E+02  0.7818609E-02  0.1379984E+01
      -11   -1    0    0    0    0  0.00000000000E+00  0.00000000000E+00  0.35740347158E-01  0.35744000000E-01  0.51099999109E-03 0.  1.
       11   -1    0    0    0    0 -0.00000000000E+00 -0.00000000000E+00 -0.35740347158E-01  0.35744000000E-01  0.51099999109E-03 0. -1.
       22    1    1    2    0    0  0.10756552861E-01  0.32190687821E-01  0.11188823578E-01  0.35737005818E-01  0.00000000000E+00 0.  1.
  9000001    1    1    2    0    0 -0.10756552861E-01 -0.32190687821E-01 -0.11188823578E-01  0.35750994182E-01  0.10000000475E-02 0. -1.
</event>
<event>
 4   0  0.4958067E-02  0.9118800E+02  0.7818609E-02  0.1379984E+01
      -11   -1    0    0    0    0  0.00000000000E+00  0.00000000000E+00  0.35740347158E-01  0.35744000000E-01  0.51099999109E-03 0.  1.
       11   -1    0    0    0    0 -0.00000000000E+00 -0.00000000000E+00 -0.35740347158E-01  0.35744000000E-01  0.51099999109E-03 0. -1.
       22    1    1    2    0    0  0.28904165971E-01  0.15176907971E-01  0.14537683407E-01  0.35737005818E-01  0.00000000000E+00 0.  1.
  9000001    1    1    2    0    0 -0.28904165971E-01 -0.15176907971E-01 -0.14537683407E-01  0.35750994182E-01  0.10000000475E-02 0. -1.
</event>
<event>
 4   0  0.4958067E-02  0.9118800E+02  0.7818609E-02  0.1379984E+01
      -11   -1    0    0    0    0  0.00000000000E+00  0.00000000000E+00  0.35740347158E-01  0.35744000000E-01  0.51099999109E-03 0. -1.
       11   -1    0    0    0    0 -0.00000000000E+00 -0.00000000000E+00 -0.35740347158E-01  0.35744000000E-01  0.51099999109E-03 0.  1.
       22    1    1    2    0    0 -0.60388558759E-02  0.92575237365E-03 -0.35210918578E-01  0.35737005818E-01  0.00000000000E+00 0.  1.
  9000001    1    1    2    0    0  0.60388558759E-02 -0.92575237365E-03  0.35210918578E-01  0.35750994182E-01  0.10000000475E-02 0. -1.
</event>
<event>
 4   0  0.4958067E-02  0.9118800E+02  0.7818609E-02  0.1379984E+01
      -11   -1    0    0    0    0  0.00000000000E+00  0.00000000000E+00  0.35740347158E-01  0.35744000000E-01  0.51099999109E-03 0. -1.
       11   -1    0    0    0    0 -0.00000000000E+00 -0.00000000000E+00 -0.35740347158E-01  0.35744000000E-01  0.51099999109E-03 0.  1.
       22    1    1    2    0    0  0.11557602958E-01  0.17436883050E-01  0.28974307727E-01  0.35737005818E-01  0.00000000000E+00 0. -1.
  9000001    1    1    2    0    0 -0.11557602958E-01 -0.17436883050E-01 -0.28974307727E-01  0.35750994182E-01  0.10000000475E-02 0.  1.
</event>
<event>
 4   0  0.4958067E-02  0.9118800E+02  0.7818609E-02  0.1379984E+01
      -11   -1    0    0    0    0  0.00000000000E+00  0.00000000000E+00  0.35740347158E-01  0.35744000000E-01  0.51099999109E-03 0. -1.
       11   -1    0    0    0    0 -0.00000000000E+00 -0.00000000000E+00 -0.35740347158E-01  0.35744000000E-01  0.51099999109E-03 0.  1.
       22    1    1    2    0    0 -0.11870495009E-01 -0.64576887319E-02  0.33083578847E-01  0.35737005818E-01  0.00000000000E+00 0. -1.
  9000001    1    1    2    0    0  0.11870495009E-01  0.64576887319E-02 -0.33083578847E-01  0.35750994182E-01  0.10000000475E-02 0.  1.
</event>
<event>
 4   0  0.4958067E-02  0.9118800E+02  0.7818609E-02  0.1379984E+01
      -11   -1    0    0    0    0  0.00000000000E+00  0.00000000000E+00  0.35740347158E-01  0.35744000000E-01  0.51099999109E-03 0. -1.
       11   -1    0    0    0    0 -0.00000000000E+00 -0.00000000000E+00 -0.35740347158E-01  0.35744000000E-01  0.51099999109E-03 0.  1.
       22    1    1    2    0    0  0.65791349586E-02 -0.13359986995E-02 -0.35100764601E-01  0.35737005818E-01  0.00000000000E+00 0.  1.
  9000001    1    1    2    0    0 -0.65791349586E-02  0.13359986995E-02  0.35100764601E-01  0.35750994182E-01  0.10000000475E-02 0. -1.
</event>
<event>
 4   0  0.4958067E-02  0.9118800E+02  0.7818609E-02  0.1379984E+01
      -11   -1    0    0    0    0  0.00000000000E+00  0.00000000000E+00  0.35740347158E-01  0.35744000000E-01  0.51099999109E-03 0.  1.
       11   -1    0    0    0    0 -0.00000000000E+00 -0.00000000000E+00 -0.35740347158E-01  0.35744000000E-01  0.51099999109E-03 0. -1.
       22    1    1    2    0    0  0.11408591414E-01 -0.33249093035E-01 -0.64401427894E-02  0.35737005818E-01  0.00000000000E+00 0. -1.
  9000001    1    1    2    0    0 -0.11408591414E-01  0.33249093035E-01  0.64401427894E-02  0.35750994182E-01  0.10000000475E-02 0.  1.
</event>
<event>
 4   0  0.4958067E-02  0.9118800E+02  0.7818609E-02  0.1379984E+01
      -11   -1    0    0    0    0  0.00000000000E+00  0.00000000000E+00  0.35740347158E-01  0.35744000000E-01  0.51099999109E-03 0.  1.
       11   -1    0    0    0    0 -0.00000000000E+00 -0.00000000000E+00 -0.35740347158E-01  0.35744000000E-01  0.51099999109E-03 0. -1.
       22    1    1    2    0    0  0.22095284058E-01 -0.41307948675E-02 -0.27782522222E-01  0.35737005818E-01  0.00000000000E+00 0. -1.
  9000001    1    1    2    0    0 -0.22095284058E-01  0.41307948675E-02  0.27782522222E-01  0.35750994182E-01  0.10000000475E-02 0.  1.
</event>
<event>
 4   0  0.4958067E-02  0.9118800E+02  0.7818609E-02  0.1379984E+01
      -11   -1    0    0    0    0  0.00000000000E+00  0.00000000000E+00  0.35740347158E-01  0.35744000000E-01  0.51099999109E-03 0. -1.
       11   -1    0    0    0    0 -0.00000000000E+00 -0.00000000000E+00 -0.35740347158E-01  0.35744000000E-01  0.51099999109E-03 0.  1.
       22    1    1    2    0    0  0.23838123904E-03  0.35714196466E-02  0.35557301936E-01  0.35737005818E-01  0.00000000000E+00 0. -1.
  9000001    1    1    2    0    0 -0.23838123904E-03 -0.35714196466E-02 -0.35557301936E-01  0.35750994182E-01  0.10000000475E-02 0.  1.
</event>
<event>
 4   0  0.4958067E-02  0.9118800E+02  0.7818609E-02  0.1379984E+01
      -11   -1    0    0    0    0  0.00000000000E+00  0.00000000000E+00  0.35740347158E-01  0.35744000000E-01  0.51099999109E-03 0.  1.
       11   -1    0    0    0    0 -0.00000000000E+00 -0.00000000000E+00 -0.35740347158E-01  0.35744000000E-01  0.51099999109E-03 0. -1.
       22    1    1    2    0    0 -0.13854365120E-01  0.14514369895E-01 -0.29572338740E-01  0.35737005818E-01  0.00000000000E+00 0. -1.
  9000001    1    1    2    0    0  0.13854365120E-01 -0.14514369895E-01  0.29572338740E-01  0.35750994182E-01  0.10000000475E-02 0.  1.
</event>
<event>
 4   0  0.4958067E-02  0.9118800E+02  0.7818609E-02  0.1379984E+01
      -11   -1    0    0    0    0  0.00000000000E+00  0.00000000000E+00  0.35740347158E-01  0.35744000000E-01  0.51099999109E-03 0.  1.
       11   -1    0    0    0    0 -0.00000000000E+00 -0.00000000000E+00 -0.35740347158E-01  0.35744000000E-01  0.51099999109E-03 0. -1.
       22    1    1    2    0    0 -0.20958615315E-02  0.18198442736E-01  0.30684811085E-01  0.35737005818E-01  0.00000000000E+00 0.  1.
  9000001    1    1    2    0    0  0.20958615315E-02 -0.18198442736E-01 -0.30684811085E-01  0.35750994182E-01  0.10000000475E-02 0. -1.
</event>
<event>
 4   0  0.4958067E-02  0.9118800E+02  0.7818609E-02  0.1379984E+01
      -11   -1    0    0    0    0  0.00000000000E+00  0.00000000000E+00  0.35740347158E-01  0.35744000000E-01  0.51099999109E-03 0. -1.
       11   -1    0    0    0    0 -0.00000000000E+00 -0.00000000000E+00 -0.35740347158E-01  0.35744000000E-01  0.51099999109E-03 0.  1.
       22    1    1    2    0    0  0.25181914050E-02  0.21533369137E-02 -0.35583077959E-01  0.35737005818E-01  0.00000000000E+00 0.  1.
  9000001    1    1    2    0    0 -0.25181914050E-02 -0.21533369137E-02  0.35583077959E-01  0.35750994182E-01  0.10000000475E-02 0. -1.
</event>
<event>
 4   0  0.4958067E-02  0.9118800E+02  0.7818609E-02  0.1379984E+01
      -11   -1    0    0    0    0  0.00000000000E+00  0.00000000000E+00  0.35740347158E-01  0.35744000000E-01  0.51099999109E-03 0. -1.
       11   -1    0    0    0    0 -0.00000000000E+00 -0.00000000000E+00 -0.35740347158E-01  0.35744000000E-01  0.51099999109E-03 0.  1.
       22    1    1    2    0    0  0.26590455851E-01 -0.21565274387E-01 -0.10247935554E-01  0.35737005818E-01  0.00000000000E+00 0.  1.
  9000001    1    1    2    0    0 -0.26590455851E-01  0.21565274387E-01  0.10247935554E-01  0.35750994182E-01  0.10000000475E-02 0. -1.
</event>
<event>
 4   0  0.4958067E-02  0.9118800E+02  0.7818609E-02  0.1379984E+01
      -11   -1    0    0    0    0  0.00000000000E+00  0.00000000000E+00  0.35740347158E-01  0.35744000000E-01  0.51099999109E-03 0.  1.
       11   -1    0    0    0    0 -0.00000000000E+00 -0.00000000000E+00 -0.35740347158E-01  0.35744000000E-01  0.51099999109E-03 0. -1.
       22    1    1    2    0    0 -0.13705614970E-02 -0.70303084722E-02  0.35011853833E-01  0.35737005818E-01  0.00000000000E+00 0.  1.
  9000001    1    1    2    0    0  0.13705614970E-02  0.70303084722E-02 -0.35011853833E-01  0.35750994182E-01  0.10000000475E-02 0. -1.
</event>
<event>
 4   0  0.4958067E-02  0.9118800E+02  0.7818609E-02  0.1379984E+01
      -11   -1    0    0    0    0  0.00000000000E+00  0.00000000000E+00  0.35740347158E-01  0.35744000000E-01  0.51099999109E-03 0.  1.
       11   -1    0    0    0    0 -0.00000000000E+00 -0.00000000000E+00 -0.35740347158E-01  0.35744000000E-01  0.51099999109E-03 0. -1.
       22    1    1    2    0    0 -0.79524837171E-02  0.16569960541E-01  0.30648458285E-01  0.35737005818E-01  0.00000000000E+00 0.  1.
  9000001    1    1    2    0    0  0.79524837171E-02 -0.16569960541E-01 -0.30648458285E-01  0.35750994182E-01  0.10000000475E-02 0. -1.
</event>
<event>
 4   0  0.4958067E-02  0.9118800E+02  0.7818609E-02  0.1379984E+01
      -11   -1    0    0    0    0  0.00000000000E+00  0.00000000000E+00  0.35740347158E-01  0.35744000000E-01  0.51099999109E-03 0.  1.
       11   -1    0    0    0    0 -0.00000000000E+00 -0.00000000000E+00 -0.35740347158E-01  0.35744000000E-01  0.51099999109E-03 0. -1.
       22    1    1    2    0    0  0.20401985732E-01 -0.11850978940E-01  0.26841141206E-01  0.35737005818E-01  0.00000000000E+00 0.  1.
  9000001    1    1    2    0    0 -0.20401985732E-01  0.11850978940E-01 -0.26841141206E-01  0.35750994182E-01  0.10000000475E-02 0. -1.
</event>
<event>
 4   0  0.4958067E-02  0.9118800E+02  0.7818609E-02  0.1379984E+01
      -11   -1    0    0    0    0  0.00000000000E+00  0.00000000000E+00  0.35740347158E-01  0.35744000000E-01  0.51099999109E-03 0. -1.
       11   -1    0    0    0    0 -0.00000000000E+00 -0.00000000000E+00 -0.35740347158E-01  0.35744000000E-01  0.51099999109E-03 0.  1.
       22    1    1    2    0    0  0.31431195765E-02 -0.37632234782E-02  0.35399047067E-01  0.35737005818E-01  0.00000000000E+00 0. -1.
  9000001    1    1    2    0    0 -0.31431195765E-02  0.37632234782E-02 -0.35399047067E-01  0.35750994182E-01  0.10000000475E-02 0.  1.
</event>
<event>
 4   0  0.4958067E-02  0.9118800E+02  0.7818609E-02  0.1379984E+01
      -11   -1    0    0    0    0  0.00000000000E+00  0.00000000000E+00  0.35740347158E-01  0.35744000000E-01  0.51099999109E-03 0. -1.
       11   -1    0    0    0    0 -0.00000000000E+00 -0.00000000000E+00 -0.35740347158E-01  0.35744000000E-01  0.51099999109E-03 0.  1.
       22    1    1    2    0    0 -0.55645255056E-03  0.32472609230E-02  0.35584817576E-01  0.35737005818E-01  0.00000000000E+00 0. -1.
  9000001    1    1    2    0    0  0.55645255056E-03 -0.32472609230E-02 -0.35584817576E-01  0.35750994182E-01  0.10000000475E-02 0.  1.
</event>
<event>
 4   0  0.4958067E-02  0.9118800E+02  0.7818609E-02  0.1379984E+01
      -11   -1    0    0    0    0  0.00000000000E+00  0.00000000000E+00  0.35740347158E-01  0.35744000000E-01  0.51099999109E-03 0.  1.
       11   -1    0    0    0    0 -0.00000000000E+00 -0.00000000000E+00 -0.35740347158E-01  0.35744000000E-01  0.51099999109E-03 0. -1.
       22    1    1    2    0    0  0.23680251409E-02 -0.81893522484E-02  0.34705338949E-01  0.35737005818E-01  0.00000000000E+00 0.  1.
  9000001    1    1    2    0    0 -0.23680251409E-02  0.81893522484E-02 -0.34705338949E-01  0.35750994182E-01  0.10000000475E-02 0. -1.
</event>
<event>
 4   0  0.4958067E-02  0.9118800E+02  0.7818609E-02  0.1379984E+01
      -11   -1    0    0    0    0  0.00000000000E+00  0.00000000000E+00  0.35740347158E-01  0.35744000000E-01  0.51099999109E-03 0.  1.
       11   -1    0    0    0    0 -0.00000000000E+00 -0.00000000000E+00 -0.35740347158E-01  0.35744000000E-01  0.51099999109E-03 0. -1.
       22    1    1    2    0    0  0.13974832841E-01 -0.32889890864E-01 -0.30448463751E-03  0.35737005818E-01  0.00000000000E+00 0. -1.
  9000001    1    1    2    0    0 -0.13974832841E-01  0.32889890864E-01  0.30448463751E-03  0.35750994182E-01  0.10000000475E-02 0.  1.
</event>
<event>
 4   0  0.4958067E-02  0.9118800E+02  0.7818609E-02  0.1379984E+01
      -11   -1    0    0    0    0  0.00000000000E+00  0.00000000000E+00  0.35740347158E-01  0.35744000000E-01  0.51099999109E-03 0.  1.
       11   -1    0    0    0    0 -0.00000000000E+00 -0.00000000000E+00 -0.35740347158E-01  0.35744000000E-01  0.51099999109E-03 0. -1.
       22    1    1    2    0    0  0.10196979531E-01  0.17582937987E-01  0.29393800113E-01  0.35737005818E-01  0.00000000000E+00 0.  1.
  9000001    1    1    2    0    0 -0.10196979531E-01 -0.17582937987E-01 -0.29393800113E-01  0.35750994182E-01  0.10000000475E-02 0. -1.
</event>
<event>
 4   0  0.4958067E-02  0.9118800E+02  0.7818609E-02  0.1379984E+01
      -11   -1    0    0    0    0  0.00000000000E+00  0.00000000000E+00  0.35740347158E-01  0.35744000000E-01  0.51099999109E-03 0. -1.
       11   -1    0    0    0    0 -0.00000000000E+00 -0.00000000000E+00 -0.35740347158E-01  0.35744000000E-01  0.51099999109E-03 0.  1.
       22    1    1    2    0    0 -0.51464595525E-02  0.21807589479E-01 -0.27840197198E-01  0.35737005818E-01  0.00000000000E+00 0.  1.
  9000001    1    1    2    0    0  0.51464595525E-02 -0.21807589479E-01  0.27840197198E-01  0.35750994182E-01  0.10000000475E-02 0. -1.
</event>
<event>
 4   0  0.4958067E-02  0.9118800E+02  0.7818609E-02  0.1379984E+01
      -11   -1    0    0    0    0  0.00000000000E+00  0.00000000000E+00  0.35740347158E-01  0.35744000000E-01  0.51099999109E-03 0. -1.
       11   -1    0    0    0    0 -0.00000000000E+00 -0.00000000000E+00 -0.35740347158E-01  0.35744000000E-01  0.51099999109E-03 0.  1.
       22    1    1    2    0    0  0.14682644499E-01 -0.26619074484E-02 -0.32472569719E-01  0.35737005818E-01  0.00000000000E+00 0.  1.
  9000001    1    1    2    0    0 -0.14682644499E-01  0.26619074484E-02  0.32472569719E-01  0.35750994182E-01  0.10000000475E-02 0. -1.
</event>
<event>
 4   0  0.4958067E-02  0.9118800E+02  0.7818609E-02  0.1379984E+01
      -11   -1    0    0    0    0  0.00000000000E+00  0.00000000000E+00  0.35740347158E-01  0.35744000000E-01  0.51099999109E-03 0.  1.
       11   -1    0    0    0    0 -0.00000000000E+00 -0.00000000000E+00 -0.35740347158E-01  0.35744000000E-01  0.51099999109E-03 0. -1.
       22    1    1    2    0    0  0.47747954035E-02  0.30713808799E-02 -0.35283162177E-01  0.35737005818E-01  0.00000000000E+00 0. -1.
  9000001    1    1    2    0    0 -0.47747954035E-02 -0.30713808799E-02  0.35283162177E-01  0.35750994182E-01  0.10000000475E-02 0.  1.
</event>
<event>
 4   0  0.4958067E-02  0.9118800E+02  0.7818609E-02  0.1379984E+01
      -11   -1    0    0    0    0  0.00000000000E+00  0.00000000000E+00  0.35740347158E-01  0.35744000000E-01  0.51099999109E-03 0. -1.
       11   -1    0    0    0    0 -0.00000000000E+00 -0.00000000000E+00 -0.35740347158E-01  0.35744000000E-01  0.51099999109E-03 0.  1.
       22    1    1    2    0    0 -0.32367836610E-03 -0.35105365772E-02 -0.35562690423E-01  0.35737005818E-01  0.00000000000E+00 0.  1.
  9000001    1    1    2    0    0  0.32367836610E-03  0.35105365772E-02  0.35562690423E-01  0.35750994182E-01  0.10000000475E-02 0. -1.
</event>
<event>
 4   0  0.4958067E-02  0.9118800E+02  0.7818609E-02  0.1379984E+01
      -11   -1    0    0    0    0  0.00000000000E+00  0.00000000000E+00  0.35740347158E-01  0.35744000000E-01  0.51099999109E-03 0. -1.
       11   -1    0    0    0    0 -0.00000000000E+00 -0.00000000000E+00 -0.35740347158E-01  0.35744000000E-01  0.51099999109E-03 0.  1.
       22    1    1    2    0    0  0.76698034442E-02 -0.98096197645E-02 -0.33497448561E-01  0.35737005818E-01  0.00000000000E+00 0.  1.
  9000001    1    1    2    0    0 -0.76698034442E-02  0.98096197645E-02  0.33497448561E-01  0.35750994182E-01  0.10000000475E-02 0. -1.
</event>
<event>
 4   0  0.4958067E-02  0.9118800E+02  0.7818609E-02  0.1379984E+01
      -11   -1    0    0    0    0  0.00000000000E+00  0.00000000000E+00  0.35740347158E-01  0.35744000000E-01  0.51099999109E-03 0. -1.
       11   -1    0    0    0    0 -0.00000000000E+00 -0.00000000000E+00 -0.35740347158E-01  0.35744000000E-01  0.51099999109E-03 0.  1.
       22    1    1    2    0    0  0.10432793923E-01  0.19883157263E-01  0.27801986495E-01  0.35737005818E-01  0.00000000000E+00 0. -1.
  9000001    1    1    2    0    0 -0.10432793923E-01 -0.19883157263E-01 -0.27801986495E-01  0.35750994182E-01  0.10000000475E-02 0.  1.
</event>
<event>
 4   0  0.4958067E-02  0.9118800E+02  0.7818609E-02  0.1379984E+01
      -11   -1    0    0    0    0  0.00000000000E+00  0.00000000000E+00  0.35740347158E-01  0.35744000000E-01  0.51099999109E-03 0.  1.
       11   -1    0    0    0    0 -0.00000000000E+00 -0.00000000000E+00 -0.35740347158E-01  0.35744000000E-01  0.51099999109E-03 0. -1.
       22    1    1    2    0    0 -0.17333391680E-01 -0.18206191662E-02  0.31198917667E-01  0.35737005818E-01  0.00000000000E+00 0.  1.
  9000001    1    1    2    0    0  0.17333391680E-01  0.18206191662E-02 -0.31198917667E-01  0.35750994182E-01  0.10000000475E-02 0. -1.
</event>
<event>
 4   0  0.4958067E-02  0.9118800E+02  0.7818609E-02  0.1379984E+01
      -11   -1    0    0    0    0  0.00000000000E+00  0.00000000000E+00  0.35740347158E-01  0.35744000000E-01  0.51099999109E-03 0.  1.
       11   -1    0    0    0    0 -0.00000000000E+00 -0.00000000000E+00 -0.35740347158E-01  0.35744000000E-01  0.51099999109E-03 0. -1.
       22    1    1    2    0    0 -0.12646987247E-01  0.33138298855E-01 -0.43635361149E-02  0.35737005818E-01  0.00000000000E+00 0.  1.
  9000001    1    1    2    0    0  0.12646987247E-01 -0.33138298855E-01  0.43635361149E-02  0.35750994182E-01  0.10000000475E-02 0. -1.
</event>
<event>
 4   0  0.4958067E-02  0.9118800E+02  0.7818609E-02  0.1379984E+01
      -11   -1    0    0    0    0  0.00000000000E+00  0.00000000000E+00  0.35740347158E-01  0.35744000000E-01  0.51099999109E-03 0. -1.
       11   -1    0    0    0    0 -0.00000000000E+00 -0.00000000000E+00 -0.35740347158E-01  0.35744000000E-01  0.51099999109E-03 0.  1.
       22    1    1    2    0    0  0.36600731958E-02 -0.40375070636E-03 -0.35546792182E-01  0.35737005818E-01  0.00000000000E+00 0.  1.
  9000001    1    1    2    0    0 -0.36600731958E-02  0.40375070636E-03  0.35546792182E-01  0.35750994182E-01  0.10000000475E-02 0. -1.
</event>
<event>
 4   0  0.4958067E-02  0.9118800E+02  0.7818609E-02  0.1379984E+01
      -11   -1    0    0    0    0  0.00000000000E+00  0.00000000000E+00  0.35740347158E-01  0.35744000000E-01  0.51099999109E-03 0.  1.
       11   -1    0    0    0    0 -0.00000000000E+00 -0.00000000000E+00 -0.35740347158E-01  0.35744000000E-01  0.51099999109E-03 0. -1.
       22    1    1    2    0    0 -0.33029633325E-02  0.93532207047E-02 -0.34332801816E-01  0.35737005818E-01  0.00000000000E+00 0. -1.
  9000001    1    1    2    0    0  0.33029633325E-02 -0.93532207047E-02  0.34332801816E-01  0.35750994182E-01  0.10000000475E-02 0.  1.
</event>
<event>
 4   0  0.4958067E-02  0.9118800E+02  0.7818609E-02  0.1379984E+01
      -11   -1    0    0    0    0  0.00000000000E+00  0.00000000000E+00  0.35740347158E-01  0.35744000000E-01  0.51099999109E-03 0.  1.
       11   -1    0    0    0    0 -0.00000000000E+00 -0.00000000000E+00 -0.35740347158E-01  0.35744000000E-01  0.51099999109E-03 0. -1.
       22    1    1    2    0    0  0.48484566838E-02 -0.15965172272E-02  0.35370569481E-01  0.35737005818E-01  0.00000000000E+00 0.  1.
  9000001    1    1    2    0    0 -0.48484566838E-02  0.15965172272E-02 -0.35370569481E-01  0.35750994182E-01  0.10000000475E-02 0. -1.
</event>
<event>
 4   0  0.4958067E-02  0.9118800E+02  0.7818609E-02  0.1379984E+01
      -11   -1    0    0    0    0  0.00000000000E+00  0.00000000000E+00  0.35740347158E-01  0.35744000000E-01  0.51099999109E-03 0.  1.
       11   -1    0    0    0    0 -0.00000000000E+00 -0.00000000000E+00 -0.35740347158E-01  0.35744000000E-01  0.51099999109E-03 0. -1.
       22    1    1    2    0    0  0.56451682077E-02 -0.11595631378E-01  0.33328771260E-01  0.35737005818E-01  0.00000000000E+00 0.  1.
  9000001    1    1    2    0    0 -0.56451682077E-02  0.11595631378E-01 -0.33328771260E-01  0.35750994182E-01  0.10000000475E-02 0. -1.
</event>
<event>
 4   0  0.4958067E-02  0.9118800E+02  0.7818609E-02  0.1379984E+01
      -11   -1    0    0    0    0  0.00000000000E+00  0.00000000000E+00  0.35740347158E-01  0.35744000000E-01  0.51099999109E-03 0. -1.
       11   -1    0    0    0    0 -0.00000000000E+00 -0.00000000000E+00 -0.35740347158E-01  0.35744000000E-01  0.51099999109E-03 0.  1.
       22    1    1    2    0    0 -0.26380333465E-02 -0.29840334154E-02 -0.35514362018E-01  0.35737005818E-01  0.00000000000E+00 0.  1.
  9000001    1    1    2    0    0  0.26380333465E-02  0.29840334154E-02  0.35514362018E-01  0.35750994182E-01  0.10000000475E-02 0. -1.
</event>
<event>
 4   0  0.4958067E-02  0.9118800E+02  0.7818609E-02  0.1379984E+01
      -11   -1    0    0    0    0  0.00000000000E+00  0.00000000000E+00  0.35740347158E-01  0.35744000000E-01  0.51099999109E-03 0. -1.
       11   -1    0    0    0    0 -0.00000000000E+00 -0.00000000000E+00 -0.35740347158E-01  0.35744000000E-01  0.51099999109E-03 0.  1.
       22    1    1    2    0    0 -0.34967020690E-02 -0.30465896930E-02 -0.35434798585E-01  0.35737005818E-01  0.00000000000E+00 0.  1.
  9000001    1    1    2    0    0  0.34967020690E-02  0.30465896930E-02  0.35434798585E-01  0.35750994182E-01  0.10000000475E-02 0. -1.
</event>
<event>
 4   0  0.4958067E-02  0.9118800E+02  0.7818609E-02  0.1379984E+01
      -11   -1    0    0    0    0  0.00000000000E+00  0.00000000000E+00  0.35740347158E-01  0.35744000000E-01  0.51099999109E-03 0. -1.
       11   -1    0    0    0    0 -0.00000000000E+00 -0.00000000000E+00 -0.35740347158E-01  0.35744000000E-01  0.51099999109E-03 0.  1.
       22    1    1    2    0    0  0.35371360208E-01  0.50305092918E-02  0.83332957997E-03  0.35737005818E-01  0.00000000000E+00 0.  1.
  9000001    1    1    2    0    0 -0.35371360208E-01 -0.50305092918E-02 -0.83332957997E-03  0.35750994182E-01  0.10000000475E-02 0. -1.
</event>
<event>
 4   0  0.4958067E-02  0.9118800E+02  0.7818609E-02  0.1379984E+01
      -11   -1    0    0    0    0  0.00000000000E+00  0.00000000000E+00  0.35740347158E-01  0.35744000000E-01  0.51099999109E-03 0.  1.
       11   -1    0    0    0    0 -0.00000000000E+00 -0.00000000000E+00 -0.35740347158E-01  0.35744000000E-01  0.51099999109E-03 0.  1.
       22    1    1    2    0    0  0.78933507027E-02 -0.22992107137E-02 -0.34778473653E-01  0.35737005818E-01  0.00000000000E+00 0.  1.
  9000001    1    1    2    0    0 -0.78933507027E-02  0.22992107137E-02  0.34778473653E-01  0.35750994182E-01  0.10000000475E-02 0.  1.
</event>
<event>
 4   0  0.4958067E-02  0.9118800E+02  0.7818609E-02  0.1379984E+01
      -11   -1    0    0    0    0  0.00000000000E+00  0.00000000000E+00  0.35740347158E-01  0.35744000000E-01  0.51099999109E-03 0.  1.
       11   -1    0    0    0    0 -0.00000000000E+00 -0.00000000000E+00 -0.35740347158E-01  0.35744000000E-01  0.51099999109E-03 0. -1.
       22    1    1    2    0    0  0.90547122006E-03  0.57690316112E-02  0.35256658676E-01  0.35737005818E-01  0.00000000000E+00 0.  1.
  9000001    1    1    2    0    0 -0.90547122006E-03 -0.57690316112E-02 -0.35256658676E-01  0.35750994182E-01  0.10000000475E-02 0. -1.
</event>
<event>
 4   0  0.4958067E-02  0.9118800E+02  0.7818609E-02  0.1379984E+01
      -11   -1    0    0    0    0  0.00000000000E+00  0.00000000000E+00  0.35740347158E-01  0.35744000000E-01  0.51099999109E-03 0.  1.
       11   -1    0    0    0    0 -0.00000000000E+00 -0.00000000000E+00 -0.35740347158E-01  0.35744000000E-01  0.51099999109E-03 0. -1.
       22    1    1    2    0    0 -0.17281551901E-01  0.67495338092E-02 -0.30543826579E-01  0.35737005818E-01  0.00000000000E+00 0. -1.
  9000001    1    1    2    0    0  0.17281551901E-01 -0.67495338092E-02  0.30543826579E-01  0.35750994182E-01  0.10000000475E-02 0.  1.
</event>
<event>
 4   0  0.4958067E-02  0.9118800E+02  0.7818609E-02  0.1379984E+01
      -11   -1    0    0    0    0  0.00000000000E+00  0.00000000000E+00  0.35740347158E-01  0.35744000000E-01  0.51099999109E-03 0. -1.
       11   -1    0    0    0    0 -0.00000000000E+00 -0.00000000000E+00 -0.35740347158E-01  0.35744000000E-01  0.51099999109E-03 0.  1.
       22    1    1    2    0    0  0.13693910626E-01  0.96038280910E-02  0.31581274240E-01  0.35737005818E-01  0.00000000000E+00 0. -1.
  9000001    1    1    2    0    0 -0.13693910626E-01 -0.96038280910E-02 -0.31581274240E-01  0.35750994182E-01  0.10000000475E-02 0.  1.
</event>
<event>
 4   0  0.4958067E-02  0.9118800E+02  0.7818609E-02  0.1379984E+01
      -11   -1    0    0    0    0  0.00000000000E+00  0.00000000000E+00  0.35740347158E-01  0.35744000000E-01  0.51099999109E-03 0. -1.
       11   -1    0    0    0    0 -0.00000000000E+00 -0.00000000000E+00 -0.35740347158E-01  0.35744000000E-01  0.51099999109E-03 0.  1.
       22    1    1    2    0    0 -0.16446357883E-01 -0.57826923687E-02  0.31196335782E-01  0.35737005818E-01  0.00000000000E+00 0. -1.
  9000001    1    1    2    0    0  0.16446357883E-01  0.57826923687E-02 -0.31196335782E-01  0.35750994182E-01  0.10000000475E-02 0.  1.
</event>
<event>
 4   0  0.4958067E-02  0.9118800E+02  0.7818609E-02  0.1379984E+01
      -11   -1    0    0    0    0  0.00000000000E+00  0.00000000000E+00  0.35740347158E-01  0.35744000000E-01  0.51099999109E-03 0. -1.
       11   -1    0    0    0    0 -0.00000000000E+00 -0.00000000000E+00 -0.35740347158E-01  0.35744000000E-01  0.51099999109E-03 0.  1.
       22    1    1    2    0    0  0.47933800499E-03 -0.52346398049E-02 -0.35348300752E-01  0.35737005818E-01  0.00000000000E+00 0.  1.
  9000001    1    1    2    0    0 -0.47933800499E-03  0.52346398049E-02  0.35348300752E-01  0.35750994182E-01  0.10000000475E-02 0. -1.
</event>
<event>
 4   0  0.4958067E-02  0.9118800E+02  0.7818609E-02  0.1379984E+01
      -11   -1    0    0    0    0  0.00000000000E+00  0.00000000000E+00  0.35740347158E-01  0.35744000000E-01  0.51099999109E-03 0. -1.
       11   -1    0    0    0    0 -0.00000000000E+00 -0.00000000000E+00 -0.35740347158E-01  0.35744000000E-01  0.51099999109E-03 0.  1.
       22    1    1    2    0    0 -0.98111523286E-02 -0.29521228505E-01  0.17588972182E-01  0.35737005818E-01  0.00000000000E+00 0. -1.
  9000001    1    1    2    0    0  0.98111523286E-02  0.29521228505E-01 -0.17588972182E-01  0.35750994182E-01  0.10000000475E-02 0.  1.
</event>
<event>
 4   0  0.4958067E-02  0.9118800E+02  0.7818609E-02  0.1379984E+01
      -11   -1    0    0    0    0  0.00000000000E+00  0.00000000000E+00  0.35740347158E-01  0.35744000000E-01  0.51099999109E-03 0.  1.
       11   -1    0    0    0    0 -0.00000000000E+00 -0.00000000000E+00 -0.35740347158E-01  0.35744000000E-01  0.51099999109E-03 0. -1.
       22    1    1    2    0    0  0.14213522748E-01 -0.30579186647E-03  0.32787434290E-01  0.35737005818E-01  0.00000000000E+00 0.  1.
  9000001    1    1    2    0    0 -0.14213522748E-01  0.30579186647E-03 -0.32787434290E-01  0.35750994182E-01  0.10000000475E-02 0. -1.
</event>
<event>
 4   0  0.4958067E-02  0.9118800E+02  0.7818609E-02  0.1379984E+01
      -11   -1    0    0    0    0  0.00000000000E+00  0.00000000000E+00  0.35740347158E-01  0.35744000000E-01  0.51099999109E-03 0.  1.
       11   -1    0    0    0    0 -0.00000000000E+00 -0.00000000000E+00 -0.35740347158E-01  0.35744000000E-01  0.51099999109E-03 0. -1.
       22    1    1    2    0    0  0.35952394949E-02 -0.10443389663E-01 -0.33987401345E-01  0.35737005818E-01  0.00000000000E+00 0. -1.
  9000001    1    1    2    0    0 -0.35952394949E-02  0.10443389663E-01  0.33987401345E-01  0.35750994182E-01  0.10000000475E-02 0.  1.
</event>
<event>
 4   0  0.4958067E-02  0.9118800E+02  0.7818609E-02  0.1379984E+01
      -11   -1    0    0    0    0  0.00000000000E+00  0.00000000000E+00  0.35740347158E-01  0.35744000000E-01  0.51099999109E-03 0. -1.
       11   -1    0    0    0    0 -0.00000000000E+00 -0.00000000000E+00 -0.35740347158E-01  0.35744000000E-01  0.51099999109E-03 0.  1.
       22    1    1    2    0    0  0.34043116865E-01  0.46794565172E-02 -0.98133819699E-02  0.35737005818E-01  0.00000000000E+00 0. -1.
  9000001    1    1    2    0    0 -0.34043116865E-01 -0.46794565172E-02  0.98133819699E-02  0.35750994182E-01  0.10000000475E-02 0.  1.
</event>
<event>
 4   0  0.4958067E-02  0.9118800E+02  0.7818609E-02  0.1379984E+01
      -11   -1    0    0    0    0  0.00000000000E+00  0.00000000000E+00  0.35740347158E-01  0.35744000000E-01  0.51099999109E-03 0. -1.
       11   -1    0    0    0    0 -0.00000000000E+00 -0.00000000000E+00 -0.35740347158E-01  0.35744000000E-01  0.51099999109E-03 0.  1.
       22    1    1    2    0    0  0.18689290833E-01 -0.10618600540E-01  0.28549769099E-01  0.35737005818E-01  0.00000000000E+00 0. -1.
  9000001    1    1    2    0    0 -0.18689290833E-01  0.10618600540E-01 -0.28549769099E-01  0.35750994182E-01  0.10000000475E-02 0.  1.
</event>
<event>
 4   0  0.4958067E-02  0.9118800E+02  0.7818609E-02  0.1379984E+01
      -11   -1    0    0    0    0  0.00000000000E+00  0.00000000000E+00  0.35740347158E-01  0.35744000000E-01  0.51099999109E-03 0. -1.
       11   -1    0    0    0    0 -0.00000000000E+00 -0.00000000000E+00 -0.35740347158E-01  0.35744000000E-01  0.51099999109E-03 0.  1.
       22    1    1    2    0    0  0.12983696881E-02 -0.31073018590E-02  0.35577977685E-01  0.35737005818E-01  0.00000000000E+00 0. -1.
  9000001    1    1    2    0    0 -0.12983696881E-02  0.31073018590E-02 -0.35577977685E-01  0.35750994182E-01  0.10000000475E-02 0.  1.
</event>
<event>
 4   0  0.4958067E-02  0.9118800E+02  0.7818609E-02  0.1379984E+01
      -11   -1    0    0    0    0  0.00000000000E+00  0.00000000000E+00  0.35740347158E-01  0.35744000000E-01  0.51099999109E-03 0.  1.
       11   -1    0    0    0    0 -0.00000000000E+00 -0.00000000000E+00 -0.35740347158E-01  0.35744000000E-01  0.51099999109E-03 0. -1.
       22    1    1    2    0    0  0.32063898707E-02 -0.14442803278E-01  0.32530878905E-01  0.35737005818E-01  0.00000000000E+00 0.  1.
  9000001    1    1    2    0    0 -0.32063898707E-02  0.14442803278E-01 -0.32530878905E-01  0.35750994182E-01  0.10000000475E-02 0. -1.
</event>
<event>
 4   0  0.4958067E-02  0.9118800E+02  0.7818609E-02  0.1379984E+01
      -11   -1    0    0    0    0  0.00000000000E+00  0.00000000000E+00  0.35740347158E-01  0.35744000000E-01  0.51099999109E-03 0.  1.
       11   -1    0    0    0    0 -0.00000000000E+00 -0.00000000000E+00 -0.35740347158E-01  0.35744000000E-01  0.51099999109E-03 0. -1.
       22    1    1    2    0    0 -0.52511506226E-02 -0.88238419143E-03 -0.35338087104E-01  0.35737005818E-01  0.00000000000E+00 0. -1.
  9000001    1    1    2    0    0  0.52511506226E-02  0.88238419143E-03  0.35338087104E-01  0.35750994182E-01  0.10000000475E-02 0.  1.
</event>
<event>
 4   0  0.4958067E-02  0.9118800E+02  0.7818609E-02  0.1379984E+01
      -11   -1    0    0    0    0  0.00000000000E+00  0.00000000000E+00  0.35740347158E-01  0.35744000000E-01  0.51099999109E-03 0.  1.
       11   -1    0    0    0    0 -0.00000000000E+00 -0.00000000000E+00 -0.35740347158E-01  0.35744000000E-01  0.51099999109E-03 0. -1.
       22    1    1    2    0    0  0.10985077765E-01 -0.52769201018E-02  0.33594877074E-01  0.35737005818E-01  0.00000000000E+00 0.  1.
  9000001    1    1    2    0    0 -0.10985077765E-01  0.52769201018E-02 -0.33594877074E-01  0.35750994182E-01  0.10000000475E-02 0. -1.
</event>
<event>
 4   0  0.4958067E-02  0.9118800E+02  0.7818609E-02  0.1379984E+01
      -11   -1    0    0    0    0  0.00000000000E+00  0.00000000000E+00  0.35740347158E-01  0.35744000000E-01  0.51099999109E-03 0. -1.
       11   -1    0    0    0    0 -0.00000000000E+00 -0.00000000000E+00 -0.35740347158E-01  0.35744000000E-01  0.51099999109E-03 0.  1.
       22    1    1    2    0    0 -0.29313128737E-02  0.71084149589E-02 -0.34900020437E-01  0.35737005818E-01  0.00000000000E+00 0.  1.
  9000001    1    1    2    0    0  0.29313128737E-02 -0.71084149589E-02  0.34900020437E-01  0.35750994182E-01  0.10000000475E-02 0. -1.
</event>
<event>
 4   0  0.4958067E-02  0.9118800E+02  0.7818609E-02  0.1379984E+01
      -11   -1    0    0    0    0  0.00000000000E+00  0.00000000000E+00  0.35740347158E-01  0.35744000000E-01  0.51099999109E-03 0. -1.
       11   -1    0    0    0    0 -0.00000000000E+00 -0.00000000000E+00 -0.35740347158E-01  0.35744000000E-01  0.51099999109E-03 0.  1.
       22    1    1    2    0    0  0.83388393517E-02  0.15487487067E-01 -0.31108440776E-01  0.35737005818E-01  0.00000000000E+00 0.  1.
  9000001    1    1    2    0    0 -0.83388393517E-02 -0.15487487067E-01  0.31108440776E-01  0.35750994182E-01  0.10000000475E-02 0. -1.
</event>
<event>
 4   0  0.4958067E-02  0.9118800E+02  0.7818609E-02  0.1379984E+01
      -11   -1    0    0    0    0  0.00000000000E+00  0.00000000000E+00  0.35740347158E-01  0.35744000000E-01  0.51099999109E-03 0.  1.
       11   -1    0    0    0    0 -0.00000000000E+00 -0.00000000000E+00 -0.35740347158E-01  0.35744000000E-01  0.51099999109E-03 0. -1.
       22    1    1    2    0    0 -0.14799270558E-01  0.26413085984E-01  0.18985891199E-01  0.35737005818E-01  0.00000000000E+00 0.  1.
  9000001    1    1    2    0    0  0.14799270558E-01 -0.26413085984E-01 -0.18985891199E-01  0.35750994182E-01  0.10000000475E-02 0. -1.
</event>
<event>
 4   0  0.4958067E-02  0.9118800E+02  0.7818609E-02  0.1379984E+01
      -11   -1    0    0    0    0  0.00000000000E+00  0.00000000000E+00  0.35740347158E-01  0.35744000000E-01  0.51099999109E-03 0.  1.
       11   -1    0    0    0    0 -0.00000000000E+00 -0.00000000000E+00 -0.35740347158E-01  0.35744000000E-01  0.51099999109E-03 0. -1.
       22    1    1    2    0    0 -0.40032183533E-02  0.17077602959E-02 -0.35470993536E-01  0.35737005818E-01  0.00000000000E+00 0. -1.
  9000001    1    1    2    0    0  0.40032183533E-02 -0.17077602959E-02  0.35470993536E-01  0.35750994182E-01  0.10000000475E-02 0.  1.
</event>
<event>
 4   0  0.4958067E-02  0.9118800E+02  0.7818609E-02  0.1379984E+01
      -11   -1    0    0    0    0  0.00000000000E+00  0.00000000000E+00  0.35740347158E-01  0.35744000000E-01  0.51099999109E-03 0.  1.
       11   -1    0    0    0    0 -0.00000000000E+00 -0.00000000000E+00 -0.35740347158E-01  0.35744000000E-01  0.51099999109E-03 0. -1.
       22    1    1    2    0    0 -0.15413388925E-01 -0.66422113039E-02 -0.31550626867E-01  0.35737005818E-01  0.00000000000E+00 0. -1.
  9000001    1    1    2    0    0  0.15413388925E-01  0.66422113039E-02  0.31550626867E-01  0.35750994182E-01  0.10000000475E-02 0.  1.
</event>
<event>
 4   0  0.4958067E-02  0.9118800E+02  0.7818609E-02  0.1379984E+01
      -11   -1    0    0    0    0  0.00000000000E+00  0.00000000000E+00  0.35740347158E-01  0.35744000000E-01  0.51099999109E-03 0.  1.
       11   -1    0    0    0    0 -0.00000000000E+00 -0.00000000000E+00 -0.35740347158E-01  0.35744000000E-01  0.51099999109E-03 0. -1.
       22    1    1    2    0    0  0.84311315312E-02 -0.27100737054E-02 -0.34622320929E-01  0.35737005818E-01  0.00000000000E+00 0. -1.
  9000001    1    1    2    0    0 -0.84311315312E-02  0.27100737054E-02  0.34622320929E-01  0.35750994182E-01  0.10000000475E-02 0.  1.
</event>
<event>
 4   0  0.4958067E-02  0.9118800E+02  0.7818609E-02  0.1379984E+01
      -11   -1    0    0    0    0  0.00000000000E+00  0.00000000000E+00  0.35740347158E-01  0.35744000000E-01  0.51099999109E-03 0.  1.
       11   -1    0    0    0    0 -0.00000000000E+00 -0.00000000000E+00 -0.35740347158E-01  0.35744000000E-01  0.51099999109E-03 0. -1.
       22    1    1    2    0    0  0.31583210851E-02  0.21798556572E-01  0.28142166302E-01  0.35737005818E-01  0.00000000000E+00 0.  1.
  9000001    1    1    2    0    0 -0.31583210851E-02 -0.21798556572E-01 -0.28142166302E-01  0.35750994182E-01  0.10000000475E-02 0. -1.
</event>
<event>
 4   0  0.4958067E-02  0.9118800E+02  0.7818609E-02  0.1379984E+01
      -11   -1    0    0    0    0  0.00000000000E+00  0.00000000000E+00  0.35740347158E-01  0.35744000000E-01  0.51099999109E-03 0. -1.
       11   -1    0    0    0    0 -0.00000000000E+00 -0.00000000000E+00 -0.35740347158E-01  0.35744000000E-01  0.51099999109E-03 0.  1.
       22    1    1    2    0    0  0.40704338025E-03 -0.69523121225E-02  0.35051865239E-01  0.35737005818E-01  0.00000000000E+00 0. -1.
  9000001    1    1    2    0    0 -0.40704338025E-03  0.69523121225E-02 -0.35051865239E-01  0.35750994182E-01  0.10000000475E-02 0.  1.
</event>
<event>
 4   0  0.4958067E-02  0.9118800E+02  0.7818609E-02  0.1379984E+01
      -11   -1    0    0    0    0  0.00000000000E+00  0.00000000000E+00  0.35740347158E-01  0.35744000000E-01  0.51099999109E-03 0.  1.
       11   -1    0    0    0    0 -0.00000000000E+00 -0.00000000000E+00 -0.35740347158E-01  0.35744000000E-01  0.51099999109E-03 0. -1.
       22    1    1    2    0    0  0.49247528776E-02  0.17795868998E-02  0.35351286602E-01  0.35737005818E-01  0.00000000000E+00 0.  1.
  9000001    1    1    2    0    0 -0.49247528776E-02 -0.17795868998E-02 -0.35351286602E-01  0.35750994182E-01  0.10000000475E-02 0. -1.
</event>
<event>
 4   0  0.4958067E-02  0.9118800E+02  0.7818609E-02  0.1379984E+01
      -11   -1    0    0    0    0  0.00000000000E+00  0.00000000000E+00  0.35740347158E-01  0.35744000000E-01  0.51099999109E-03 0. -1.
       11   -1    0    0    0    0 -0.00000000000E+00 -0.00000000000E+00 -0.35740347158E-01  0.35744000000E-01  0.51099999109E-03 0.  1.
       22    1    1    2    0    0  0.14612923334E-01 -0.16924285584E-01 -0.27877672320E-01  0.35737005818E-01  0.00000000000E+00 0.  1.
  9000001    1    1    2    0    0 -0.14612923334E-01  0.16924285584E-01  0.27877672320E-01  0.35750994182E-01  0.10000000475E-02 0. -1.
</event>
<event>
 4   0  0.4958067E-02  0.9118800E+02  0.7818609E-02  0.1379984E+01
      -11   -1    0    0    0    0  0.00000000000E+00  0.00000000000E+00  0.35740347158E-01  0.35744000000E-01  0.51099999109E-03 0.  1.
       11   -1    0    0    0    0 -0.00000000000E+00 -0.00000000000E+00 -0.35740347158E-01  0.35744000000E-01  0.51099999109E-03 0. -1.
       22    1    1    2    0    0 -0.65941504516E-03  0.29637776987E-02  0.35607790979E-01  0.35737005818E-01  0.00000000000E+00 0.  1.
  9000001    1    1    2    0    0  0.65941504516E-03 -0.29637776987E-02 -0.35607790979E-01  0.35750994182E-01  0.10000000475E-02 0. -1.
</event>
<event>
 4   0  0.4958067E-02  0.9118800E+02  0.7818609E-02  0.1379984E+01
      -11   -1    0    0    0    0  0.00000000000E+00  0.00000000000E+00  0.35740347158E-01  0.35744000000E-01  0.51099999109E-03 0. -1.
       11   -1    0    0    0    0 -0.00000000000E+00 -0.00000000000E+00 -0.35740347158E-01  0.35744000000E-01  0.51099999109E-03 0.  1.
       22    1    1    2    0    0 -0.30053442675E-01  0.10309866722E-01 -0.16359425920E-01  0.35737005818E-01  0.00000000000E+00 0.  1.
  9000001    1    1    2    0    0  0.30053442675E-01 -0.10309866722E-01  0.16359425920E-01  0.35750994182E-01  0.10000000475E-02 0. -1.
</event>
<event>
 4   0  0.4958067E-02  0.9118800E+02  0.7818609E-02  0.1379984E+01
      -11   -1    0    0    0    0  0.00000000000E+00  0.00000000000E+00  0.35740347158E-01  0.35744000000E-01  0.51099999109E-03 0. -1.
       11   -1    0    0    0    0 -0.00000000000E+00 -0.00000000000E+00 -0.35740347158E-01  0.35744000000E-01  0.51099999109E-03 0.  1.
       22    1    1    2    0    0  0.32943613282E-02  0.26224984882E-02  0.35488072221E-01  0.35737005818E-01  0.00000000000E+00 0. -1.
  9000001    1    1    2    0    0 -0.32943613282E-02 -0.26224984882E-02 -0.35488072221E-01  0.35750994182E-01  0.10000000475E-02 0.  1.
</event>
<event>
 4   0  0.4958067E-02  0.9118800E+02  0.7818609E-02  0.1379984E+01
      -11   -1    0    0    0    0  0.00000000000E+00  0.00000000000E+00  0.35740347158E-01  0.35744000000E-01  0.51099999109E-03 0. -1.
       11   -1    0    0    0    0 -0.00000000000E+00 -0.00000000000E+00 -0.35740347158E-01  0.35744000000E-01  0.51099999109E-03 0.  1.
       22    1    1    2    0    0  0.39767395211E-02  0.69531436443E-04  0.35514986879E-01  0.35737005818E-01  0.00000000000E+00 0. -1.
  9000001    1    1    2    0    0 -0.39767395211E-02 -0.69531436443E-04 -0.35514986879E-01  0.35750994182E-01  0.10000000475E-02 0.  1.
</event>
<event>
 4   0  0.4958067E-02  0.9118800E+02  0.7818609E-02  0.1379984E+01
      -11   -1    0    0    0    0  0.00000000000E+00  0.00000000000E+00  0.35740347158E-01  0.35744000000E-01  0.51099999109E-03 0. -1.
       11   -1    0    0    0    0 -0.00000000000E+00 -0.00000000000E+00 -0.35740347158E-01  0.35744000000E-01  0.51099999109E-03 0.  1.
       22    1    1    2    0    0 -0.49281277223E-02 -0.12205780547E-01  0.33224479880E-01  0.35737005818E-01  0.00000000000E+00 0. -1.
  9000001    1    1    2    0    0  0.49281277223E-02  0.12205780547E-01 -0.33224479880E-01  0.35750994182E-01  0.10000000475E-02 0.  1.
</event>
<event>
 4   0  0.4958067E-02  0.9118800E+02  0.7818609E-02  0.1379984E+01
      -11   -1    0    0    0    0  0.00000000000E+00  0.00000000000E+00  0.35740347158E-01  0.35744000000E-01  0.51099999109E-03 0. -1.
       11   -1    0    0    0    0 -0.00000000000E+00 -0.00000000000E+00 -0.35740347158E-01  0.35744000000E-01  0.51099999109E-03 0.  1.
       22    1    1    2    0    0  0.15206191695E-01 -0.10228517243E-01  0.30680331713E-01  0.35737005818E-01  0.00000000000E+00 0. -1.
  9000001    1    1    2    0    0 -0.15206191695E-01  0.10228517243E-01 -0.30680331713E-01  0.35750994182E-01  0.10000000475E-02 0.  1.
</event>
<event>
 4   0  0.4958067E-02  0.9118800E+02  0.7818609E-02  0.1379984E+01
      -11   -1    0    0    0    0  0.00000000000E+00  0.00000000000E+00  0.35740347158E-01  0.35744000000E-01  0.51099999109E-03 0. -1.
       11   -1    0    0    0    0 -0.00000000000E+00 -0.00000000000E+00 -0.35740347158E-01  0.35744000000E-01  0.51099999109E-03 0.  1.
       22    1    1    2    0    0  0.11491015414E-01  0.12219683109E-02  0.33817110212E-01  0.35737005818E-01  0.00000000000E+00 0. -1.
  9000001    1    1    2    0    0 -0.11491015414E-01 -0.12219683109E-02 -0.33817110212E-01  0.35750994182E-01  0.10000000475E-02 0.  1.
</event>
<event>
 4   0  0.4958067E-02  0.9118800E+02  0.7818609E-02  0.1379984E+01
      -11   -1    0    0    0    0  0.00000000000E+00  0.00000000000E+00  0.35740347158E-01  0.35744000000E-01  0.51099999109E-03 0. -1.
       11   -1    0    0    0    0 -0.00000000000E+00 -0.00000000000E+00 -0.35740347158E-01  0.35744000000E-01  0.51099999109E-03 0.  1.
       22    1    1    2    0    0 -0.45773552262E-02 -0.36633521457E-04 -0.35442630574E-01  0.35737005818E-01  0.00000000000E+00 0.  1.
  9000001    1    1    2    0    0  0.45773552262E-02  0.36633521457E-04  0.35442630574E-01  0.35750994182E-01  0.10000000475E-02 0. -1.
</event>
<event>
 4   0  0.4958067E-02  0.9118800E+02  0.7818609E-02  0.1379984E+01
      -11   -1    0    0    0    0  0.00000000000E+00  0.00000000000E+00  0.35740347158E-01  0.35744000000E-01  0.51099999109E-03 0. -1.
       11   -1    0    0    0    0 -0.00000000000E+00 -0.00000000000E+00 -0.35740347158E-01  0.35744000000E-01  0.51099999109E-03 0.  1.
       22    1    1    2    0    0  0.15906289953E-01 -0.27978482956E-01 -0.15534735796E-01  0.35737005818E-01  0.00000000000E+00 0.  1.
  9000001    1    1    2    0    0 -0.15906289953E-01  0.27978482956E-01  0.15534735796E-01  0.35750994182E-01  0.10000000475E-02 0. -1.
</event>
<event>
 4   0  0.4958067E-02  0.9118800E+02  0.7818609E-02  0.1379984E+01
      -11   -1    0    0    0    0  0.00000000000E+00  0.00000000000E+00  0.35740347158E-01  0.35744000000E-01  0.51099999109E-03 0. -1.
       11   -1    0    0    0    0 -0.00000000000E+00 -0.00000000000E+00 -0.35740347158E-01  0.35744000000E-01  0.51099999109E-03 0.  1.
       22    1    1    2    0    0  0.33628726198E-01  0.11866313689E-01 -0.23308707862E-02  0.35737005818E-01  0.00000000000E+00 0. -1.
  9000001    1    1    2    0    0 -0.33628726198E-01 -0.11866313689E-01  0.23308707862E-02  0.35750994182E-01  0.10000000475E-02 0.  1.
</event>
<event>
 4   0  0.4958067E-02  0.9118800E+02  0.7818609E-02  0.1379984E+01
      -11   -1    0    0    0    0  0.00000000000E+00  0.00000000000E+00  0.35740347158E-01  0.35744000000E-01  0.51099999109E-03 0.  1.
       11   -1    0    0    0    0 -0.00000000000E+00 -0.00000000000E+00 -0.35740347158E-01  0.35744000000E-01  0.51099999109E-03 0. -1.
       22    1    1    2    0    0 -0.34450845773E-02 -0.98655374205E-02  0.34175080812E-01  0.35737005818E-01  0.00000000000E+00 0.  1.
  9000001    1    1    2    0    0  0.34450845773E-02  0.98655374205E-02 -0.34175080812E-01  0.35750994182E-01  0.10000000475E-02 0. -1.
</event>
<event>
 4   0  0.4958067E-02  0.9118800E+02  0.7818609E-02  0.1379984E+01
      -11   -1    0    0    0    0  0.00000000000E+00  0.00000000000E+00  0.35740347158E-01  0.35744000000E-01  0.51099999109E-03 0. -1.
       11   -1    0    0    0    0 -0.00000000000E+00 -0.00000000000E+00 -0.35740347158E-01  0.35744000000E-01  0.51099999109E-03 0.  1.
       22    1    1    2    0    0 -0.48129883442E-02  0.11535993854E-02  0.35392625454E-01  0.35737005818E-01  0.00000000000E+00 0. -1.
  9000001    1    1    2    0    0  0.48129883442E-02 -0.11535993854E-02 -0.35392625454E-01  0.35750994182E-01  0.10000000475E-02 0.  1.
</event>
<event>
 4   0  0.4958067E-02  0.9118800E+02  0.7818609E-02  0.1379984E+01
      -11   -1    0    0    0    0  0.00000000000E+00  0.00000000000E+00  0.35740347158E-01  0.35744000000E-01  0.51099999109E-03 0.  1.
       11   -1    0    0    0    0 -0.00000000000E+00 -0.00000000000E+00 -0.35740347158E-01  0.35744000000E-01  0.51099999109E-03 0. -1.
       22    1    1    2    0    0  0.62476157660E-02 -0.26087523882E-02  0.35089817513E-01  0.35737005818E-01  0.00000000000E+00 0.  1.
  9000001    1    1    2    0    0 -0.62476157660E-02  0.26087523882E-02 -0.35089817513E-01  0.35750994182E-01  0.10000000475E-02 0. -1.
</event>
<event>
 4   0  0.4958067E-02  0.9118800E+02  0.7818609E-02  0.1379984E+01
      -11   -1    0    0    0    0  0.00000000000E+00  0.00000000000E+00  0.35740347158E-01  0.35744000000E-01  0.51099999109E-03 0.  1.
       11   -1    0    0    0    0 -0.00000000000E+00 -0.00000000000E+00 -0.35740347158E-01  0.35744000000E-01  0.51099999109E-03 0. -1.
       22    1    1    2    0    0 -0.13799746335E-01  0.88971778517E-02 -0.31741783382E-01  0.35737005818E-01  0.00000000000E+00 0. -1.
  9000001    1    1    2    0    0  0.13799746335E-01 -0.88971778517E-02  0.31741783382E-01  0.35750994182E-01  0.10000000475E-02 0.  1.
</event>
<event>
 4   0  0.4958067E-02  0.9118800E+02  0.7818609E-02  0.1379984E+01
      -11   -1    0    0    0    0  0.00000000000E+00  0.00000000000E+00  0.35740347158E-01  0.35744000000E-01  0.51099999109E-03 0. -1.
       11   -1    0    0    0    0 -0.00000000000E+00 -0.00000000000E+00 -0.35740347158E-01  0.35744000000E-01  0.51099999109E-03 0.  1.
       22    1    1    2    0    0 -0.44512703202E-02 -0.33012985948E-02  0.35304690977E-01  0.35737005818E-01  0.00000000000E+00 0. -1.
  9000001    1    1    2    0    0  0.44512703202E-02  0.33012985948E-02 -0.35304690977E-01  0.35750994182E-01  0.10000000475E-02 0.  1.
</event>
<event>
 4   0  0.4958067E-02  0.9118800E+02  0.7818609E-02  0.1379984E+01
      -11   -1    0    0    0    0  0.00000000000E+00  0.00000000000E+00  0.35740347158E-01  0.35744000000E-01  0.51099999109E-03 0.  1.
       11   -1    0    0    0    0 -0.00000000000E+00 -0.00000000000E+00 -0.35740347158E-01  0.35744000000E-01  0.51099999109E-03 0. -1.
       22    1    1    2    0    0 -0.61759302329E-02 -0.25032373926E-01 -0.24746145685E-01  0.35737005818E-01  0.00000000000E+00 0. -1.
  9000001    1    1    2    0    0  0.61759302329E-02  0.25032373926E-01  0.24746145685E-01  0.35750994182E-01  0.10000000475E-02 0.  1.
</event>
<event>
 4   0  0.4958067E-02  0.9118800E+02  0.7818609E-02  0.1379984E+01
      -11   -1    0    0    0    0  0.00000000000E+00  0.00000000000E+00  0.35740347158E-01  0.35744000000E-01  0.51099999109E-03 0. -1.
       11   -1    0    0    0    0 -0.00000000000E+00 -0.00000000000E+00 -0.35740347158E-01  0.35744000000E-01  0.51099999109E-03 0.  1.
       22    1    1    2    0    0  0.12973941164E-01 -0.79001203452E-02 -0.32348083932E-01  0.35737005818E-01  0.00000000000E+00 0.  1.
  9000001    1    1    2    0    0 -0.12973941164E-01  0.79001203452E-02  0.32348083932E-01  0.35750994182E-01  0.10000000475E-02 0. -1.
</event>
<event>
 4   0  0.4958067E-02  0.9118800E+02  0.7818609E-02  0.1379984E+01
      -11   -1    0    0    0    0  0.00000000000E+00  0.00000000000E+00  0.35740347158E-01  0.35744000000E-01  0.51099999109E-03 0.  1.
       11   -1    0    0    0    0 -0.00000000000E+00 -0.00000000000E+00 -0.35740347158E-01  0.35744000000E-01  0.51099999109E-03 0. -1.
       22    1    1    2    0    0 -0.24372573268E-01 -0.23810695217E-01 -0.10777849993E-01  0.35737005818E-01  0.00000000000E+00 0. -1.
  9000001    1    1    2    0    0  0.24372573268E-01  0.23810695217E-01  0.10777849993E-01  0.35750994182E-01  0.10000000475E-02 0.  1.
</event>
<event>
 4   0  0.4958067E-02  0.9118800E+02  0.7818609E-02  0.1379984E+01
      -11   -1    0    0    0    0  0.00000000000E+00  0.00000000000E+00  0.35740347158E-01  0.35744000000E-01  0.51099999109E-03 0. -1.
       11   -1    0    0    0    0 -0.00000000000E+00 -0.00000000000E+00 -0.35740347158E-01  0.35744000000E-01  0.51099999109E-03 0.  1.
       22    1    1    2    0    0 -0.29476158577E-01 -0.57157003863E-02  0.19380929532E-01  0.35737005818E-01  0.00000000000E+00 0. -1.
  9000001    1    1    2    0    0  0.29476158577E-01  0.57157003863E-02 -0.19380929532E-01  0.35750994182E-01  0.10000000475E-02 0.  1.
</event>
<event>
 4   0  0.4958067E-02  0.9118800E+02  0.7818609E-02  0.1379984E+01
      -11   -1    0    0    0    0  0.00000000000E+00  0.00000000000E+00  0.35740347158E-01  0.35744000000E-01  0.51099999109E-03 0.  1.
       11   -1    0    0    0    0 -0.00000000000E+00 -0.00000000000E+00 -0.35740347158E-01  0.35744000000E-01  0.51099999109E-03 0. -1.
       22    1    1    2    0    0  0.35848199585E-02 -0.31580241150E-02 -0.35416232640E-01  0.35737005818E-01  0.00000000000E+00 0. -1.
  9000001    1    1    2    0    0 -0.35848199585E-02  0.31580241150E-02  0.35416232640E-01  0.35750994182E-01  0.10000000475E-02 0.  1.
</event>
<event>
 4   0  0.4958067E-02  0.9118800E+02  0.7818609E-02  0.1379984E+01
      -11   -1    0    0    0    0  0.00000000000E+00  0.00000000000E+00  0.35740347158E-01  0.35744000000E-01  0.51099999109E-03 0.  1.
       11   -1    0    0    0    0 -0.00000000000E+00 -0.00000000000E+00 -0.35740347158E-01  0.35744000000E-01  0.51099999109E-03 0. -1.
       22    1    1    2    0    0 -0.28033773871E-02  0.68896263552E-02 -0.34954366090E-01  0.35737005818E-01  0.00000000000E+00 0. -1.
  9000001    1    1    2    0    0  0.28033773871E-02 -0.68896263552E-02  0.34954366090E-01  0.35750994182E-01  0.10000000475E-02 0.  1.
</event>
<event>
 4   0  0.4958067E-02  0.9118800E+02  0.7818609E-02  0.1379984E+01
      -11   -1    0    0    0    0  0.00000000000E+00  0.00000000000E+00  0.35740347158E-01  0.35744000000E-01  0.51099999109E-03 0.  1.
       11   -1    0    0    0    0 -0.00000000000E+00 -0.00000000000E+00 -0.35740347158E-01  0.35744000000E-01  0.51099999109E-03 0. -1.
       22    1    1    2    0    0 -0.10051207189E-01 -0.27128447626E-01 -0.20979851007E-01  0.35737005818E-01  0.00000000000E+00 0. -1.
  9000001    1    1    2    0    0  0.10051207189E-01  0.27128447626E-01  0.20979851007E-01  0.35750994182E-01  0.10000000475E-02 0.  1.
</event>
<event>
 4   0  0.4958067E-02  0.9118800E+02  0.7818609E-02  0.1379984E+01
      -11   -1    0    0    0    0  0.00000000000E+00  0.00000000000E+00  0.35740347158E-01  0.35744000000E-01  0.51099999109E-03 0.  1.
       11   -1    0    0    0    0 -0.00000000000E+00 -0.00000000000E+00 -0.35740347158E-01  0.35744000000E-01  0.51099999109E-03 0. -1.
       22    1    1    2    0    0  0.15752807462E-01 -0.15525611226E-01 -0.28070234021E-01  0.35737005818E-01  0.00000000000E+00 0. -1.
  9000001    1    1    2    0    0 -0.15752807462E-01  0.15525611226E-01  0.28070234021E-01  0.35750994182E-01  0.10000000475E-02 0.  1.
</event>
<event>
 4   0  0.4958067E-02  0.9118800E+02  0.7818609E-02  0.1379984E+01
      -11   -1    0    0    0    0  0.00000000000E+00  0.00000000000E+00  0.35740347158E-01  0.35744000000E-01  0.51099999109E-03 0. -1.
       11   -1    0    0    0    0 -0.00000000000E+00 -0.00000000000E+00 -0.35740347158E-01  0.35744000000E-01  0.51099999109E-03 0.  1.
       22    1    1    2    0    0  0.10794957927E-01  0.47405665169E-02 -0.33736174906E-01  0.35737005818E-01  0.00000000000E+00 0.  1.
  9000001    1    1    2    0    0 -0.10794957927E-01 -0.47405665169E-02  0.33736174906E-01  0.35750994182E-01  0.10000000475E-02 0. -1.
</event>
<event>
 4   0  0.4958067E-02  0.9118800E+02  0.7818609E-02  0.1379984E+01
      -11   -1    0    0    0    0  0.00000000000E+00  0.00000000000E+00  0.35740347158E-01  0.35744000000E-01  0.51099999109E-03 0. -1.
       11   -1    0    0    0    0 -0.00000000000E+00 -0.00000000000E+00 -0.35740347158E-01  0.35744000000E-01  0.51099999109E-03 0.  1.
       22    1    1    2    0    0  0.34688173467E-02 -0.27426028979E-02 -0.35462360616E-01  0.35737005818E-01  0.00000000000E+00 0.  1.
  9000001    1    1    2    0    0 -0.34688173467E-02  0.27426028979E-02  0.35462360616E-01  0.35750994182E-01  0.10000000475E-02 0. -1.
</event>
<event>
 4   0  0.4958067E-02  0.9118800E+02  0.7818609E-02  0.1379984E+01
      -11   -1    0    0    0    0  0.00000000000E+00  0.00000000000E+00  0.35740347158E-01  0.35744000000E-01  0.51099999109E-03 0. -1.
       11   -1    0    0    0    0 -0.00000000000E+00 -0.00000000000E+00 -0.35740347158E-01  0.35744000000E-01  0.51099999109E-03 0.  1.
       22    1    1    2    0    0 -0.28043831092E-01 -0.89451945183E-02 -0.20264762954E-01  0.35737005818E-01  0.00000000000E+00 0.  1.
  9000001    1    1    2    0    0  0.28043831092E-01  0.89451945183E-02  0.20264762954E-01  0.35750994182E-01  0.10000000475E-02 0. -1.
</event>
<event>
 4   0  0.4958067E-02  0.9118800E+02  0.7818609E-02  0.1379984E+01
      -11   -1    0    0    0    0  0.00000000000E+00  0.00000000000E+00  0.35740347158E-01  0.35744000000E-01  0.51099999109E-03 0.  1.
       11   -1    0    0    0    0 -0.00000000000E+00 -0.00000000000E+00 -0.35740347158E-01  0.35744000000E-01  0.51099999109E-03 0. -1.
       22    1    1    2    0    0 -0.86472245656E-03  0.32915475434E-02 -0.35574591420E-01  0.35737005818E-01  0.00000000000E+00 0. -1.
  9000001    1    1    2    0    0  0.86472245656E-03 -0.32915475434E-02  0.35574591420E-01  0.35750994182E-01  0.10000000475E-02 0.  1.
</event>
<event>
 4   0  0.4958067E-02  0.9118800E+02  0.7818609E-02  0.1379984E+01
      -11   -1    0    0    0    0  0.00000000000E+00  0.00000000000E+00  0.35740347158E-01  0.35744000000E-01  0.51099999109E-03 0. -1.
       11   -1    0    0    0    0 -0.00000000000E+00 -0.00000000000E+00 -0.35740347158E-01  0.35744000000E-01  0.51099999109E-03 0.  1.
       22    1    1    2    0    0 -0.72461605913E-02  0.59921849573E-02 -0.34477825642E-01  0.35737005818E-01  0.00000000000E+00 0.  1.
  9000001    1    1    2    0    0  0.72461605913E-02 -0.59921849573E-02  0.34477825642E-01  0.35750994182E-01  0.10000000475E-02 0. -1.
</event>
<event>
 4   0  0.4958067E-02  0.9118800E+02  0.7818609E-02  0.1379984E+01
      -11   -1    0    0    0    0  0.00000000000E+00  0.00000000000E+00  0.35740347158E-01  0.35744000000E-01  0.51099999109E-03 0. -1.
       11   -1    0    0    0    0 -0.00000000000E+00 -0.00000000000E+00 -0.35740347158E-01  0.35744000000E-01  0.51099999109E-03 0.  1.
       22    1    1    2    0    0 -0.25788929589E-01  0.89088891624E-02 -0.23080216407E-01  0.35737005818E-01  0.00000000000E+00 0.  1.
  9000001    1    1    2    0    0  0.25788929589E-01 -0.89088891624E-02  0.23080216407E-01  0.35750994182E-01  0.10000000475E-02 0. -1.
</event>
<event>
 4   0  0.4958067E-02  0.9118800E+02  0.7818609E-02  0.1379984E+01
      -11   -1    0    0    0    0  0.00000000000E+00  0.00000000000E+00  0.35740347158E-01  0.35744000000E-01  0.51099999109E-03 0. -1.
       11   -1    0    0    0    0 -0.00000000000E+00 -0.00000000000E+00 -0.35740347158E-01  0.35744000000E-01  0.51099999109E-03 0.  1.
       22    1    1    2    0    0  0.61039683430E-02  0.14253112195E-01  0.32198197901E-01  0.35737005818E-01  0.00000000000E+00 0. -1.
  9000001    1    1    2    0    0 -0.61039683430E-02 -0.14253112195E-01 -0.32198197901E-01  0.35750994182E-01  0.10000000475E-02 0.  1.
</event>
<event>
 4   0  0.4958067E-02  0.9118800E+02  0.7818609E-02  0.1379984E+01
      -11   -1    0    0    0    0  0.00000000000E+00  0.00000000000E+00  0.35740347158E-01  0.35744000000E-01  0.51099999109E-03 0.  1.
       11   -1    0    0    0    0 -0.00000000000E+00 -0.00000000000E+00 -0.35740347158E-01  0.35744000000E-01  0.51099999109E-03 0. -1.
       22    1    1    2    0    0 -0.52553524762E-02  0.11189623299E-02  0.35330762496E-01  0.35737005818E-01  0.00000000000E+00 0.  1.
  9000001    1    1    2    0    0  0.52553524762E-02 -0.11189623299E-02 -0.35330762496E-01  0.35750994182E-01  0.10000000475E-02 0. -1.
</event>
<event>
 4   0  0.4958067E-02  0.9118800E+02  0.7818609E-02  0.1379984E+01
      -11   -1    0    0    0    0  0.00000000000E+00  0.00000000000E+00  0.35740347158E-01  0.35744000000E-01  0.51099999109E-03 0.  1.
       11   -1    0    0    0    0 -0.00000000000E+00 -0.00000000000E+00 -0.35740347158E-01  0.35744000000E-01  0.51099999109E-03 0. -1.
       22    1    1    2    0    0 -0.87359510439E-02  0.13879925566E-01  0.31751604849E-01  0.35737005818E-01  0.00000000000E+00 0.  1.
  9000001    1    1    2    0    0  0.87359510439E-02 -0.13879925566E-01 -0.31751604849E-01  0.35750994182E-01  0.10000000475E-02 0. -1.
</event>
<event>
 4   0  0.4958067E-02  0.9118800E+02  0.7818609E-02  0.1379984E+01
      -11   -1    0    0    0    0  0.00000000000E+00  0.00000000000E+00  0.35740347158E-01  0.35744000000E-01  0.51099999109E-03 0. -1.
       11   -1    0    0    0    0 -0.00000000000E+00 -0.00000000000E+00 -0.35740347158E-01  0.35744000000E-01  0.51099999109E-03 0.  1.
       22    1    1    2    0    0  0.75801193399E-02 -0.41429339918E-02 -0.34677247203E-01  0.35737005818E-01  0.00000000000E+00 0.  1.
  9000001    1    1    2    0    0 -0.75801193399E-02  0.41429339918E-02  0.34677247203E-01  0.35750994182E-01  0.10000000475E-02 0. -1.
</event>
<event>
 4   0  0.4958067E-02  0.9118800E+02  0.7818609E-02  0.1379984E+01
      -11   -1    0    0    0    0  0.00000000000E+00  0.00000000000E+00  0.35740347158E-01  0.35744000000E-01  0.51099999109E-03 0. -1.
       11   -1    0    0    0    0 -0.00000000000E+00 -0.00000000000E+00 -0.35740347158E-01  0.35744000000E-01  0.51099999109E-03 0.  1.
       22    1    1    2    0    0  0.99936175810E-02 -0.11948821685E-01  0.32163439692E-01  0.35737005818E-01  0.00000000000E+00 0. -1.
  9000001    1    1    2    0    0 -0.99936175810E-02  0.11948821685E-01 -0.32163439692E-01  0.35750994182E-01  0.10000000475E-02 0.  1.
</event>
<event>
 4   0  0.4958067E-02  0.9118800E+02  0.7818609E-02  0.1379984E+01
      -11   -1    0    0    0    0  0.00000000000E+00  0.00000000000E+00  0.35740347158E-01  0.35744000000E-01  0.51099999109E-03 0. -1.
       11   -1    0    0    0    0 -0.00000000000E+00 -0.00000000000E+00 -0.35740347158E-01  0.35744000000E-01  0.51099999109E-03 0.  1.
       22    1    1    2    0    0  0.17136432017E-02  0.39613369013E-02  0.35475411510E-01  0.35737005818E-01  0.00000000000E+00 0. -1.
  9000001    1    1    2    0    0 -0.17136432017E-02 -0.39613369013E-02 -0.35475411510E-01  0.35750994182E-01  0.10000000475E-02 0.  1.
</event>
<event>
 4   0  0.4958067E-02  0.9118800E+02  0.7818609E-02  0.1379984E+01
      -11   -1    0    0    0    0  0.00000000000E+00  0.00000000000E+00  0.35740347158E-01  0.35744000000E-01  0.51099999109E-03 0. -1.
       11   -1    0    0    0    0 -0.00000000000E+00 -0.00000000000E+00 -0.35740347158E-01  0.35744000000E-01  0.51099999109E-03 0.  1.
       22    1    1    2    0    0 -0.36517051222E-02 -0.20807651646E-01 -0.28824299949E-01  0.35737005818E-01  0.00000000000E+00 0.  1.
  9000001    1    1    2    0    0  0.36517051222E-02  0.20807651646E-01  0.28824299949E-01  0.35750994182E-01  0.10000000475E-02 0. -1.
</event>
<event>
 4   0  0.4958067E-02  0.9118800E+02  0.7818609E-02  0.1379984E+01
      -11   -1    0    0    0    0  0.00000000000E+00  0.00000000000E+00  0.35740347158E-01  0.35744000000E-01  0.51099999109E-03 0.  1.
       11   -1    0    0    0    0 -0.00000000000E+00 -0.00000000000E+00 -0.35740347158E-01  0.35744000000E-01  0.51099999109E-03 0. -1.
       22    1    1    2    0    0 -0.93420062348E-02  0.32181818749E-02 -0.34343904988E-01  0.35737005818E-01  0.00000000000E+00 0. -1.
  9000001    1    1    2    0    0  0.93420062348E-02 -0.32181818749E-02  0.34343904988E-01  0.35750994182E-01  0.10000000475E-02 0.  1.
</event>
<event>
 4   0  0.4958067E-02  0.9118800E+02  0.7818609E-02  0.1379984E+01
      -11   -1    0    0    0    0  0.00000000000E+00  0.00000000000E+00  0.35740347158E-01  0.35744000000E-01  0.51099999109E-03 0. -1.
       11   -1    0    0    0    0 -0.00000000000E+00 -0.00000000000E+00 -0.35740347158E-01  0.35744000000E-01  0.51099999109E-03 0.  1.
       22    1    1    2    0    0 -0.42613191486E-02  0.74833628044E-03  0.35474141805E-01  0.35737005818E-01  0.00000000000E+00 0. -1.
  9000001    1    1    2    0    0  0.42613191486E-02 -0.74833628044E-03 -0.35474141805E-01  0.35750994182E-01  0.10000000475E-02 0.  1.
</event>
<event>
 4   0  0.4958067E-02  0.9118800E+02  0.7818609E-02  0.1379984E+01
      -11   -1    0    0    0    0  0.00000000000E+00  0.00000000000E+00  0.35740347158E-01  0.35744000000E-01  0.51099999109E-03 0. -1.
       11   -1    0    0    0    0 -0.00000000000E+00 -0.00000000000E+00 -0.35740347158E-01  0.35744000000E-01  0.51099999109E-03 0.  1.
       22    1    1    2    0    0  0.32984679437E-02  0.18473145208E-01 -0.30413756759E-01  0.35737005818E-01  0.00000000000E+00 0.  1.
  9000001    1    1    2    0    0 -0.32984679437E-02 -0.18473145208E-01  0.30413756759E-01  0.35750994182E-01  0.10000000475E-02 0. -1.
</event>
<event>
 4   0  0.4958067E-02  0.9118800E+02  0.7818609E-02  0.1379984E+01
      -11   -1    0    0    0    0  0.00000000000E+00  0.00000000000E+00  0.35740347158E-01  0.35744000000E-01  0.51099999109E-03 0.  1.
       11   -1    0    0    0    0 -0.00000000000E+00 -0.00000000000E+00 -0.35740347158E-01  0.35744000000E-01  0.51099999109E-03 0. -1.
       22    1    1    2    0    0 -0.47660939534E-03  0.13522207271E-01  0.33076522473E-01  0.35737005818E-01  0.00000000000E+00 0.  1.
  9000001    1    1    2    0    0  0.47660939534E-03 -0.13522207271E-01 -0.33076522473E-01  0.35750994182E-01  0.10000000475E-02 0. -1.
</event>
<event>
 4   0  0.4958067E-02  0.9118800E+02  0.7818609E-02  0.1379984E+01
      -11   -1    0    0    0    0  0.00000000000E+00  0.00000000000E+00  0.35740347158E-01  0.35744000000E-01  0.51099999109E-03 0. -1.
       11   -1    0    0    0    0 -0.00000000000E+00 -0.00000000000E+00 -0.35740347158E-01  0.35744000000E-01  0.51099999109E-03 0.  1.
       22    1    1    2    0    0  0.10857816087E-01  0.26682490552E-02 -0.33942920642E-01  0.35737005818E-01  0.00000000000E+00 0.  1.
  9000001    1    1    2    0    0 -0.10857816087E-01 -0.26682490552E-02  0.33942920642E-01  0.35750994182E-01  0.10000000475E-02 0. -1.
</event>
<event>
 4   0  0.4958067E-02  0.9118800E+02  0.7818609E-02  0.1379984E+01
      -11   -1    0    0    0    0  0.00000000000E+00  0.00000000000E+00  0.35740347158E-01  0.35744000000E-01  0.51099999109E-03 0.  1.
       11   -1    0    0    0    0 -0.00000000000E+00 -0.00000000000E+00 -0.35740347158E-01  0.35744000000E-01  0.51099999109E-03 0. -1.
       22    1    1    2    0    0 -0.19834515408E-01 -0.13277705395E-01 -0.26597520991E-01  0.35737005818E-01  0.00000000000E+00 0. -1.
  9000001    1    1    2    0    0  0.19834515408E-01  0.13277705395E-01  0.26597520991E-01  0.35750994182E-01  0.10000000475E-02 0.  1.
</event>
<event>
 4   0  0.4958067E-02  0.9118800E+02  0.7818609E-02  0.1379984E+01
      -11   -1    0    0    0    0  0.00000000000E+00  0.00000000000E+00  0.35740347158E-01  0.35744000000E-01  0.51099999109E-03 0.  1.
       11   -1    0    0    0    0 -0.00000000000E+00 -0.00000000000E+00 -0.35740347158E-01  0.35744000000E-01  0.51099999109E-03 0. -1.
       22    1    1    2    0    0 -0.68261611424E-02  0.42342947535E-02  0.34822519393E-01  0.35737005818E-01  0.00000000000E+00 0.  1.
  9000001    1    1    2    0    0  0.68261611424E-02 -0.42342947535E-02 -0.34822519393E-01  0.35750994182E-01  0.10000000475E-02 0. -1.
</event>
<event>
 4   0  0.4958067E-02  0.9118800E+02  0.7818609E-02  0.1379984E+01
      -11   -1    0    0    0    0  0.00000000000E+00  0.00000000000E+00  0.35740347158E-01  0.35744000000E-01  0.51099999109E-03 0.  1.
       11   -1    0    0    0    0 -0.00000000000E+00 -0.00000000000E+00 -0.35740347158E-01  0.35744000000E-01  0.51099999109E-03 0. -1.
       22    1    1    2    0    0  0.12914002608E-02 -0.51685260709E-02  0.35337688217E-01  0.35737005818E-01  0.00000000000E+00 0.  1.
  9000001    1    1    2    0    0 -0.12914002608E-02  0.51685260709E-02 -0.35337688217E-01  0.35750994182E-01  0.10000000475E-02 0. -1.
</event>
<event>
 4   0  0.4958067E-02  0.9118800E+02  0.7818609E-02  0.1379984E+01
      -11   -1    0    0    0    0  0.00000000000E+00  0.00000000000E+00  0.35740347158E-01  0.35744000000E-01  0.51099999109E-03 0. -1.
       11   -1    0    0    0    0 -0.00000000000E+00 -0.00000000000E+00 -0.35740347158E-01  0.35744000000E-01  0.51099999109E-03 0.  1.
       22    1    1    2    0    0  0.24956387898E-02 -0.26984583710E-02 -0.35547485063E-01  0.35737005818E-01  0.00000000000E+00 0.  1.
  9000001    1    1    2    0    0 -0.24956387898E-02  0.26984583710E-02  0.35547485063E-01  0.35750994182E-01  0.10000000475E-02 0. -1.
</event>
<event>
 4   0  0.4958067E-02  0.9118800E+02  0.7818609E-02  0.1379984E+01
      -11   -1    0    0    0    0  0.00000000000E+00  0.00000000000E+00  0.35740347158E-01  0.35744000000E-01  0.51099999109E-03 0.  1.
       11   -1    0    0    0    0 -0.00000000000E+00 -0.00000000000E+00 -0.35740347158E-01  0.35744000000E-01  0.51099999109E-03 0. -1.
       22    1    1    2    0    0 -0.31447520722E-02  0.17151385198E-02 -0.35557030516E-01  0.35737005818E-01  0.00000000000E+00 0. -1.
  9000001    1    1    2    0    0  0.31447520722E-02 -0.17151385198E-02  0.35557030516E-01  0.35750994182E-01  0.10000000475E-02 0.  1.
</event>
<event>
 4   0  0.4958067E-02  0.9118800E+02  0.7818609E-02  0.1379984E+01
      -11   -1    0    0    0    0  0.00000000000E+00  0.00000000000E+00  0.35740347158E-01  0.35744000000E-01  0.51099999109E-03 0. -1.
       11   -1    0    0    0    0 -0.00000000000E+00 -0.00000000000E+00 -0.35740347158E-01  0.35744000000E-01  0.51099999109E-03 0.  1.
       22    1    1    2    0    0  0.33783265793E-02 -0.11733306257E-01 -0.33586455881E-01  0.35737005818E-01  0.00000000000E+00 0.  1.
  9000001    1    1    2    0    0 -0.33783265793E-02  0.11733306257E-01  0.33586455881E-01  0.35750994182E-01  0.10000000475E-02 0. -1.
</event>
<event>
 4   0  0.4958067E-02  0.9118800E+02  0.7818609E-02  0.1379984E+01
      -11   -1    0    0    0    0  0.00000000000E+00  0.00000000000E+00  0.35740347158E-01  0.35744000000E-01  0.51099999109E-03 0.  1.
       11   -1    0    0    0    0 -0.00000000000E+00 -0.00000000000E+00 -0.35740347158E-01  0.35744000000E-01  0.51099999109E-03 0. -1.
       22    1    1    2    0    0 -0.20877079456E-01 -0.25573230726E-01 -0.13685430519E-01  0.35737005818E-01  0.00000000000E+00 0. -1.
  9000001    1    1    2    0    0  0.20877079456E-01  0.25573230726E-01  0.13685430519E-01  0.35750994182E-01  0.10000000475E-02 0.  1.
</event>
<event>
 4   0  0.4958067E-02  0.9118800E+02  0.7818609E-02  0.1379984E+01
      -11   -1    0    0    0    0  0.00000000000E+00  0.00000000000E+00  0.35740347158E-01  0.35744000000E-01  0.51099999109E-03 0. -1.
       11   -1    0    0    0    0 -0.00000000000E+00 -0.00000000000E+00 -0.35740347158E-01  0.35744000000E-01  0.51099999109E-03 0.  1.
       22    1    1    2    0    0  0.48931831747E-02  0.16579311129E-02 -0.35361583784E-01  0.35737005818E-01  0.00000000000E+00 0.  1.
  9000001    1    1    2    0    0 -0.48931831747E-02 -0.16579311129E-02  0.35361583784E-01  0.35750994182E-01  0.10000000475E-02 0. -1.
</event>
<event>
 4   0  0.4958067E-02  0.9118800E+02  0.7818609E-02  0.1379984E+01
      -11   -1    0    0    0    0  0.00000000000E+00  0.00000000000E+00  0.35740347158E-01  0.35744000000E-01  0.51099999109E-03 0.  1.
       11   -1    0    0    0    0 -0.00000000000E+00 -0.00000000000E+00 -0.35740347158E-01  0.35744000000E-01  0.51099999109E-03 0.  1.
       22    1    1    2    0    0  0.63429427686E-02  0.31056447639E-02  0.35032208502E-01  0.35737005818E-01  0.00000000000E+00 0.  1.
  9000001    1    1    2    0    0 -0.63429427686E-02 -0.31056447639E-02 -0.35032208502E-01  0.35750994182E-01  0.10000000475E-02 0.  1.
</event>
<event>
 4   0  0.4958067E-02  0.9118800E+02  0.7818609E-02  0.1379984E+01
      -11   -1    0    0    0    0  0.00000000000E+00  0.00000000000E+00  0.35740347158E-01  0.35744000000E-01  0.51099999109E-03 0.  1.
       11   -1    0    0    0    0 -0.00000000000E+00 -0.00000000000E+00 -0.35740347158E-01  0.35744000000E-01  0.51099999109E-03 0. -1.
       22    1    1    2    0    0 -0.22631541270E-02  0.71787989393E-02 -0.34935319722E-01  0.35737005818E-01  0.00000000000E+00 0. -1.
  9000001    1    1    2    0    0  0.22631541270E-02 -0.71787989393E-02  0.34935319722E-01  0.35750994182E-01  0.10000000475E-02 0.  1.
</event>
<event>
 4   0  0.4958067E-02  0.9118800E+02  0.7818609E-02  0.1379984E+01
      -11   -1    0    0    0    0  0.00000000000E+00  0.00000000000E+00  0.35740347158E-01  0.35744000000E-01  0.51099999109E-03 0. -1.
       11   -1    0    0    0    0 -0.00000000000E+00 -0.00000000000E+00 -0.35740347158E-01  0.35744000000E-01  0.51099999109E-03 0.  1.
       22    1    1    2    0    0 -0.29092104808E-02  0.25290757370E-02 -0.35528493567E-01  0.35737005818E-01  0.00000000000E+00 0.  1.
  9000001    1    1    2    0    0  0.29092104808E-02 -0.25290757370E-02  0.35528493567E-01  0.35750994182E-01  0.10000000475E-02 0. -1.
</event>
<event>
 4   0  0.4958067E-02  0.9118800E+02  0.7818609E-02  0.1379984E+01
      -11   -1    0    0    0    0  0.00000000000E+00  0.00000000000E+00  0.35740347158E-01  0.35744000000E-01  0.51099999109E-03 0.  1.
       11   -1    0    0    0    0 -0.00000000000E+00 -0.00000000000E+00 -0.35740347158E-01  0.35744000000E-01  0.51099999109E-03 0. -1.
       22    1    1    2    0    0 -0.14648760989E-01  0.50840881957E-03  0.32592773844E-01  0.35737005818E-01  0.00000000000E+00 0.  1.
  9000001    1    1    2    0    0  0.14648760989E-01 -0.50840881957E-03 -0.32592773844E-01  0.35750994182E-01  0.10000000475E-02 0. -1.
</event>
<event>
 4   0  0.4958067E-02  0.9118800E+02  0.7818609E-02  0.1379984E+01
      -11   -1    0    0    0    0  0.00000000000E+00  0.00000000000E+00  0.35740347158E-01  0.35744000000E-01  0.51099999109E-03 0.  1.
       11   -1    0    0    0    0 -0.00000000000E+00 -0.00000000000E+00 -0.35740347158E-01  0.35744000000E-01  0.51099999109E-03 0. -1.
       22    1    1    2    0    0 -0.68135853674E-02  0.22114557080E-01 -0.27233343616E-01  0.35737005818E-01  0.00000000000E+00 0. -1.
  9000001    1    1    2    0    0  0.68135853674E-02 -0.22114557080E-01  0.27233343616E-01  0.35750994182E-01  0.10000000475E-02 0.  1.
</event>
<event>
 4   0  0.4958067E-02  0.9118800E+02  0.7818609E-02  0.1379984E+01
      -11   -1    0    0    0    0  0.00000000000E+00  0.00000000000E+00  0.35740347158E-01  0.35744000000E-01  0.51099999109E-03 0.  1.
       11   -1    0    0    0    0 -0.00000000000E+00 -0.00000000000E+00 -0.35740347158E-01  0.35744000000E-01  0.51099999109E-03 0. -1.
       22    1    1    2    0    0  0.15832461936E-01 -0.26488408254E-01  0.18023067499E-01  0.35737005818E-01  0.00000000000E+00 0.  1.
  9000001    1    1    2    0    0 -0.15832461936E-01  0.26488408254E-01 -0.18023067499E-01  0.35750994182E-01  0.10000000475E-02 0. -1.
</event>
<event>
 4   0  0.4958067E-02  0.9118800E+02  0.7818609E-02  0.1379984E+01
      -11   -1    0    0    0    0  0.00000000000E+00  0.00000000000E+00  0.35740347158E-01  0.35744000000E-01  0.51099999109E-03 0. -1.
       11   -1    0    0    0    0 -0.00000000000E+00 -0.00000000000E+00 -0.35740347158E-01  0.35744000000E-01  0.51099999109E-03 0.  1.
       22    1    1    2    0    0  0.22091562167E-03  0.35471739160E-01 -0.43405647267E-02  0.35737005818E-01  0.00000000000E+00 0.  1.
  9000001    1    1    2    0    0 -0.22091562167E-03 -0.35471739160E-01  0.43405647267E-02  0.35750994182E-01  0.10000000475E-02 0. -1.
</event>
<event>
 4   0  0.4958067E-02  0.9118800E+02  0.7818609E-02  0.1379984E+01
      -11   -1    0    0    0    0  0.00000000000E+00  0.00000000000E+00  0.35740347158E-01  0.35744000000E-01  0.51099999109E-03 0.  1.
       11   -1    0    0    0    0 -0.00000000000E+00 -0.00000000000E+00 -0.35740347158E-01  0.35744000000E-01  0.51099999109E-03 0. -1.
       22    1    1    2    0    0 -0.21036133069E-01 -0.16286746203E-01  0.23861194196E-01  0.35737005818E-01  0.00000000000E+00 0.  1.
  9000001    1    1    2    0    0  0.21036133069E-01  0.16286746203E-01 -0.23861194196E-01  0.35750994182E-01  0.10000000475E-02 0. -1.
</event>
<event>
 4   0  0.4958067E-02  0.9118800E+02  0.7818609E-02  0.1379984E+01
      -11   -1    0    0    0    0  0.00000000000E+00  0.00000000000E+00  0.35740347158E-01  0.35744000000E-01  0.51099999109E-03 0.  1.
       11   -1    0    0    0    0 -0.00000000000E+00 -0.00000000000E+00 -0.35740347158E-01  0.35744000000E-01  0.51099999109E-03 0. -1.
       22    1    1    2    0    0  0.34920838670E-02 -0.20119262537E-01  0.29328385740E-01  0.35737005818E-01  0.00000000000E+00 0.  1.
  9000001    1    1    2    0    0 -0.34920838670E-02  0.20119262537E-01 -0.29328385740E-01  0.35750994182E-01  0.10000000475E-02 0. -1.
</event>
<event>
 4   0  0.4958067E-02  0.9118800E+02  0.7818609E-02  0.1379984E+01
      -11   -1    0    0    0    0  0.00000000000E+00  0.00000000000E+00  0.35740347158E-01  0.35744000000E-01  0.51099999109E-03 0.  1.
       11   -1    0    0    0    0 -0.00000000000E+00 -0.00000000000E+00 -0.35740347158E-01  0.35744000000E-01  0.51099999109E-03 0. -1.
       22    1    1    2    0    0  0.27117434105E-01 -0.23083973766E-01 -0.29847123089E-02  0.35737005818E-01  0.00000000000E+00 0. -1.
  9000001    1    1    2    0    0 -0.27117434105E-01  0.23083973766E-01  0.29847123089E-02  0.35750994182E-01  0.10000000475E-02 0.  1.
</event>
<event>
 4   0  0.4958067E-02  0.9118800E+02  0.7818609E-02  0.1379984E+01
      -11   -1    0    0    0    0  0.00000000000E+00  0.00000000000E+00  0.35740347158E-01  0.35744000000E-01  0.51099999109E-03 0.  1.
       11   -1    0    0    0    0 -0.00000000000E+00 -0.00000000000E+00 -0.35740347158E-01  0.35744000000E-01  0.51099999109E-03 0. -1.
       22    1    1    2    0    0 -0.30593091503E-01 -0.14704795591E-01 -0.11178789012E-01  0.35737005818E-01  0.00000000000E+00 0.  1.
  9000001    1    1    2    0    0  0.30593091503E-01  0.14704795591E-01  0.11178789012E-01  0.35750994182E-01  0.10000000475E-02 0. -1.
</event>
<event>
 4   0  0.4958067E-02  0.9118800E+02  0.7818609E-02  0.1379984E+01
      -11   -1    0    0    0    0  0.00000000000E+00  0.00000000000E+00  0.35740347158E-01  0.35744000000E-01  0.51099999109E-03 0.  1.
       11   -1    0    0    0    0 -0.00000000000E+00 -0.00000000000E+00 -0.35740347158E-01  0.35744000000E-01  0.51099999109E-03 0. -1.
       22    1    1    2    0    0 -0.90061387457E-02  0.28019219740E-01  0.20271812325E-01  0.35737005818E-01  0.00000000000E+00 0. -1.
  9000001    1    1    2    0    0  0.90061387457E-02 -0.28019219740E-01 -0.20271812325E-01  0.35750994182E-01  0.10000000475E-02 0.  1.
</event>
<event>
 4   0  0.4958067E-02  0.9118800E+02  0.7818609E-02  0.1379984E+01
      -11   -1    0    0    0    0  0.00000000000E+00  0.00000000000E+00  0.35740347158E-01  0.35744000000E-01  0.51099999109E-03 0. -1.
       11   -1    0    0    0    0 -0.00000000000E+00 -0.00000000000E+00 -0.35740347158E-01  0.35744000000E-01  0.51099999109E-03 0.  1.
       22    1    1    2    0    0  0.36094498922E-03 -0.45782837553E-02 -0.35440691605E-01  0.35737005818E-01  0.00000000000E+00 0.  1.
  9000001    1    1    2    0    0 -0.36094498922E-03  0.45782837553E-02  0.35440691605E-01  0.35750994182E-01  0.10000000475E-02 0. -1.
</event>
<event>
 4   0  0.4958067E-02  0.9118800E+02  0.7818609E-02  0.1379984E+01
      -11   -1    0    0    0    0  0.00000000000E+00  0.00000000000E+00  0.35740347158E-01  0.35744000000E-01  0.51099999109E-03 0. -1.
       11   -1    0    0    0    0 -0.00000000000E+00 -0.00000000000E+00 -0.35740347158E-01  0.35744000000E-01  0.51099999109E-03 0.  1.
       22    1    1    2    0    0  0.10495266670E-01 -0.32165959335E-01 -0.11503652570E-01  0.35737005818E-01  0.00000000000E+00 0. -1.
  9000001    1    1    2    0    0 -0.10495266670E-01  0.32165959335E-01  0.11503652570E-01  0.35750994182E-01  0.10000000475E-02 0.  1.
</event>
<event>
 4   0  0.4958067E-02  0.9118800E+02  0.7818609E-02  0.1379984E+01
      -11   -1    0    0    0    0  0.00000000000E+00  0.00000000000E+00  0.35740347158E-01  0.35744000000E-01  0.51099999109E-03 0.  1.
       11   -1    0    0    0    0 -0.00000000000E+00 -0.00000000000E+00 -0.35740347158E-01  0.35744000000E-01  0.51099999109E-03 0. -1.
       22    1    1    2    0    0 -0.18724790542E-01 -0.21798179677E-02 -0.30360569785E-01  0.35737005818E-01  0.00000000000E+00 0. -1.
  9000001    1    1    2    0    0  0.18724790542E-01  0.21798179677E-02  0.30360569785E-01  0.35750994182E-01  0.10000000475E-02 0.  1.
</event>
<event>
 4   0  0.4958067E-02  0.9118800E+02  0.7818609E-02  0.1379984E+01
      -11   -1    0    0    0    0  0.00000000000E+00  0.00000000000E+00  0.35740347158E-01  0.35744000000E-01  0.51099999109E-03 0.  1.
       11   -1    0    0    0    0 -0.00000000000E+00 -0.00000000000E+00 -0.35740347158E-01  0.35744000000E-01  0.51099999109E-03 0. -1.
       22    1    1    2    0    0  0.14796694628E-02 -0.34005504956E-02 -0.35544063069E-01  0.35737005818E-01  0.00000000000E+00 0. -1.
  9000001    1    1    2    0    0 -0.14796694628E-02  0.34005504956E-02  0.35544063069E-01  0.35750994182E-01  0.10000000475E-02 0.  1.
</event>
<event>
 4   0  0.4958067E-02  0.9118800E+02  0.7818609E-02  0.1379984E+01
      -11   -1    0    0    0    0  0.00000000000E+00  0.00000000000E+00  0.35740347158E-01  0.35744000000E-01  0.51099999109E-03 0. -1.
       11   -1    0    0    0    0 -0.00000000000E+00 -0.00000000000E+00 -0.35740347158E-01  0.35744000000E-01  0.51099999109E-03 0.  1.
       22    1    1    2    0    0  0.96740626894E-02  0.19133688918E-01 -0.28591048325E-01  0.35737005818E-01  0.00000000000E+00 0.  1.
  9000001    1    1    2    0    0 -0.96740626894E-02 -0.19133688918E-01  0.28591048325E-01  0.35750994182E-01  0.10000000475E-02 0. -1.
</event>
<event>
 4   0  0.4958067E-02  0.9118800E+02  0.7818609E-02  0.1379984E+01
      -11   -1    0    0    0    0  0.00000000000E+00  0.00000000000E+00  0.35740347158E-01  0.35744000000E-01  0.51099999109E-03 0.  1.
       11   -1    0    0    0    0 -0.00000000000E+00 -0.00000000000E+00 -0.35740347158E-01  0.35744000000E-01  0.51099999109E-03 0. -1.
       22    1    1    2    0    0 -0.21934662766E-02 -0.26558102577E-02  0.35570619371E-01  0.35737005818E-01  0.00000000000E+00 0.  1.
  9000001    1    1    2    0    0  0.21934662766E-02  0.26558102577E-02 -0.35570619371E-01  0.35750994182E-01  0.10000000475E-02 0. -1.
</event>
<event>
 4   0  0.4958067E-02  0.9118800E+02  0.7818609E-02  0.1379984E+01
      -11   -1    0    0    0    0  0.00000000000E+00  0.00000000000E+00  0.35740347158E-01  0.35744000000E-01  0.51099999109E-03 0. -1.
       11   -1    0    0    0    0 -0.00000000000E+00 -0.00000000000E+00 -0.35740347158E-01  0.35744000000E-01  0.51099999109E-03 0.  1.
       22    1    1    2    0    0  0.11596162288E-01  0.65923066296E-02  0.33154247064E-01  0.35737005818E-01  0.00000000000E+00 0. -1.
  9000001    1    1    2    0    0 -0.11596162288E-01 -0.65923066296E-02 -0.33154247064E-01  0.35750994182E-01  0.10000000475E-02 0.  1.
</event>
<event>
 4   0  0.4958067E-02  0.9118800E+02  0.7818609E-02  0.1379984E+01
      -11   -1    0    0    0    0  0.00000000000E+00  0.00000000000E+00  0.35740347158E-01  0.35744000000E-01  0.51099999109E-03 0. -1.
       11   -1    0    0    0    0 -0.00000000000E+00 -0.00000000000E+00 -0.35740347158E-01  0.35744000000E-01  0.51099999109E-03 0.  1.
       22    1    1    2    0    0 -0.16393998869E-03  0.39657272301E-02 -0.35515907930E-01  0.35737005818E-01  0.00000000000E+00 0.  1.
  9000001    1    1    2    0    0  0.16393998869E-03 -0.39657272301E-02  0.35515907930E-01  0.35750994182E-01  0.10000000475E-02 0. -1.
</event>
<event>
 4   0  0.4958067E-02  0.9118800E+02  0.7818609E-02  0.1379984E+01
      -11   -1    0    0    0    0  0.00000000000E+00  0.00000000000E+00  0.35740347158E-01  0.35744000000E-01  0.51099999109E-03 0.  1.
       11   -1    0    0    0    0 -0.00000000000E+00 -0.00000000000E+00 -0.35740347158E-01  0.35744000000E-01  0.51099999109E-03 0. -1.
       22    1    1    2    0    0 -0.97535113279E-02  0.18055814499E-02  0.34332819245E-01  0.35737005818E-01  0.00000000000E+00 0.  1.
  9000001    1    1    2    0    0  0.97535113279E-02 -0.18055814499E-02 -0.34332819245E-01  0.35750994182E-01  0.10000000475E-02 0. -1.
</event>
<event>
 4   0  0.4958067E-02  0.9118800E+02  0.7818609E-02  0.1379984E+01
      -11   -1    0    0    0    0  0.00000000000E+00  0.00000000000E+00  0.35740347158E-01  0.35744000000E-01  0.51099999109E-03 0. -1.
       11   -1    0    0    0    0 -0.00000000000E+00 -0.00000000000E+00 -0.35740347158E-01  0.35744000000E-01  0.51099999109E-03 0.  1.
       22    1    1    2    0    0 -0.38426386243E-02 -0.10351672105E-02  0.35514731340E-01  0.35737005818E-01  0.00000000000E+00 0. -1.
  9000001    1    1    2    0    0  0.38426386243E-02  0.10351672105E-02 -0.35514731340E-01  0.35750994182E-01  0.10000000475E-02 0.  1.
</event>
<event>
 4   0  0.4958067E-02  0.9118800E+02  0.7818609E-02  0.1379984E+01
      -11   -1    0    0    0    0  0.00000000000E+00  0.00000000000E+00  0.35740347158E-01  0.35744000000E-01  0.51099999109E-03 0.  1.
       11   -1    0    0    0    0 -0.00000000000E+00 -0.00000000000E+00 -0.35740347158E-01  0.35744000000E-01  0.51099999109E-03 0. -1.
       22    1    1    2    0    0  0.85805815791E-02 -0.11632016777E-02  0.34672094925E-01  0.35737005818E-01  0.00000000000E+00 0.  1.
  9000001    1    1    2    0    0 -0.85805815791E-02  0.11632016777E-02 -0.34672094925E-01  0.35750994182E-01  0.10000000475E-02 0. -1.
</event>
<event>
 4   0  0.4958067E-02  0.9118800E+02  0.7818609E-02  0.1379984E+01
      -11   -1    0    0    0    0  0.00000000000E+00  0.00000000000E+00  0.35740347158E-01  0.35744000000E-01  0.51099999109E-03 0.  1.
       11   -1    0    0    0    0 -0.00000000000E+00 -0.00000000000E+00 -0.35740347158E-01  0.35744000000E-01  0.51099999109E-03 0. -1.
       22    1    1    2    0    0  0.39684133152E-02 -0.55058931074E-02 -0.35086613141E-01  0.35737005818E-01  0.00000000000E+00 0. -1.
  9000001    1    1    2    0    0 -0.39684133152E-02  0.55058931074E-02  0.35086613141E-01  0.35750994182E-01  0.10000000475E-02 0.  1.
</event>
<event>
 4   0  0.4958067E-02  0.9118800E+02  0.7818609E-02  0.1379984E+01
      -11   -1    0    0    0    0  0.00000000000E+00  0.00000000000E+00  0.35740347158E-01  0.35744000000E-01  0.51099999109E-03 0. -1.
       11   -1    0    0    0    0 -0.00000000000E+00 -0.00000000000E+00 -0.35740347158E-01  0.35744000000E-01  0.51099999109E-03 0.  1.
       22    1    1    2    0    0 -0.66424004866E-03  0.51521188728E-02 -0.35357432615E-01  0.35737005818E-01  0.00000000000E+00 0.  1.
  9000001    1    1    2    0    0  0.66424004866E-03 -0.51521188728E-02  0.35357432615E-01  0.35750994182E-01  0.10000000475E-02 0. -1.
</event>
<event>
 4   0  0.4958067E-02  0.9118800E+02  0.7818609E-02  0.1379984E+01
      -11   -1    0    0    0    0  0.00000000000E+00  0.00000000000E+00  0.35740347158E-01  0.35744000000E-01  0.51099999109E-03 0. -1.
       11   -1    0    0    0    0 -0.00000000000E+00 -0.00000000000E+00 -0.35740347158E-01  0.35744000000E-01  0.51099999109E-03 0.  1.
       22    1    1    2    0    0 -0.20129367864E-02  0.48062009612E-02  0.35355085952E-01  0.35737005818E-01  0.00000000000E+00 0. -1.
  9000001    1    1    2    0    0  0.20129367864E-02 -0.48062009612E-02 -0.35355085952E-01  0.35750994182E-01  0.10000000475E-02 0.  1.
</event>
<event>
 4   0  0.4958067E-02  0.9118800E+02  0.7818609E-02  0.1379984E+01
      -11   -1    0    0    0    0  0.00000000000E+00  0.00000000000E+00  0.35740347158E-01  0.35744000000E-01  0.51099999109E-03 0.  1.
       11   -1    0    0    0    0 -0.00000000000E+00 -0.00000000000E+00 -0.35740347158E-01  0.35744000000E-01  0.51099999109E-03 0. -1.
       22    1    1    2    0    0 -0.39321113353E-02  0.23385084651E-02  0.35442960704E-01  0.35737005818E-01  0.00000000000E+00 0.  1.
  9000001    1    1    2    0    0  0.39321113353E-02 -0.23385084651E-02 -0.35442960704E-01  0.35750994182E-01  0.10000000475E-02 0. -1.
</event>
<event>
 4   0  0.4958067E-02  0.9118800E+02  0.7818609E-02  0.1379984E+01
      -11   -1    0    0    0    0  0.00000000000E+00  0.00000000000E+00  0.35740347158E-01  0.35744000000E-01  0.51099999109E-03 0. -1.
       11   -1    0    0    0    0 -0.00000000000E+00 -0.00000000000E+00 -0.35740347158E-01  0.35744000000E-01  0.51099999109E-03 0.  1.
       22    1    1    2    0    0 -0.14892682199E-01 -0.17024005725E-01  0.27668119395E-01  0.35737005818E-01  0.00000000000E+00 0. -1.
  9000001    1    1    2    0    0  0.14892682199E-01  0.17024005725E-01 -0.27668119395E-01  0.35750994182E-01  0.10000000475E-02 0.  1.
</event>
<event>
 4   0  0.4958067E-02  0.9118800E+02  0.7818609E-02  0.1379984E+01
      -11   -1    0    0    0    0  0.00000000000E+00  0.00000000000E+00  0.35740347158E-01  0.35744000000E-01  0.51099999109E-03 0. -1.
       11   -1    0    0    0    0 -0.00000000000E+00 -0.00000000000E+00 -0.35740347158E-01  0.35744000000E-01  0.51099999109E-03 0.  1.
       22    1    1    2    0    0  0.26116995781E-02  0.30028677452E-02  0.35514720828E-01  0.35737005818E-01  0.00000000000E+00 0. -1.
  9000001    1    1    2    0    0 -0.26116995781E-02 -0.30028677452E-02 -0.35514720828E-01  0.35750994182E-01  0.10000000475E-02 0.  1.
</event>
<event>
 4   0  0.4958067E-02  0.9118800E+02  0.7818609E-02  0.1379984E+01
      -11   -1    0    0    0    0  0.00000000000E+00  0.00000000000E+00  0.35740347158E-01  0.35744000000E-01  0.51099999109E-03 0. -1.
       11   -1    0    0    0    0 -0.00000000000E+00 -0.00000000000E+00 -0.35740347158E-01  0.35744000000E-01  0.51099999109E-03 0.  1.
       22    1    1    2    0    0 -0.31803663794E-01  0.93969670859E-02  0.13317565984E-01  0.35737005818E-01  0.00000000000E+00 0. -1.
  9000001    1    1    2    0    0  0.31803663794E-01 -0.93969670859E-02 -0.13317565984E-01  0.35750994182E-01  0.10000000475E-02 0.  1.
</event>
<event>
 4   0  0.4958067E-02  0.9118800E+02  0.7818609E-02  0.1379984E+01
      -11   -1    0    0    0    0  0.00000000000E+00  0.00000000000E+00  0.35740347158E-01  0.35744000000E-01  0.51099999109E-03 0. -1.
       11   -1    0    0    0    0 -0.00000000000E+00 -0.00000000000E+00 -0.35740347158E-01  0.35744000000E-01  0.51099999109E-03 0.  1.
       22    1    1    2    0    0 -0.54725313140E-02  0.36784081739E-02 -0.35123415255E-01  0.35737005818E-01  0.00000000000E+00 0.  1.
  9000001    1    1    2    0    0  0.54725313140E-02 -0.36784081739E-02  0.35123415255E-01  0.35750994182E-01  0.10000000475E-02 0. -1.
</event>
<event>
 4   0  0.4958067E-02  0.9118800E+02  0.7818609E-02  0.1379984E+01
      -11   -1    0    0    0    0  0.00000000000E+00  0.00000000000E+00  0.35740347158E-01  0.35744000000E-01  0.51099999109E-03 0. -1.
       11   -1    0    0    0    0 -0.00000000000E+00 -0.00000000000E+00 -0.35740347158E-01  0.35744000000E-01  0.51099999109E-03 0.  1.
       22    1    1    2    0    0  0.51396482632E-02 -0.19168141663E-02 -0.35313502008E-01  0.35737005818E-01  0.00000000000E+00 0.  1.
  9000001    1    1    2    0    0 -0.51396482632E-02  0.19168141663E-02  0.35313502008E-01  0.35750994182E-01  0.10000000475E-02 0. -1.
</event>
<event>
 4   0  0.4958067E-02  0.9118800E+02  0.7818609E-02  0.1379984E+01
      -11   -1    0    0    0    0  0.00000000000E+00  0.00000000000E+00  0.35740347158E-01  0.35744000000E-01  0.51099999109E-03 0.  1.
       11   -1    0    0    0    0 -0.00000000000E+00 -0.00000000000E+00 -0.35740347158E-01  0.35744000000E-01  0.51099999109E-03 0. -1.
       22    1    1    2    0    0  0.14928944810E-02  0.28991003994E-02 -0.35587920251E-01  0.35737005818E-01  0.00000000000E+00 0. -1.
  9000001    1    1    2    0    0 -0.14928944810E-02 -0.28991003994E-02  0.35587920251E-01  0.35750994182E-01  0.10000000475E-02 0.  1.
</event>
<event>
 4   0  0.4958067E-02  0.9118800E+02  0.7818609E-02  0.1379984E+01
      -11   -1    0    0    0    0  0.00000000000E+00  0.00000000000E+00  0.35740347158E-01  0.35744000000E-01  0.51099999109E-03 0.  1.
       11   -1    0    0    0    0 -0.00000000000E+00 -0.00000000000E+00 -0.35740347158E-01  0.35744000000E-01  0.51099999109E-03 0. -1.
       22    1    1    2    0    0 -0.10292806265E-01 -0.75518535273E-02  0.33379053797E-01  0.35737005818E-01  0.00000000000E+00 0.  1.
  9000001    1    1    2    0    0  0.10292806265E-01  0.75518535273E-02 -0.33379053797E-01  0.35750994182E-01  0.10000000475E-02 0. -1.
</event>
<event>
 4   0  0.4958067E-02  0.9118800E+02  0.7818609E-02  0.1379984E+01
      -11   -1    0    0    0    0  0.00000000000E+00  0.00000000000E+00  0.35740347158E-01  0.35744000000E-01  0.51099999109E-03 0. -1.
       11   -1    0    0    0    0 -0.00000000000E+00 -0.00000000000E+00 -0.35740347158E-01  0.35744000000E-01  0.51099999109E-03 0.  1.
       22    1    1    2    0    0  0.14665832771E-02  0.64115781146E-02 -0.35126548143E-01  0.35737005818E-01  0.00000000000E+00 0.  1.
  9000001    1    1    2    0    0 -0.14665832771E-02 -0.64115781146E-02  0.35126548143E-01  0.35750994182E-01  0.10000000475E-02 0. -1.
</event>
<event>
 4   0  0.4958067E-02  0.9118800E+02  0.7818609E-02  0.1379984E+01
      -11   -1    0    0    0    0  0.00000000000E+00  0.00000000000E+00  0.35740347158E-01  0.35744000000E-01  0.51099999109E-03 0.  1.
       11   -1    0    0    0    0 -0.00000000000E+00 -0.00000000000E+00 -0.35740347158E-01  0.35744000000E-01  0.51099999109E-03 0. -1.
       22    1    1    2    0    0 -0.27468877081E-02 -0.62384843622E-02 -0.35080899442E-01  0.35737005818E-01  0.00000000000E+00 0. -1.
  9000001    1    1    2    0    0  0.27468877081E-02  0.62384843622E-02  0.35080899442E-01  0.35750994182E-01  0.10000000475E-02 0.  1.
</event>
<event>
 4   0  0.4958067E-02  0.9118800E+02  0.7818609E-02  0.1379984E+01
      -11   -1    0    0    0    0  0.00000000000E+00  0.00000000000E+00  0.35740347158E-01  0.35744000000E-01  0.51099999109E-03 0. -1.
       11   -1    0    0    0    0 -0.00000000000E+00 -0.00000000000E+00 -0.35740347158E-01  0.35744000000E-01  0.51099999109E-03 0.  1.
       22    1    1    2    0    0  0.98998336918E-02  0.36646143464E-02  0.34142312157E-01  0.35737005818E-01  0.00000000000E+00 0. -1.
  9000001    1    1    2    0    0 -0.98998336918E-02 -0.36646143464E-02 -0.34142312157E-01  0.35750994182E-01  0.10000000475E-02 0.  1.
</event>
<event>
 4   0  0.4958067E-02  0.9118800E+02  0.7818609E-02  0.1379984E+01
      -11   -1    0    0    0    0  0.00000000000E+00  0.00000000000E+00  0.35740347158E-01  0.35744000000E-01  0.51099999109E-03 0.  1.
       11   -1    0    0    0    0 -0.00000000000E+00 -0.00000000000E+00 -0.35740347158E-01  0.35744000000E-01  0.51099999109E-03 0. -1.
       22    1    1    2    0    0 -0.75757744369E-02 -0.10852954034E-01  0.33195701759E-01  0.35737005818E-01  0.00000000000E+00 0.  1.
  9000001    1    1    2    0    0  0.75757744369E-02  0.10852954034E-01 -0.33195701759E-01  0.35750994182E-01  0.10000000475E-02 0. -1.
</event>
<event>
 4   0  0.4958067E-02  0.9118800E+02  0.7818609E-02  0.1379984E+01
      -11   -1    0    0    0    0  0.00000000000E+00  0.00000000000E+00  0.35740347158E-01  0.35744000000E-01  0.51099999109E-03 0.  1.
       11   -1    0    0    0    0 -0.00000000000E+00 -0.00000000000E+00 -0.35740347158E-01  0.35744000000E-01  0.51099999109E-03 0. -1.
       22    1    1    2    0    0 -0.15839647484E-01 -0.12780126011E-01  0.29375287770E-01  0.35737005818E-01  0.00000000000E+00 0.  1.
  9000001    1    1    2    0    0  0.15839647484E-01  0.12780126011E-01 -0.29375287770E-01  0.35750994182E-01  0.10000000475E-02 0. -1.
</event>
<event>
 4   0  0.4958067E-02  0.9118800E+02  0.7818609E-02  0.1379984E+01
      -11   -1    0    0    0    0  0.00000000000E+00  0.00000000000E+00  0.35740347158E-01  0.35744000000E-01  0.51099999109E-03 0.  1.
       11   -1    0    0    0    0 -0.00000000000E+00 -0.00000000000E+00 -0.35740347158E-01  0.35744000000E-01  0.51099999109E-03 0. -1.
       22    1    1    2    0    0  0.22271726556E-01 -0.10502091284E-01 -0.25899997293E-01  0.35737005818E-01  0.00000000000E+00 0. -1.
  9000001    1    1    2    0    0 -0.22271726556E-01  0.10502091284E-01  0.25899997293E-01  0.35750994182E-01  0.10000000475E-02 0.  1.
</event>
<event>
 4   0  0.4958067E-02  0.9118800E+02  0.7818609E-02  0.1379984E+01
      -11   -1    0    0    0    0  0.00000000000E+00  0.00000000000E+00  0.35740347158E-01  0.35744000000E-01  0.51099999109E-03 0.  1.
       11   -1    0    0    0    0 -0.00000000000E+00 -0.00000000000E+00 -0.35740347158E-01  0.35744000000E-01  0.51099999109E-03 0. -1.
       22    1    1    2    0    0 -0.27976438511E-01  0.15936419145E-01 -0.15507514886E-01  0.35737005818E-01  0.00000000000E+00 0. -1.
  9000001    1    1    2    0    0  0.27976438511E-01 -0.15936419145E-01  0.15507514886E-01  0.35750994182E-01  0.10000000475E-02 0.  1.
</event>
<event>
 4   0  0.4958067E-02  0.9118800E+02  0.7818609E-02  0.1379984E+01
      -11   -1    0    0    0    0  0.00000000000E+00  0.00000000000E+00  0.35740347158E-01  0.35744000000E-01  0.51099999109E-03 0.  1.
       11   -1    0    0    0    0 -0.00000000000E+00 -0.00000000000E+00 -0.35740347158E-01  0.35744000000E-01  0.51099999109E-03 0. -1.
       22    1    1    2    0    0 -0.11417737692E-01  0.56484364689E-02 -0.33389579457E-01  0.35737005818E-01  0.00000000000E+00 0. -1.
  9000001    1    1    2    0    0  0.11417737692E-01 -0.56484364689E-02  0.33389579457E-01  0.35750994182E-01  0.10000000475E-02 0.  1.
</event>
<event>
 4   0  0.4958067E-02  0.9118800E+02  0.7818609E-02  0.1379984E+01
      -11   -1    0    0    0    0  0.00000000000E+00  0.00000000000E+00  0.35740347158E-01  0.35744000000E-01  0.51099999109E-03 0.  1.
       11   -1    0    0    0    0 -0.00000000000E+00 -0.00000000000E+00 -0.35740347158E-01  0.35744000000E-01  0.51099999109E-03 0. -1.
       22    1    1    2    0    0  0.11727908279E-01 -0.26559244686E-02 -0.33653169501E-01  0.35737005818E-01  0.00000000000E+00 0. -1.
  9000001    1    1    2    0    0 -0.11727908279E-01  0.26559244686E-02  0.33653169501E-01  0.35750994182E-01  0.10000000475E-02 0.  1.
</event>
<event>
 4   0  0.4958067E-02  0.9118800E+02  0.7818609E-02  0.1379984E+01
      -11   -1    0    0    0    0  0.00000000000E+00  0.00000000000E+00  0.35740347158E-01  0.35744000000E-01  0.51099999109E-03 0.  1.
       11   -1    0    0    0    0 -0.00000000000E+00 -0.00000000000E+00 -0.35740347158E-01  0.35744000000E-01  0.51099999109E-03 0. -1.
       22    1    1    2    0    0 -0.18926949262E-01  0.67901933106E-02  0.29543145589E-01  0.35737005818E-01  0.00000000000E+00 0.  1.
  9000001    1    1    2    0    0  0.18926949262E-01 -0.67901933106E-02 -0.29543145589E-01  0.35750994182E-01  0.10000000475E-02 0. -1.
</event>
<event>
 4   0  0.4958067E-02  0.9118800E+02  0.7818609E-02  0.1379984E+01
      -11   -1    0    0    0    0  0.00000000000E+00  0.00000000000E+00  0.35740347158E-01  0.35744000000E-01  0.51099999109E-03 0.  1.
       11   -1    0    0    0    0 -0.00000000000E+00 -0.00000000000E+00 -0.35740347158E-01  0.35744000000E-01  0.51099999109E-03 0. -1.
       22    1    1    2    0    0  0.35129718704E-01 -0.17881797086E-02 -0.63118033838E-02  0.35737005818E-01  0.00000000000E+00 0. -1.
  9000001    1    1    2    0    0 -0.35129718704E-01  0.17881797086E-02  0.63118033838E-02  0.35750994182E-01  0.10000000475E-02 0.  1.
</event>
<event>
 4   0  0.4958067E-02  0.9118800E+02  0.7818609E-02  0.1379984E+01
      -11   -1    0    0    0    0  0.00000000000E+00  0.00000000000E+00  0.35740347158E-01  0.35744000000E-01  0.51099999109E-03 0.  1.
       11   -1    0    0    0    0 -0.00000000000E+00 -0.00000000000E+00 -0.35740347158E-01  0.35744000000E-01  0.51099999109E-03 0. -1.
       22    1    1    2    0    0  0.59826862622E-02  0.17637126688E-01 -0.30500373967E-01  0.35737005818E-01  0.00000000000E+00 0. -1.
  9000001    1    1    2    0    0 -0.59826862622E-02 -0.17637126688E-01  0.30500373967E-01  0.35750994182E-01  0.10000000475E-02 0.  1.
</event>
<event>
 4   0  0.4958067E-02  0.9118800E+02  0.7818609E-02  0.1379984E+01
      -11   -1    0    0    0    0  0.00000000000E+00  0.00000000000E+00  0.35740347158E-01  0.35744000000E-01  0.51099999109E-03 0.  1.
       11   -1    0    0    0    0 -0.00000000000E+00 -0.00000000000E+00 -0.35740347158E-01  0.35744000000E-01  0.51099999109E-03 0. -1.
       22    1    1    2    0    0 -0.15737980915E-01 -0.20945838902E-01  0.24304760321E-01  0.35737005818E-01  0.00000000000E+00 0. -1.
  9000001    1    1    2    0    0  0.15737980915E-01  0.20945838902E-01 -0.24304760321E-01  0.35750994182E-01  0.10000000475E-02 0.  1.
</event>
<event>
 4   0  0.4958067E-02  0.9118800E+02  0.7818609E-02  0.1379984E+01
      -11   -1    0    0    0    0  0.00000000000E+00  0.00000000000E+00  0.35740347158E-01  0.35744000000E-01  0.51099999109E-03 0.  1.
       11   -1    0    0    0    0 -0.00000000000E+00 -0.00000000000E+00 -0.35740347158E-01  0.35744000000E-01  0.51099999109E-03 0. -1.
       22    1    1    2    0    0 -0.11825661285E-02  0.28087041766E-02 -0.35606829444E-01  0.35737005818E-01  0.00000000000E+00 0. -1.
  9000001    1    1    2    0    0  0.11825661285E-02 -0.28087041766E-02  0.35606829444E-01  0.35750994182E-01  0.10000000475E-02 0.  1.
</event>
<event>
 4   0  0.4958067E-02  0.9118800E+02  0.7818609E-02  0.1379984E+01
      -11   -1    0    0    0    0  0.00000000000E+00  0.00000000000E+00  0.35740347158E-01  0.35744000000E-01  0.51099999109E-03 0.  1.
       11   -1    0    0    0    0 -0.00000000000E+00 -0.00000000000E+00 -0.35740347158E-01  0.35744000000E-01  0.51099999109E-03 0. -1.
       22    1    1    2    0    0  0.23052582820E-02  0.90151532446E-02  0.34504295111E-01  0.35737005818E-01  0.00000000000E+00 0.  1.
  9000001    1    1    2    0    0 -0.23052582820E-02 -0.90151532446E-02 -0.34504295111E-01  0.35750994182E-01  0.10000000475E-02 0. -1.
</event>
<event>
 4   0  0.4958067E-02  0.9118800E+02  0.7818609E-02  0.1379984E+01
      -11   -1    0    0    0    0  0.00000000000E+00  0.00000000000E+00  0.35740347158E-01  0.35744000000E-01  0.51099999109E-03 0. -1.
       11   -1    0    0    0    0 -0.00000000000E+00 -0.00000000000E+00 -0.35740347158E-01  0.35744000000E-01  0.51099999109E-03 0.  1.
       22    1    1    2    0    0  0.30100171572E-02 -0.95119922226E-04 -0.35609890954E-01  0.35737005818E-01  0.00000000000E+00 0.  1.
  9000001    1    1    2    0    0 -0.30100171572E-02  0.95119922226E-04  0.35609890954E-01  0.35750994182E-01  0.10000000475E-02 0. -1.
</event>
<event>
 4   0  0.4958067E-02  0.9118800E+02  0.7818609E-02  0.1379984E+01
      -11   -1    0    0    0    0  0.00000000000E+00  0.00000000000E+00  0.35740347158E-01  0.35744000000E-01  0.51099999109E-03 0. -1.
       11   -1    0    0    0    0 -0.00000000000E+00 -0.00000000000E+00 -0.35740347158E-01  0.35744000000E-01  0.51099999109E-03 0.  1.
       22    1    1    2    0    0  0.33057223696E-01 -0.12087649408E-01  0.61840341363E-02  0.35737005818E-01  0.00000000000E+00 0. -1.
  9000001    1    1    2    0    0 -0.33057223696E-01  0.12087649408E-01 -0.61840341363E-02  0.35750994182E-01  0.10000000475E-02 0.  1.
</event>
<event>
 4   0  0.4958067E-02  0.9118800E+02  0.7818609E-02  0.1379984E+01
      -11   -1    0    0    0    0  0.00000000000E+00  0.00000000000E+00  0.35740347158E-01  0.35744000000E-01  0.51099999109E-03 0. -1.
       11   -1    0    0    0    0 -0.00000000000E+00 -0.00000000000E+00 -0.35740347158E-01  0.35744000000E-01  0.51099999109E-03 0.  1.
       22    1    1    2    0    0  0.36647360643E-02  0.65466200358E-02  0.34940593306E-01  0.35737005818E-01  0.00000000000E+00 0. -1.
  9000001    1    1    2    0    0 -0.36647360643E-02 -0.65466200358E-02 -0.34940593306E-01  0.35750994182E-01  0.10000000475E-02 0.  1.
</event>
<event>
 4   0  0.4958067E-02  0.9118800E+02  0.7818609E-02  0.1379984E+01
      -11   -1    0    0    0    0  0.00000000000E+00  0.00000000000E+00  0.35740347158E-01  0.35744000000E-01  0.51099999109E-03 0. -1.
       11   -1    0    0    0    0 -0.00000000000E+00 -0.00000000000E+00 -0.35740347158E-01  0.35744000000E-01  0.51099999109E-03 0.  1.
       22    1    1    2    0    0  0.35717359491E-01  0.11258914589E-02 -0.36903158671E-03  0.35737005818E-01  0.00000000000E+00 0. -1.
  9000001    1    1    2    0    0 -0.35717359491E-01 -0.11258914589E-02  0.36903158671E-03  0.35750994182E-01  0.10000000475E-02 0.  1.
</event>
<event>
 4   0  0.4958067E-02  0.9118800E+02  0.7818609E-02  0.1379984E+01
      -11   -1    0    0    0    0  0.00000000000E+00  0.00000000000E+00  0.35740347158E-01  0.35744000000E-01  0.51099999109E-03 0.  1.
       11   -1    0    0    0    0 -0.00000000000E+00 -0.00000000000E+00 -0.35740347158E-01  0.35744000000E-01  0.51099999109E-03 0. -1.
       22    1    1    2    0    0  0.29157115522E-02 -0.86654349324E-02  0.34547683692E-01  0.35737005818E-01  0.00000000000E+00 0.  1.
  9000001    1    1    2    0    0 -0.29157115522E-02  0.86654349324E-02 -0.34547683692E-01  0.35750994182E-01  0.10000000475E-02 0. -1.
</event>
<event>
 4   0  0.4958067E-02  0.9118800E+02  0.7818609E-02  0.1379984E+01
      -11   -1    0    0    0    0  0.00000000000E+00  0.00000000000E+00  0.35740347158E-01  0.35744000000E-01  0.51099999109E-03 0.  1.
       11   -1    0    0    0    0 -0.00000000000E+00 -0.00000000000E+00 -0.35740347158E-01  0.35744000000E-01  0.51099999109E-03 0. -1.
       22    1    1    2    0    0  0.11862415486E-01 -0.20765676211E-02 -0.33646761369E-01  0.35737005818E-01  0.00000000000E+00 0. -1.
  9000001    1    1    2    0    0 -0.11862415486E-01  0.20765676211E-02  0.33646761369E-01  0.35750994182E-01  0.10000000475E-02 0.  1.
</event>
<event>
 4   0  0.4958067E-02  0.9118800E+02  0.7818609E-02  0.1379984E+01
      -11   -1    0    0    0    0  0.00000000000E+00  0.00000000000E+00  0.35740347158E-01  0.35744000000E-01  0.51099999109E-03 0.  1.
       11   -1    0    0    0    0 -0.00000000000E+00 -0.00000000000E+00 -0.35740347158E-01  0.35744000000E-01  0.51099999109E-03 0. -1.
       22    1    1    2    0    0 -0.22086525373E-02  0.33691841393E-02  0.35509210595E-01  0.35737005818E-01  0.00000000000E+00 0.  1.
  9000001    1    1    2    0    0  0.22086525373E-02 -0.33691841393E-02 -0.35509210595E-01  0.35750994182E-01  0.10000000475E-02 0. -1.
</event>
<event>
 4   0  0.4958067E-02  0.9118800E+02  0.7818609E-02  0.1379984E+01
      -11   -1    0    0    0    0  0.00000000000E+00  0.00000000000E+00  0.35740347158E-01  0.35744000000E-01  0.51099999109E-03 0.  1.
       11   -1    0    0    0    0 -0.00000000000E+00 -0.00000000000E+00 -0.35740347158E-01  0.35744000000E-01  0.51099999109E-03 0. -1.
       22    1    1    2    0    0 -0.52092345902E-02 -0.22018887708E-01 -0.27661634875E-01  0.35737005818E-01  0.00000000000E+00 0. -1.
  9000001    1    1    2    0    0  0.52092345902E-02  0.22018887708E-01  0.27661634875E-01  0.35750994182E-01  0.10000000475E-02 0.  1.
</event>
<event>
 4   0  0.4958067E-02  0.9118800E+02  0.7818609E-02  0.1379984E+01
      -11   -1    0    0    0    0  0.00000000000E+00  0.00000000000E+00  0.35740347158E-01  0.35744000000E-01  0.51099999109E-03 0.  1.
       11   -1    0    0    0    0 -0.00000000000E+00 -0.00000000000E+00 -0.35740347158E-01  0.35744000000E-01  0.51099999109E-03 0. -1.
       22    1    1    2    0    0 -0.24071510825E-03 -0.36142317183E-02  0.35552960076E-01  0.35737005818E-01  0.00000000000E+00 0.  1.
  9000001    1    1    2    0    0  0.24071510825E-03  0.36142317183E-02 -0.35552960076E-01  0.35750994182E-01  0.10000000475E-02 0. -1.
</event>
<event>
 4   0  0.4958067E-02  0.9118800E+02  0.7818609E-02  0.1379984E+01
      -11   -1    0    0    0    0  0.00000000000E+00  0.00000000000E+00  0.35740347158E-01  0.35744000000E-01  0.51099999109E-03 0.  1.
       11   -1    0    0    0    0 -0.00000000000E+00 -0.00000000000E+00 -0.35740347158E-01  0.35744000000E-01  0.51099999109E-03 0. -1.
       22    1    1    2    0    0  0.12044786902E-01 -0.13562831652E-01  0.30791334673E-01  0.35737005818E-01  0.00000000000E+00 0.  1.
  9000001    1    1    2    0    0 -0.12044786902E-01  0.13562831652E-01 -0.30791334673E-01  0.35750994182E-01  0.10000000475E-02 0. -1.
</event>
<event>
 4   0  0.4958067E-02  0.9118800E+02  0.7818609E-02  0.1379984E+01
      -11   -1    0    0    0    0  0.00000000000E+00  0.00000000000E+00  0.35740347158E-01  0.35744000000E-01  0.51099999109E-03 0. -1.
       11   -1    0    0    0    0 -0.00000000000E+00 -0.00000000000E+00 -0.35740347158E-01  0.35744000000E-01  0.51099999109E-03 0.  1.
       22    1    1    2    0    0  0.30940988110E-01  0.25773416391E-03 -0.17880783337E-01  0.35737005818E-01  0.00000000000E+00 0.  1.
  9000001    1    1    2    0    0 -0.30940988110E-01 -0.25773416391E-03  0.17880783337E-01  0.35750994182E-01  0.10000000475E-02 0. -1.
</event>
<event>
 4   0  0.4958067E-02  0.9118800E+02  0.7818609E-02  0.1379984E+01
      -11   -1    0    0    0    0  0.00000000000E+00  0.00000000000E+00  0.35740347158E-01  0.35744000000E-01  0.51099999109E-03 0.  1.
       11   -1    0    0    0    0 -0.00000000000E+00 -0.00000000000E+00 -0.35740347158E-01  0.35744000000E-01  0.51099999109E-03 0. -1.
       22    1    1    2    0    0  0.36756390292E-02  0.89586172095E-02 -0.34400093609E-01  0.35737005818E-01  0.00000000000E+00 0. -1.
  9000001    1    1    2    0    0 -0.36756390292E-02 -0.89586172095E-02  0.34400093609E-01  0.35750994182E-01  0.10000000475E-02 0.  1.
</event>
<event>
 4   0  0.4958067E-02  0.9118800E+02  0.7818609E-02  0.1379984E+01
      -11   -1    0    0    0    0  0.00000000000E+00  0.00000000000E+00  0.35740347158E-01  0.35744000000E-01  0.51099999109E-03 0. -1.
       11   -1    0    0    0    0 -0.00000000000E+00 -0.00000000000E+00 -0.35740347158E-01  0.35744000000E-01  0.51099999109E-03 0.  1.
       22    1    1    2    0    0 -0.42834208329E-02  0.21062999141E-03 -0.35478747524E-01  0.35737005818E-01  0.00000000000E+00 0.  1.
  9000001    1    1    2    0    0  0.42834208329E-02 -0.21062999141E-03  0.35478747524E-01  0.35750994182E-01  0.10000000475E-02 0. -1.
</event>
<event>
 4   0  0.4958067E-02  0.9118800E+02  0.7818609E-02  0.1379984E+01
      -11   -1    0    0    0    0  0.00000000000E+00  0.00000000000E+00  0.35740347158E-01  0.35744000000E-01  0.51099999109E-03 0. -1.
       11   -1    0    0    0    0 -0.00000000000E+00 -0.00000000000E+00 -0.35740347158E-01  0.35744000000E-01  0.51099999109E-03 0.  1.
       22    1    1    2    0    0  0.35505599435E-01  0.40450832623E-02 -0.35113388672E-03  0.35737005818E-01  0.00000000000E+00 0. -1.
  9000001    1    1    2    0    0 -0.35505599435E-01 -0.40450832623E-02  0.35113388672E-03  0.35750994182E-01  0.10000000475E-02 0.  1.
</event>
<event>
 4   0  0.4958067E-02  0.9118800E+02  0.7818609E-02  0.1379984E+01
      -11   -1    0    0    0    0  0.00000000000E+00  0.00000000000E+00  0.35740347158E-01  0.35744000000E-01  0.51099999109E-03 0. -1.
       11   -1    0    0    0    0 -0.00000000000E+00 -0.00000000000E+00 -0.35740347158E-01  0.35744000000E-01  0.51099999109E-03 0.  1.
       22    1    1    2    0    0 -0.16054246084E-01  0.17387683681E-01  0.26778036219E-01  0.35737005818E-01  0.00000000000E+00 0. -1.
  9000001    1    1    2    0    0  0.16054246084E-01 -0.17387683681E-01 -0.26778036219E-01  0.35750994182E-01  0.10000000475E-02 0.  1.
</event>
<event>
 4   0  0.4958067E-02  0.9118800E+02  0.7818609E-02  0.1379984E+01
      -11   -1    0    0    0    0  0.00000000000E+00  0.00000000000E+00  0.35740347158E-01  0.35744000000E-01  0.51099999109E-03 0.  1.
       11   -1    0    0    0    0 -0.00000000000E+00 -0.00000000000E+00 -0.35740347158E-01  0.35744000000E-01  0.51099999109E-03 0. -1.
       22    1    1    2    0    0 -0.17470573374E-01  0.18937859962E-01  0.24764291044E-01  0.35737005818E-01  0.00000000000E+00 0.  1.
  9000001    1    1    2    0    0  0.17470573374E-01 -0.18937859962E-01 -0.24764291044E-01  0.35750994182E-01  0.10000000475E-02 0. -1.
</event>
<event>
 4   0  0.4958067E-02  0.9118800E+02  0.7818609E-02  0.1379984E+01
      -11   -1    0    0    0    0  0.00000000000E+00  0.00000000000E+00  0.35740347158E-01  0.35744000000E-01  0.51099999109E-03 0.  1.
       11   -1    0    0    0    0 -0.00000000000E+00 -0.00000000000E+00 -0.35740347158E-01  0.35744000000E-01  0.51099999109E-03 0. -1.
       22    1    1    2    0    0  0.38910237815E-02 -0.75828063378E-02 -0.34705829004E-01  0.35737005818E-01  0.00000000000E+00 0. -1.
  9000001    1    1    2    0    0 -0.38910237815E-02  0.75828063378E-02  0.34705829004E-01  0.35750994182E-01  0.10000000475E-02 0.  1.
</event>
<event>
 4   0  0.4958067E-02  0.9118800E+02  0.7818609E-02  0.1379984E+01
      -11   -1    0    0    0    0  0.00000000000E+00  0.00000000000E+00  0.35740347158E-01  0.35744000000E-01  0.51099999109E-03 0.  1.
       11   -1    0    0    0    0 -0.00000000000E+00 -0.00000000000E+00 -0.35740347158E-01  0.35744000000E-01  0.51099999109E-03 0. -1.
       22    1    1    2    0    0  0.53963937382E-02  0.18187659652E-02 -0.35280371453E-01  0.35737005818E-01  0.00000000000E+00 0. -1.
  9000001    1    1    2    0    0 -0.53963937382E-02 -0.18187659652E-02  0.35280371453E-01  0.35750994182E-01  0.10000000475E-02 0.  1.
</event>
<event>
 4   0  0.4958067E-02  0.9118800E+02  0.7818609E-02  0.1379984E+01
      -11   -1    0    0    0    0  0.00000000000E+00  0.00000000000E+00  0.35740347158E-01  0.35744000000E-01  0.51099999109E-03 0.  1.
       11   -1    0    0    0    0 -0.00000000000E+00 -0.00000000000E+00 -0.35740347158E-01  0.35744000000E-01  0.51099999109E-03 0. -1.
       22    1    1    2    0    0  0.10564833946E-02 -0.46986386569E-02  0.35411018377E-01  0.35737005818E-01  0.00000000000E+00 0.  1.
  9000001    1    1    2    0    0 -0.10564833946E-02  0.46986386569E-02 -0.35411018377E-01  0.35750994182E-01  0.10000000475E-02 0. -1.
</event>
<event>
 4   0  0.4958067E-02  0.9118800E+02  0.7818609E-02  0.1379984E+01
      -11   -1    0    0    0    0  0.00000000000E+00  0.00000000000E+00  0.35740347158E-01  0.35744000000E-01  0.51099999109E-03 0. -1.
       11   -1    0    0    0    0 -0.00000000000E+00 -0.00000000000E+00 -0.35740347158E-01  0.35744000000E-01  0.51099999109E-03 0.  1.
       22    1    1    2    0    0  0.37985495842E-02  0.25808553535E-02  0.35440708113E-01  0.35737005818E-01  0.00000000000E+00 0. -1.
  9000001    1    1    2    0    0 -0.37985495842E-02 -0.25808553535E-02 -0.35440708113E-01  0.35750994182E-01  0.10000000475E-02 0.  1.
</event>
<event>
 4   0  0.4958067E-02  0.9118800E+02  0.7818609E-02  0.1379984E+01
      -11   -1    0    0    0    0  0.00000000000E+00  0.00000000000E+00  0.35740347158E-01  0.35744000000E-01  0.51099999109E-03 0. -1.
       11   -1    0    0    0    0 -0.00000000000E+00 -0.00000000000E+00 -0.35740347158E-01  0.35744000000E-01  0.51099999109E-03 0.  1.
       22    1    1    2    0    0  0.87461956879E-02 -0.52812642644E-02  0.34245377697E-01  0.35737005818E-01  0.00000000000E+00 0. -1.
  9000001    1    1    2    0    0 -0.87461956879E-02  0.52812642644E-02 -0.34245377697E-01  0.35750994182E-01  0.10000000475E-02 0.  1.
</event>
<event>
 4   0  0.4958067E-02  0.9118800E+02  0.7818609E-02  0.1379984E+01
      -11   -1    0    0    0    0  0.00000000000E+00  0.00000000000E+00  0.35740347158E-01  0.35744000000E-01  0.51099999109E-03 0. -1.
       11   -1    0    0    0    0 -0.00000000000E+00 -0.00000000000E+00 -0.35740347158E-01  0.35744000000E-01  0.51099999109E-03 0.  1.
       22    1    1    2    0    0  0.46917249076E-02 -0.26883668779E-02 -0.35325542965E-01  0.35737005818E-01  0.00000000000E+00 0.  1.
  9000001    1    1    2    0    0 -0.46917249076E-02  0.26883668779E-02  0.35325542965E-01  0.35750994182E-01  0.10000000475E-02 0. -1.
</event>
<event>
 4   0  0.4958067E-02  0.9118800E+02  0.7818609E-02  0.1379984E+01
      -11   -1    0    0    0    0  0.00000000000E+00  0.00000000000E+00  0.35740347158E-01  0.35744000000E-01  0.51099999109E-03 0.  1.
       11   -1    0    0    0    0 -0.00000000000E+00 -0.00000000000E+00 -0.35740347158E-01  0.35744000000E-01  0.51099999109E-03 0. -1.
       22    1    1    2    0    0  0.29445903738E-02  0.13771092107E-01  0.32845395333E-01  0.35737005818E-01  0.00000000000E+00 0.  1.
  9000001    1    1    2    0    0 -0.29445903738E-02 -0.13771092107E-01 -0.32845395333E-01  0.35750994182E-01  0.10000000475E-02 0. -1.
</event>
<event>
 4   0  0.4958067E-02  0.9118800E+02  0.7818609E-02  0.1379984E+01
      -11   -1    0    0    0    0  0.00000000000E+00  0.00000000000E+00  0.35740347158E-01  0.35744000000E-01  0.51099999109E-03 0.  1.
       11   -1    0    0    0    0 -0.00000000000E+00 -0.00000000000E+00 -0.35740347158E-01  0.35744000000E-01  0.51099999109E-03 0. -1.
       22    1    1    2    0    0 -0.58780521883E-02 -0.79018301088E-02  0.34353211906E-01  0.35737005818E-01  0.00000000000E+00 0.  1.
  9000001    1    1    2    0    0  0.58780521883E-02  0.79018301088E-02 -0.34353211906E-01  0.35750994182E-01  0.10000000475E-02 0. -1.
</event>
<event>
 4   0  0.4958067E-02  0.9118800E+02  0.7818609E-02  0.1379984E+01
      -11   -1    0    0    0    0  0.00000000000E+00  0.00000000000E+00  0.35740347158E-01  0.35744000000E-01  0.51099999109E-03 0.  1.
       11   -1    0    0    0    0 -0.00000000000E+00 -0.00000000000E+00 -0.35740347158E-01  0.35744000000E-01  0.51099999109E-03 0. -1.
       22    1    1    2    0    0  0.85705268349E-02 -0.44017594873E-02 -0.34413720637E-01  0.35737005818E-01  0.00000000000E+00 0. -1.
  9000001    1    1    2    0    0 -0.85705268349E-02  0.44017594873E-02  0.34413720637E-01  0.35750994182E-01  0.10000000475E-02 0.  1.
</event>
<event>
 4   0  0.4958067E-02  0.9118800E+02  0.7818609E-02  0.1379984E+01
      -11   -1    0    0    0    0  0.00000000000E+00  0.00000000000E+00  0.35740347158E-01  0.35744000000E-01  0.51099999109E-03 0. -1.
       11   -1    0    0    0    0 -0.00000000000E+00 -0.00000000000E+00 -0.35740347158E-01  0.35744000000E-01  0.51099999109E-03 0.  1.
       22    1    1    2    0    0 -0.13990729435E-01  0.12217720385E-02  0.32861837256E-01  0.35737005818E-01  0.00000000000E+00 0. -1.
  9000001    1    1    2    0    0  0.13990729435E-01 -0.12217720385E-02 -0.32861837256E-01  0.35750994182E-01  0.10000000475E-02 0.  1.
</event>
<event>
 4   0  0.4958067E-02  0.9118800E+02  0.7818609E-02  0.1379984E+01
      -11   -1    0    0    0    0  0.00000000000E+00  0.00000000000E+00  0.35740347158E-01  0.35744000000E-01  0.51099999109E-03 0.  1.
       11   -1    0    0    0    0 -0.00000000000E+00 -0.00000000000E+00 -0.35740347158E-01  0.35744000000E-01  0.51099999109E-03 0. -1.
       22    1    1    2    0    0 -0.50177656222E-03 -0.62583608613E-02 -0.35181170027E-01  0.35737005818E-01  0.00000000000E+00 0. -1.
  9000001    1    1    2    0    0  0.50177656222E-03  0.62583608613E-02  0.35181170027E-01  0.35750994182E-01  0.10000000475E-02 0.  1.
</event>
<event>
 4   0  0.4958067E-02  0.9118800E+02  0.7818609E-02  0.1379984E+01
      -11   -1    0    0    0    0  0.00000000000E+00  0.00000000000E+00  0.35740347158E-01  0.35744000000E-01  0.51099999109E-03 0. -1.
       11   -1    0    0    0    0 -0.00000000000E+00 -0.00000000000E+00 -0.35740347158E-01  0.35744000000E-01  0.51099999109E-03 0.  1.
       22    1    1    2    0    0  0.30878035990E-02 -0.45371005568E-02 -0.35313082170E-01  0.35737005818E-01  0.00000000000E+00 0.  1.
  9000001    1    1    2    0    0 -0.30878035990E-02  0.45371005568E-02  0.35313082170E-01  0.35750994182E-01  0.10000000475E-02 0. -1.
</event>
<event>
 4   0  0.4958067E-02  0.9118800E+02  0.7818609E-02  0.1379984E+01
      -11   -1    0    0    0    0  0.00000000000E+00  0.00000000000E+00  0.35740347158E-01  0.35744000000E-01  0.51099999109E-03 0.  1.
       11   -1    0    0    0    0 -0.00000000000E+00 -0.00000000000E+00 -0.35740347158E-01  0.35744000000E-01  0.51099999109E-03 0. -1.
       22    1    1    2    0    0 -0.40524937189E-02  0.56184503491E-02  0.35059148524E-01  0.35737005818E-01  0.00000000000E+00 0.  1.
  9000001    1    1    2    0    0  0.40524937189E-02 -0.56184503491E-02 -0.35059148524E-01  0.35750994182E-01  0.10000000475E-02 0. -1.
</event>
<event>
 4   0  0.4958067E-02  0.9118800E+02  0.7818609E-02  0.1379984E+01
      -11   -1    0    0    0    0  0.00000000000E+00  0.00000000000E+00  0.35740347158E-01  0.35744000000E-01  0.51099999109E-03 0.  1.
       11   -1    0    0    0    0 -0.00000000000E+00 -0.00000000000E+00 -0.35740347158E-01  0.35744000000E-01  0.51099999109E-03 0. -1.
       22    1    1    2    0    0  0.54295473283E-02 -0.19799699505E-01 -0.29251076907E-01  0.35737005818E-01  0.00000000000E+00 0. -1.
  9000001    1    1    2    0    0 -0.54295473283E-02  0.19799699505E-01  0.29251076907E-01  0.35750994182E-01  0.10000000475E-02 0.  1.
</event>
<event>
 4   0  0.4958067E-02  0.9118800E+02  0.7818609E-02  0.1379984E+01
      -11   -1    0    0    0    0  0.00000000000E+00  0.00000000000E+00  0.35740347158E-01  0.35744000000E-01  0.51099999109E-03 0. -1.
       11   -1    0    0    0    0 -0.00000000000E+00 -0.00000000000E+00 -0.35740347158E-01  0.35744000000E-01  0.51099999109E-03 0.  1.
       22    1    1    2    0    0 -0.55186508786E-02  0.10127074191E-01  0.33824849529E-01  0.35737005818E-01  0.00000000000E+00 0. -1.
  9000001    1    1    2    0    0  0.55186508786E-02 -0.10127074191E-01 -0.33824849529E-01  0.35750994182E-01  0.10000000475E-02 0.  1.
</event>
<event>
 4   0  0.4958067E-02  0.9118800E+02  0.7818609E-02  0.1379984E+01
      -11   -1    0    0    0    0  0.00000000000E+00  0.00000000000E+00  0.35740347158E-01  0.35744000000E-01  0.51099999109E-03 0. -1.
       11   -1    0    0    0    0 -0.00000000000E+00 -0.00000000000E+00 -0.35740347158E-01  0.35744000000E-01  0.51099999109E-03 0.  1.
       22    1    1    2    0    0  0.14340824608E-01 -0.92211283052E-02 -0.31407724005E-01  0.35737005818E-01  0.00000000000E+00 0.  1.
  9000001    1    1    2    0    0 -0.14340824608E-01  0.92211283052E-02  0.31407724005E-01  0.35750994182E-01  0.10000000475E-02 0. -1.
</event>
<event>
 4   0  0.4958067E-02  0.9118800E+02  0.7818609E-02  0.1379984E+01
      -11   -1    0    0    0    0  0.00000000000E+00  0.00000000000E+00  0.35740347158E-01  0.35744000000E-01  0.51099999109E-03 0. -1.
       11   -1    0    0    0    0 -0.00000000000E+00 -0.00000000000E+00 -0.35740347158E-01  0.35744000000E-01  0.51099999109E-03 0.  1.
       22    1    1    2    0    0 -0.52925828023E-02 -0.32634846208E-02 -0.35191928340E-01  0.35737005818E-01  0.00000000000E+00 0.  1.
  9000001    1    1    2    0    0  0.52925828023E-02  0.32634846208E-02  0.35191928340E-01  0.35750994182E-01  0.10000000475E-02 0. -1.
</event>
<event>
 4   0  0.4958067E-02  0.9118800E+02  0.7818609E-02  0.1379984E+01
      -11   -1    0    0    0    0  0.00000000000E+00  0.00000000000E+00  0.35740347158E-01  0.35744000000E-01  0.51099999109E-03 0.  1.
       11   -1    0    0    0    0 -0.00000000000E+00 -0.00000000000E+00 -0.35740347158E-01  0.35744000000E-01  0.51099999109E-03 0. -1.
       22    1    1    2    0    0 -0.14779342316E-01 -0.88874295713E-02  0.31300450814E-01  0.35737005818E-01  0.00000000000E+00 0.  1.
  9000001    1    1    2    0    0  0.14779342316E-01  0.88874295713E-02 -0.31300450814E-01  0.35750994182E-01  0.10000000475E-02 0. -1.
</event>
<event>
 4   0  0.4958067E-02  0.9118800E+02  0.7818609E-02  0.1379984E+01
      -11   -1    0    0    0    0  0.00000000000E+00  0.00000000000E+00  0.35740347158E-01  0.35744000000E-01  0.51099999109E-03 0.  1.
       11   -1    0    0    0    0 -0.00000000000E+00 -0.00000000000E+00 -0.35740347158E-01  0.35744000000E-01  0.51099999109E-03 0. -1.
       22    1    1    2    0    0  0.16885283206E-01  0.23980293420E-01  0.20419753266E-01  0.35737005818E-01  0.00000000000E+00 0.  1.
  9000001    1    1    2    0    0 -0.16885283206E-01 -0.23980293420E-01 -0.20419753266E-01  0.35750994182E-01  0.10000000475E-02 0. -1.
</event>
<event>
 4   0  0.4958067E-02  0.9118800E+02  0.7818609E-02  0.1379984E+01
      -11   -1    0    0    0    0  0.00000000000E+00  0.00000000000E+00  0.35740347158E-01  0.35744000000E-01  0.51099999109E-03 0.  1.
       11   -1    0    0    0    0 -0.00000000000E+00 -0.00000000000E+00 -0.35740347158E-01  0.35744000000E-01  0.51099999109E-03 0. -1.
       22    1    1    2    0    0 -0.17123061767E-01 -0.24492005703E-02 -0.31271964396E-01  0.35737005818E-01  0.00000000000E+00 0. -1.
  9000001    1    1    2    0    0  0.17123061767E-01  0.24492005703E-02  0.31271964396E-01  0.35750994182E-01  0.10000000475E-02 0.  1.
</event>
<event>
 4   0  0.4958067E-02  0.9118800E+02  0.7818609E-02  0.1379984E+01
      -11   -1    0    0    0    0  0.00000000000E+00  0.00000000000E+00  0.35740347158E-01  0.35744000000E-01  0.51099999109E-03 0.  1.
       11   -1    0    0    0    0 -0.00000000000E+00 -0.00000000000E+00 -0.35740347158E-01  0.35744000000E-01  0.51099999109E-03 0. -1.
       22    1    1    2    0    0 -0.13472056975E-01 -0.63327871345E-03  0.33094353352E-01  0.35737005818E-01  0.00000000000E+00 0.  1.
  9000001    1    1    2    0    0  0.13472056975E-01  0.63327871345E-03 -0.33094353352E-01  0.35750994182E-01  0.10000000475E-02 0. -1.
</event>
<event>
 4   0  0.4958067E-02  0.9118800E+02  0.7818609E-02  0.1379984E+01
      -11   -1    0    0    0    0  0.00000000000E+00  0.00000000000E+00  0.35740347158E-01  0.35744000000E-01  0.51099999109E-03 0.  1.
       11   -1    0    0    0    0 -0.00000000000E+00 -0.00000000000E+00 -0.35740347158E-01  0.35744000000E-01  0.51099999109E-03 0. -1.
       22    1    1    2    0    0 -0.13822697404E-02  0.36752890829E-02  0.35520630138E-01  0.35737005818E-01  0.00000000000E+00 0.  1.
  9000001    1    1    2    0    0  0.13822697404E-02 -0.36752890829E-02 -0.35520630138E-01  0.35750994182E-01  0.10000000475E-02 0. -1.
</event>
<event>
 4   0  0.4958067E-02  0.9118800E+02  0.7818609E-02  0.1379984E+01
      -11   -1    0    0    0    0  0.00000000000E+00  0.00000000000E+00  0.35740347158E-01  0.35744000000E-01  0.51099999109E-03 0.  1.
       11   -1    0    0    0    0 -0.00000000000E+00 -0.00000000000E+00 -0.35740347158E-01  0.35744000000E-01  0.51099999109E-03 0. -1.
       22    1    1    2    0    0  0.36977553470E-02  0.61777332175E-02 -0.35004225496E-01  0.35737005818E-01  0.00000000000E+00 0. -1.
  9000001    1    1    2    0    0 -0.36977553470E-02 -0.61777332175E-02  0.35004225496E-01  0.35750994182E-01  0.10000000475E-02 0.  1.
</event>
<event>
 4   0  0.4958067E-02  0.9118800E+02  0.7818609E-02  0.1379984E+01
      -11   -1    0    0    0    0  0.00000000000E+00  0.00000000000E+00  0.35740347158E-01  0.35744000000E-01  0.51099999109E-03 0. -1.
       11   -1    0    0    0    0 -0.00000000000E+00 -0.00000000000E+00 -0.35740347158E-01  0.35744000000E-01  0.51099999109E-03 0.  1.
       22    1    1    2    0    0  0.19655508433E-01 -0.26237110271E-01 -0.14227038263E-01  0.35737005818E-01  0.00000000000E+00 0.  1.
  9000001    1    1    2    0    0 -0.19655508433E-01  0.26237110271E-01  0.14227038263E-01  0.35750994182E-01  0.10000000475E-02 0. -1.
</event>
<event>
 4   0  0.4958067E-02  0.9118800E+02  0.7818609E-02  0.1379984E+01
      -11   -1    0    0    0    0  0.00000000000E+00  0.00000000000E+00  0.35740347158E-01  0.35744000000E-01  0.51099999109E-03 0.  1.
       11   -1    0    0    0    0 -0.00000000000E+00 -0.00000000000E+00 -0.35740347158E-01  0.35744000000E-01  0.51099999109E-03 0. -1.
       22    1    1    2    0    0 -0.21199566775E-01 -0.12035734673E-01 -0.26131456988E-01  0.35737005818E-01  0.00000000000E+00 0. -1.
  9000001    1    1    2    0    0  0.21199566775E-01  0.12035734673E-01  0.26131456988E-01  0.35750994182E-01  0.10000000475E-02 0.  1.
</event>
<event>
 4   0  0.4958067E-02  0.9118800E+02  0.7818609E-02  0.1379984E+01
      -11   -1    0    0    0    0  0.00000000000E+00  0.00000000000E+00  0.35740347158E-01  0.35744000000E-01  0.51099999109E-03 0. -1.
       11   -1    0    0    0    0 -0.00000000000E+00 -0.00000000000E+00 -0.35740347158E-01  0.35744000000E-01  0.51099999109E-03 0.  1.
       22    1    1    2    0    0 -0.28918759540E-02 -0.45860270096E-02  0.35323349142E-01  0.35737005818E-01  0.00000000000E+00 0. -1.
  9000001    1    1    2    0    0  0.28918759540E-02  0.45860270096E-02 -0.35323349142E-01  0.35750994182E-01  0.10000000475E-02 0.  1.
</event>
<event>
 4   0  0.4958067E-02  0.9118800E+02  0.7818609E-02  0.1379984E+01
      -11   -1    0    0    0    0  0.00000000000E+00  0.00000000000E+00  0.35740347158E-01  0.35744000000E-01  0.51099999109E-03 0.  1.
       11   -1    0    0    0    0 -0.00000000000E+00 -0.00000000000E+00 -0.35740347158E-01  0.35744000000E-01  0.51099999109E-03 0. -1.
       22    1    1    2    0    0 -0.71505744574E-02 -0.20849052350E-02  0.34952196497E-01  0.35737005818E-01  0.00000000000E+00 0.  1.
  9000001    1    1    2    0    0  0.71505744574E-02  0.20849052350E-02 -0.34952196497E-01  0.35750994182E-01  0.10000000475E-02 0. -1.
</event>
<event>
 4   0  0.4958067E-02  0.9118800E+02  0.7818609E-02  0.1379984E+01
      -11   -1    0    0    0    0  0.00000000000E+00  0.00000000000E+00  0.35740347158E-01  0.35744000000E-01  0.51099999109E-03 0. -1.
       11   -1    0    0    0    0 -0.00000000000E+00 -0.00000000000E+00 -0.35740347158E-01  0.35744000000E-01  0.51099999109E-03 0. -1.
       22    1    1    2    0    0  0.16457694237E-02 -0.32385793006E-02 -0.35551886476E-01  0.35737005818E-01  0.00000000000E+00 0. -1.
  9000001    1    1    2    0    0 -0.16457694237E-02  0.32385793006E-02  0.35551886476E-01  0.35750994182E-01  0.10000000475E-02 0. -1.
</event>
<event>
 4   0  0.4958067E-02  0.9118800E+02  0.7818609E-02  0.1379984E+01
      -11   -1    0    0    0    0  0.00000000000E+00  0.00000000000E+00  0.35740347158E-01  0.35744000000E-01  0.51099999109E-03 0.  1.
       11   -1    0    0    0    0 -0.00000000000E+00 -0.00000000000E+00 -0.35740347158E-01  0.35744000000E-01  0.51099999109E-03 0. -1.
       22    1    1    2    0    0  0.30159827602E-02  0.29303725675E-03  0.35608307486E-01  0.35737005818E-01  0.00000000000E+00 0.  1.
  9000001    1    1    2    0    0 -0.30159827602E-02 -0.29303725675E-03 -0.35608307486E-01  0.35750994182E-01  0.10000000475E-02 0. -1.
</event>
<event>
 4   0  0.4958067E-02  0.9118800E+02  0.7818609E-02  0.1379984E+01
      -11   -1    0    0    0    0  0.00000000000E+00  0.00000000000E+00  0.35740347158E-01  0.35744000000E-01  0.51099999109E-03 0. -1.
       11   -1    0    0    0    0 -0.00000000000E+00 -0.00000000000E+00 -0.35740347158E-01  0.35744000000E-01  0.51099999109E-03 0.  1.
       22    1    1    2    0    0  0.23189006974E-02 -0.60583597766E-02 -0.35143314602E-01  0.35737005818E-01  0.00000000000E+00 0.  1.
  9000001    1    1    2    0    0 -0.23189006974E-02  0.60583597766E-02  0.35143314602E-01  0.35750994182E-01  0.10000000475E-02 0. -1.
</event>
<event>
 4   0  0.4958067E-02  0.9118800E+02  0.7818609E-02  0.1379984E+01
      -11   -1    0    0    0    0  0.00000000000E+00  0.00000000000E+00  0.35740347158E-01  0.35744000000E-01  0.51099999109E-03 0. -1.
       11   -1    0    0    0    0 -0.00000000000E+00 -0.00000000000E+00 -0.35740347158E-01  0.35744000000E-01  0.51099999109E-03 0.  1.
       22    1    1    2    0    0 -0.98095269056E-02  0.32100857950E-01 -0.12265467199E-01  0.35737005818E-01  0.00000000000E+00 0.  1.
  9000001    1    1    2    0    0  0.98095269056E-02 -0.32100857950E-01  0.12265467199E-01  0.35750994182E-01  0.10000000475E-02 0. -1.
</event>
<event>
 4   0  0.4958067E-02  0.9118800E+02  0.7818609E-02  0.1379984E+01
      -11   -1    0    0    0    0  0.00000000000E+00  0.00000000000E+00  0.35740347158E-01  0.35744000000E-01  0.51099999109E-03 0. -1.
       11   -1    0    0    0    0 -0.00000000000E+00 -0.00000000000E+00 -0.35740347158E-01  0.35744000000E-01  0.51099999109E-03 0.  1.
       22    1    1    2    0    0  0.17175246622E-02 -0.37137924350E-02  0.35501992052E-01  0.35737005818E-01  0.00000000000E+00 0. -1.
  9000001    1    1    2    0    0 -0.17175246622E-02  0.37137924350E-02 -0.35501992052E-01  0.35750994182E-01  0.10000000475E-02 0.  1.
</event>
<event>
 4   0  0.4958067E-02  0.9118800E+02  0.7818609E-02  0.1379984E+01
      -11   -1    0    0    0    0  0.00000000000E+00  0.00000000000E+00  0.35740347158E-01  0.35744000000E-01  0.51099999109E-03 0. -1.
       11   -1    0    0    0    0 -0.00000000000E+00 -0.00000000000E+00 -0.35740347158E-01  0.35744000000E-01  0.51099999109E-03 0.  1.
       22    1    1    2    0    0  0.14003354173E-01  0.21503501752E-01 -0.24872456035E-01  0.35737005818E-01  0.00000000000E+00 0.  1.
  9000001    1    1    2    0    0 -0.14003354173E-01 -0.21503501752E-01  0.24872456035E-01  0.35750994182E-01  0.10000000475E-02 0. -1.
</event>
<event>
 4   0  0.4958067E-02  0.9118800E+02  0.7818609E-02  0.1379984E+01
      -11   -1    0    0    0    0  0.00000000000E+00  0.00000000000E+00  0.35740347158E-01  0.35744000000E-01  0.51099999109E-03 0. -1.
       11   -1    0    0    0    0 -0.00000000000E+00 -0.00000000000E+00 -0.35740347158E-01  0.35744000000E-01  0.51099999109E-03 0.  1.
       22    1    1    2    0    0  0.27061592210E-01  0.23313197747E-01 -0.11395712786E-02  0.35737005818E-01  0.00000000000E+00 0. -1.
  9000001    1    1    2    0    0 -0.27061592210E-01 -0.23313197747E-01  0.11395712786E-02  0.35750994182E-01  0.10000000475E-02 0.  1.
</event>
<event>
 4   0  0.4958067E-02  0.9118800E+02  0.7818609E-02  0.1379984E+01
      -11   -1    0    0    0    0  0.00000000000E+00  0.00000000000E+00  0.35740347158E-01  0.35744000000E-01  0.51099999109E-03 0.  1.
       11   -1    0    0    0    0 -0.00000000000E+00 -0.00000000000E+00 -0.35740347158E-01  0.35744000000E-01  0.51099999109E-03 0. -1.
       22    1    1    2    0    0  0.10537628959E-01  0.14662839077E-02 -0.34116593797E-01  0.35737005818E-01  0.00000000000E+00 0. -1.
  9000001    1    1    2    0    0 -0.10537628959E-01 -0.14662839077E-02  0.34116593797E-01  0.35750994182E-01  0.10000000475E-02 0.  1.
</event>
<event>
 4   0  0.4958067E-02  0.9118800E+02  0.7818609E-02  0.1379984E+01
      -11   -1    0    0    0    0  0.00000000000E+00  0.00000000000E+00  0.35740347158E-01  0.35744000000E-01  0.51099999109E-03 0. -1.
       11   -1    0    0    0    0 -0.00000000000E+00 -0.00000000000E+00 -0.35740347158E-01  0.35744000000E-01  0.51099999109E-03 0.  1.
       22    1    1    2    0    0 -0.13449031513E-02 -0.30024220197E-02  0.35585253721E-01  0.35737005818E-01  0.00000000000E+00 0. -1.
  9000001    1    1    2    0    0  0.13449031513E-02  0.30024220197E-02 -0.35585253721E-01  0.35750994182E-01  0.10000000475E-02 0.  1.
</event>
<event>
 4   0  0.4958067E-02  0.9118800E+02  0.7818609E-02  0.1379984E+01
      -11   -1    0    0    0    0  0.00000000000E+00  0.00000000000E+00  0.35740347158E-01  0.35744000000E-01  0.51099999109E-03 0. -1.
       11   -1    0    0    0    0 -0.00000000000E+00 -0.00000000000E+00 -0.35740347158E-01  0.35744000000E-01  0.51099999109E-03 0.  1.
       22    1    1    2    0    0 -0.15912504752E-02  0.52317356305E-02  0.35316149975E-01  0.35737005818E-01  0.00000000000E+00 0. -1.
  9000001    1    1    2    0    0  0.15912504752E-02 -0.52317356305E-02 -0.35316149975E-01  0.35750994182E-01  0.10000000475E-02 0.  1.
</event>
<event>
 4   0  0.4958067E-02  0.9118800E+02  0.7818609E-02  0.1379984E+01
      -11   -1    0    0    0    0  0.00000000000E+00  0.00000000000E+00  0.35740347158E-01  0.35744000000E-01  0.51099999109E-03 0.  1.
       11   -1    0    0    0    0 -0.00000000000E+00 -0.00000000000E+00 -0.35740347158E-01  0.35744000000E-01  0.51099999109E-03 0. -1.
       22    1    1    2    0    0 -0.29405682633E-01  0.12848237106E-01  0.15727753083E-01  0.35737005818E-01  0.00000000000E+00 0.  1.
  9000001    1    1    2    0    0  0.29405682633E-01 -0.12848237106E-01 -0.15727753083E-01  0.35750994182E-01  0.10000000475E-02 0. -1.
</event>
<event>
 4   0  0.4958067E-02  0.9118800E+02  0.7818609E-02  0.1379984E+01
      -11   -1    0    0    0    0  0.00000000000E+00  0.00000000000E+00  0.35740347158E-01  0.35744000000E-01  0.51099999109E-03 0.  1.
       11   -1    0    0    0    0 -0.00000000000E+00 -0.00000000000E+00 -0.35740347158E-01  0.35744000000E-01  0.51099999109E-03 0. -1.
       22    1    1    2    0    0 -0.73342414408E-02 -0.25925283940E-02 -0.34880098679E-01  0.35737005818E-01  0.00000000000E+00 0. -1.
  9000001    1    1    2    0    0  0.73342414408E-02  0.25925283940E-02  0.34880098679E-01  0.35750994182E-01  0.10000000475E-02 0.  1.
</event>
<event>
 4   0  0.4958067E-02  0.9118800E+02  0.7818609E-02  0.1379984E+01
      -11   -1    0    0    0    0  0.00000000000E+00  0.00000000000E+00  0.35740347158E-01  0.35744000000E-01  0.51099999109E-03 0. -1.
       11   -1    0    0    0    0 -0.00000000000E+00 -0.00000000000E+00 -0.35740347158E-01  0.35744000000E-01  0.51099999109E-03 0.  1.
       22    1    1    2    0    0  0.11872639610E-01  0.37367196339E-02 -0.33499417009E-01  0.35737005818E-01  0.00000000000E+00 0.  1.
  9000001    1    1    2    0    0 -0.11872639610E-01 -0.37367196339E-02  0.33499417009E-01  0.35750994182E-01  0.10000000475E-02 0. -1.
</event>
<event>
 4   0  0.4958067E-02  0.9118800E+02  0.7818609E-02  0.1379984E+01
      -11   -1    0    0    0    0  0.00000000000E+00  0.00000000000E+00  0.35740347158E-01  0.35744000000E-01  0.51099999109E-03 0. -1.
       11   -1    0    0    0    0 -0.00000000000E+00 -0.00000000000E+00 -0.35740347158E-01  0.35744000000E-01  0.51099999109E-03 0.  1.
       22    1    1    2    0    0 -0.34150927422E-02 -0.38802100812E-03 -0.35571339111E-01  0.35737005818E-01  0.00000000000E+00 0.  1.
  9000001    1    1    2    0    0  0.34150927422E-02  0.38802100812E-03  0.35571339111E-01  0.35750994182E-01  0.10000000475E-02 0. -1.
</event>
<event>
 4   0  0.4958067E-02  0.9118800E+02  0.7818609E-02  0.1379984E+01
      -11   -1    0    0    0    0  0.00000000000E+00  0.00000000000E+00  0.35740347158E-01  0.35744000000E-01  0.51099999109E-03 0. -1.
       11   -1    0    0    0    0 -0.00000000000E+00 -0.00000000000E+00 -0.35740347158E-01  0.35744000000E-01  0.51099999109E-03 0.  1.
       22    1    1    2    0    0  0.79885842779E-03  0.19780729935E-01  0.29752615571E-01  0.35737005818E-01  0.00000000000E+00 0. -1.
  9000001    1    1    2    0    0 -0.79885842779E-03 -0.19780729935E-01 -0.29752615571E-01  0.35750994182E-01  0.10000000475E-02 0.  1.
</event>
<event>
 4   0  0.4958067E-02  0.9118800E+02  0.7818609E-02  0.1379984E+01
      -11   -1    0    0    0    0  0.00000000000E+00  0.00000000000E+00  0.35740347158E-01  0.35744000000E-01  0.51099999109E-03 0.  1.
       11   -1    0    0    0    0 -0.00000000000E+00 -0.00000000000E+00 -0.35740347158E-01  0.35744000000E-01  0.51099999109E-03 0. -1.
       22    1    1    2    0    0 -0.44032786649E-02 -0.18712542824E-02 -0.35415295132E-01  0.35737005818E-01  0.00000000000E+00 0. -1.
  9000001    1    1    2    0    0  0.44032786649E-02  0.18712542824E-02  0.35415295132E-01  0.35750994182E-01  0.10000000475E-02 0.  1.
</event>
<event>
 4   0  0.4958067E-02  0.9118800E+02  0.7818609E-02  0.1379984E+01
      -11   -1    0    0    0    0  0.00000000000E+00  0.00000000000E+00  0.35740347158E-01  0.35744000000E-01  0.51099999109E-03 0.  1.
       11   -1    0    0    0    0 -0.00000000000E+00 -0.00000000000E+00 -0.35740347158E-01  0.35744000000E-01  0.51099999109E-03 0. -1.
       22    1    1    2    0    0  0.18967869262E-01  0.11530455488E-01 -0.28007179736E-01  0.35737005818E-01  0.00000000000E+00 0. -1.
  9000001    1    1    2    0    0 -0.18967869262E-01 -0.11530455488E-01  0.28007179736E-01  0.35750994182E-01  0.10000000475E-02 0.  1.
</event>
<event>
 4   0  0.4958067E-02  0.9118800E+02  0.7818609E-02  0.1379984E+01
      -11   -1    0    0    0    0  0.00000000000E+00  0.00000000000E+00  0.35740347158E-01  0.35744000000E-01  0.51099999109E-03 0.  1.
       11   -1    0    0    0    0 -0.00000000000E+00 -0.00000000000E+00 -0.35740347158E-01  0.35744000000E-01  0.51099999109E-03 0. -1.
       22    1    1    2    0    0 -0.88863229240E-03 -0.18757648556E-01  0.30405501775E-01  0.35737005818E-01  0.00000000000E+00 0.  1.
  9000001    1    1    2    0    0  0.88863229240E-03  0.18757648556E-01 -0.30405501775E-01  0.35750994182E-01  0.10000000475E-02 0. -1.
</event>
<event>
 4   0  0.4958067E-02  0.9118800E+02  0.7818609E-02  0.1379984E+01
      -11   -1    0    0    0    0  0.00000000000E+00  0.00000000000E+00  0.35740347158E-01  0.35744000000E-01  0.51099999109E-03 0.  1.
       11   -1    0    0    0    0 -0.00000000000E+00 -0.00000000000E+00 -0.35740347158E-01  0.35744000000E-01  0.51099999109E-03 0. -1.
       22    1    1    2    0    0  0.13931474247E-01 -0.27486060115E-01  0.18098732263E-01  0.35737005818E-01  0.00000000000E+00 0.  1.
  9000001    1    1    2    0    0 -0.13931474247E-01  0.27486060115E-01 -0.18098732263E-01  0.35750994182E-01  0.10000000475E-02 0. -1.
</event>
<event>
 4   0  0.4958067E-02  0.9118800E+02  0.7818609E-02  0.1379984E+01
      -11   -1    0    0    0    0  0.00000000000E+00  0.00000000000E+00  0.35740347158E-01  0.35744000000E-01  0.51099999109E-03 0.  1.
       11   -1    0    0    0    0 -0.00000000000E+00 -0.00000000000E+00 -0.35740347158E-01  0.35744000000E-01  0.51099999109E-03 0. -1.
       22    1    1    2    0    0 -0.46587095707E-03  0.31301046965E-02  0.35596614919E-01  0.35737005818E-01  0.00000000000E+00 0.  1.
  9000001    1    1    2    0    0  0.46587095707E-03 -0.31301046965E-02 -0.35596614919E-01  0.35750994182E-01  0.10000000475E-02 0. -1.
</event>
<event>
 4   0  0.4958067E-02  0.9118800E+02  0.7818609E-02  0.1379984E+01
      -11   -1    0    0    0    0  0.00000000000E+00  0.00000000000E+00  0.35740347158E-01  0.35744000000E-01  0.51099999109E-03 0. -1.
       11   -1    0    0    0    0 -0.00000000000E+00 -0.00000000000E+00 -0.35740347158E-01  0.35744000000E-01  0.51099999109E-03 0.  1.
       22    1    1    2    0    0  0.61237064275E-02 -0.46342395405E-03  0.35205383718E-01  0.35737005818E-01  0.00000000000E+00 0. -1.
  9000001    1    1    2    0    0 -0.61237064275E-02  0.46342395405E-03 -0.35205383718E-01  0.35750994182E-01  0.10000000475E-02 0.  1.
</event>
<event>
 4   0  0.4958067E-02  0.9118800E+02  0.7818609E-02  0.1379984E+01
      -11   -1    0    0    0    0  0.00000000000E+00  0.00000000000E+00  0.35740347158E-01  0.35744000000E-01  0.51099999109E-03 0.  1.
       11   -1    0    0    0    0 -0.00000000000E+00 -0.00000000000E+00 -0.35740347158E-01  0.35744000000E-01  0.51099999109E-03 0. -1.
       22    1    1    2    0    0 -0.32803176663E-01 -0.76886356133E-02 -0.11915119305E-01  0.35737005818E-01  0.00000000000E+00 0. -1.
  9000001    1    1    2    0    0  0.32803176663E-01  0.76886356133E-02  0.11915119305E-01  0.35750994182E-01  0.10000000475E-02 0.  1.
</event>
<event>
 4   0  0.4958067E-02  0.9118800E+02  0.7818609E-02  0.1379984E+01
      -11   -1    0    0    0    0  0.00000000000E+00  0.00000000000E+00  0.35740347158E-01  0.35744000000E-01  0.51099999109E-03 0. -1.
       11   -1    0    0    0    0 -0.00000000000E+00 -0.00000000000E+00 -0.35740347158E-01  0.35744000000E-01  0.51099999109E-03 0.  1.
       22    1    1    2    0    0 -0.31080874276E-01  0.12167646970E-01  0.12769542135E-01  0.35737005818E-01  0.00000000000E+00 0. -1.
  9000001    1    1    2    0    0  0.31080874276E-01 -0.12167646970E-01 -0.12769542135E-01  0.35750994182E-01  0.10000000475E-02 0.  1.
</event>
<event>
 4   0  0.4958067E-02  0.9118800E+02  0.7818609E-02  0.1379984E+01
      -11   -1    0    0    0    0  0.00000000000E+00  0.00000000000E+00  0.35740347158E-01  0.35744000000E-01  0.51099999109E-03 0.  1.
       11   -1    0    0    0    0 -0.00000000000E+00 -0.00000000000E+00 -0.35740347158E-01  0.35744000000E-01  0.51099999109E-03 0. -1.
       22    1    1    2    0    0  0.78973668199E-02 -0.54812955066E-03 -0.34849171241E-01  0.35737005818E-01  0.00000000000E+00 0. -1.
  9000001    1    1    2    0    0 -0.78973668199E-02  0.54812955066E-03  0.34849171241E-01  0.35750994182E-01  0.10000000475E-02 0.  1.
</event>
<event>
 4   0  0.4958067E-02  0.9118800E+02  0.7818609E-02  0.1379984E+01
      -11   -1    0    0    0    0  0.00000000000E+00  0.00000000000E+00  0.35740347158E-01  0.35744000000E-01  0.51099999109E-03 0. -1.
       11   -1    0    0    0    0 -0.00000000000E+00 -0.00000000000E+00 -0.35740347158E-01  0.35744000000E-01  0.51099999109E-03 0.  1.
       22    1    1    2    0    0  0.90963424886E-02  0.87528256402E-02 -0.33433189820E-01  0.35737005818E-01  0.00000000000E+00 0.  1.
  9000001    1    1    2    0    0 -0.90963424886E-02 -0.87528256402E-02  0.33433189820E-01  0.35750994182E-01  0.10000000475E-02 0. -1.
</event>
<event>
 4   0  0.4958067E-02  0.9118800E+02  0.7818609E-02  0.1379984E+01
      -11   -1    0    0    0    0  0.00000000000E+00  0.00000000000E+00  0.35740347158E-01  0.35744000000E-01  0.51099999109E-03 0. -1.
       11   -1    0    0    0    0 -0.00000000000E+00 -0.00000000000E+00 -0.35740347158E-01  0.35744000000E-01  0.51099999109E-03 0.  1.
       22    1    1    2    0    0 -0.92661253840E-02 -0.18660495871E-01 -0.29035467950E-01  0.35737005818E-01  0.00000000000E+00 0.  1.
  9000001    1    1    2    0    0  0.92661253840E-02  0.18660495871E-01  0.29035467950E-01  0.35750994182E-01  0.10000000475E-02 0. -1.
</event>
<event>
 4   0  0.4958067E-02  0.9118800E+02  0.7818609E-02  0.1379984E+01
      -11   -1    0    0    0    0  0.00000000000E+00  0.00000000000E+00  0.35740347158E-01  0.35744000000E-01  0.51099999109E-03 0. -1.
       11   -1    0    0    0    0 -0.00000000000E+00 -0.00000000000E+00 -0.35740347158E-01  0.35744000000E-01  0.51099999109E-03 0.  1.
       22    1    1    2    0    0 -0.56779685610E-02 -0.14059858937E-01  0.32360695675E-01  0.35737005818E-01  0.00000000000E+00 0. -1.
  9000001    1    1    2    0    0  0.56779685610E-02  0.14059858937E-01 -0.32360695675E-01  0.35750994182E-01  0.10000000475E-02 0.  1.
</event>
<event>
 4   0  0.4958067E-02  0.9118800E+02  0.7818609E-02  0.1379984E+01
      -11   -1    0    0    0    0  0.00000000000E+00  0.00000000000E+00  0.35740347158E-01  0.35744000000E-01  0.51099999109E-03 0.  1.
       11   -1    0    0    0    0 -0.00000000000E+00 -0.00000000000E+00 -0.35740347158E-01  0.35744000000E-01  0.51099999109E-03 0. -1.
       22    1    1    2    0    0 -0.49038686960E-02  0.18565488637E-02 -0.35350231725E-01  0.35737005818E-01  0.00000000000E+00 0. -1.
  9000001    1    1    2    0    0  0.49038686960E-02 -0.18565488637E-02  0.35350231725E-01  0.35750994182E-01  0.10000000475E-02 0.  1.
</event>
<event>
 4   0  0.4958067E-02  0.9118800E+02  0.7818609E-02  0.1379984E+01
      -11   -1    0    0    0    0  0.00000000000E+00  0.00000000000E+00  0.35740347158E-01  0.35744000000E-01  0.51099999109E-03 0.  1.
       11   -1    0    0    0    0 -0.00000000000E+00 -0.00000000000E+00 -0.35740347158E-01  0.35744000000E-01  0.51099999109E-03 0. -1.
       22    1    1    2    0    0  0.15254511951E-02 -0.64225465580E-02  0.35122036946E-01  0.35737005818E-01  0.00000000000E+00 0.  1.
  9000001    1    1    2    0    0 -0.15254511951E-02  0.64225465580E-02 -0.35122036946E-01  0.35750994182E-01  0.10000000475E-02 0. -1.
</event>
<event>
 4   0  0.4958067E-02  0.9118800E+02  0.7818609E-02  0.1379984E+01
      -11   -1    0    0    0    0  0.00000000000E+00  0.00000000000E+00  0.35740347158E-01  0.35744000000E-01  0.51099999109E-03 0.  1.
       11   -1    0    0    0    0 -0.00000000000E+00 -0.00000000000E+00 -0.35740347158E-01  0.35744000000E-01  0.51099999109E-03 0. -1.
       22    1    1    2    0    0  0.19123061914E-02  0.42470626142E-02 -0.35432176465E-01  0.35737005818E-01  0.00000000000E+00 0. -1.
  9000001    1    1    2    0    0 -0.19123061914E-02 -0.42470626142E-02  0.35432176465E-01  0.35750994182E-01  0.10000000475E-02 0.  1.
</event>
<event>
 4   0  0.4958067E-02  0.9118800E+02  0.7818609E-02  0.1379984E+01
      -11   -1    0    0    0    0  0.00000000000E+00  0.00000000000E+00  0.35740347158E-01  0.35744000000E-01  0.51099999109E-03 0. -1.
       11   -1    0    0    0    0 -0.00000000000E+00 -0.00000000000E+00 -0.35740347158E-01  0.35744000000E-01  0.51099999109E-03 0.  1.
       22    1    1    2    0    0 -0.10237920680E-02  0.48498811124E-02  0.35391582161E-01  0.35737005818E-01  0.00000000000E+00 0. -1.
  9000001    1    1    2    0    0  0.10237920680E-02 -0.48498811124E-02 -0.35391582161E-01  0.35750994182E-01  0.10000000475E-02 0.  1.
</event>
<event>
 4   0  0.4958067E-02  0.9118800E+02  0.7818609E-02  0.1379984E+01
      -11   -1    0    0    0    0  0.00000000000E+00  0.00000000000E+00  0.35740347158E-01  0.35744000000E-01  0.51099999109E-03 0.  1.
       11   -1    0    0    0    0 -0.00000000000E+00 -0.00000000000E+00 -0.35740347158E-01  0.35744000000E-01  0.51099999109E-03 0. -1.
       22    1    1    2    0    0  0.36006112581E-02 -0.23353149288E-02 -0.35478380567E-01  0.35737005818E-01  0.00000000000E+00 0. -1.
  9000001    1    1    2    0    0 -0.36006112581E-02  0.23353149288E-02  0.35478380567E-01  0.35750994182E-01  0.10000000475E-02 0.  1.
</event>
<event>
 4   0  0.4958067E-02  0.9118800E+02  0.7818609E-02  0.1379984E+01
      -11   -1    0    0    0    0  0.00000000000E+00  0.00000000000E+00  0.35740347158E-01  0.35744000000E-01  0.51099999109E-03 0.  1.
       11   -1    0    0    0    0 -0.00000000000E+00 -0.00000000000E+00 -0.35740347158E-01  0.35744000000E-01  0.51099999109E-03 0. -1.
       22    1    1    2    0    0  0.14723282685E-02  0.42910087480E-02  0.35447892438E-01  0.35737005818E-01  0.00000000000E+00 0.  1.
  9000001    1    1    2    0    0 -0.14723282685E-02 -0.42910087480E-02 -0.35447892438E-01  0.35750994182E-01  0.10000000475E-02 0. -1.
</event>
<event>
 4   0  0.4958067E-02  0.9118800E+02  0.7818609E-02  0.1379984E+01
      -11   -1    0    0    0    0  0.00000000000E+00  0.00000000000E+00  0.35740347158E-01  0.35744000000E-01  0.51099999109E-03 0.  1.
       11   -1    0    0    0    0 -0.00000000000E+00 -0.00000000000E+00 -0.35740347158E-01  0.35744000000E-01  0.51099999109E-03 0. -1.
       22    1    1    2    0    0  0.79988175915E-02 -0.26755314895E-01  0.22300350375E-01  0.35737005818E-01  0.00000000000E+00 0.  1.
  9000001    1    1    2    0    0 -0.79988175915E-02  0.26755314895E-01 -0.22300350375E-01  0.35750994182E-01  0.10000000475E-02 0. -1.
</event>
<event>
 4   0  0.4958067E-02  0.9118800E+02  0.7818609E-02  0.1379984E+01
      -11   -1    0    0    0    0  0.00000000000E+00  0.00000000000E+00  0.35740347158E-01  0.35744000000E-01  0.51099999109E-03 0.  1.
       11   -1    0    0    0    0 -0.00000000000E+00 -0.00000000000E+00 -0.35740347158E-01  0.35744000000E-01  0.51099999109E-03 0. -1.
       22    1    1    2    0    0 -0.25025011862E-01 -0.93175972819E-02  0.23750047307E-01  0.35737005818E-01  0.00000000000E+00 0.  1.
  9000001    1    1    2    0    0  0.25025011862E-01  0.93175972819E-02 -0.23750047307E-01  0.35750994182E-01  0.10000000475E-02 0. -1.
</event>
<event>
 4   0  0.4958067E-02  0.9118800E+02  0.7818609E-02  0.1379984E+01
      -11   -1    0    0    0    0  0.00000000000E+00  0.00000000000E+00  0.35740347158E-01  0.35744000000E-01  0.51099999109E-03 0. -1.
       11   -1    0    0    0    0 -0.00000000000E+00 -0.00000000000E+00 -0.35740347158E-01  0.35744000000E-01  0.51099999109E-03 0.  1.
       22    1    1    2    0    0  0.18712077930E-01  0.41486017930E-02 -0.30162573292E-01  0.35737005818E-01  0.00000000000E+00 0.  1.
  9000001    1    1    2    0    0 -0.18712077930E-01 -0.41486017930E-02  0.30162573292E-01  0.35750994182E-01  0.10000000475E-02 0. -1.
</event>
<event>
 4   0  0.4958067E-02  0.9118800E+02  0.7818609E-02  0.1379984E+01
      -11   -1    0    0    0    0  0.00000000000E+00  0.00000000000E+00  0.35740347158E-01  0.35744000000E-01  0.51099999109E-03 0. -1.
       11   -1    0    0    0    0 -0.00000000000E+00 -0.00000000000E+00 -0.35740347158E-01  0.35744000000E-01  0.51099999109E-03 0.  1.
       22    1    1    2    0    0 -0.43714856977E-02  0.10811565761E-02  0.35452148004E-01  0.35737005818E-01  0.00000000000E+00 0. -1.
  9000001    1    1    2    0    0  0.43714856977E-02 -0.10811565761E-02 -0.35452148004E-01  0.35750994182E-01  0.10000000475E-02 0.  1.
</event>
<event>
 4   0  0.4958067E-02  0.9118800E+02  0.7818609E-02  0.1379984E+01
      -11   -1    0    0    0    0  0.00000000000E+00  0.00000000000E+00  0.35740347158E-01  0.35744000000E-01  0.51099999109E-03 0.  1.
       11   -1    0    0    0    0 -0.00000000000E+00 -0.00000000000E+00 -0.35740347158E-01  0.35744000000E-01  0.51099999109E-03 0. -1.
       22    1    1    2    0    0 -0.10375352365E-02 -0.47028201675E-02 -0.35411023538E-01  0.35737005818E-01  0.00000000000E+00 0. -1.
  9000001    1    1    2    0    0  0.10375352365E-02  0.47028201675E-02  0.35411023538E-01  0.35750994182E-01  0.10000000475E-02 0.  1.
</event>
<event>
 4   0  0.4958067E-02  0.9118800E+02  0.7818609E-02  0.1379984E+01
      -11   -1    0    0    0    0  0.00000000000E+00  0.00000000000E+00  0.35740347158E-01  0.35744000000E-01  0.51099999109E-03 0.  1.
       11   -1    0    0    0    0 -0.00000000000E+00 -0.00000000000E+00 -0.35740347158E-01  0.35744000000E-01  0.51099999109E-03 0. -1.
       22    1    1    2    0    0 -0.70822526528E-02 -0.22751899575E-02  0.34954238554E-01  0.35737005818E-01  0.00000000000E+00 0.  1.
  9000001    1    1    2    0    0  0.70822526528E-02  0.22751899575E-02 -0.34954238554E-01  0.35750994182E-01  0.10000000475E-02 0. -1.
</event>
<event>
 4   0  0.4958067E-02  0.9118800E+02  0.7818609E-02  0.1379984E+01
      -11   -1    0    0    0    0  0.00000000000E+00  0.00000000000E+00  0.35740347158E-01  0.35744000000E-01  0.51099999109E-03 0.  1.
       11   -1    0    0    0    0 -0.00000000000E+00 -0.00000000000E+00 -0.35740347158E-01  0.35744000000E-01  0.51099999109E-03 0. -1.
       22    1    1    2    0    0 -0.16078718103E-01 -0.98379294044E-02 -0.30361547294E-01  0.35737005818E-01  0.00000000000E+00 0. -1.
  9000001    1    1    2    0    0  0.16078718103E-01  0.98379294044E-02  0.30361547294E-01  0.35750994182E-01  0.10000000475E-02 0.  1.
</event>
<event>
 4   0  0.4958067E-02  0.9118800E+02  0.7818609E-02  0.1379984E+01
      -11   -1    0    0    0    0  0.00000000000E+00  0.00000000000E+00  0.35740347158E-01  0.35744000000E-01  0.51099999109E-03 0. -1.
       11   -1    0    0    0    0 -0.00000000000E+00 -0.00000000000E+00 -0.35740347158E-01  0.35744000000E-01  0.51099999109E-03 0.  1.
       22    1    1    2    0    0  0.41821539438E-02 -0.54284525323E-02  0.35073851747E-01  0.35737005818E-01  0.00000000000E+00 0. -1.
  9000001    1    1    2    0    0 -0.41821539438E-02  0.54284525323E-02 -0.35073851747E-01  0.35750994182E-01  0.10000000475E-02 0.  1.
</event>
<event>
 4   0  0.4958067E-02  0.9118800E+02  0.7818609E-02  0.1379984E+01
      -11   -1    0    0    0    0  0.00000000000E+00  0.00000000000E+00  0.35740347158E-01  0.35744000000E-01  0.51099999109E-03 0. -1.
       11   -1    0    0    0    0 -0.00000000000E+00 -0.00000000000E+00 -0.35740347158E-01  0.35744000000E-01  0.51099999109E-03 0.  1.
       22    1    1    2    0    0  0.17098218070E-01  0.22961872323E-01 -0.21390113209E-01  0.35737005818E-01  0.00000000000E+00 0.  1.
  9000001    1    1    2    0    0 -0.17098218070E-01 -0.22961872323E-01  0.21390113209E-01  0.35750994182E-01  0.10000000475E-02 0. -1.
</event>
<event>
 4   0  0.4958067E-02  0.9118800E+02  0.7818609E-02  0.1379984E+01
      -11   -1    0    0    0    0  0.00000000000E+00  0.00000000000E+00  0.35740347158E-01  0.35744000000E-01  0.51099999109E-03 0.  1.
       11   -1    0    0    0    0 -0.00000000000E+00 -0.00000000000E+00 -0.35740347158E-01  0.35744000000E-01  0.51099999109E-03 0. -1.
       22    1    1    2    0    0  0.43131246274E-02  0.19315744894E-01 -0.29756218510E-01  0.35737005818E-01  0.00000000000E+00 0. -1.
  9000001    1    1    2    0    0 -0.43131246274E-02 -0.19315744894E-01  0.29756218510E-01  0.35750994182E-01  0.10000000475E-02 0.  1.
</event>
<event>
 4   0  0.4958067E-02  0.9118800E+02  0.7818609E-02  0.1379984E+01
      -11   -1    0    0    0    0  0.00000000000E+00  0.00000000000E+00  0.35740347158E-01  0.35744000000E-01  0.51099999109E-03 0.  1.
       11   -1    0    0    0    0 -0.00000000000E+00 -0.00000000000E+00 -0.35740347158E-01  0.35744000000E-01  0.51099999109E-03 0. -1.
       22    1    1    2    0    0 -0.35441430138E-02 -0.11427175939E-02  0.35542465188E-01  0.35737005818E-01  0.00000000000E+00 0.  1.
  9000001    1    1    2    0    0  0.35441430138E-02  0.11427175939E-02 -0.35542465188E-01  0.35750994182E-01  0.10000000475E-02 0. -1.
</event>
<event>
 4   0  0.4958067E-02  0.9118800E+02  0.7818609E-02  0.1379984E+01
      -11   -1    0    0    0    0  0.00000000000E+00  0.00000000000E+00  0.35740347158E-01  0.35744000000E-01  0.51099999109E-03 0.  1.
       11   -1    0    0    0    0 -0.00000000000E+00 -0.00000000000E+00 -0.35740347158E-01  0.35744000000E-01  0.51099999109E-03 0. -1.
       22    1    1    2    0    0 -0.52896526114E-03 -0.77579405281E-02 -0.34880770338E-01  0.35737005818E-01  0.00000000000E+00 0. -1.
  9000001    1    1    2    0    0  0.52896526114E-03  0.77579405281E-02  0.34880770338E-01  0.35750994182E-01  0.10000000475E-02 0.  1.
</event>
<event>
 4   0  0.4958067E-02  0.9118800E+02  0.7818609E-02  0.1379984E+01
      -11   -1    0    0    0    0  0.00000000000E+00  0.00000000000E+00  0.35740347158E-01  0.35744000000E-01  0.51099999109E-03 0.  1.
       11   -1    0    0    0    0 -0.00000000000E+00 -0.00000000000E+00 -0.35740347158E-01  0.35744000000E-01  0.51099999109E-03 0. -1.
       22    1    1    2    0    0  0.63539827029E-02 -0.24283781175E-01  0.25437343818E-01  0.35737005818E-01  0.00000000000E+00 0.  1.
  9000001    1    1    2    0    0 -0.63539827029E-02  0.24283781175E-01 -0.25437343818E-01  0.35750994182E-01  0.10000000475E-02 0. -1.
</event>
<event>
 4   0  0.4958067E-02  0.9118800E+02  0.7818609E-02  0.1379984E+01
      -11   -1    0    0    0    0  0.00000000000E+00  0.00000000000E+00  0.35740347158E-01  0.35744000000E-01  0.51099999109E-03 0.  1.
       11   -1    0    0    0    0 -0.00000000000E+00 -0.00000000000E+00 -0.35740347158E-01  0.35744000000E-01  0.51099999109E-03 0. -1.
       22    1    1    2    0    0  0.27898295410E-01  0.20511147210E-01 -0.88380732188E-02  0.35737005818E-01  0.00000000000E+00 0.  1.
  9000001    1    1    2    0    0 -0.27898295410E-01 -0.20511147210E-01  0.88380732188E-02  0.35750994182E-01  0.10000000475E-02 0. -1.
</event>
<event>
 4   0  0.4958067E-02  0.9118800E+02  0.7818609E-02  0.1379984E+01
      -11   -1    0    0    0    0  0.00000000000E+00  0.00000000000E+00  0.35740347158E-01  0.35744000000E-01  0.51099999109E-03 0. -1.
       11   -1    0    0    0    0 -0.00000000000E+00 -0.00000000000E+00 -0.35740347158E-01  0.35744000000E-01  0.51099999109E-03 0.  1.
       22    1    1    2    0    0 -0.26388577735E-02 -0.23734997735E-02  0.35560322177E-01  0.35737005818E-01  0.00000000000E+00 0. -1.
  9000001    1    1    2    0    0  0.26388577735E-02  0.23734997735E-02 -0.35560322177E-01  0.35750994182E-01  0.10000000475E-02 0.  1.
</event>
<event>
 4   0  0.4958067E-02  0.9118800E+02  0.7818609E-02  0.1379984E+01
      -11   -1    0    0    0    0  0.00000000000E+00  0.00000000000E+00  0.35740347158E-01  0.35744000000E-01  0.51099999109E-03 0.  1.
       11   -1    0    0    0    0 -0.00000000000E+00 -0.00000000000E+00 -0.35740347158E-01  0.35744000000E-01  0.51099999109E-03 0. -1.
       22    1    1    2    0    0 -0.80728506284E-02 -0.81378480949E-03  0.34803741493E-01  0.35737005818E-01  0.00000000000E+00 0.  1.
  9000001    1    1    2    0    0  0.80728506284E-02  0.81378480949E-03 -0.34803741493E-01  0.35750994182E-01  0.10000000475E-02 0. -1.
</event>
<event>
 4   0  0.4958067E-02  0.9118800E+02  0.7818609E-02  0.1379984E+01
      -11   -1    0    0    0    0  0.00000000000E+00  0.00000000000E+00  0.35740347158E-01  0.35744000000E-01  0.51099999109E-03 0. -1.
       11   -1    0    0    0    0 -0.00000000000E+00 -0.00000000000E+00 -0.35740347158E-01  0.35744000000E-01  0.51099999109E-03 0.  1.
       22    1    1    2    0    0  0.27773924099E-02  0.32522193792E-02 -0.35480173976E-01  0.35737005818E-01  0.00000000000E+00 0.  1.
  9000001    1    1    2    0    0 -0.27773924099E-02 -0.32522193792E-02  0.35480173976E-01  0.35750994182E-01  0.10000000475E-02 0. -1.
</event>
<event>
 4   0  0.4958067E-02  0.9118800E+02  0.7818609E-02  0.1379984E+01
      -11   -1    0    0    0    0  0.00000000000E+00  0.00000000000E+00  0.35740347158E-01  0.35744000000E-01  0.51099999109E-03 0. -1.
       11   -1    0    0    0    0 -0.00000000000E+00 -0.00000000000E+00 -0.35740347158E-01  0.35744000000E-01  0.51099999109E-03 0.  1.
       22    1    1    2    0    0 -0.36254368212E-02 -0.40803142013E-02 -0.35317712677E-01  0.35737005818E-01  0.00000000000E+00 0.  1.
  9000001    1    1    2    0    0  0.36254368212E-02  0.40803142013E-02  0.35317712677E-01  0.35750994182E-01  0.10000000475E-02 0. -1.
</event>
<event>
 4   0  0.4958067E-02  0.9118800E+02  0.7818609E-02  0.1379984E+01
      -11   -1    0    0    0    0  0.00000000000E+00  0.00000000000E+00  0.35740347158E-01  0.35744000000E-01  0.51099999109E-03 0.  1.
       11   -1    0    0    0    0 -0.00000000000E+00 -0.00000000000E+00 -0.35740347158E-01  0.35744000000E-01  0.51099999109E-03 0. -1.
       22    1    1    2    0    0  0.11436618954E-01 -0.43778923476E-02 -0.33573373235E-01  0.35737005818E-01  0.00000000000E+00 0. -1.
  9000001    1    1    2    0    0 -0.11436618954E-01  0.43778923476E-02  0.33573373235E-01  0.35750994182E-01  0.10000000475E-02 0.  1.
</event>
<event>
 4   0  0.4958067E-02  0.9118800E+02  0.7818609E-02  0.1379984E+01
      -11   -1    0    0    0    0  0.00000000000E+00  0.00000000000E+00  0.35740347158E-01  0.35744000000E-01  0.51099999109E-03 0.  1.
       11   -1    0    0    0    0 -0.00000000000E+00 -0.00000000000E+00 -0.35740347158E-01  0.35744000000E-01  0.51099999109E-03 0. -1.
       22    1    1    2    0    0  0.11265202505E-01 -0.62553832818E-03  0.33909253887E-01  0.35737005818E-01  0.00000000000E+00 0.  1.
  9000001    1    1    2    0    0 -0.11265202505E-01  0.62553832818E-03 -0.33909253887E-01  0.35750994182E-01  0.10000000475E-02 0. -1.
</event>
<event>
 4   0  0.4958067E-02  0.9118800E+02  0.7818609E-02  0.1379984E+01
      -11   -1    0    0    0    0  0.00000000000E+00  0.00000000000E+00  0.35740347158E-01  0.35744000000E-01  0.51099999109E-03 0.  1.
       11   -1    0    0    0    0 -0.00000000000E+00 -0.00000000000E+00 -0.35740347158E-01  0.35744000000E-01  0.51099999109E-03 0. -1.
       22    1    1    2    0    0 -0.48959724306E-02 -0.27314248488E-01  0.22518767026E-01  0.35737005818E-01  0.00000000000E+00 0.  1.
  9000001    1    1    2    0    0  0.48959724306E-02  0.27314248488E-01 -0.22518767026E-01  0.35750994182E-01  0.10000000475E-02 0. -1.
</event>
<event>
 4   0  0.4958067E-02  0.9118800E+02  0.7818609E-02  0.1379984E+01
      -11   -1    0    0    0    0  0.00000000000E+00  0.00000000000E+00  0.35740347158E-01  0.35744000000E-01  0.51099999109E-03 0.  1.
       11   -1    0    0    0    0 -0.00000000000E+00 -0.00000000000E+00 -0.35740347158E-01  0.35744000000E-01  0.51099999109E-03 0. -1.
       22    1    1    2    0    0 -0.33433184898E-02 -0.59873768670E-02 -0.35072883038E-01  0.35737005818E-01  0.00000000000E+00 0. -1.
  9000001    1    1    2    0    0  0.33433184898E-02  0.59873768670E-02  0.35072883038E-01  0.35750994182E-01  0.10000000475E-02 0.  1.
</event>
<event>
 4   0  0.4958067E-02  0.9118800E+02  0.7818609E-02  0.1379984E+01
      -11   -1    0    0    0    0  0.00000000000E+00  0.00000000000E+00  0.35740347158E-01  0.35744000000E-01  0.51099999109E-03 0. -1.
       11   -1    0    0    0    0 -0.00000000000E+00 -0.00000000000E+00 -0.35740347158E-01  0.35744000000E-01  0.51099999109E-03 0.  1.
       22    1    1    2    0    0  0.27513255836E-01 -0.10302897281E-01  0.20347104114E-01  0.35737005818E-01  0.00000000000E+00 0. -1.
  9000001    1    1    2    0    0 -0.27513255836E-01  0.10302897281E-01 -0.20347104114E-01  0.35750994182E-01  0.10000000475E-02 0.  1.
</event>
<event>
 4   0  0.4958067E-02  0.9118800E+02  0.7818609E-02  0.1379984E+01
      -11   -1    0    0    0    0  0.00000000000E+00  0.00000000000E+00  0.35740347158E-01  0.35744000000E-01  0.51099999109E-03 0.  1.
       11   -1    0    0    0    0 -0.00000000000E+00 -0.00000000000E+00 -0.35740347158E-01  0.35744000000E-01  0.51099999109E-03 0. -1.
       22    1    1    2    0    0  0.27923127155E-01 -0.11129129357E-01  0.19328089263E-01  0.35737005818E-01  0.00000000000E+00 0.  1.
  9000001    1    1    2    0    0 -0.27923127155E-01  0.11129129357E-01 -0.19328089263E-01  0.35750994182E-01  0.10000000475E-02 0. -1.
</event>
<event>
 4   0  0.4958067E-02  0.9118800E+02  0.7818609E-02  0.1379984E+01
      -11   -1    0    0    0    0  0.00000000000E+00  0.00000000000E+00  0.35740347158E-01  0.35744000000E-01  0.51099999109E-03 0. -1.
       11   -1    0    0    0    0 -0.00000000000E+00 -0.00000000000E+00 -0.35740347158E-01  0.35744000000E-01  0.51099999109E-03 0.  1.
       22    1    1    2    0    0  0.67797286561E-02  0.65242890172E-02  0.34476115167E-01  0.35737005818E-01  0.00000000000E+00 0. -1.
  9000001    1    1    2    0    0 -0.67797286561E-02 -0.65242890172E-02 -0.34476115167E-01  0.35750994182E-01  0.10000000475E-02 0.  1.
</event>
<event>
 4   0  0.4958067E-02  0.9118800E+02  0.7818609E-02  0.1379984E+01
      -11   -1    0    0    0    0  0.00000000000E+00  0.00000000000E+00  0.35740347158E-01  0.35744000000E-01  0.51099999109E-03 0. -1.
       11   -1    0    0    0    0 -0.00000000000E+00 -0.00000000000E+00 -0.35740347158E-01  0.35744000000E-01  0.51099999109E-03 0.  1.
       22    1    1    2    0    0  0.16160171737E-01 -0.18045339644E-01 -0.26274477187E-01  0.35737005818E-01  0.00000000000E+00 0.  1.
  9000001    1    1    2    0    0 -0.16160171737E-01  0.18045339644E-01  0.26274477187E-01  0.35750994182E-01  0.10000000475E-02 0. -1.
</event>
<event>
 4   0  0.4958067E-02  0.9118800E+02  0.7818609E-02  0.1379984E+01
      -11   -1    0    0    0    0  0.00000000000E+00  0.00000000000E+00  0.35740347158E-01  0.35744000000E-01  0.51099999109E-03 0.  1.
       11   -1    0    0    0    0 -0.00000000000E+00 -0.00000000000E+00 -0.35740347158E-01  0.35744000000E-01  0.51099999109E-03 0. -1.
       22    1    1    2    0    0  0.30680189862E-02 -0.12267066512E-01  0.33425139096E-01  0.35737005818E-01  0.00000000000E+00 0.  1.
  9000001    1    1    2    0    0 -0.30680189862E-02  0.12267066512E-01 -0.33425139096E-01  0.35750994182E-01  0.10000000475E-02 0. -1.
</event>
<event>
 4   0  0.4958067E-02  0.9118800E+02  0.7818609E-02  0.1379984E+01
      -11   -1    0    0    0    0  0.00000000000E+00  0.00000000000E+00  0.35740347158E-01  0.35744000000E-01  0.51099999109E-03 0. -1.
       11   -1    0    0    0    0 -0.00000000000E+00 -0.00000000000E+00 -0.35740347158E-01  0.35744000000E-01  0.51099999109E-03 0.  1.
       22    1    1    2    0    0  0.27104082247E-02 -0.75961372368E-02  0.34815025078E-01  0.35737005818E-01  0.00000000000E+00 0. -1.
  9000001    1    1    2    0    0 -0.27104082247E-02  0.75961372368E-02 -0.34815025078E-01  0.35750994182E-01  0.10000000475E-02 0.  1.
</event>
<event>
 4   0  0.4958067E-02  0.9118800E+02  0.7818609E-02  0.1379984E+01
      -11   -1    0    0    0    0  0.00000000000E+00  0.00000000000E+00  0.35740347158E-01  0.35744000000E-01  0.51099999109E-03 0.  1.
       11   -1    0    0    0    0 -0.00000000000E+00 -0.00000000000E+00 -0.35740347158E-01  0.35744000000E-01  0.51099999109E-03 0. -1.
       22    1    1    2    0    0 -0.14409548802E-02 -0.31369147421E-02  0.35569888948E-01  0.35737005818E-01  0.00000000000E+00 0.  1.
  9000001    1    1    2    0    0  0.14409548802E-02  0.31369147421E-02 -0.35569888948E-01  0.35750994182E-01  0.10000000475E-02 0. -1.
</event>
<event>
 4   0  0.4958067E-02  0.9118800E+02  0.7818609E-02  0.1379984E+01
      -11   -1    0    0    0    0  0.00000000000E+00  0.00000000000E+00  0.35740347158E-01  0.35744000000E-01  0.51099999109E-03 0.  1.
       11   -1    0    0    0    0 -0.00000000000E+00 -0.00000000000E+00 -0.35740347158E-01  0.35744000000E-01  0.51099999109E-03 0. -1.
       22    1    1    2    0    0  0.15912911931E-02  0.23461687049E-01  0.26910046786E-01  0.35737005818E-01  0.00000000000E+00 0.  1.
  9000001    1    1    2    0    0 -0.15912911931E-02 -0.23461687049E-01 -0.26910046786E-01  0.35750994182E-01  0.10000000475E-02 0. -1.
</event>
<event>
 4   0  0.4958067E-02  0.9118800E+02  0.7818609E-02  0.1379984E+01
      -11   -1    0    0    0    0  0.00000000000E+00  0.00000000000E+00  0.35740347158E-01  0.35744000000E-01  0.51099999109E-03 0. -1.
       11   -1    0    0    0    0 -0.00000000000E+00 -0.00000000000E+00 -0.35740347158E-01  0.35744000000E-01  0.51099999109E-03 0.  1.
       22    1    1    2    0    0 -0.26646534201E-01 -0.48479524168E-02 -0.23315084330E-01  0.35737005818E-01  0.00000000000E+00 0.  1.
  9000001    1    1    2    0    0  0.26646534201E-01  0.48479524168E-02  0.23315084330E-01  0.35750994182E-01  0.10000000475E-02 0. -1.
</event>
<event>
 4   0  0.4958067E-02  0.9118800E+02  0.7818609E-02  0.1379984E+01
      -11   -1    0    0    0    0  0.00000000000E+00  0.00000000000E+00  0.35740347158E-01  0.35744000000E-01  0.51099999109E-03 0.  1.
       11   -1    0    0    0    0 -0.00000000000E+00 -0.00000000000E+00 -0.35740347158E-01  0.35744000000E-01  0.51099999109E-03 0. -1.
       22    1    1    2    0    0  0.41888282085E-02 -0.85968718888E-02 -0.34433720346E-01  0.35737005818E-01  0.00000000000E+00 0. -1.
  9000001    1    1    2    0    0 -0.41888282085E-02  0.85968718888E-02  0.34433720346E-01  0.35750994182E-01  0.10000000475E-02 0.  1.
</event>
<event>
 4   0  0.4958067E-02  0.9118800E+02  0.7818609E-02  0.1379984E+01
      -11   -1    0    0    0    0  0.00000000000E+00  0.00000000000E+00  0.35740347158E-01  0.35744000000E-01  0.51099999109E-03 0.  1.
       11   -1    0    0    0    0 -0.00000000000E+00 -0.00000000000E+00 -0.35740347158E-01  0.35744000000E-01  0.51099999109E-03 0. -1.
       22    1    1    2    0    0 -0.10504939283E-01 -0.14155339219E-01  0.31087074599E-01  0.35737005818E-01  0.00000000000E+00 0.  1.
  9000001    1    1    2    0    0  0.10504939283E-01  0.14155339219E-01 -0.31087074599E-01  0.35750994182E-01  0.10000000475E-02 0. -1.
</event>
<event>
 4   0  0.4958067E-02  0.9118800E+02  0.7818609E-02  0.1379984E+01
      -11   -1    0    0    0    0  0.00000000000E+00  0.00000000000E+00  0.35740347158E-01  0.35744000000E-01  0.51099999109E-03 0. -1.
       11   -1    0    0    0    0 -0.00000000000E+00 -0.00000000000E+00 -0.35740347158E-01  0.35744000000E-01  0.51099999109E-03 0.  1.
       22    1    1    2    0    0  0.50774946686E-03  0.45072008549E-02 -0.35448002988E-01  0.35737005818E-01  0.00000000000E+00 0.  1.
  9000001    1    1    2    0    0 -0.50774946686E-03 -0.45072008549E-02  0.35448002988E-01  0.35750994182E-01  0.10000000475E-02 0. -1.
</event>
<event>
 4   0  0.4958067E-02  0.9118800E+02  0.7818609E-02  0.1379984E+01
      -11   -1    0    0    0    0  0.00000000000E+00  0.00000000000E+00  0.35740347158E-01  0.35744000000E-01  0.51099999109E-03 0.  1.
       11   -1    0    0    0    0 -0.00000000000E+00 -0.00000000000E+00 -0.35740347158E-01  0.35744000000E-01  0.51099999109E-03 0. -1.
       22    1    1    2    0    0  0.28331759777E-02  0.62028717590E-02  0.35080351775E-01  0.35737005818E-01  0.00000000000E+00 0.  1.
  9000001    1    1    2    0    0 -0.28331759777E-02 -0.62028717590E-02 -0.35080351775E-01  0.35750994182E-01  0.10000000475E-02 0. -1.
</event>
<event>
 4   0  0.4958067E-02  0.9118800E+02  0.7818609E-02  0.1379984E+01
      -11   -1    0    0    0    0  0.00000000000E+00  0.00000000000E+00  0.35740347158E-01  0.35744000000E-01  0.51099999109E-03 0. -1.
       11   -1    0    0    0    0 -0.00000000000E+00 -0.00000000000E+00 -0.35740347158E-01  0.35744000000E-01  0.51099999109E-03 0.  1.
       22    1    1    2    0    0 -0.23343085557E-01  0.52542053451E-02 -0.26544816212E-01  0.35737005818E-01  0.00000000000E+00 0.  1.
  9000001    1    1    2    0    0  0.23343085557E-01 -0.52542053451E-02  0.26544816212E-01  0.35750994182E-01  0.10000000475E-02 0. -1.
</event>
<event>
 4   0  0.4958067E-02  0.9118800E+02  0.7818609E-02  0.1379984E+01
      -11   -1    0    0    0    0  0.00000000000E+00  0.00000000000E+00  0.35740347158E-01  0.35744000000E-01  0.51099999109E-03 0. -1.
       11   -1    0    0    0    0 -0.00000000000E+00 -0.00000000000E+00 -0.35740347158E-01  0.35744000000E-01  0.51099999109E-03 0.  1.
       22    1    1    2    0    0 -0.26224596383E-02  0.98648112370E-02  0.34248237759E-01  0.35737005818E-01  0.00000000000E+00 0. -1.
  9000001    1    1    2    0    0  0.26224596383E-02 -0.98648112370E-02 -0.34248237759E-01  0.35750994182E-01  0.10000000475E-02 0.  1.
</event>
<event>
 4   0  0.4958067E-02  0.9118800E+02  0.7818609E-02  0.1379984E+01
      -11   -1    0    0    0    0  0.00000000000E+00  0.00000000000E+00  0.35740347158E-01  0.35744000000E-01  0.51099999109E-03 0.  1.
       11   -1    0    0    0    0 -0.00000000000E+00 -0.00000000000E+00 -0.35740347158E-01  0.35744000000E-01  0.51099999109E-03 0. -1.
       22    1    1    2    0    0 -0.67477953443E-02 -0.11713912232E-01  0.33081491851E-01  0.35737005818E-01  0.00000000000E+00 0.  1.
  9000001    1    1    2    0    0  0.67477953443E-02  0.11713912232E-01 -0.33081491851E-01  0.35750994182E-01  0.10000000475E-02 0. -1.
</event>
<event>
 4   0  0.4958067E-02  0.9118800E+02  0.7818609E-02  0.1379984E+01
      -11   -1    0    0    0    0  0.00000000000E+00  0.00000000000E+00  0.35740347158E-01  0.35744000000E-01  0.51099999109E-03 0.  1.
       11   -1    0    0    0    0 -0.00000000000E+00 -0.00000000000E+00 -0.35740347158E-01  0.35744000000E-01  0.51099999109E-03 0. -1.
       22    1    1    2    0    0  0.73113733592E-02 -0.22325795240E-02 -0.34909783631E-01  0.35737005818E-01  0.00000000000E+00 0. -1.
  9000001    1    1    2    0    0 -0.73113733592E-02  0.22325795240E-02  0.34909783631E-01  0.35750994182E-01  0.10000000475E-02 0.  1.
</event>
<event>
 4   0  0.4958067E-02  0.9118800E+02  0.7818609E-02  0.1379984E+01
      -11   -1    0    0    0    0  0.00000000000E+00  0.00000000000E+00  0.35740347158E-01  0.35744000000E-01  0.51099999109E-03 0. -1.
       11   -1    0    0    0    0 -0.00000000000E+00 -0.00000000000E+00 -0.35740347158E-01  0.35744000000E-01  0.51099999109E-03 0.  1.
       22    1    1    2    0    0  0.65792119532E-02  0.20314318443E-02  0.35067375716E-01  0.35737005818E-01  0.00000000000E+00 0. -1.
  9000001    1    1    2    0    0 -0.65792119532E-02 -0.20314318443E-02 -0.35067375716E-01  0.35750994182E-01  0.10000000475E-02 0.  1.
</event>
<event>
 4   0  0.4958067E-02  0.9118800E+02  0.7818609E-02  0.1379984E+01
      -11   -1    0    0    0    0  0.00000000000E+00  0.00000000000E+00  0.35740347158E-01  0.35744000000E-01  0.51099999109E-03 0. -1.
       11   -1    0    0    0    0 -0.00000000000E+00 -0.00000000000E+00 -0.35740347158E-01  0.35744000000E-01  0.51099999109E-03 0.  1.
       22    1    1    2    0    0 -0.12723823576E-02 -0.10094923431E-01 -0.34257950157E-01  0.35737005818E-01  0.00000000000E+00 0.  1.
  9000001    1    1    2    0    0  0.12723823576E-02  0.10094923431E-01  0.34257950157E-01  0.35750994182E-01  0.10000000475E-02 0. -1.
</event>
<event>
 4   0  0.4958067E-02  0.9118800E+02  0.7818609E-02  0.1379984E+01
      -11   -1    0    0    0    0  0.00000000000E+00  0.00000000000E+00  0.35740347158E-01  0.35744000000E-01  0.51099999109E-03 0. -1.
       11   -1    0    0    0    0 -0.00000000000E+00 -0.00000000000E+00 -0.35740347158E-01  0.35744000000E-01  0.51099999109E-03 0.  1.
       22    1    1    2    0    0 -0.11527290421E-02 -0.30107084625E-02  0.35591297183E-01  0.35737005818E-01  0.00000000000E+00 0. -1.
  9000001    1    1    2    0    0  0.11527290421E-02  0.30107084625E-02 -0.35591297183E-01  0.35750994182E-01  0.10000000475E-02 0.  1.
</event>
<event>
 4   0  0.4958067E-02  0.9118800E+02  0.7818609E-02  0.1379984E+01
      -11   -1    0    0    0    0  0.00000000000E+00  0.00000000000E+00  0.35740347158E-01  0.35744000000E-01  0.51099999109E-03 0.  1.
       11   -1    0    0    0    0 -0.00000000000E+00 -0.00000000000E+00 -0.35740347158E-01  0.35744000000E-01  0.51099999109E-03 0. -1.
       22    1    1    2    0    0  0.23230221185E-01  0.37358426101E-02 -0.26898585252E-01  0.35737005818E-01  0.00000000000E+00 0. -1.
  9000001    1    1    2    0    0 -0.23230221185E-01 -0.37358426101E-02  0.26898585252E-01  0.35750994182E-01  0.10000000475E-02 0.  1.
</event>
<event>
 4   0  0.4958067E-02  0.9118800E+02  0.7818609E-02  0.1379984E+01
      -11   -1    0    0    0    0  0.00000000000E+00  0.00000000000E+00  0.35740347158E-01  0.35744000000E-01  0.51099999109E-03 0.  1.
       11   -1    0    0    0    0 -0.00000000000E+00 -0.00000000000E+00 -0.35740347158E-01  0.35744000000E-01  0.51099999109E-03 0. -1.
       22    1    1    2    0    0  0.11543005317E-01 -0.12217650739E-01  0.31537622351E-01  0.35737005818E-01  0.00000000000E+00 0.  1.
  9000001    1    1    2    0    0 -0.11543005317E-01  0.12217650739E-01 -0.31537622351E-01  0.35750994182E-01  0.10000000475E-02 0. -1.
</event>
<event>
 4   0  0.4958067E-02  0.9118800E+02  0.7818609E-02  0.1379984E+01
      -11   -1    0    0    0    0  0.00000000000E+00  0.00000000000E+00  0.35740347158E-01  0.35744000000E-01  0.51099999109E-03 0. -1.
       11   -1    0    0    0    0 -0.00000000000E+00 -0.00000000000E+00 -0.35740347158E-01  0.35744000000E-01  0.51099999109E-03 0.  1.
       22    1    1    2    0    0 -0.21998322080E-02  0.98637034840E-02  0.34278297459E-01  0.35737005818E-01  0.00000000000E+00 0. -1.
  9000001    1    1    2    0    0  0.21998322080E-02 -0.98637034840E-02 -0.34278297459E-01  0.35750994182E-01  0.10000000475E-02 0.  1.
</event>
<event>
 4   0  0.4958067E-02  0.9118800E+02  0.7818609E-02  0.1379984E+01
      -11   -1    0    0    0    0  0.00000000000E+00  0.00000000000E+00  0.35740347158E-01  0.35744000000E-01  0.51099999109E-03 0. -1.
       11   -1    0    0    0    0 -0.00000000000E+00 -0.00000000000E+00 -0.35740347158E-01  0.35744000000E-01  0.51099999109E-03 0.  1.
       22    1    1    2    0    0 -0.45733416609E-02  0.23367547141E-01 -0.26649125155E-01  0.35737005818E-01  0.00000000000E+00 0.  1.
  9000001    1    1    2    0    0  0.45733416609E-02 -0.23367547141E-01  0.26649125155E-01  0.35750994182E-01  0.10000000475E-02 0. -1.
</event>
<event>
 4   0  0.4958067E-02  0.9118800E+02  0.7818609E-02  0.1379984E+01
      -11   -1    0    0    0    0  0.00000000000E+00  0.00000000000E+00  0.35740347158E-01  0.35744000000E-01  0.51099999109E-03 0. -1.
       11   -1    0    0    0    0 -0.00000000000E+00 -0.00000000000E+00 -0.35740347158E-01  0.35744000000E-01  0.51099999109E-03 0.  1.
       22    1    1    2    0    0  0.65077638573E-02 -0.48296520476E-03 -0.35136154301E-01  0.35737005818E-01  0.00000000000E+00 0.  1.
  9000001    1    1    2    0    0 -0.65077638573E-02  0.48296520476E-03  0.35136154301E-01  0.35750994182E-01  0.10000000475E-02 0. -1.
</event>
<event>
 4   0  0.4958067E-02  0.9118800E+02  0.7818609E-02  0.1379984E+01
      -11   -1    0    0    0    0  0.00000000000E+00  0.00000000000E+00  0.35740347158E-01  0.35744000000E-01  0.51099999109E-03 0. -1.
       11   -1    0    0    0    0 -0.00000000000E+00 -0.00000000000E+00 -0.35740347158E-01  0.35744000000E-01  0.51099999109E-03 0.  1.
       22    1    1    2    0    0 -0.17515268441E-01 -0.91596463835E-02 -0.29773307415E-01  0.35737005818E-01  0.00000000000E+00 0.  1.
  9000001    1    1    2    0    0  0.17515268441E-01  0.91596463835E-02  0.29773307415E-01  0.35750994182E-01  0.10000000475E-02 0. -1.
</event>
<event>
 4   0  0.4958067E-02  0.9118800E+02  0.7818609E-02  0.1379984E+01
      -11   -1    0    0    0    0  0.00000000000E+00  0.00000000000E+00  0.35740347158E-01  0.35744000000E-01  0.51099999109E-03 0. -1.
       11   -1    0    0    0    0 -0.00000000000E+00 -0.00000000000E+00 -0.35740347158E-01  0.35744000000E-01  0.51099999109E-03 0.  1.
       22    1    1    2    0    0 -0.71493495982E-02  0.78682445473E-02  0.34119072569E-01  0.35737005818E-01  0.00000000000E+00 0. -1.
  9000001    1    1    2    0    0  0.71493495982E-02 -0.78682445473E-02 -0.34119072569E-01  0.35750994182E-01  0.10000000475E-02 0.  1.
</event>
<event>
 4   0  0.4958067E-02  0.9118800E+02  0.7818609E-02  0.1379984E+01
      -11   -1    0    0    0    0  0.00000000000E+00  0.00000000000E+00  0.35740347158E-01  0.35744000000E-01  0.51099999109E-03 0.  1.
       11   -1    0    0    0    0 -0.00000000000E+00 -0.00000000000E+00 -0.35740347158E-01  0.35744000000E-01  0.51099999109E-03 0. -1.
       22    1    1    2    0    0  0.60138757456E-02 -0.62608444132E-02 -0.34666535890E-01  0.35737005818E-01  0.00000000000E+00 0. -1.
  9000001    1    1    2    0    0 -0.60138757456E-02  0.62608444132E-02  0.34666535890E-01  0.35750994182E-01  0.10000000475E-02 0.  1.
</event>
<event>
 4   0  0.4958067E-02  0.9118800E+02  0.7818609E-02  0.1379984E+01
      -11   -1    0    0    0    0  0.00000000000E+00  0.00000000000E+00  0.35740347158E-01  0.35744000000E-01  0.51099999109E-03 0.  1.
       11   -1    0    0    0    0 -0.00000000000E+00 -0.00000000000E+00 -0.35740347158E-01  0.35744000000E-01  0.51099999109E-03 0. -1.
       22    1    1    2    0    0 -0.26366814460E-01  0.12100824213E-01  0.20868510571E-01  0.35737005818E-01  0.00000000000E+00 0.  1.
  9000001    1    1    2    0    0  0.26366814460E-01 -0.12100824213E-01 -0.20868510571E-01  0.35750994182E-01  0.10000000475E-02 0. -1.
</event>
<event>
 4   0  0.4958067E-02  0.9118800E+02  0.7818609E-02  0.1379984E+01
      -11   -1    0    0    0    0  0.00000000000E+00  0.00000000000E+00  0.35740347158E-01  0.35744000000E-01  0.51099999109E-03 0.  1.
       11   -1    0    0    0    0 -0.00000000000E+00 -0.00000000000E+00 -0.35740347158E-01  0.35744000000E-01  0.51099999109E-03 0. -1.
       22    1    1    2    0    0 -0.18002275365E-03  0.43407375535E-02 -0.35471949117E-01  0.35737005818E-01  0.00000000000E+00 0. -1.
  9000001    1    1    2    0    0  0.18002275365E-03 -0.43407375535E-02  0.35471949117E-01  0.35750994182E-01  0.10000000475E-02 0.  1.
</event>
<event>
 4   0  0.4958067E-02  0.9118800E+02  0.7818609E-02  0.1379984E+01
      -11   -1    0    0    0    0  0.00000000000E+00  0.00000000000E+00  0.35740347158E-01  0.35744000000E-01  0.51099999109E-03 0.  1.
       11   -1    0    0    0    0 -0.00000000000E+00 -0.00000000000E+00 -0.35740347158E-01  0.35744000000E-01  0.51099999109E-03 0. -1.
       22    1    1    2    0    0 -0.94443508680E-02 -0.46644409242E-02 -0.34149389635E-01  0.35737005818E-01  0.00000000000E+00 0. -1.
  9000001    1    1    2    0    0  0.94443508680E-02  0.46644409242E-02  0.34149389635E-01  0.35750994182E-01  0.10000000475E-02 0.  1.
</event>
<event>
 4   0  0.4958067E-02  0.9118800E+02  0.7818609E-02  0.1379984E+01
      -11   -1    0    0    0    0  0.00000000000E+00  0.00000000000E+00  0.35740347158E-01  0.35744000000E-01  0.51099999109E-03 0.  1.
       11   -1    0    0    0    0 -0.00000000000E+00 -0.00000000000E+00 -0.35740347158E-01  0.35744000000E-01  0.51099999109E-03 0. -1.
       22    1    1    2    0    0 -0.81780174563E-02  0.16475301540E-02 -0.34749665606E-01  0.35737005818E-01  0.00000000000E+00 0. -1.
  9000001    1    1    2    0    0  0.81780174563E-02 -0.16475301540E-02  0.34749665606E-01  0.35750994182E-01  0.10000000475E-02 0.  1.
</event>
<event>
 4   0  0.4958067E-02  0.9118800E+02  0.7818609E-02  0.1379984E+01
      -11   -1    0    0    0    0  0.00000000000E+00  0.00000000000E+00  0.35740347158E-01  0.35744000000E-01  0.51099999109E-03 0. -1.
       11   -1    0    0    0    0 -0.00000000000E+00 -0.00000000000E+00 -0.35740347158E-01  0.35744000000E-01  0.51099999109E-03 0.  1.
       22    1    1    2    0    0  0.28680045725E-01 -0.55659480407E-02 -0.20581758538E-01  0.35737005818E-01  0.00000000000E+00 0.  1.
  9000001    1    1    2    0    0 -0.28680045725E-01  0.55659480407E-02  0.20581758538E-01  0.35750994182E-01  0.10000000475E-02 0. -1.
</event>
<event>
 4   0  0.4958067E-02  0.9118800E+02  0.7818609E-02  0.1379984E+01
      -11   -1    0    0    0    0  0.00000000000E+00  0.00000000000E+00  0.35740347158E-01  0.35744000000E-01  0.51099999109E-03 0.  1.
       11   -1    0    0    0    0 -0.00000000000E+00 -0.00000000000E+00 -0.35740347158E-01  0.35744000000E-01  0.51099999109E-03 0. -1.
       22    1    1    2    0    0  0.19270089271E-01  0.98405692203E-02 -0.28442229902E-01  0.35737005818E-01  0.00000000000E+00 0. -1.
  9000001    1    1    2    0    0 -0.19270089271E-01 -0.98405692203E-02  0.28442229902E-01  0.35750994182E-01  0.10000000475E-02 0.  1.
</event>
<event>
 4   0  0.4958067E-02  0.9118800E+02  0.7818609E-02  0.1379984E+01
      -11   -1    0    0    0    0  0.00000000000E+00  0.00000000000E+00  0.35740347158E-01  0.35744000000E-01  0.51099999109E-03 0.  1.
       11   -1    0    0    0    0 -0.00000000000E+00 -0.00000000000E+00 -0.35740347158E-01  0.35744000000E-01  0.51099999109E-03 0. -1.
       22    1    1    2    0    0 -0.43076512094E-02 -0.31037745180E-02  0.35340406190E-01  0.35737005818E-01  0.00000000000E+00 0.  1.
  9000001    1    1    2    0    0  0.43076512094E-02  0.31037745180E-02 -0.35340406190E-01  0.35750994182E-01  0.10000000475E-02 0. -1.
</event>
<event>
 4   0  0.4958067E-02  0.9118800E+02  0.7818609E-02  0.1379984E+01
      -11   -1    0    0    0    0  0.00000000000E+00  0.00000000000E+00  0.35740347158E-01  0.35744000000E-01  0.51099999109E-03 0. -1.
       11   -1    0    0    0    0 -0.00000000000E+00 -0.00000000000E+00 -0.35740347158E-01  0.35744000000E-01  0.51099999109E-03 0.  1.
       22    1    1    2    0    0  0.32845689175E-02  0.12144869924E-02 -0.35565013893E-01  0.35737005818E-01  0.00000000000E+00 0.  1.
  9000001    1    1    2    0    0 -0.32845689175E-02 -0.12144869924E-02  0.35565013893E-01  0.35750994182E-01  0.10000000475E-02 0. -1.
</event>
<event>
 4   0  0.4958067E-02  0.9118800E+02  0.7818609E-02  0.1379984E+01
      -11   -1    0    0    0    0  0.00000000000E+00  0.00000000000E+00  0.35740347158E-01  0.35744000000E-01  0.51099999109E-03 0. -1.
       11   -1    0    0    0    0 -0.00000000000E+00 -0.00000000000E+00 -0.35740347158E-01  0.35744000000E-01  0.51099999109E-03 0.  1.
       22    1    1    2    0    0  0.16889497616E-01  0.15124768820E-01  0.27624623496E-01  0.35737005818E-01  0.00000000000E+00 0. -1.
  9000001    1    1    2    0    0 -0.16889497616E-01 -0.15124768820E-01 -0.27624623496E-01  0.35750994182E-01  0.10000000475E-02 0.  1.
</event>
<event>
 4   0  0.4958067E-02  0.9118800E+02  0.7818609E-02  0.1379984E+01
      -11   -1    0    0    0    0  0.00000000000E+00  0.00000000000E+00  0.35740347158E-01  0.35744000000E-01  0.51099999109E-03 0. -1.
       11   -1    0    0    0    0 -0.00000000000E+00 -0.00000000000E+00 -0.35740347158E-01  0.35744000000E-01  0.51099999109E-03 0.  1.
       22    1    1    2    0    0 -0.16292089760E-01  0.64131235211E-02 -0.31154024505E-01  0.35737005818E-01  0.00000000000E+00 0.  1.
  9000001    1    1    2    0    0  0.16292089760E-01 -0.64131235211E-02  0.31154024505E-01  0.35750994182E-01  0.10000000475E-02 0. -1.
</event>
<event>
 4   0  0.4958067E-02  0.9118800E+02  0.7818609E-02  0.1379984E+01
      -11   -1    0    0    0    0  0.00000000000E+00  0.00000000000E+00  0.35740347158E-01  0.35744000000E-01  0.51099999109E-03 0.  1.
       11   -1    0    0    0    0 -0.00000000000E+00 -0.00000000000E+00 -0.35740347158E-01  0.35744000000E-01  0.51099999109E-03 0. -1.
       22    1    1    2    0    0 -0.15716044028E-01 -0.38810828485E-03 -0.32093440404E-01  0.35737005818E-01  0.00000000000E+00 0. -1.
  9000001    1    1    2    0    0  0.15716044028E-01  0.38810828485E-03  0.32093440404E-01  0.35750994182E-01  0.10000000475E-02 0.  1.
</event>
<event>
 4   0  0.4958067E-02  0.9118800E+02  0.7818609E-02  0.1379984E+01
      -11   -1    0    0    0    0  0.00000000000E+00  0.00000000000E+00  0.35740347158E-01  0.35744000000E-01  0.51099999109E-03 0.  1.
       11   -1    0    0    0    0 -0.00000000000E+00 -0.00000000000E+00 -0.35740347158E-01  0.35744000000E-01  0.51099999109E-03 0. -1.
       22    1    1    2    0    0  0.25759672389E-02  0.33405902722E-01 -0.12431558268E-01  0.35737005818E-01  0.00000000000E+00 0. -1.
  9000001    1    1    2    0    0 -0.25759672389E-02 -0.33405902722E-01  0.12431558268E-01  0.35750994182E-01  0.10000000475E-02 0.  1.
</event>
<event>
 4   0  0.4958067E-02  0.9118800E+02  0.7818609E-02  0.1379984E+01
      -11   -1    0    0    0    0  0.00000000000E+00  0.00000000000E+00  0.35740347158E-01  0.35744000000E-01  0.51099999109E-03 0. -1.
       11   -1    0    0    0    0 -0.00000000000E+00 -0.00000000000E+00 -0.35740347158E-01  0.35744000000E-01  0.51099999109E-03 0.  1.
       22    1    1    2    0    0 -0.29736499918E-03 -0.36613510745E-02  0.35547709733E-01  0.35737005818E-01  0.00000000000E+00 0. -1.
  9000001    1    1    2    0    0  0.29736499918E-03  0.36613510745E-02 -0.35547709733E-01  0.35750994182E-01  0.10000000475E-02 0.  1.
</event>
<event>
 4   0  0.4958067E-02  0.9118800E+02  0.7818609E-02  0.1379984E+01
      -11   -1    0    0    0    0  0.00000000000E+00  0.00000000000E+00  0.35740347158E-01  0.35744000000E-01  0.51099999109E-03 0. -1.
       11   -1    0    0    0    0 -0.00000000000E+00 -0.00000000000E+00 -0.35740347158E-01  0.35744000000E-01  0.51099999109E-03 0.  1.
       22    1    1    2    0    0  0.49058550552E-02 -0.11773579309E-01  0.33383364140E-01  0.35737005818E-01  0.00000000000E+00 0. -1.
  9000001    1    1    2    0    0 -0.49058550552E-02  0.11773579309E-01 -0.33383364140E-01  0.35750994182E-01  0.10000000475E-02 0.  1.
</event>
<event>
 4   0  0.4958067E-02  0.9118800E+02  0.7818609E-02  0.1379984E+01
      -11   -1    0    0    0    0  0.00000000000E+00  0.00000000000E+00  0.35740347158E-01  0.35744000000E-01  0.51099999109E-03 0. -1.
       11   -1    0    0    0    0 -0.00000000000E+00 -0.00000000000E+00 -0.35740347158E-01  0.35744000000E-01  0.51099999109E-03 0.  1.
       22    1    1    2    0    0 -0.37979474341E-02 -0.93410966565E-02  0.34284881412E-01  0.35737005818E-01  0.00000000000E+00 0. -1.
  9000001    1    1    2    0    0  0.37979474341E-02  0.93410966565E-02 -0.34284881412E-01  0.35750994182E-01  0.10000000475E-02 0.  1.
</event>
<event>
 4   0  0.4958067E-02  0.9118800E+02  0.7818609E-02  0.1379984E+01
      -11   -1    0    0    0    0  0.00000000000E+00  0.00000000000E+00  0.35740347158E-01  0.35744000000E-01  0.51099999109E-03 0.  1.
       11   -1    0    0    0    0 -0.00000000000E+00 -0.00000000000E+00 -0.35740347158E-01  0.35744000000E-01  0.51099999109E-03 0. -1.
       22    1    1    2    0    0 -0.34957174190E-02 -0.83312829406E-03 -0.35555863677E-01  0.35737005818E-01  0.00000000000E+00 0. -1.
  9000001    1    1    2    0    0  0.34957174190E-02  0.83312829406E-03  0.35555863677E-01  0.35750994182E-01  0.10000000475E-02 0.  1.
</event>
<event>
 4   0  0.4958067E-02  0.9118800E+02  0.7818609E-02  0.1379984E+01
      -11   -1    0    0    0    0  0.00000000000E+00  0.00000000000E+00  0.35740347158E-01  0.35744000000E-01  0.51099999109E-03 0. -1.
       11   -1    0    0    0    0 -0.00000000000E+00 -0.00000000000E+00 -0.35740347158E-01  0.35744000000E-01  0.51099999109E-03 0.  1.
       22    1    1    2    0    0  0.53418134768E-02  0.60365071859E-02 -0.34816076669E-01  0.35737005818E-01  0.00000000000E+00 0.  1.
  9000001    1    1    2    0    0 -0.53418134768E-02 -0.60365071859E-02  0.34816076669E-01  0.35750994182E-01  0.10000000475E-02 0. -1.
</event>
<event>
 4   0  0.4958067E-02  0.9118800E+02  0.7818609E-02  0.1379984E+01
      -11   -1    0    0    0    0  0.00000000000E+00  0.00000000000E+00  0.35740347158E-01  0.35744000000E-01  0.51099999109E-03 0. -1.
       11   -1    0    0    0    0 -0.00000000000E+00 -0.00000000000E+00 -0.35740347158E-01  0.35744000000E-01  0.51099999109E-03 0.  1.
       22    1    1    2    0    0 -0.20958439810E-02 -0.26342452093E-02 -0.35578108087E-01  0.35737005818E-01  0.00000000000E+00 0.  1.
  9000001    1    1    2    0    0  0.20958439810E-02  0.26342452093E-02  0.35578108087E-01  0.35750994182E-01  0.10000000475E-02 0. -1.
</event>
<event>
 4   0  0.4958067E-02  0.9118800E+02  0.7818609E-02  0.1379984E+01
      -11   -1    0    0    0    0  0.00000000000E+00  0.00000000000E+00  0.35740347158E-01  0.35744000000E-01  0.51099999109E-03 0. -1.
       11   -1    0    0    0    0 -0.00000000000E+00 -0.00000000000E+00 -0.35740347158E-01  0.35744000000E-01  0.51099999109E-03 0.  1.
       22    1    1    2    0    0 -0.22320183597E-02 -0.51635380985E-02 -0.35291494063E-01  0.35737005818E-01  0.00000000000E+00 0.  1.
  9000001    1    1    2    0    0  0.22320183597E-02  0.51635380985E-02  0.35291494063E-01  0.35750994182E-01  0.10000000475E-02 0. -1.
</event>
<event>
 4   0  0.4958067E-02  0.9118800E+02  0.7818609E-02  0.1379984E+01
      -11   -1    0    0    0    0  0.00000000000E+00  0.00000000000E+00  0.35740347158E-01  0.35744000000E-01  0.51099999109E-03 0.  1.
       11   -1    0    0    0    0 -0.00000000000E+00 -0.00000000000E+00 -0.35740347158E-01  0.35744000000E-01  0.51099999109E-03 0. -1.
       22    1    1    2    0    0  0.21586202034E-02  0.23174978936E-02 -0.35596392334E-01  0.35737005818E-01  0.00000000000E+00 0. -1.
  9000001    1    1    2    0    0 -0.21586202034E-02 -0.23174978936E-02  0.35596392334E-01  0.35750994182E-01  0.10000000475E-02 0.  1.
</event>
<event>
 4   0  0.4958067E-02  0.9118800E+02  0.7818609E-02  0.1379984E+01
      -11   -1    0    0    0    0  0.00000000000E+00  0.00000000000E+00  0.35740347158E-01  0.35744000000E-01  0.51099999109E-03 0. -1.
       11   -1    0    0    0    0 -0.00000000000E+00 -0.00000000000E+00 -0.35740347158E-01  0.35744000000E-01  0.51099999109E-03 0.  1.
       22    1    1    2    0    0 -0.57591212930E-02  0.34902484388E-02 -0.35096784363E-01  0.35737005818E-01  0.00000000000E+00 0.  1.
  9000001    1    1    2    0    0  0.57591212930E-02 -0.34902484388E-02  0.35096784363E-01  0.35750994182E-01  0.10000000475E-02 0. -1.
</event>
<event>
 4   0  0.4958067E-02  0.9118800E+02  0.7818609E-02  0.1379984E+01
      -11   -1    0    0    0    0  0.00000000000E+00  0.00000000000E+00  0.35740347158E-01  0.35744000000E-01  0.51099999109E-03 0.  1.
       11   -1    0    0    0    0 -0.00000000000E+00 -0.00000000000E+00 -0.35740347158E-01  0.35744000000E-01  0.51099999109E-03 0. -1.
       22    1    1    2    0    0  0.33375058581E-02 -0.30707004369E-02  0.35448066779E-01  0.35737005818E-01  0.00000000000E+00 0.  1.
  9000001    1    1    2    0    0 -0.33375058581E-02  0.30707004369E-02 -0.35448066779E-01  0.35750994182E-01  0.10000000475E-02 0. -1.
</event>
<event>
 4   0  0.4958067E-02  0.9118800E+02  0.7818609E-02  0.1379984E+01
      -11   -1    0    0    0    0  0.00000000000E+00  0.00000000000E+00  0.35740347158E-01  0.35744000000E-01  0.51099999109E-03 0.  1.
       11   -1    0    0    0    0 -0.00000000000E+00 -0.00000000000E+00 -0.35740347158E-01  0.35744000000E-01  0.51099999109E-03 0. -1.
       22    1    1    2    0    0  0.30664321726E-02  0.33669712883E-02 -0.35445649704E-01  0.35737005818E-01  0.00000000000E+00 0. -1.
  9000001    1    1    2    0    0 -0.30664321726E-02 -0.33669712883E-02  0.35445649704E-01  0.35750994182E-01  0.10000000475E-02 0.  1.
</event>
<event>
 4   0  0.4958067E-02  0.9118800E+02  0.7818609E-02  0.1379984E+01
      -11   -1    0    0    0    0  0.00000000000E+00  0.00000000000E+00  0.35740347158E-01  0.35744000000E-01  0.51099999109E-03 0.  1.
       11   -1    0    0    0    0 -0.00000000000E+00 -0.00000000000E+00 -0.35740347158E-01  0.35744000000E-01  0.51099999109E-03 0. -1.
       22    1    1    2    0    0 -0.33778929689E-01  0.55796173246E-02 -0.10246236598E-01  0.35737005818E-01  0.00000000000E+00 0. -1.
  9000001    1    1    2    0    0  0.33778929689E-01 -0.55796173246E-02  0.10246236598E-01  0.35750994182E-01  0.10000000475E-02 0.  1.
</event>
<event>
 4   0  0.4958067E-02  0.9118800E+02  0.7818609E-02  0.1379984E+01
      -11   -1    0    0    0    0  0.00000000000E+00  0.00000000000E+00  0.35740347158E-01  0.35744000000E-01  0.51099999109E-03 0. -1.
       11   -1    0    0    0    0 -0.00000000000E+00 -0.00000000000E+00 -0.35740347158E-01  0.35744000000E-01  0.51099999109E-03 0.  1.
       22    1    1    2    0    0 -0.22662732650E-01 -0.15150833473E-01  0.23108145291E-01  0.35737005818E-01  0.00000000000E+00 0. -1.
  9000001    1    1    2    0    0  0.22662732650E-01  0.15150833473E-01 -0.23108145291E-01  0.35750994182E-01  0.10000000475E-02 0.  1.
</event>
<event>
 4   0  0.4958067E-02  0.9118800E+02  0.7818609E-02  0.1379984E+01
      -11   -1    0    0    0    0  0.00000000000E+00  0.00000000000E+00  0.35740347158E-01  0.35744000000E-01  0.51099999109E-03 0. -1.
       11   -1    0    0    0    0 -0.00000000000E+00 -0.00000000000E+00 -0.35740347158E-01  0.35744000000E-01  0.51099999109E-03 0.  1.
       22    1    1    2    0    0  0.10196274548E-01  0.52301178415E-02 -0.33849895681E-01  0.35737005818E-01  0.00000000000E+00 0.  1.
  9000001    1    1    2    0    0 -0.10196274548E-01 -0.52301178415E-02  0.33849895681E-01  0.35750994182E-01  0.10000000475E-02 0. -1.
</event>
<event>
 4   0  0.4958067E-02  0.9118800E+02  0.7818609E-02  0.1379984E+01
      -11   -1    0    0    0    0  0.00000000000E+00  0.00000000000E+00  0.35740347158E-01  0.35744000000E-01  0.51099999109E-03 0. -1.
       11   -1    0    0    0    0 -0.00000000000E+00 -0.00000000000E+00 -0.35740347158E-01  0.35744000000E-01  0.51099999109E-03 0.  1.
       22    1    1    2    0    0  0.39295671821E-02 -0.20474637230E-01  0.29025528711E-01  0.35737005818E-01  0.00000000000E+00 0. -1.
  9000001    1    1    2    0    0 -0.39295671821E-02  0.20474637230E-01 -0.29025528711E-01  0.35750994182E-01  0.10000000475E-02 0.  1.
</event>
<event>
 4   0  0.4958067E-02  0.9118800E+02  0.7818609E-02  0.1379984E+01
      -11   -1    0    0    0    0  0.00000000000E+00  0.00000000000E+00  0.35740347158E-01  0.35744000000E-01  0.51099999109E-03 0.  1.
       11   -1    0    0    0    0 -0.00000000000E+00 -0.00000000000E+00 -0.35740347158E-01  0.35744000000E-01  0.51099999109E-03 0. -1.
       22    1    1    2    0    0  0.11885247351E-02 -0.60257125258E-02  0.35205280604E-01  0.35737005818E-01  0.00000000000E+00 0.  1.
  9000001    1    1    2    0    0 -0.11885247351E-02  0.60257125258E-02 -0.35205280604E-01  0.35750994182E-01  0.10000000475E-02 0. -1.
</event>
<event>
 4   0  0.4958067E-02  0.9118800E+02  0.7818609E-02  0.1379984E+01
      -11   -1    0    0    0    0  0.00000000000E+00  0.00000000000E+00  0.35740347158E-01  0.35744000000E-01  0.51099999109E-03 0. -1.
       11   -1    0    0    0    0 -0.00000000000E+00 -0.00000000000E+00 -0.35740347158E-01  0.35744000000E-01  0.51099999109E-03 0.  1.
       22    1    1    2    0    0 -0.11503148803E-01  0.13450213987E-01  0.31046785602E-01  0.35737005818E-01  0.00000000000E+00 0. -1.
  9000001    1    1    2    0    0  0.11503148803E-01 -0.13450213987E-01 -0.31046785602E-01  0.35750994182E-01  0.10000000475E-02 0.  1.
</event>
<event>
 4   0  0.4958067E-02  0.9118800E+02  0.7818609E-02  0.1379984E+01
      -11   -1    0    0    0    0  0.00000000000E+00  0.00000000000E+00  0.35740347158E-01  0.35744000000E-01  0.51099999109E-03 0. -1.
       11   -1    0    0    0    0 -0.00000000000E+00 -0.00000000000E+00 -0.35740347158E-01  0.35744000000E-01  0.51099999109E-03 0.  1.
       22    1    1    2    0    0 -0.59338578310E-02 -0.30021639086E-01 -0.18456004517E-01  0.35737005818E-01  0.00000000000E+00 0.  1.
  9000001    1    1    2    0    0  0.59338578310E-02  0.30021639086E-01  0.18456004517E-01  0.35750994182E-01  0.10000000475E-02 0. -1.
</event>
<event>
 4   0  0.4958067E-02  0.9118800E+02  0.7818609E-02  0.1379984E+01
      -11   -1    0    0    0    0  0.00000000000E+00  0.00000000000E+00  0.35740347158E-01  0.35744000000E-01  0.51099999109E-03 0.  1.
       11   -1    0    0    0    0 -0.00000000000E+00 -0.00000000000E+00 -0.35740347158E-01  0.35744000000E-01  0.51099999109E-03 0. -1.
       22    1    1    2    0    0  0.21261497168E-01  0.17695758231E-01 -0.22626145577E-01  0.35737005818E-01  0.00000000000E+00 0. -1.
  9000001    1    1    2    0    0 -0.21261497168E-01 -0.17695758231E-01  0.22626145577E-01  0.35750994182E-01  0.10000000475E-02 0.  1.
</event>
<event>
 4   0  0.4958067E-02  0.9118800E+02  0.7818609E-02  0.1379984E+01
      -11   -1    0    0    0    0  0.00000000000E+00  0.00000000000E+00  0.35740347158E-01  0.35744000000E-01  0.51099999109E-03 0.  1.
       11   -1    0    0    0    0 -0.00000000000E+00 -0.00000000000E+00 -0.35740347158E-01  0.35744000000E-01  0.51099999109E-03 0. -1.
       22    1    1    2    0    0 -0.62229223739E-03  0.55603799756E-02 -0.35296296006E-01  0.35737005818E-01  0.00000000000E+00 0. -1.
  9000001    1    1    2    0    0  0.62229223739E-03 -0.55603799756E-02  0.35296296006E-01  0.35750994182E-01  0.10000000475E-02 0.  1.
</event>
<event>
 4   0  0.4958067E-02  0.9118800E+02  0.7818609E-02  0.1379984E+01
      -11   -1    0    0    0    0  0.00000000000E+00  0.00000000000E+00  0.35740347158E-01  0.35744000000E-01  0.51099999109E-03 0. -1.
       11   -1    0    0    0    0 -0.00000000000E+00 -0.00000000000E+00 -0.35740347158E-01  0.35744000000E-01  0.51099999109E-03 0.  1.
       22    1    1    2    0    0  0.30774504164E-02 -0.50561072204E-02 -0.35243420146E-01  0.35737005818E-01  0.00000000000E+00 0.  1.
  9000001    1    1    2    0    0 -0.30774504164E-02  0.50561072204E-02  0.35243420146E-01  0.35750994182E-01  0.10000000475E-02 0. -1.
</event>
<event>
 4   0  0.4958067E-02  0.9118800E+02  0.7818609E-02  0.1379984E+01
      -11   -1    0    0    0    0  0.00000000000E+00  0.00000000000E+00  0.35740347158E-01  0.35744000000E-01  0.51099999109E-03 0.  1.
       11   -1    0    0    0    0 -0.00000000000E+00 -0.00000000000E+00 -0.35740347158E-01  0.35744000000E-01  0.51099999109E-03 0. -1.
       22    1    1    2    0    0 -0.52051556346E-02  0.50926809452E-02 -0.34987205383E-01  0.35737005818E-01  0.00000000000E+00 0. -1.
  9000001    1    1    2    0    0  0.52051556346E-02 -0.50926809452E-02  0.34987205383E-01  0.35750994182E-01  0.10000000475E-02 0.  1.
</event>
<event>
 4   0  0.4958067E-02  0.9118800E+02  0.7818609E-02  0.1379984E+01
      -11   -1    0    0    0    0  0.00000000000E+00  0.00000000000E+00  0.35740347158E-01  0.35744000000E-01  0.51099999109E-03 0.  1.
       11   -1    0    0    0    0 -0.00000000000E+00 -0.00000000000E+00 -0.35740347158E-01  0.35744000000E-01  0.51099999109E-03 0. -1.
       22    1    1    2    0    0  0.34884475228E-02  0.35525722946E-01 -0.16992139148E-02  0.35737005818E-01  0.00000000000E+00 0.  1.
  9000001    1    1    2    0    0 -0.34884475228E-02 -0.35525722946E-01  0.16992139148E-02  0.35750994182E-01  0.10000000475E-02 0. -1.
</event>
<event>
 4   0  0.4958067E-02  0.9118800E+02  0.7818609E-02  0.1379984E+01
      -11   -1    0    0    0    0  0.00000000000E+00  0.00000000000E+00  0.35740347158E-01  0.35744000000E-01  0.51099999109E-03 0.  1.
       11   -1    0    0    0    0 -0.00000000000E+00 -0.00000000000E+00 -0.35740347158E-01  0.35744000000E-01  0.51099999109E-03 0. -1.
       22    1    1    2    0    0 -0.15787387076E-01 -0.57628799053E-02 -0.31538567016E-01  0.35737005818E-01  0.00000000000E+00 0. -1.
  9000001    1    1    2    0    0  0.15787387076E-01  0.57628799053E-02  0.31538567016E-01  0.35750994182E-01  0.10000000475E-02 0.  1.
</event>
<event>
 4   0  0.4958067E-02  0.9118800E+02  0.7818609E-02  0.1379984E+01
      -11   -1    0    0    0    0  0.00000000000E+00  0.00000000000E+00  0.35740347158E-01  0.35744000000E-01  0.51099999109E-03 0. -1.
       11   -1    0    0    0    0 -0.00000000000E+00 -0.00000000000E+00 -0.35740347158E-01  0.35744000000E-01  0.51099999109E-03 0.  1.
       22    1    1    2    0    0 -0.19240861090E-02  0.27858504968E-02  0.35576263358E-01  0.35737005818E-01  0.00000000000E+00 0. -1.
  9000001    1    1    2    0    0  0.19240861090E-02 -0.27858504968E-02 -0.35576263358E-01  0.35750994182E-01  0.10000000475E-02 0.  1.
</event>
<event>
 4   0  0.4958067E-02  0.9118800E+02  0.7818609E-02  0.1379984E+01
      -11   -1    0    0    0    0  0.00000000000E+00  0.00000000000E+00  0.35740347158E-01  0.35744000000E-01  0.51099999109E-03 0. -1.
       11   -1    0    0    0    0 -0.00000000000E+00 -0.00000000000E+00 -0.35740347158E-01  0.35744000000E-01  0.51099999109E-03 0.  1.
       22    1    1    2    0    0 -0.31071715957E-02 -0.33347179230E-02 -0.35445150951E-01  0.35737005818E-01  0.00000000000E+00 0.  1.
  9000001    1    1    2    0    0  0.31071715957E-02  0.33347179230E-02  0.35445150951E-01  0.35750994182E-01  0.10000000475E-02 0. -1.
</event>
<event>
 4   0  0.4958067E-02  0.9118800E+02  0.7818609E-02  0.1379984E+01
      -11   -1    0    0    0    0  0.00000000000E+00  0.00000000000E+00  0.35740347158E-01  0.35744000000E-01  0.51099999109E-03 0. -1.
       11   -1    0    0    0    0 -0.00000000000E+00 -0.00000000000E+00 -0.35740347158E-01  0.35744000000E-01  0.51099999109E-03 0.  1.
       22    1    1    2    0    0  0.32620556386E-02 -0.20175974735E-02 -0.35530576667E-01  0.35737005818E-01  0.00000000000E+00 0.  1.
  9000001    1    1    2    0    0 -0.32620556386E-02  0.20175974735E-02  0.35530576667E-01  0.35750994182E-01  0.10000000475E-02 0. -1.
</event>
<event>
 4   0  0.4958067E-02  0.9118800E+02  0.7818609E-02  0.1379984E+01
      -11   -1    0    0    0    0  0.00000000000E+00  0.00000000000E+00  0.35740347158E-01  0.35744000000E-01  0.51099999109E-03 0.  1.
       11   -1    0    0    0    0 -0.00000000000E+00 -0.00000000000E+00 -0.35740347158E-01  0.35744000000E-01  0.51099999109E-03 0. -1.
       22    1    1    2    0    0  0.56015799751E-02 -0.15022891343E-01  0.31938513152E-01  0.35737005818E-01  0.00000000000E+00 0.  1.
  9000001    1    1    2    0    0 -0.56015799751E-02  0.15022891343E-01 -0.31938513152E-01  0.35750994182E-01  0.10000000475E-02 0. -1.
</event>
<event>
 4   0  0.4958067E-02  0.9118800E+02  0.7818609E-02  0.1379984E+01
      -11   -1    0    0    0    0  0.00000000000E+00  0.00000000000E+00  0.35740347158E-01  0.35744000000E-01  0.51099999109E-03 0. -1.
       11   -1    0    0    0    0 -0.00000000000E+00 -0.00000000000E+00 -0.35740347158E-01  0.35744000000E-01  0.51099999109E-03 0.  1.
       22    1    1    2    0    0 -0.34385194706E-03  0.51230171496E-02 -0.35366227478E-01  0.35737005818E-01  0.00000000000E+00 0.  1.
  9000001    1    1    2    0    0  0.34385194706E-03 -0.51230171496E-02  0.35366227478E-01  0.35750994182E-01  0.10000000475E-02 0. -1.
</event>
<event>
 4   0  0.4958067E-02  0.9118800E+02  0.7818609E-02  0.1379984E+01
      -11   -1    0    0    0    0  0.00000000000E+00  0.00000000000E+00  0.35740347158E-01  0.35744000000E-01  0.51099999109E-03 0. -1.
       11   -1    0    0    0    0 -0.00000000000E+00 -0.00000000000E+00 -0.35740347158E-01  0.35744000000E-01  0.51099999109E-03 0.  1.
       22    1    1    2    0    0  0.28099814302E-02  0.80132721722E-02  0.34713470848E-01  0.35737005818E-01  0.00000000000E+00 0. -1.
  9000001    1    1    2    0    0 -0.28099814302E-02 -0.80132721722E-02 -0.34713470848E-01  0.35750994182E-01  0.10000000475E-02 0.  1.
</event>
<event>
 4   0  0.4958067E-02  0.9118800E+02  0.7818609E-02  0.1379984E+01
      -11   -1    0    0    0    0  0.00000000000E+00  0.00000000000E+00  0.35740347158E-01  0.35744000000E-01  0.51099999109E-03 0. -1.
       11   -1    0    0    0    0 -0.00000000000E+00 -0.00000000000E+00 -0.35740347158E-01  0.35744000000E-01  0.51099999109E-03 0.  1.
       22    1    1    2    0    0  0.21759031862E-02  0.42656338925E-02 -0.35414734189E-01  0.35737005818E-01  0.00000000000E+00 0.  1.
  9000001    1    1    2    0    0 -0.21759031862E-02 -0.42656338925E-02  0.35414734189E-01  0.35750994182E-01  0.10000000475E-02 0. -1.
</event>
<event>
 4   0  0.4958067E-02  0.9118800E+02  0.7818609E-02  0.1379984E+01
      -11   -1    0    0    0    0  0.00000000000E+00  0.00000000000E+00  0.35740347158E-01  0.35744000000E-01  0.51099999109E-03 0. -1.
       11   -1    0    0    0    0 -0.00000000000E+00 -0.00000000000E+00 -0.35740347158E-01  0.35744000000E-01  0.51099999109E-03 0.  1.
       22    1    1    2    0    0 -0.24794324297E-02 -0.46795292572E-02  0.35342439158E-01  0.35737005818E-01  0.00000000000E+00 0. -1.
  9000001    1    1    2    0    0  0.24794324297E-02  0.46795292572E-02 -0.35342439158E-01  0.35750994182E-01  0.10000000475E-02 0.  1.
</event>
<event>
 4   0  0.4958067E-02  0.9118800E+02  0.7818609E-02  0.1379984E+01
      -11   -1    0    0    0    0  0.00000000000E+00  0.00000000000E+00  0.35740347158E-01  0.35744000000E-01  0.51099999109E-03 0.  1.
       11   -1    0    0    0    0 -0.00000000000E+00 -0.00000000000E+00 -0.35740347158E-01  0.35744000000E-01  0.51099999109E-03 0. -1.
       22    1    1    2    0    0  0.14486745848E-03 -0.46707245492E-02  0.35430169778E-01  0.35737005818E-01  0.00000000000E+00 0.  1.
  9000001    1    1    2    0    0 -0.14486745848E-03  0.46707245492E-02 -0.35430169778E-01  0.35750994182E-01  0.10000000475E-02 0. -1.
</event>
<event>
 4   0  0.4958067E-02  0.9118800E+02  0.7818609E-02  0.1379984E+01
      -11   -1    0    0    0    0  0.00000000000E+00  0.00000000000E+00  0.35740347158E-01  0.35744000000E-01  0.51099999109E-03 0.  1.
       11   -1    0    0    0    0 -0.00000000000E+00 -0.00000000000E+00 -0.35740347158E-01  0.35744000000E-01  0.51099999109E-03 0. -1.
       22    1    1    2    0    0 -0.31940632988E-01 -0.32840158650E-02  0.15689002166E-01  0.35737005818E-01  0.00000000000E+00 0.  1.
  9000001    1    1    2    0    0  0.31940632988E-01  0.32840158650E-02 -0.15689002166E-01  0.35750994182E-01  0.10000000475E-02 0. -1.
</event>
<event>
 4   0  0.4958067E-02  0.9118800E+02  0.7818609E-02  0.1379984E+01
      -11   -1    0    0    0    0  0.00000000000E+00  0.00000000000E+00  0.35740347158E-01  0.35744000000E-01  0.51099999109E-03 0. -1.
       11   -1    0    0    0    0 -0.00000000000E+00 -0.00000000000E+00 -0.35740347158E-01  0.35744000000E-01  0.51099999109E-03 0.  1.
       22    1    1    2    0    0  0.35491536547E-01  0.38435320880E-02  0.16467177838E-02  0.35737005818E-01  0.00000000000E+00 0. -1.
  9000001    1    1    2    0    0 -0.35491536547E-01 -0.38435320880E-02 -0.16467177838E-02  0.35750994182E-01  0.10000000475E-02 0.  1.
</event>
<event>
 4   0  0.4958067E-02  0.9118800E+02  0.7818609E-02  0.1379984E+01
      -11   -1    0    0    0    0  0.00000000000E+00  0.00000000000E+00  0.35740347158E-01  0.35744000000E-01  0.51099999109E-03 0. -1.
       11   -1    0    0    0    0 -0.00000000000E+00 -0.00000000000E+00 -0.35740347158E-01  0.35744000000E-01  0.51099999109E-03 0.  1.
       22    1    1    2    0    0  0.24721987900E-01  0.22449483684E-01  0.12727041349E-01  0.35737005818E-01  0.00000000000E+00 0.  1.
  9000001    1    1    2    0    0 -0.24721987900E-01 -0.22449483684E-01 -0.12727041349E-01  0.35750994182E-01  0.10000000475E-02 0. -1.
</event>
<event>
 4   0  0.4958067E-02  0.9118800E+02  0.7818609E-02  0.1379984E+01
      -11   -1    0    0    0    0  0.00000000000E+00  0.00000000000E+00  0.35740347158E-01  0.35744000000E-01  0.51099999109E-03 0.  1.
       11   -1    0    0    0    0 -0.00000000000E+00 -0.00000000000E+00 -0.35740347158E-01  0.35744000000E-01  0.51099999109E-03 0. -1.
       22    1    1    2    0    0 -0.28785176751E-01 -0.86252420751E-02  0.19343018984E-01  0.35737005818E-01  0.00000000000E+00 0.  1.
  9000001    1    1    2    0    0  0.28785176751E-01  0.86252420751E-02 -0.19343018984E-01  0.35750994182E-01  0.10000000475E-02 0. -1.
</event>
<event>
 4   0  0.4958067E-02  0.9118800E+02  0.7818609E-02  0.1379984E+01
      -11   -1    0    0    0    0  0.00000000000E+00  0.00000000000E+00  0.35740347158E-01  0.35744000000E-01  0.51099999109E-03 0.  1.
       11   -1    0    0    0    0 -0.00000000000E+00 -0.00000000000E+00 -0.35740347158E-01  0.35744000000E-01  0.51099999109E-03 0. -1.
       22    1    1    2    0    0  0.69891768372E-02  0.10595192148E-02  0.35030877966E-01  0.35737005818E-01  0.00000000000E+00 0.  1.
  9000001    1    1    2    0    0 -0.69891768372E-02 -0.10595192148E-02 -0.35030877966E-01  0.35750994182E-01  0.10000000475E-02 0. -1.
</event>
<event>
 4   0  0.4958067E-02  0.9118800E+02  0.7818609E-02  0.1379984E+01
      -11   -1    0    0    0    0  0.00000000000E+00  0.00000000000E+00  0.35740347158E-01  0.35744000000E-01  0.51099999109E-03 0. -1.
       11   -1    0    0    0    0 -0.00000000000E+00 -0.00000000000E+00 -0.35740347158E-01  0.35744000000E-01  0.51099999109E-03 0.  1.
       22    1    1    2    0    0  0.57701320692E-02 -0.34584355448E-01 -0.69109709172E-02  0.35737005818E-01  0.00000000000E+00 0.  1.
  9000001    1    1    2    0    0 -0.57701320692E-02  0.34584355448E-01  0.69109709172E-02  0.35750994182E-01  0.10000000475E-02 0. -1.
</event>
<event>
 4   0  0.4958067E-02  0.9118800E+02  0.7818609E-02  0.1379984E+01
      -11   -1    0    0    0    0  0.00000000000E+00  0.00000000000E+00  0.35740347158E-01  0.35744000000E-01  0.51099999109E-03 0. -1.
       11   -1    0    0    0    0 -0.00000000000E+00 -0.00000000000E+00 -0.35740347158E-01  0.35744000000E-01  0.51099999109E-03 0.  1.
       22    1    1    2    0    0  0.34974120290E-02  0.53673977248E-02  0.35158110524E-01  0.35737005818E-01  0.00000000000E+00 0. -1.
  9000001    1    1    2    0    0 -0.34974120290E-02 -0.53673977248E-02 -0.35158110524E-01  0.35750994182E-01  0.10000000475E-02 0.  1.
</event>
<event>
 4   0  0.4958067E-02  0.9118800E+02  0.7818609E-02  0.1379984E+01
      -11   -1    0    0    0    0  0.00000000000E+00  0.00000000000E+00  0.35740347158E-01  0.35744000000E-01  0.51099999109E-03 0.  1.
       11   -1    0    0    0    0 -0.00000000000E+00 -0.00000000000E+00 -0.35740347158E-01  0.35744000000E-01  0.51099999109E-03 0. -1.
       22    1    1    2    0    0  0.29176005753E-02 -0.56932344274E-02 -0.35159753604E-01  0.35737005818E-01  0.00000000000E+00 0. -1.
  9000001    1    1    2    0    0 -0.29176005753E-02  0.56932344274E-02  0.35159753604E-01  0.35750994182E-01  0.10000000475E-02 0.  1.
</event>
<event>
 4   0  0.4958067E-02  0.9118800E+02  0.7818609E-02  0.1379984E+01
      -11   -1    0    0    0    0  0.00000000000E+00  0.00000000000E+00  0.35740347158E-01  0.35744000000E-01  0.51099999109E-03 0.  1.
       11   -1    0    0    0    0 -0.00000000000E+00 -0.00000000000E+00 -0.35740347158E-01  0.35744000000E-01  0.51099999109E-03 0. -1.
       22    1    1    2    0    0  0.82322482089E-02 -0.56708970977E-02 -0.34310415334E-01  0.35737005818E-01  0.00000000000E+00 0. -1.
  9000001    1    1    2    0    0 -0.82322482089E-02  0.56708970977E-02  0.34310415334E-01  0.35750994182E-01  0.10000000475E-02 0.  1.
</event>
<event>
 4   0  0.4958067E-02  0.9118800E+02  0.7818609E-02  0.1379984E+01
      -11   -1    0    0    0    0  0.00000000000E+00  0.00000000000E+00  0.35740347158E-01  0.35744000000E-01  0.51099999109E-03 0.  1.
       11   -1    0    0    0    0 -0.00000000000E+00 -0.00000000000E+00 -0.35740347158E-01  0.35744000000E-01  0.51099999109E-03 0. -1.
       22    1    1    2    0    0  0.12330941512E-01  0.26547355558E-01 -0.20501692106E-01  0.35737005818E-01  0.00000000000E+00 0. -1.
  9000001    1    1    2    0    0 -0.12330941512E-01 -0.26547355558E-01  0.20501692106E-01  0.35750994182E-01  0.10000000475E-02 0.  1.
</event>
<event>
 4   0  0.4958067E-02  0.9118800E+02  0.7818609E-02  0.1379984E+01
      -11   -1    0    0    0    0  0.00000000000E+00  0.00000000000E+00  0.35740347158E-01  0.35744000000E-01  0.51099999109E-03 0.  1.
       11   -1    0    0    0    0 -0.00000000000E+00 -0.00000000000E+00 -0.35740347158E-01  0.35744000000E-01  0.51099999109E-03 0. -1.
       22    1    1    2    0    0  0.21319593622E-01  0.18371987058E-02  0.28622250323E-01  0.35737005818E-01  0.00000000000E+00 0.  1.
  9000001    1    1    2    0    0 -0.21319593622E-01 -0.18371987058E-02 -0.28622250323E-01  0.35750994182E-01  0.10000000475E-02 0. -1.
</event>
<event>
 4   0  0.4958067E-02  0.9118800E+02  0.7818609E-02  0.1379984E+01
      -11   -1    0    0    0    0  0.00000000000E+00  0.00000000000E+00  0.35740347158E-01  0.35744000000E-01  0.51099999109E-03 0.  1.
       11   -1    0    0    0    0 -0.00000000000E+00 -0.00000000000E+00 -0.35740347158E-01  0.35744000000E-01  0.51099999109E-03 0. -1.
       22    1    1    2    0    0  0.83949133475E-02 -0.40423679411E-02 -0.34500989496E-01  0.35737005818E-01  0.00000000000E+00 0. -1.
  9000001    1    1    2    0    0 -0.83949133475E-02  0.40423679411E-02  0.34500989496E-01  0.35750994182E-01  0.10000000475E-02 0.  1.
</event>
<event>
 4   0  0.4958067E-02  0.9118800E+02  0.7818609E-02  0.1379984E+01
      -11   -1    0    0    0    0  0.00000000000E+00  0.00000000000E+00  0.35740347158E-01  0.35744000000E-01  0.51099999109E-03 0. -1.
       11   -1    0    0    0    0 -0.00000000000E+00 -0.00000000000E+00 -0.35740347158E-01  0.35744000000E-01  0.51099999109E-03 0.  1.
       22    1    1    2    0    0  0.18999998719E-02 -0.96479586227E-02  0.34357538907E-01  0.35737005818E-01  0.00000000000E+00 0. -1.
  9000001    1    1    2    0    0 -0.18999998719E-02  0.96479586227E-02 -0.34357538907E-01  0.35750994182E-01  0.10000000475E-02 0.  1.
</event>
<event>
 4   0  0.4958067E-02  0.9118800E+02  0.7818609E-02  0.1379984E+01
      -11   -1    0    0    0    0  0.00000000000E+00  0.00000000000E+00  0.35740347158E-01  0.35744000000E-01  0.51099999109E-03 0.  1.
       11   -1    0    0    0    0 -0.00000000000E+00 -0.00000000000E+00 -0.35740347158E-01  0.35744000000E-01  0.51099999109E-03 0. -1.
       22    1    1    2    0    0  0.17189677142E-01 -0.27455934220E-01  0.15093715935E-01  0.35737005818E-01  0.00000000000E+00 0.  1.
  9000001    1    1    2    0    0 -0.17189677142E-01  0.27455934220E-01 -0.15093715935E-01  0.35750994182E-01  0.10000000475E-02 0. -1.
</event>
<event>
 4   0  0.4958067E-02  0.9118800E+02  0.7818609E-02  0.1379984E+01
      -11   -1    0    0    0    0  0.00000000000E+00  0.00000000000E+00  0.35740347158E-01  0.35744000000E-01  0.51099999109E-03 0. -1.
       11   -1    0    0    0    0 -0.00000000000E+00 -0.00000000000E+00 -0.35740347158E-01  0.35744000000E-01  0.51099999109E-03 0.  1.
       22    1    1    2    0    0  0.10548911368E-01 -0.65408370185E-02  0.33512259024E-01  0.35737005818E-01  0.00000000000E+00 0. -1.
  9000001    1    1    2    0    0 -0.10548911368E-01  0.65408370185E-02 -0.33512259024E-01  0.35750994182E-01  0.10000000475E-02 0.  1.
</event>
<event>
 4   0  0.4958067E-02  0.9118800E+02  0.7818609E-02  0.1379984E+01
      -11   -1    0    0    0    0  0.00000000000E+00  0.00000000000E+00  0.35740347158E-01  0.35744000000E-01  0.51099999109E-03 0.  1.
       11   -1    0    0    0    0 -0.00000000000E+00 -0.00000000000E+00 -0.35740347158E-01  0.35744000000E-01  0.51099999109E-03 0. -1.
       22    1    1    2    0    0  0.44706839925E-02  0.61958511172E-02  0.34910714665E-01  0.35737005818E-01  0.00000000000E+00 0.  1.
  9000001    1    1    2    0    0 -0.44706839925E-02 -0.61958511172E-02 -0.34910714665E-01  0.35750994182E-01  0.10000000475E-02 0. -1.
</event>
<event>
 4   0  0.4958067E-02  0.9118800E+02  0.7818609E-02  0.1379984E+01
      -11   -1    0    0    0    0  0.00000000000E+00  0.00000000000E+00  0.35740347158E-01  0.35744000000E-01  0.51099999109E-03 0.  1.
       11   -1    0    0    0    0 -0.00000000000E+00 -0.00000000000E+00 -0.35740347158E-01  0.35744000000E-01  0.51099999109E-03 0. -1.
       22    1    1    2    0    0  0.14305970333E-01  0.21815031497E-01  0.24424929856E-01  0.35737005818E-01  0.00000000000E+00 0.  1.
  9000001    1    1    2    0    0 -0.14305970333E-01 -0.21815031497E-01 -0.24424929856E-01  0.35750994182E-01  0.10000000475E-02 0. -1.
</event>
<event>
 4   0  0.4958067E-02  0.9118800E+02  0.7818609E-02  0.1379984E+01
      -11   -1    0    0    0    0  0.00000000000E+00  0.00000000000E+00  0.35740347158E-01  0.35744000000E-01  0.51099999109E-03 0. -1.
       11   -1    0    0    0    0 -0.00000000000E+00 -0.00000000000E+00 -0.35740347158E-01  0.35744000000E-01  0.51099999109E-03 0.  1.
       22    1    1    2    0    0  0.25391183758E-02 -0.22819320574E-01  0.27385490160E-01  0.35737005818E-01  0.00000000000E+00 0. -1.
  9000001    1    1    2    0    0 -0.25391183758E-02  0.22819320574E-01 -0.27385490160E-01  0.35750994182E-01  0.10000000475E-02 0.  1.
</event>
<event>
 4   0  0.4958067E-02  0.9118800E+02  0.7818609E-02  0.1379984E+01
      -11   -1    0    0    0    0  0.00000000000E+00  0.00000000000E+00  0.35740347158E-01  0.35744000000E-01  0.51099999109E-03 0.  1.
       11   -1    0    0    0    0 -0.00000000000E+00 -0.00000000000E+00 -0.35740347158E-01  0.35744000000E-01  0.51099999109E-03 0. -1.
       22    1    1    2    0    0 -0.31386767566E-02 -0.12516660497E-01  0.33325898384E-01  0.35737005818E-01  0.00000000000E+00 0.  1.
  9000001    1    1    2    0    0  0.31386767566E-02  0.12516660497E-01 -0.33325898384E-01  0.35750994182E-01  0.10000000475E-02 0. -1.
</event>
<event>
 4   0  0.4958067E-02  0.9118800E+02  0.7818609E-02  0.1379984E+01
      -11   -1    0    0    0    0  0.00000000000E+00  0.00000000000E+00  0.35740347158E-01  0.35744000000E-01  0.51099999109E-03 0.  1.
       11   -1    0    0    0    0 -0.00000000000E+00 -0.00000000000E+00 -0.35740347158E-01  0.35744000000E-01  0.51099999109E-03 0. -1.
       22    1    1    2    0    0  0.27581670296E-02  0.30853148178E-02 -0.35496576342E-01  0.35737005818E-01  0.00000000000E+00 0. -1.
  9000001    1    1    2    0    0 -0.27581670296E-02 -0.30853148178E-02  0.35496576342E-01  0.35750994182E-01  0.10000000475E-02 0.  1.
</event>
<event>
 4   0  0.4958067E-02  0.9118800E+02  0.7818609E-02  0.1379984E+01
      -11   -1    0    0    0    0  0.00000000000E+00  0.00000000000E+00  0.35740347158E-01  0.35744000000E-01  0.51099999109E-03 0. -1.
       11   -1    0    0    0    0 -0.00000000000E+00 -0.00000000000E+00 -0.35740347158E-01  0.35744000000E-01  0.51099999109E-03 0.  1.
       22    1    1    2    0    0 -0.23012612040E-01 -0.36472084867E-02  0.27097068886E-01  0.35737005818E-01  0.00000000000E+00 0. -1.
  9000001    1    1    2    0    0  0.23012612040E-01  0.36472084867E-02 -0.27097068886E-01  0.35750994182E-01  0.10000000475E-02 0.  1.
</event>
<event>
 4   0  0.4958067E-02  0.9118800E+02  0.7818609E-02  0.1379984E+01
      -11   -1    0    0    0    0  0.00000000000E+00  0.00000000000E+00  0.35740347158E-01  0.35744000000E-01  0.51099999109E-03 0.  1.
       11   -1    0    0    0    0 -0.00000000000E+00 -0.00000000000E+00 -0.35740347158E-01  0.35744000000E-01  0.51099999109E-03 0. -1.
       22    1    1    2    0    0 -0.24184686653E-01  0.14345517984E-01 -0.22055399115E-01  0.35737005818E-01  0.00000000000E+00 0. -1.
  9000001    1    1    2    0    0  0.24184686653E-01 -0.14345517984E-01  0.22055399115E-01  0.35750994182E-01  0.10000000475E-02 0.  1.
</event>
<event>
 4   0  0.4958067E-02  0.9118800E+02  0.7818609E-02  0.1379984E+01
      -11   -1    0    0    0    0  0.00000000000E+00  0.00000000000E+00  0.35740347158E-01  0.35744000000E-01  0.51099999109E-03 0. -1.
       11   -1    0    0    0    0 -0.00000000000E+00 -0.00000000000E+00 -0.35740347158E-01  0.35744000000E-01  0.51099999109E-03 0.  1.
       22    1    1    2    0    0 -0.21143884184E-02 -0.53767042853E-02  0.35266896624E-01  0.35737005818E-01  0.00000000000E+00 0. -1.
  9000001    1    1    2    0    0  0.21143884184E-02  0.53767042853E-02 -0.35266896624E-01  0.35750994182E-01  0.10000000475E-02 0.  1.
</event>
<event>
 4   0  0.4958067E-02  0.9118800E+02  0.7818609E-02  0.1379984E+01
      -11   -1    0    0    0    0  0.00000000000E+00  0.00000000000E+00  0.35740347158E-01  0.35744000000E-01  0.51099999109E-03 0.  1.
       11   -1    0    0    0    0 -0.00000000000E+00 -0.00000000000E+00 -0.35740347158E-01  0.35744000000E-01  0.51099999109E-03 0. -1.
       22    1    1    2    0    0 -0.16976924555E-01 -0.17247663734E-01  0.26295165207E-01  0.35737005818E-01  0.00000000000E+00 0.  1.
  9000001    1    1    2    0    0  0.16976924555E-01  0.17247663734E-01 -0.26295165207E-01  0.35750994182E-01  0.10000000475E-02 0. -1.
</event>
<event>
 4   0  0.4958067E-02  0.9118800E+02  0.7818609E-02  0.1379984E+01
      -11   -1    0    0    0    0  0.00000000000E+00  0.00000000000E+00  0.35740347158E-01  0.35744000000E-01  0.51099999109E-03 0. -1.
       11   -1    0    0    0    0 -0.00000000000E+00 -0.00000000000E+00 -0.35740347158E-01  0.35744000000E-01  0.51099999109E-03 0.  1.
       22    1    1    2    0    0 -0.86234329708E-02  0.30177066940E-02 -0.34549434655E-01  0.35737005818E-01  0.00000000000E+00 0.  1.
  9000001    1    1    2    0    0  0.86234329708E-02 -0.30177066940E-02  0.34549434655E-01  0.35750994182E-01  0.10000000475E-02 0. -1.
</event>
<event>
 4   0  0.4958067E-02  0.9118800E+02  0.7818609E-02  0.1379984E+01
      -11   -1    0    0    0    0  0.00000000000E+00  0.00000000000E+00  0.35740347158E-01  0.35744000000E-01  0.51099999109E-03 0. -1.
       11   -1    0    0    0    0 -0.00000000000E+00 -0.00000000000E+00 -0.35740347158E-01  0.35744000000E-01  0.51099999109E-03 0.  1.
       22    1    1    2    0    0 -0.15110694058E-01 -0.16226733239E-01 -0.28026659422E-01  0.35737005818E-01  0.00000000000E+00 0.  1.
  9000001    1    1    2    0    0  0.15110694058E-01  0.16226733239E-01  0.28026659422E-01  0.35750994182E-01  0.10000000475E-02 0. -1.
</event>
<event>
 4   0  0.4958067E-02  0.9118800E+02  0.7818609E-02  0.1379984E+01
      -11   -1    0    0    0    0  0.00000000000E+00  0.00000000000E+00  0.35740347158E-01  0.35744000000E-01  0.51099999109E-03 0.  1.
       11   -1    0    0    0    0 -0.00000000000E+00 -0.00000000000E+00 -0.35740347158E-01  0.35744000000E-01  0.51099999109E-03 0. -1.
       22    1    1    2    0    0  0.28840892963E-02  0.15483902651E-01  0.32079033222E-01  0.35737005818E-01  0.00000000000E+00 0.  1.
  9000001    1    1    2    0    0 -0.28840892963E-02 -0.15483902651E-01 -0.32079033222E-01  0.35750994182E-01  0.10000000475E-02 0. -1.
</event>
<event>
 4   0  0.4958067E-02  0.9118800E+02  0.7818609E-02  0.1379984E+01
      -11   -1    0    0    0    0  0.00000000000E+00  0.00000000000E+00  0.35740347158E-01  0.35744000000E-01  0.51099999109E-03 0.  1.
       11   -1    0    0    0    0 -0.00000000000E+00 -0.00000000000E+00 -0.35740347158E-01  0.35744000000E-01  0.51099999109E-03 0. -1.
       22    1    1    2    0    0 -0.35185183925E-02 -0.24287245692E-02  0.35480345406E-01  0.35737005818E-01  0.00000000000E+00 0.  1.
  9000001    1    1    2    0    0  0.35185183925E-02  0.24287245692E-02 -0.35480345406E-01  0.35750994182E-01  0.10000000475E-02 0. -1.
</event>
<event>
 4   0  0.4958067E-02  0.9118800E+02  0.7818609E-02  0.1379984E+01
      -11   -1    0    0    0    0  0.00000000000E+00  0.00000000000E+00  0.35740347158E-01  0.35744000000E-01  0.51099999109E-03 0. -1.
       11   -1    0    0    0    0 -0.00000000000E+00 -0.00000000000E+00 -0.35740347158E-01  0.35744000000E-01  0.51099999109E-03 0.  1.
       22    1    1    2    0    0  0.12924778086E-01 -0.20851908898E-01  0.25986180781E-01  0.35737005818E-01  0.00000000000E+00 0. -1.
  9000001    1    1    2    0    0 -0.12924778086E-01  0.20851908898E-01 -0.25986180781E-01  0.35750994182E-01  0.10000000475E-02 0.  1.
</event>
<event>
 4   0  0.4958067E-02  0.9118800E+02  0.7818609E-02  0.1379984E+01
      -11   -1    0    0    0    0  0.00000000000E+00  0.00000000000E+00  0.35740347158E-01  0.35744000000E-01  0.51099999109E-03 0.  1.
       11   -1    0    0    0    0 -0.00000000000E+00 -0.00000000000E+00 -0.35740347158E-01  0.35744000000E-01  0.51099999109E-03 0. -1.
       22    1    1    2    0    0  0.15058628986E-02 -0.37212020930E-02  0.35510823938E-01  0.35737005818E-01  0.00000000000E+00 0.  1.
  9000001    1    1    2    0    0 -0.15058628986E-02  0.37212020930E-02 -0.35510823938E-01  0.35750994182E-01  0.10000000475E-02 0. -1.
</event>
<event>
 4   0  0.4958067E-02  0.9118800E+02  0.7818609E-02  0.1379984E+01
      -11   -1    0    0    0    0  0.00000000000E+00  0.00000000000E+00  0.35740347158E-01  0.35744000000E-01  0.51099999109E-03 0.  1.
       11   -1    0    0    0    0 -0.00000000000E+00 -0.00000000000E+00 -0.35740347158E-01  0.35744000000E-01  0.51099999109E-03 0. -1.
       22    1    1    2    0    0  0.32901899987E-02 -0.42447839643E-02 -0.35331148350E-01  0.35737005818E-01  0.00000000000E+00 0. -1.
  9000001    1    1    2    0    0 -0.32901899987E-02  0.42447839643E-02  0.35331148350E-01  0.35750994182E-01  0.10000000475E-02 0.  1.
</event>
<event>
 4   0  0.4958067E-02  0.9118800E+02  0.7818609E-02  0.1379984E+01
      -11   -1    0    0    0    0  0.00000000000E+00  0.00000000000E+00  0.35740347158E-01  0.35744000000E-01  0.51099999109E-03 0. -1.
       11   -1    0    0    0    0 -0.00000000000E+00 -0.00000000000E+00 -0.35740347158E-01  0.35744000000E-01  0.51099999109E-03 0.  1.
       22    1    1    2    0    0 -0.28479437684E-02 -0.82516418218E-02 -0.34654483237E-01  0.35737005818E-01  0.00000000000E+00 0.  1.
  9000001    1    1    2    0    0  0.28479437684E-02  0.82516418218E-02  0.34654483237E-01  0.35750994182E-01  0.10000000475E-02 0. -1.
</event>
<event>
 4   0  0.4958067E-02  0.9118800E+02  0.7818609E-02  0.1379984E+01
      -11   -1    0    0    0    0  0.00000000000E+00  0.00000000000E+00  0.35740347158E-01  0.35744000000E-01  0.51099999109E-03 0.  1.
       11   -1    0    0    0    0 -0.00000000000E+00 -0.00000000000E+00 -0.35740347158E-01  0.35744000000E-01  0.51099999109E-03 0. -1.
       22    1    1    2    0    0 -0.16353579457E-01 -0.21769363430E-02 -0.31701024778E-01  0.35737005818E-01  0.00000000000E+00 0. -1.
  9000001    1    1    2    0    0  0.16353579457E-01  0.21769363430E-02  0.31701024778E-01  0.35750994182E-01  0.10000000475E-02 0.  1.
</event>
<event>
 4   0  0.4958067E-02  0.9118800E+02  0.7818609E-02  0.1379984E+01
      -11   -1    0    0    0    0  0.00000000000E+00  0.00000000000E+00  0.35740347158E-01  0.35744000000E-01  0.51099999109E-03 0.  1.
       11   -1    0    0    0    0 -0.00000000000E+00 -0.00000000000E+00 -0.35740347158E-01  0.35744000000E-01  0.51099999109E-03 0. -1.
       22    1    1    2    0    0 -0.39145991595E-02  0.12428219255E-01  0.33276851781E-01  0.35737005818E-01  0.00000000000E+00 0.  1.
  9000001    1    1    2    0    0  0.39145991595E-02 -0.12428219255E-01 -0.33276851781E-01  0.35750994182E-01  0.10000000475E-02 0. -1.
</event>
<event>
 4   0  0.4958067E-02  0.9118800E+02  0.7818609E-02  0.1379984E+01
      -11   -1    0    0    0    0  0.00000000000E+00  0.00000000000E+00  0.35740347158E-01  0.35744000000E-01  0.51099999109E-03 0.  1.
       11   -1    0    0    0    0 -0.00000000000E+00 -0.00000000000E+00 -0.35740347158E-01  0.35744000000E-01  0.51099999109E-03 0. -1.
       22    1    1    2    0    0  0.78419201968E-02 -0.13372766425E-01  0.32199487428E-01  0.35737005818E-01  0.00000000000E+00 0.  1.
  9000001    1    1    2    0    0 -0.78419201968E-02  0.13372766425E-01 -0.32199487428E-01  0.35750994182E-01  0.10000000475E-02 0. -1.
</event>
<event>
 4   0  0.4958067E-02  0.9118800E+02  0.7818609E-02  0.1379984E+01
      -11   -1    0    0    0    0  0.00000000000E+00  0.00000000000E+00  0.35740347158E-01  0.35744000000E-01  0.51099999109E-03 0.  1.
       11   -1    0    0    0    0 -0.00000000000E+00 -0.00000000000E+00 -0.35740347158E-01  0.35744000000E-01  0.51099999109E-03 0. -1.
       22    1    1    2    0    0 -0.22164983944E-02 -0.14081168474E-01 -0.32771045362E-01  0.35737005818E-01  0.00000000000E+00 0. -1.
  9000001    1    1    2    0    0  0.22164983944E-02  0.14081168474E-01  0.32771045362E-01  0.35750994182E-01  0.10000000475E-02 0.  1.
</event>
<event>
 4   0  0.4958067E-02  0.9118800E+02  0.7818609E-02  0.1379984E+01
      -11   -1    0    0    0    0  0.00000000000E+00  0.00000000000E+00  0.35740347158E-01  0.35744000000E-01  0.51099999109E-03 0. -1.
       11   -1    0    0    0    0 -0.00000000000E+00 -0.00000000000E+00 -0.35740347158E-01  0.35744000000E-01  0.51099999109E-03 0.  1.
       22    1    1    2    0    0  0.11669144960E-01 -0.74562411368E-02 -0.32944940566E-01  0.35737005818E-01  0.00000000000E+00 0.  1.
  9000001    1    1    2    0    0 -0.11669144960E-01  0.74562411368E-02  0.32944940566E-01  0.35750994182E-01  0.10000000475E-02 0. -1.
</event>
<event>
 4   0  0.4958067E-02  0.9118800E+02  0.7818609E-02  0.1379984E+01
      -11   -1    0    0    0    0  0.00000000000E+00  0.00000000000E+00  0.35740347158E-01  0.35744000000E-01  0.51099999109E-03 0.  1.
       11   -1    0    0    0    0 -0.00000000000E+00 -0.00000000000E+00 -0.35740347158E-01  0.35744000000E-01  0.51099999109E-03 0. -1.
       22    1    1    2    0    0 -0.54844853210E-02  0.17451886415E-01  0.30699929417E-01  0.35737005818E-01  0.00000000000E+00 0.  1.
  9000001    1    1    2    0    0  0.54844853210E-02 -0.17451886415E-01 -0.30699929417E-01  0.35750994182E-01  0.10000000475E-02 0. -1.
</event>
<event>
 4   0  0.4958067E-02  0.9118800E+02  0.7818609E-02  0.1379984E+01
      -11   -1    0    0    0    0  0.00000000000E+00  0.00000000000E+00  0.35740347158E-01  0.35744000000E-01  0.51099999109E-03 0. -1.
       11   -1    0    0    0    0 -0.00000000000E+00 -0.00000000000E+00 -0.35740347158E-01  0.35744000000E-01  0.51099999109E-03 0.  1.
       22    1    1    2    0    0  0.18405106831E-01 -0.20791351152E-01  0.22496785209E-01  0.35737005818E-01  0.00000000000E+00 0. -1.
  9000001    1    1    2    0    0 -0.18405106831E-01  0.20791351152E-01 -0.22496785209E-01  0.35750994182E-01  0.10000000475E-02 0.  1.
</event>
<event>
 4   0  0.4958067E-02  0.9118800E+02  0.7818609E-02  0.1379984E+01
      -11   -1    0    0    0    0  0.00000000000E+00  0.00000000000E+00  0.35740347158E-01  0.35744000000E-01  0.51099999109E-03 0.  1.
       11   -1    0    0    0    0 -0.00000000000E+00 -0.00000000000E+00 -0.35740347158E-01  0.35744000000E-01  0.51099999109E-03 0. -1.
       22    1    1    2    0    0 -0.23904366410E-02 -0.29717078879E-02  0.35532919241E-01  0.35737005818E-01  0.00000000000E+00 0.  1.
  9000001    1    1    2    0    0  0.23904366410E-02  0.29717078879E-02 -0.35532919241E-01  0.35750994182E-01  0.10000000475E-02 0. -1.
</event>
<event>
 4   0  0.4958067E-02  0.9118800E+02  0.7818609E-02  0.1379984E+01
      -11   -1    0    0    0    0  0.00000000000E+00  0.00000000000E+00  0.35740347158E-01  0.35744000000E-01  0.51099999109E-03 0. -1.
       11   -1    0    0    0    0 -0.00000000000E+00 -0.00000000000E+00 -0.35740347158E-01  0.35744000000E-01  0.51099999109E-03 0.  1.
       22    1    1    2    0    0 -0.90772182771E-02 -0.22203055751E-02  0.34493592686E-01  0.35737005818E-01  0.00000000000E+00 0. -1.
  9000001    1    1    2    0    0  0.90772182771E-02  0.22203055751E-02 -0.34493592686E-01  0.35750994182E-01  0.10000000475E-02 0.  1.
</event>
<event>
 4   0  0.4958067E-02  0.9118800E+02  0.7818609E-02  0.1379984E+01
      -11   -1    0    0    0    0  0.00000000000E+00  0.00000000000E+00  0.35740347158E-01  0.35744000000E-01  0.51099999109E-03 0. -1.
       11   -1    0    0    0    0 -0.00000000000E+00 -0.00000000000E+00 -0.35740347158E-01  0.35744000000E-01  0.51099999109E-03 0.  1.
       22    1    1    2    0    0 -0.12915028605E-01  0.83451590547E-02  0.32259788303E-01  0.35737005818E-01  0.00000000000E+00 0. -1.
  9000001    1    1    2    0    0  0.12915028605E-01 -0.83451590547E-02 -0.32259788303E-01  0.35750994182E-01  0.10000000475E-02 0.  1.
</event>
<event>
 4   0  0.4958067E-02  0.9118800E+02  0.7818609E-02  0.1379984E+01
      -11   -1    0    0    0    0  0.00000000000E+00  0.00000000000E+00  0.35740347158E-01  0.35744000000E-01  0.51099999109E-03 0.  1.
       11   -1    0    0    0    0 -0.00000000000E+00 -0.00000000000E+00 -0.35740347158E-01  0.35744000000E-01  0.51099999109E-03 0. -1.
       22    1    1    2    0    0  0.19352997219E-01  0.13781428138E-01 -0.26695829674E-01  0.35737005818E-01  0.00000000000E+00 0. -1.
  9000001    1    1    2    0    0 -0.19352997219E-01 -0.13781428138E-01  0.26695829674E-01  0.35750994182E-01  0.10000000475E-02 0.  1.
</event>
<event>
 4   0  0.4958067E-02  0.9118800E+02  0.7818609E-02  0.1379984E+01
      -11   -1    0    0    0    0  0.00000000000E+00  0.00000000000E+00  0.35740347158E-01  0.35744000000E-01  0.51099999109E-03 0.  1.
       11   -1    0    0    0    0 -0.00000000000E+00 -0.00000000000E+00 -0.35740347158E-01  0.35744000000E-01  0.51099999109E-03 0. -1.
       22    1    1    2    0    0 -0.24981445479E-01 -0.25554992652E-01  0.57595311934E-04  0.35737005818E-01  0.00000000000E+00 0. -1.
  9000001    1    1    2    0    0  0.24981445479E-01  0.25554992652E-01 -0.57595311934E-04  0.35750994182E-01  0.10000000475E-02 0.  1.
</event>
<event>
 4   0  0.4958067E-02  0.9118800E+02  0.7818609E-02  0.1379984E+01
      -11   -1    0    0    0    0  0.00000000000E+00  0.00000000000E+00  0.35740347158E-01  0.35744000000E-01  0.51099999109E-03 0. -1.
       11   -1    0    0    0    0 -0.00000000000E+00 -0.00000000000E+00 -0.35740347158E-01  0.35744000000E-01  0.51099999109E-03 0.  1.
       22    1    1    2    0    0 -0.38244272894E-04 -0.36748209594E-02  0.35547542998E-01  0.35737005818E-01  0.00000000000E+00 0. -1.
  9000001    1    1    2    0    0  0.38244272894E-04  0.36748209594E-02 -0.35547542998E-01  0.35750994182E-01  0.10000000475E-02 0.  1.
</event>
<event>
 4   0  0.4958067E-02  0.9118800E+02  0.7818609E-02  0.1379984E+01
      -11   -1    0    0    0    0  0.00000000000E+00  0.00000000000E+00  0.35740347158E-01  0.35744000000E-01  0.51099999109E-03 0.  1.
       11   -1    0    0    0    0 -0.00000000000E+00 -0.00000000000E+00 -0.35740347158E-01  0.35744000000E-01  0.51099999109E-03 0. -1.
       22    1    1    2    0    0 -0.16148875602E-01 -0.14014794295E-01  0.28634471228E-01  0.35737005818E-01  0.00000000000E+00 0.  1.
  9000001    1    1    2    0    0  0.16148875602E-01  0.14014794295E-01 -0.28634471228E-01  0.35750994182E-01  0.10000000475E-02 0. -1.
</event>
<event>
 4   0  0.4958067E-02  0.9118800E+02  0.7818609E-02  0.1379984E+01
      -11   -1    0    0    0    0  0.00000000000E+00  0.00000000000E+00  0.35740347158E-01  0.35744000000E-01  0.51099999109E-03 0.  1.
       11   -1    0    0    0    0 -0.00000000000E+00 -0.00000000000E+00 -0.35740347158E-01  0.35744000000E-01  0.51099999109E-03 0. -1.
       22    1    1    2    0    0 -0.24000490501E-04 -0.77273886072E-02 -0.34891553049E-01  0.35737005818E-01  0.00000000000E+00 0. -1.
  9000001    1    1    2    0    0  0.24000490501E-04  0.77273886072E-02  0.34891553049E-01  0.35750994182E-01  0.10000000475E-02 0.  1.
</event>
<event>
 4   0  0.4958067E-02  0.9118800E+02  0.7818609E-02  0.1379984E+01
      -11   -1    0    0    0    0  0.00000000000E+00  0.00000000000E+00  0.35740347158E-01  0.35744000000E-01  0.51099999109E-03 0. -1.
       11   -1    0    0    0    0 -0.00000000000E+00 -0.00000000000E+00 -0.35740347158E-01  0.35744000000E-01  0.51099999109E-03 0.  1.
       22    1    1    2    0    0  0.36414373422E-02  0.20291646749E-01  0.29191138915E-01  0.35737005818E-01  0.00000000000E+00 0. -1.
  9000001    1    1    2    0    0 -0.36414373422E-02 -0.20291646749E-01 -0.29191138915E-01  0.35750994182E-01  0.10000000475E-02 0.  1.
</event>
<event>
 4   0  0.4958067E-02  0.9118800E+02  0.7818609E-02  0.1379984E+01
      -11   -1    0    0    0    0  0.00000000000E+00  0.00000000000E+00  0.35740347158E-01  0.35744000000E-01  0.51099999109E-03 0.  1.
       11   -1    0    0    0    0 -0.00000000000E+00 -0.00000000000E+00 -0.35740347158E-01  0.35744000000E-01  0.51099999109E-03 0. -1.
       22    1    1    2    0    0 -0.74793223962E-03 -0.41642961057E-02 -0.35485670632E-01  0.35737005818E-01  0.00000000000E+00 0. -1.
  9000001    1    1    2    0    0  0.74793223962E-03  0.41642961057E-02  0.35485670632E-01  0.35750994182E-01  0.10000000475E-02 0.  1.
</event>
<event>
 4   0  0.4958067E-02  0.9118800E+02  0.7818609E-02  0.1379984E+01
      -11   -1    0    0    0    0  0.00000000000E+00  0.00000000000E+00  0.35740347158E-01  0.35744000000E-01  0.51099999109E-03 0. -1.
       11   -1    0    0    0    0 -0.00000000000E+00 -0.00000000000E+00 -0.35740347158E-01  0.35744000000E-01  0.51099999109E-03 0.  1.
       22    1    1    2    0    0  0.31477075452E-01 -0.15255617879E-01 -0.73207533082E-02  0.35737005818E-01  0.00000000000E+00 0. -1.
  9000001    1    1    2    0    0 -0.31477075452E-01  0.15255617879E-01  0.73207533082E-02  0.35750994182E-01  0.10000000475E-02 0.  1.
</event>
<event>
 4   0  0.4958067E-02  0.9118800E+02  0.7818609E-02  0.1379984E+01
      -11   -1    0    0    0    0  0.00000000000E+00  0.00000000000E+00  0.35740347158E-01  0.35744000000E-01  0.51099999109E-03 0.  1.
       11   -1    0    0    0    0 -0.00000000000E+00 -0.00000000000E+00 -0.35740347158E-01  0.35744000000E-01  0.51099999109E-03 0. -1.
       22    1    1    2    0    0  0.31807892387E-01  0.80846106153E-02 -0.14143218799E-01  0.35737005818E-01  0.00000000000E+00 0. -1.
  9000001    1    1    2    0    0 -0.31807892387E-01 -0.80846106153E-02  0.14143218799E-01  0.35750994182E-01  0.10000000475E-02 0.  1.
</event>
<event>
 4   0  0.4958067E-02  0.9118800E+02  0.7818609E-02  0.1379984E+01
      -11   -1    0    0    0    0  0.00000000000E+00  0.00000000000E+00  0.35740347158E-01  0.35744000000E-01  0.51099999109E-03 0.  1.
       11   -1    0    0    0    0 -0.00000000000E+00 -0.00000000000E+00 -0.35740347158E-01  0.35744000000E-01  0.51099999109E-03 0. -1.
       22    1    1    2    0    0 -0.50155739064E-02 -0.85494022345E-02 -0.34334899515E-01  0.35737005818E-01  0.00000000000E+00 0. -1.
  9000001    1    1    2    0    0  0.50155739064E-02  0.85494022345E-02  0.34334899515E-01  0.35750994182E-01  0.10000000475E-02 0.  1.
</event>
<event>
 4   0  0.4958067E-02  0.9118800E+02  0.7818609E-02  0.1379984E+01
      -11   -1    0    0    0    0  0.00000000000E+00  0.00000000000E+00  0.35740347158E-01  0.35744000000E-01  0.51099999109E-03 0. -1.
       11   -1    0    0    0    0 -0.00000000000E+00 -0.00000000000E+00 -0.35740347158E-01  0.35744000000E-01  0.51099999109E-03 0.  1.
       22    1    1    2    0    0 -0.16199900727E-02  0.72246520626E-02 -0.34961602074E-01  0.35737005818E-01  0.00000000000E+00 0.  1.
  9000001    1    1    2    0    0  0.16199900727E-02 -0.72246520626E-02  0.34961602074E-01  0.35750994182E-01  0.10000000475E-02 0. -1.
</event>
<event>
 4   0  0.4958067E-02  0.9118800E+02  0.7818609E-02  0.1379984E+01
      -11   -1    0    0    0    0  0.00000000000E+00  0.00000000000E+00  0.35740347158E-01  0.35744000000E-01  0.51099999109E-03 0.  1.
       11   -1    0    0    0    0 -0.00000000000E+00 -0.00000000000E+00 -0.35740347158E-01  0.35744000000E-01  0.51099999109E-03 0. -1.
       22    1    1    2    0    0  0.17571833149E-02 -0.40872939207E-02  0.35458989270E-01  0.35737005818E-01  0.00000000000E+00 0.  1.
  9000001    1    1    2    0    0 -0.17571833149E-02  0.40872939207E-02 -0.35458989270E-01  0.35750994182E-01  0.10000000475E-02 0. -1.
</event>
<event>
 4   0  0.4958067E-02  0.9118800E+02  0.7818609E-02  0.1379984E+01
      -11   -1    0    0    0    0  0.00000000000E+00  0.00000000000E+00  0.35740347158E-01  0.35744000000E-01  0.51099999109E-03 0. -1.
       11   -1    0    0    0    0 -0.00000000000E+00 -0.00000000000E+00 -0.35740347158E-01  0.35744000000E-01  0.51099999109E-03 0.  1.
       22    1    1    2    0    0  0.24508115885E-02  0.22424403266E-02  0.35582278859E-01  0.35737005818E-01  0.00000000000E+00 0. -1.
  9000001    1    1    2    0    0 -0.24508115885E-02 -0.22424403266E-02 -0.35582278859E-01  0.35750994182E-01  0.10000000475E-02 0.  1.
</event>
<event>
 4   0  0.4958067E-02  0.9118800E+02  0.7818609E-02  0.1379984E+01
      -11   -1    0    0    0    0  0.00000000000E+00  0.00000000000E+00  0.35740347158E-01  0.35744000000E-01  0.51099999109E-03 0. -1.
       11   -1    0    0    0    0 -0.00000000000E+00 -0.00000000000E+00 -0.35740347158E-01  0.35744000000E-01  0.51099999109E-03 0.  1.
       22    1    1    2    0    0  0.20278472072E-01  0.24489816184E-02  0.29324386512E-01  0.35737005818E-01  0.00000000000E+00 0. -1.
  9000001    1    1    2    0    0 -0.20278472072E-01 -0.24489816184E-02 -0.29324386512E-01  0.35750994182E-01  0.10000000475E-02 0.  1.
</event>
<event>
 4   0  0.4958067E-02  0.9118800E+02  0.7818609E-02  0.1379984E+01
      -11   -1    0    0    0    0  0.00000000000E+00  0.00000000000E+00  0.35740347158E-01  0.35744000000E-01  0.51099999109E-03 0.  1.
       11   -1    0    0    0    0 -0.00000000000E+00 -0.00000000000E+00 -0.35740347158E-01  0.35744000000E-01  0.51099999109E-03 0. -1.
       22    1    1    2    0    0  0.54335346251E-03  0.10388531743E-01 -0.34189424682E-01  0.35737005818E-01  0.00000000000E+00 0. -1.
  9000001    1    1    2    0    0 -0.54335346251E-03 -0.10388531743E-01  0.34189424682E-01  0.35750994182E-01  0.10000000475E-02 0.  1.
</event>
<event>
 4   0  0.4958067E-02  0.9118800E+02  0.7818609E-02  0.1379984E+01
      -11   -1    0    0    0    0  0.00000000000E+00  0.00000000000E+00  0.35740347158E-01  0.35744000000E-01  0.51099999109E-03 0.  1.
       11   -1    0    0    0    0 -0.00000000000E+00 -0.00000000000E+00 -0.35740347158E-01  0.35744000000E-01  0.51099999109E-03 0. -1.
       22    1    1    2    0    0 -0.72302013017E-03 -0.36379659813E-02  0.35544001326E-01  0.35737005818E-01  0.00000000000E+00 0.  1.
  9000001    1    1    2    0    0  0.72302013017E-03  0.36379659813E-02 -0.35544001326E-01  0.35750994182E-01  0.10000000475E-02 0. -1.
</event>
<event>
 4   0  0.4958067E-02  0.9118800E+02  0.7818609E-02  0.1379984E+01
      -11   -1    0    0    0    0  0.00000000000E+00  0.00000000000E+00  0.35740347158E-01  0.35744000000E-01  0.51099999109E-03 0.  1.
       11   -1    0    0    0    0 -0.00000000000E+00 -0.00000000000E+00 -0.35740347158E-01  0.35744000000E-01  0.51099999109E-03 0. -1.
       22    1    1    2    0    0  0.15003175284E-02  0.35074260464E-01 -0.66842265898E-02  0.35737005818E-01  0.00000000000E+00 0. -1.
  9000001    1    1    2    0    0 -0.15003175284E-02 -0.35074260464E-01  0.66842265898E-02  0.35750994182E-01  0.10000000475E-02 0.  1.
</event>
<event>
 4   0  0.4958067E-02  0.9118800E+02  0.7818609E-02  0.1379984E+01
      -11   -1    0    0    0    0  0.00000000000E+00  0.00000000000E+00  0.35740347158E-01  0.35744000000E-01  0.51099999109E-03 0. -1.
       11   -1    0    0    0    0 -0.00000000000E+00 -0.00000000000E+00 -0.35740347158E-01  0.35744000000E-01  0.51099999109E-03 0.  1.
       22    1    1    2    0    0 -0.30204688437E-02  0.17758762565E-02 -0.35564822738E-01  0.35737005818E-01  0.00000000000E+00 0.  1.
  9000001    1    1    2    0    0  0.30204688437E-02 -0.17758762565E-02  0.35564822738E-01  0.35750994182E-01  0.10000000475E-02 0. -1.
</event>
<event>
 4   0  0.4958067E-02  0.9118800E+02  0.7818609E-02  0.1379984E+01
      -11   -1    0    0    0    0  0.00000000000E+00  0.00000000000E+00  0.35740347158E-01  0.35744000000E-01  0.51099999109E-03 0.  1.
       11   -1    0    0    0    0 -0.00000000000E+00 -0.00000000000E+00 -0.35740347158E-01  0.35744000000E-01  0.51099999109E-03 0. -1.
       22    1    1    2    0    0 -0.17151372432E-01 -0.42070966753E-02 -0.31068703644E-01  0.35737005818E-01  0.00000000000E+00 0. -1.
  9000001    1    1    2    0    0  0.17151372432E-01  0.42070966753E-02  0.31068703644E-01  0.35750994182E-01  0.10000000475E-02 0.  1.
</event>
<event>
 4   0  0.4958067E-02  0.9118800E+02  0.7818609E-02  0.1379984E+01
      -11   -1    0    0    0    0  0.00000000000E+00  0.00000000000E+00  0.35740347158E-01  0.35744000000E-01  0.51099999109E-03 0.  1.
       11   -1    0    0    0    0 -0.00000000000E+00 -0.00000000000E+00 -0.35740347158E-01  0.35744000000E-01  0.51099999109E-03 0. -1.
       22    1    1    2    0    0  0.11622978983E-01 -0.30873048804E-02  0.33652763527E-01  0.35737005818E-01  0.00000000000E+00 0.  1.
  9000001    1    1    2    0    0 -0.11622978983E-01  0.30873048804E-02 -0.33652763527E-01  0.35750994182E-01  0.10000000475E-02 0. -1.
</event>
<event>
 4   0  0.4958067E-02  0.9118800E+02  0.7818609E-02  0.1379984E+01
      -11   -1    0    0    0    0  0.00000000000E+00  0.00000000000E+00  0.35740347158E-01  0.35744000000E-01  0.51099999109E-03 0. -1.
       11   -1    0    0    0    0 -0.00000000000E+00 -0.00000000000E+00 -0.35740347158E-01  0.35744000000E-01  0.51099999109E-03 0.  1.
       22    1    1    2    0    0  0.34439719113E-02 -0.10440148322E-02 -0.35555346650E-01  0.35737005818E-01  0.00000000000E+00 0.  1.
  9000001    1    1    2    0    0 -0.34439719113E-02  0.10440148322E-02  0.35555346650E-01  0.35750994182E-01  0.10000000475E-02 0. -1.
</event>
<event>
 4   0  0.4958067E-02  0.9118800E+02  0.7818609E-02  0.1379984E+01
      -11   -1    0    0    0    0  0.00000000000E+00  0.00000000000E+00  0.35740347158E-01  0.35744000000E-01  0.51099999109E-03 0.  1.
       11   -1    0    0    0    0 -0.00000000000E+00 -0.00000000000E+00 -0.35740347158E-01  0.35744000000E-01  0.51099999109E-03 0. -1.
       22    1    1    2    0    0 -0.11495773033E-01  0.67000828714E-02 -0.33167599804E-01  0.35737005818E-01  0.00000000000E+00 0. -1.
  9000001    1    1    2    0    0  0.11495773033E-01 -0.67000828714E-02  0.33167599804E-01  0.35750994182E-01  0.10000000475E-02 0.  1.
</event>
<event>
 4   0  0.4958067E-02  0.9118800E+02  0.7818609E-02  0.1379984E+01
      -11   -1    0    0    0    0  0.00000000000E+00  0.00000000000E+00  0.35740347158E-01  0.35744000000E-01  0.51099999109E-03 0.  1.
       11   -1    0    0    0    0 -0.00000000000E+00 -0.00000000000E+00 -0.35740347158E-01  0.35744000000E-01  0.51099999109E-03 0. -1.
       22    1    1    2    0    0  0.33619584398E-01 -0.59354262733E-02 -0.10565407929E-01  0.35737005818E-01  0.00000000000E+00 0. -1.
  9000001    1    1    2    0    0 -0.33619584398E-01  0.59354262733E-02  0.10565407929E-01  0.35750994182E-01  0.10000000475E-02 0.  1.
</event>
<event>
 4   0  0.4958067E-02  0.9118800E+02  0.7818609E-02  0.1379984E+01
      -11   -1    0    0    0    0  0.00000000000E+00  0.00000000000E+00  0.35740347158E-01  0.35744000000E-01  0.51099999109E-03 0.  1.
       11   -1    0    0    0    0 -0.00000000000E+00 -0.00000000000E+00 -0.35740347158E-01  0.35744000000E-01  0.51099999109E-03 0. -1.
       22    1    1    2    0    0  0.19818259512E-02 -0.39156090009E-02  0.35466518816E-01  0.35737005818E-01  0.00000000000E+00 0.  1.
  9000001    1    1    2    0    0 -0.19818259512E-02  0.39156090009E-02 -0.35466518816E-01  0.35750994182E-01  0.10000000475E-02 0. -1.
</event>
<event>
 4   0  0.4958067E-02  0.9118800E+02  0.7818609E-02  0.1379984E+01
      -11   -1    0    0    0    0  0.00000000000E+00  0.00000000000E+00  0.35740347158E-01  0.35744000000E-01  0.51099999109E-03 0.  1.
       11   -1    0    0    0    0 -0.00000000000E+00 -0.00000000000E+00 -0.35740347158E-01  0.35744000000E-01  0.51099999109E-03 0. -1.
       22    1    1    2    0    0 -0.69492278453E-02  0.99009301617E-02 -0.33627569034E-01  0.35737005818E-01  0.00000000000E+00 0. -1.
  9000001    1    1    2    0    0  0.69492278453E-02 -0.99009301617E-02  0.33627569034E-01  0.35750994182E-01  0.10000000475E-02 0.  1.
</event>
<event>
 4   0  0.4958067E-02  0.9118800E+02  0.7818609E-02  0.1379984E+01
      -11   -1    0    0    0    0  0.00000000000E+00  0.00000000000E+00  0.35740347158E-01  0.35744000000E-01  0.51099999109E-03 0.  1.
       11   -1    0    0    0    0 -0.00000000000E+00 -0.00000000000E+00 -0.35740347158E-01  0.35744000000E-01  0.51099999109E-03 0. -1.
       22    1    1    2    0    0 -0.87849450969E-02  0.30663744184E-01 -0.16114996653E-01  0.35737005818E-01  0.00000000000E+00 0. -1.
  9000001    1    1    2    0    0  0.87849450969E-02 -0.30663744184E-01  0.16114996653E-01  0.35750994182E-01  0.10000000475E-02 0.  1.
</event>
<event>
 4   0  0.4958067E-02  0.9118800E+02  0.7818609E-02  0.1379984E+01
      -11   -1    0    0    0    0  0.00000000000E+00  0.00000000000E+00  0.35740347158E-01  0.35744000000E-01  0.51099999109E-03 0.  1.
       11   -1    0    0    0    0 -0.00000000000E+00 -0.00000000000E+00 -0.35740347158E-01  0.35744000000E-01  0.51099999109E-03 0. -1.
       22    1    1    2    0    0 -0.11093978628E-02 -0.56578254007E-02 -0.35268850747E-01  0.35737005818E-01  0.00000000000E+00 0. -1.
  9000001    1    1    2    0    0  0.11093978628E-02  0.56578254007E-02  0.35268850747E-01  0.35750994182E-01  0.10000000475E-02 0.  1.
</event>
<event>
 4   0  0.4958067E-02  0.9118800E+02  0.7818609E-02  0.1379984E+01
      -11   -1    0    0    0    0  0.00000000000E+00  0.00000000000E+00  0.35740347158E-01  0.35744000000E-01  0.51099999109E-03 0. -1.
       11   -1    0    0    0    0 -0.00000000000E+00 -0.00000000000E+00 -0.35740347158E-01  0.35744000000E-01  0.51099999109E-03 0.  1.
       22    1    1    2    0    0 -0.49920145138E-02  0.11125732705E-02  0.35369132823E-01  0.35737005818E-01  0.00000000000E+00 0. -1.
  9000001    1    1    2    0    0  0.49920145138E-02 -0.11125732705E-02 -0.35369132823E-01  0.35750994182E-01  0.10000000475E-02 0.  1.
</event>
<event>
 4   0  0.4958067E-02  0.9118800E+02  0.7818609E-02  0.1379984E+01
      -11   -1    0    0    0    0  0.00000000000E+00  0.00000000000E+00  0.35740347158E-01  0.35744000000E-01  0.51099999109E-03 0.  1.
       11   -1    0    0    0    0 -0.00000000000E+00 -0.00000000000E+00 -0.35740347158E-01  0.35744000000E-01  0.51099999109E-03 0. -1.
       22    1    1    2    0    0  0.11546550114E-02  0.15343079015E-01 -0.32255081507E-01  0.35737005818E-01  0.00000000000E+00 0. -1.
  9000001    1    1    2    0    0 -0.11546550114E-02 -0.15343079015E-01  0.32255081507E-01  0.35750994182E-01  0.10000000475E-02 0.  1.
</event>
<event>
 4   0  0.4958067E-02  0.9118800E+02  0.7818609E-02  0.1379984E+01
      -11   -1    0    0    0    0  0.00000000000E+00  0.00000000000E+00  0.35740347158E-01  0.35744000000E-01  0.51099999109E-03 0.  1.
       11   -1    0    0    0    0 -0.00000000000E+00 -0.00000000000E+00 -0.35740347158E-01  0.35744000000E-01  0.51099999109E-03 0. -1.
       22    1    1    2    0    0  0.20636243157E-01 -0.43809465850E-02 -0.28845907167E-01  0.35737005818E-01  0.00000000000E+00 0. -1.
  9000001    1    1    2    0    0 -0.20636243157E-01  0.43809465850E-02  0.28845907167E-01  0.35750994182E-01  0.10000000475E-02 0.  1.
</event>
<event>
 4   0  0.4958067E-02  0.9118800E+02  0.7818609E-02  0.1379984E+01
      -11   -1    0    0    0    0  0.00000000000E+00  0.00000000000E+00  0.35740347158E-01  0.35744000000E-01  0.51099999109E-03 0. -1.
       11   -1    0    0    0    0 -0.00000000000E+00 -0.00000000000E+00 -0.35740347158E-01  0.35744000000E-01  0.51099999109E-03 0.  1.
       22    1    1    2    0    0  0.33250865263E-02 -0.51540698772E-02 -0.35206717373E-01  0.35737005818E-01  0.00000000000E+00 0.  1.
  9000001    1    1    2    0    0 -0.33250865263E-02  0.51540698772E-02  0.35206717373E-01  0.35750994182E-01  0.10000000475E-02 0. -1.
</event>
<event>
 4   0  0.4958067E-02  0.9118800E+02  0.7818609E-02  0.1379984E+01
      -11   -1    0    0    0    0  0.00000000000E+00  0.00000000000E+00  0.35740347158E-01  0.35744000000E-01  0.51099999109E-03 0. -1.
       11   -1    0    0    0    0 -0.00000000000E+00 -0.00000000000E+00 -0.35740347158E-01  0.35744000000E-01  0.51099999109E-03 0.  1.
       22    1    1    2    0    0 -0.40048933409E-02 -0.23443890402E-02  0.35434421884E-01  0.35737005818E-01  0.00000000000E+00 0. -1.
  9000001    1    1    2    0    0  0.40048933409E-02  0.23443890402E-02 -0.35434421884E-01  0.35750994182E-01  0.10000000475E-02 0.  1.
</event>
<event>
 4   0  0.4958067E-02  0.9118800E+02  0.7818609E-02  0.1379984E+01
      -11   -1    0    0    0    0  0.00000000000E+00  0.00000000000E+00  0.35740347158E-01  0.35744000000E-01  0.51099999109E-03 0.  1.
       11   -1    0    0    0    0 -0.00000000000E+00 -0.00000000000E+00 -0.35740347158E-01  0.35744000000E-01  0.51099999109E-03 0. -1.
       22    1    1    2    0    0 -0.24406445763E-01 -0.24190975237E-01 -0.98109992938E-02  0.35737005818E-01  0.00000000000E+00 0. -1.
  9000001    1    1    2    0    0  0.24406445763E-01  0.24190975237E-01  0.98109992938E-02  0.35750994182E-01  0.10000000475E-02 0.  1.
</event>
<event>
 4   0  0.4958067E-02  0.9118800E+02  0.7818609E-02  0.1379984E+01
      -11   -1    0    0    0    0  0.00000000000E+00  0.00000000000E+00  0.35740347158E-01  0.35744000000E-01  0.51099999109E-03 0. -1.
       11   -1    0    0    0    0 -0.00000000000E+00 -0.00000000000E+00 -0.35740347158E-01  0.35744000000E-01  0.51099999109E-03 0.  1.
       22    1    1    2    0    0  0.26064187005E-02  0.44098296335E-02  0.35367973776E-01  0.35737005818E-01  0.00000000000E+00 0. -1.
  9000001    1    1    2    0    0 -0.26064187005E-02 -0.44098296335E-02 -0.35367973776E-01  0.35750994182E-01  0.10000000475E-02 0.  1.
</event>
<event>
 4   0  0.4958067E-02  0.9118800E+02  0.7818609E-02  0.1379984E+01
      -11   -1    0    0    0    0  0.00000000000E+00  0.00000000000E+00  0.35740347158E-01  0.35744000000E-01  0.51099999109E-03 0. -1.
       11   -1    0    0    0    0 -0.00000000000E+00 -0.00000000000E+00 -0.35740347158E-01  0.35744000000E-01  0.51099999109E-03 0.  1.
       22    1    1    2    0    0  0.17071474091E-01 -0.16912179602E-01 -0.26451399554E-01  0.35737005818E-01  0.00000000000E+00 0.  1.
  9000001    1    1    2    0    0 -0.17071474091E-01  0.16912179602E-01  0.26451399554E-01  0.35750994182E-01  0.10000000475E-02 0. -1.
</event>
<event>
 4   0  0.4958067E-02  0.9118800E+02  0.7818609E-02  0.1379984E+01
      -11   -1    0    0    0    0  0.00000000000E+00  0.00000000000E+00  0.35740347158E-01  0.35744000000E-01  0.51099999109E-03 0.  1.
       11   -1    0    0    0    0 -0.00000000000E+00 -0.00000000000E+00 -0.35740347158E-01  0.35744000000E-01  0.51099999109E-03 0. -1.
       22    1    1    2    0    0  0.46518311699E-02  0.65685664543E-03 -0.35426862562E-01  0.35737005818E-01  0.00000000000E+00 0. -1.
  9000001    1    1    2    0    0 -0.46518311699E-02 -0.65685664543E-03  0.35426862562E-01  0.35750994182E-01  0.10000000475E-02 0.  1.
</event>
<event>
 4   0  0.4958067E-02  0.9118800E+02  0.7818609E-02  0.1379984E+01
      -11   -1    0    0    0    0  0.00000000000E+00  0.00000000000E+00  0.35740347158E-01  0.35744000000E-01  0.51099999109E-03 0.  1.
       11   -1    0    0    0    0 -0.00000000000E+00 -0.00000000000E+00 -0.35740347158E-01  0.35744000000E-01  0.51099999109E-03 0. -1.
       22    1    1    2    0    0 -0.12096455305E-01  0.65884009904E-02  0.32975783938E-01  0.35737005818E-01  0.00000000000E+00 0.  1.
  9000001    1    1    2    0    0  0.12096455305E-01 -0.65884009904E-02 -0.32975783938E-01  0.35750994182E-01  0.10000000475E-02 0. -1.
</event>
<event>
 4   0  0.4958067E-02  0.9118800E+02  0.7818609E-02  0.1379984E+01
      -11   -1    0    0    0    0  0.00000000000E+00  0.00000000000E+00  0.35740347158E-01  0.35744000000E-01  0.51099999109E-03 0. -1.
       11   -1    0    0    0    0 -0.00000000000E+00 -0.00000000000E+00 -0.35740347158E-01  0.35744000000E-01  0.51099999109E-03 0.  1.
       22    1    1    2    0    0 -0.14956868190E-02  0.32976060343E-02  0.35553091290E-01  0.35737005818E-01  0.00000000000E+00 0. -1.
  9000001    1    1    2    0    0  0.14956868190E-02 -0.32976060343E-02 -0.35553091290E-01  0.35750994182E-01  0.10000000475E-02 0.  1.
</event>
<event>
 4   0  0.4958067E-02  0.9118800E+02  0.7818609E-02  0.1379984E+01
      -11   -1    0    0    0    0  0.00000000000E+00  0.00000000000E+00  0.35740347158E-01  0.35744000000E-01  0.51099999109E-03 0.  1.
       11   -1    0    0    0    0 -0.00000000000E+00 -0.00000000000E+00 -0.35740347158E-01  0.35744000000E-01  0.51099999109E-03 0. -1.
       22    1    1    2    0    0  0.93530734299E-02  0.56274267163E-02 -0.34029188513E-01  0.35737005818E-01  0.00000000000E+00 0. -1.
  9000001    1    1    2    0    0 -0.93530734299E-02 -0.56274267163E-02  0.34029188513E-01  0.35750994182E-01  0.10000000475E-02 0.  1.
</event>
<event>
 4   0  0.4958067E-02  0.9118800E+02  0.7818609E-02  0.1379984E+01
      -11   -1    0    0    0    0  0.00000000000E+00  0.00000000000E+00  0.35740347158E-01  0.35744000000E-01  0.51099999109E-03 0. -1.
       11   -1    0    0    0    0 -0.00000000000E+00 -0.00000000000E+00 -0.35740347158E-01  0.35744000000E-01  0.51099999109E-03 0.  1.
       22    1    1    2    0    0 -0.25139813326E-02  0.97091410181E-02 -0.34300817241E-01  0.35737005818E-01  0.00000000000E+00 0.  1.
  9000001    1    1    2    0    0  0.25139813326E-02 -0.97091410181E-02  0.34300817241E-01  0.35750994182E-01  0.10000000475E-02 0. -1.
</event>
<event>
 4   0  0.4958067E-02  0.9118800E+02  0.7818609E-02  0.1379984E+01
      -11   -1    0    0    0    0  0.00000000000E+00  0.00000000000E+00  0.35740347158E-01  0.35744000000E-01  0.51099999109E-03 0.  1.
       11   -1    0    0    0    0 -0.00000000000E+00 -0.00000000000E+00 -0.35740347158E-01  0.35744000000E-01  0.51099999109E-03 0. -1.
       22    1    1    2    0    0  0.58779737734E-03 -0.11537759908E-01 -0.33818163395E-01  0.35737005818E-01  0.00000000000E+00 0. -1.
  9000001    1    1    2    0    0 -0.58779737734E-03  0.11537759908E-01  0.33818163395E-01  0.35750994182E-01  0.10000000475E-02 0.  1.
</event>
<event>
 4   0  0.4958067E-02  0.9118800E+02  0.7818609E-02  0.1379984E+01
      -11   -1    0    0    0    0  0.00000000000E+00  0.00000000000E+00  0.35740347158E-01  0.35744000000E-01  0.51099999109E-03 0. -1.
       11   -1    0    0    0    0 -0.00000000000E+00 -0.00000000000E+00 -0.35740347158E-01  0.35744000000E-01  0.51099999109E-03 0.  1.
       22    1    1    2    0    0 -0.41481014936E-02  0.35941620485E-02 -0.35313012305E-01  0.35737005818E-01  0.00000000000E+00 0.  1.
  9000001    1    1    2    0    0  0.41481014936E-02 -0.35941620485E-02  0.35313012305E-01  0.35750994182E-01  0.10000000475E-02 0. -1.
</event>
<event>
 4   0  0.4958067E-02  0.9118800E+02  0.7818609E-02  0.1379984E+01
      -11   -1    0    0    0    0  0.00000000000E+00  0.00000000000E+00  0.35740347158E-01  0.35744000000E-01  0.51099999109E-03 0.  1.
       11   -1    0    0    0    0 -0.00000000000E+00 -0.00000000000E+00 -0.35740347158E-01  0.35744000000E-01  0.51099999109E-03 0. -1.
       22    1    1    2    0    0 -0.41887511808E-02  0.15000560452E-01  0.32164749875E-01  0.35737005818E-01  0.00000000000E+00 0.  1.
  9000001    1    1    2    0    0  0.41887511808E-02 -0.15000560452E-01 -0.32164749875E-01  0.35750994182E-01  0.10000000475E-02 0. -1.
</event>
<event>
 4   0  0.4958067E-02  0.9118800E+02  0.7818609E-02  0.1379984E+01
      -11   -1    0    0    0    0  0.00000000000E+00  0.00000000000E+00  0.35740347158E-01  0.35744000000E-01  0.51099999109E-03 0. -1.
       11   -1    0    0    0    0 -0.00000000000E+00 -0.00000000000E+00 -0.35740347158E-01  0.35744000000E-01  0.51099999109E-03 0.  1.
       22    1    1    2    0    0 -0.48844256971E-03 -0.38386989010E-02 -0.35526882772E-01  0.35737005818E-01  0.00000000000E+00 0.  1.
  9000001    1    1    2    0    0  0.48844256971E-03  0.38386989010E-02  0.35526882772E-01  0.35750994182E-01  0.10000000475E-02 0. -1.
</event>
<event>
 4   0  0.4958067E-02  0.9118800E+02  0.7818609E-02  0.1379984E+01
      -11   -1    0    0    0    0  0.00000000000E+00  0.00000000000E+00  0.35740347158E-01  0.35744000000E-01  0.51099999109E-03 0.  1.
       11   -1    0    0    0    0 -0.00000000000E+00 -0.00000000000E+00 -0.35740347158E-01  0.35744000000E-01  0.51099999109E-03 0. -1.
       22    1    1    2    0    0  0.20374385433E-02  0.65652477732E-02 -0.35069644291E-01  0.35737005818E-01  0.00000000000E+00 0. -1.
  9000001    1    1    2    0    0 -0.20374385433E-02 -0.65652477732E-02  0.35069644291E-01  0.35750994182E-01  0.10000000475E-02 0.  1.
</event>
<event>
 4   0  0.4958067E-02  0.9118800E+02  0.7818609E-02  0.1379984E+01
      -11   -1    0    0    0    0  0.00000000000E+00  0.00000000000E+00  0.35740347158E-01  0.35744000000E-01  0.51099999109E-03 0.  1.
       11   -1    0    0    0    0 -0.00000000000E+00 -0.00000000000E+00 -0.35740347158E-01  0.35744000000E-01  0.51099999109E-03 0. -1.
       22    1    1    2    0    0  0.46781725279E-02  0.55270442546E-02  0.34995715002E-01  0.35737005818E-01  0.00000000000E+00 0.  1.
  9000001    1    1    2    0    0 -0.46781725279E-02 -0.55270442546E-02 -0.34995715002E-01  0.35750994182E-01  0.10000000475E-02 0. -1.
</event>
<event>
 4   0  0.4958067E-02  0.9118800E+02  0.7818609E-02  0.1379984E+01
      -11   -1    0    0    0    0  0.00000000000E+00  0.00000000000E+00  0.35740347158E-01  0.35744000000E-01  0.51099999109E-03 0. -1.
       11   -1    0    0    0    0 -0.00000000000E+00 -0.00000000000E+00 -0.35740347158E-01  0.35744000000E-01  0.51099999109E-03 0.  1.
       22    1    1    2    0    0  0.41554015169E-02  0.27939600943E-02  0.35384460009E-01  0.35737005818E-01  0.00000000000E+00 0. -1.
  9000001    1    1    2    0    0 -0.41554015169E-02 -0.27939600943E-02 -0.35384460009E-01  0.35750994182E-01  0.10000000475E-02 0.  1.
</event>
<event>
 4   0  0.4958067E-02  0.9118800E+02  0.7818609E-02  0.1379984E+01
      -11   -1    0    0    0    0  0.00000000000E+00  0.00000000000E+00  0.35740347158E-01  0.35744000000E-01  0.51099999109E-03 0.  1.
       11   -1    0    0    0    0 -0.00000000000E+00 -0.00000000000E+00 -0.35740347158E-01  0.35744000000E-01  0.51099999109E-03 0. -1.
       22    1    1    2    0    0  0.10046818599E-02  0.62884605827E-02  0.35165031818E-01  0.35737005818E-01  0.00000000000E+00 0.  1.
  9000001    1    1    2    0    0 -0.10046818599E-02 -0.62884605827E-02 -0.35165031818E-01  0.35750994182E-01  0.10000000475E-02 0. -1.
</event>
<event>
 4   0  0.4958067E-02  0.9118800E+02  0.7818609E-02  0.1379984E+01
      -11   -1    0    0    0    0  0.00000000000E+00  0.00000000000E+00  0.35740347158E-01  0.35744000000E-01  0.51099999109E-03 0. -1.
       11   -1    0    0    0    0 -0.00000000000E+00 -0.00000000000E+00 -0.35740347158E-01  0.35744000000E-01  0.51099999109E-03 0.  1.
       22    1    1    2    0    0 -0.29927789459E-01  0.14629657060E-01 -0.12939634356E-01  0.35737005818E-01  0.00000000000E+00 0.  1.
  9000001    1    1    2    0    0  0.29927789459E-01 -0.14629657060E-01  0.12939634356E-01  0.35750994182E-01  0.10000000475E-02 0. -1.
</event>
<event>
 4   0  0.4958067E-02  0.9118800E+02  0.7818609E-02  0.1379984E+01
      -11   -1    0    0    0    0  0.00000000000E+00  0.00000000000E+00  0.35740347158E-01  0.35744000000E-01  0.51099999109E-03 0.  1.
       11   -1    0    0    0    0 -0.00000000000E+00 -0.00000000000E+00 -0.35740347158E-01  0.35744000000E-01  0.51099999109E-03 0. -1.
       22    1    1    2    0    0  0.19315974386E-01 -0.25085134893E-01 -0.16575968322E-01  0.35737005818E-01  0.00000000000E+00 0. -1.
  9000001    1    1    2    0    0 -0.19315974386E-01  0.25085134893E-01  0.16575968322E-01  0.35750994182E-01  0.10000000475E-02 0.  1.
</event>
<event>
 4   0  0.4958067E-02  0.9118800E+02  0.7818609E-02  0.1379984E+01
      -11   -1    0    0    0    0  0.00000000000E+00  0.00000000000E+00  0.35740347158E-01  0.35744000000E-01  0.51099999109E-03 0.  1.
       11   -1    0    0    0    0 -0.00000000000E+00 -0.00000000000E+00 -0.35740347158E-01  0.35744000000E-01  0.51099999109E-03 0. -1.
       22    1    1    2    0    0 -0.47167410055E-02  0.23791580066E-02 -0.35344384934E-01  0.35737005818E-01  0.00000000000E+00 0. -1.
  9000001    1    1    2    0    0  0.47167410055E-02 -0.23791580066E-02  0.35344384934E-01  0.35750994182E-01  0.10000000475E-02 0.  1.
</event>
<event>
 4   0  0.4958067E-02  0.9118800E+02  0.7818609E-02  0.1379984E+01
      -11   -1    0    0    0    0  0.00000000000E+00  0.00000000000E+00  0.35740347158E-01  0.35744000000E-01  0.51099999109E-03 0.  1.
       11   -1    0    0    0    0 -0.00000000000E+00 -0.00000000000E+00 -0.35740347158E-01  0.35744000000E-01  0.51099999109E-03 0. -1.
       22    1    1    2    0    0  0.75420096156E-02  0.51136298442E-02 -0.34555787730E-01  0.35737005818E-01  0.00000000000E+00 0. -1.
  9000001    1    1    2    0    0 -0.75420096156E-02 -0.51136298442E-02  0.34555787730E-01  0.35750994182E-01  0.10000000475E-02 0.  1.
</event>
<event>
 4   0  0.4958067E-02  0.9118800E+02  0.7818609E-02  0.1379984E+01
      -11   -1    0    0    0    0  0.00000000000E+00  0.00000000000E+00  0.35740347158E-01  0.35744000000E-01  0.51099999109E-03 0.  1.
       11   -1    0    0    0    0 -0.00000000000E+00 -0.00000000000E+00 -0.35740347158E-01  0.35744000000E-01  0.51099999109E-03 0. -1.
       22    1    1    2    0    0  0.16853610660E-02 -0.51539547600E-02  0.35323220313E-01  0.35737005818E-01  0.00000000000E+00 0.  1.
  9000001    1    1    2    0    0 -0.16853610660E-02  0.51539547600E-02 -0.35323220313E-01  0.35750994182E-01  0.10000000475E-02 0. -1.
</event>
<event>
 4   0  0.4958067E-02  0.9118800E+02  0.7818609E-02  0.1379984E+01
      -11   -1    0    0    0    0  0.00000000000E+00  0.00000000000E+00  0.35740347158E-01  0.35744000000E-01  0.51099999109E-03 0.  1.
       11   -1    0    0    0    0 -0.00000000000E+00 -0.00000000000E+00 -0.35740347158E-01  0.35744000000E-01  0.51099999109E-03 0. -1.
       22    1    1    2    0    0 -0.46620308662E-02 -0.45745100665E-02  0.35135066682E-01  0.35737005818E-01  0.00000000000E+00 0.  1.
  9000001    1    1    2    0    0  0.46620308662E-02  0.45745100665E-02 -0.35135066682E-01  0.35750994182E-01  0.10000000475E-02 0. -1.
</event>
<event>
 4   0  0.4958067E-02  0.9118800E+02  0.7818609E-02  0.1379984E+01
      -11   -1    0    0    0    0  0.00000000000E+00  0.00000000000E+00  0.35740347158E-01  0.35744000000E-01  0.51099999109E-03 0. -1.
       11   -1    0    0    0    0 -0.00000000000E+00 -0.00000000000E+00 -0.35740347158E-01  0.35744000000E-01  0.51099999109E-03 0.  1.
       22    1    1    2    0    0 -0.22129754561E-01 -0.27914736857E-01 -0.28591981688E-02  0.35737005818E-01  0.00000000000E+00 0.  1.
  9000001    1    1    2    0    0  0.22129754561E-01  0.27914736857E-01  0.28591981688E-02  0.35750994182E-01  0.10000000475E-02 0. -1.
</event>
<event>
 4   0  0.4958067E-02  0.9118800E+02  0.7818609E-02  0.1379984E+01
      -11   -1    0    0    0    0  0.00000000000E+00  0.00000000000E+00  0.35740347158E-01  0.35744000000E-01  0.51099999109E-03 0.  1.
       11   -1    0    0    0    0 -0.00000000000E+00 -0.00000000000E+00 -0.35740347158E-01  0.35744000000E-01  0.51099999109E-03 0. -1.
       22    1    1    2    0    0  0.42028784537E-02 -0.15691599847E-01 -0.31831479573E-01  0.35737005818E-01  0.00000000000E+00 0. -1.
  9000001    1    1    2    0    0 -0.42028784537E-02  0.15691599847E-01  0.31831479573E-01  0.35750994182E-01  0.10000000475E-02 0.  1.
</event>
<event>
 4   0  0.4958067E-02  0.9118800E+02  0.7818609E-02  0.1379984E+01
      -11   -1    0    0    0    0  0.00000000000E+00  0.00000000000E+00  0.35740347158E-01  0.35744000000E-01  0.51099999109E-03 0.  1.
       11   -1    0    0    0    0 -0.00000000000E+00 -0.00000000000E+00 -0.35740347158E-01  0.35744000000E-01  0.51099999109E-03 0. -1.
       22    1    1    2    0    0 -0.25199489600E-01  0.10256971337E-01 -0.23171401506E-01  0.35737005818E-01  0.00000000000E+00 0. -1.
  9000001    1    1    2    0    0  0.25199489600E-01 -0.10256971337E-01  0.23171401506E-01  0.35750994182E-01  0.10000000475E-02 0.  1.
</event>
<event>
 4   0  0.4958067E-02  0.9118800E+02  0.7818609E-02  0.1379984E+01
      -11   -1    0    0    0    0  0.00000000000E+00  0.00000000000E+00  0.35740347158E-01  0.35744000000E-01  0.51099999109E-03 0. -1.
       11   -1    0    0    0    0 -0.00000000000E+00 -0.00000000000E+00 -0.35740347158E-01  0.35744000000E-01  0.51099999109E-03 0.  1.
       22    1    1    2    0    0 -0.51555903014E-02  0.15394036995E-01 -0.31836725625E-01  0.35737005818E-01  0.00000000000E+00 0.  1.
  9000001    1    1    2    0    0  0.51555903014E-02 -0.15394036995E-01  0.31836725625E-01  0.35750994182E-01  0.10000000475E-02 0. -1.
</event>
<event>
 4   0  0.4958067E-02  0.9118800E+02  0.7818609E-02  0.1379984E+01
      -11   -1    0    0    0    0  0.00000000000E+00  0.00000000000E+00  0.35740347158E-01  0.35744000000E-01  0.51099999109E-03 0. -1.
       11   -1    0    0    0    0 -0.00000000000E+00 -0.00000000000E+00 -0.35740347158E-01  0.35744000000E-01  0.51099999109E-03 0.  1.
       22    1    1    2    0    0 -0.36880757413E-02 -0.75100045876E-03  0.35538256577E-01  0.35737005818E-01  0.00000000000E+00 0. -1.
  9000001    1    1    2    0    0  0.36880757413E-02  0.75100045876E-03 -0.35538256577E-01  0.35750994182E-01  0.10000000475E-02 0.  1.
</event>
<event>
 4   0  0.4958067E-02  0.9118800E+02  0.7818609E-02  0.1379984E+01
      -11   -1    0    0    0    0  0.00000000000E+00  0.00000000000E+00  0.35740347158E-01  0.35744000000E-01  0.51099999109E-03 0.  1.
       11   -1    0    0    0    0 -0.00000000000E+00 -0.00000000000E+00 -0.35740347158E-01  0.35744000000E-01  0.51099999109E-03 0. -1.
       22    1    1    2    0    0  0.36672675874E-02 -0.46412561543E-02 -0.35244055876E-01  0.35737005818E-01  0.00000000000E+00 0. -1.
  9000001    1    1    2    0    0 -0.36672675874E-02  0.46412561543E-02  0.35244055876E-01  0.35750994182E-01  0.10000000475E-02 0.  1.
</event>
<event>
 4   0  0.4958067E-02  0.9118800E+02  0.7818609E-02  0.1379984E+01
      -11   -1    0    0    0    0  0.00000000000E+00  0.00000000000E+00  0.35740347158E-01  0.35744000000E-01  0.51099999109E-03 0.  1.
       11   -1    0    0    0    0 -0.00000000000E+00 -0.00000000000E+00 -0.35740347158E-01  0.35744000000E-01  0.51099999109E-03 0. -1.
       22    1    1    2    0    0  0.49164538421E-02 -0.76655523336E-03 -0.35388903057E-01  0.35737005818E-01  0.00000000000E+00 0. -1.
  9000001    1    1    2    0    0 -0.49164538421E-02  0.76655523336E-03  0.35388903057E-01  0.35750994182E-01  0.10000000475E-02 0.  1.
</event>
<event>
 4   0  0.4958067E-02  0.9118800E+02  0.7818609E-02  0.1379984E+01
      -11   -1    0    0    0    0  0.00000000000E+00  0.00000000000E+00  0.35740347158E-01  0.35744000000E-01  0.51099999109E-03 0.  1.
       11   -1    0    0    0    0 -0.00000000000E+00 -0.00000000000E+00 -0.35740347158E-01  0.35744000000E-01  0.51099999109E-03 0. -1.
       22    1    1    2    0    0 -0.59605831518E-02 -0.21668852014E-02  0.35169726213E-01  0.35737005818E-01  0.00000000000E+00 0.  1.
  9000001    1    1    2    0    0  0.59605831518E-02  0.21668852014E-02 -0.35169726213E-01  0.35750994182E-01  0.10000000475E-02 0. -1.
</event>
<event>
 4   0  0.4958067E-02  0.9118800E+02  0.7818609E-02  0.1379984E+01
      -11   -1    0    0    0    0  0.00000000000E+00  0.00000000000E+00  0.35740347158E-01  0.35744000000E-01  0.51099999109E-03 0.  1.
       11   -1    0    0    0    0 -0.00000000000E+00 -0.00000000000E+00 -0.35740347158E-01  0.35744000000E-01  0.51099999109E-03 0. -1.
       22    1    1    2    0    0 -0.10945078994E-01  0.23101062929E-01  0.24973580485E-01  0.35737005818E-01  0.00000000000E+00 0.  1.
  9000001    1    1    2    0    0  0.10945078994E-01 -0.23101062929E-01 -0.24973580485E-01  0.35750994182E-01  0.10000000475E-02 0. -1.
</event>
<event>
 4   0  0.4958067E-02  0.9118800E+02  0.7818609E-02  0.1379984E+01
      -11   -1    0    0    0    0  0.00000000000E+00  0.00000000000E+00  0.35740347158E-01  0.35744000000E-01  0.51099999109E-03 0. -1.
       11   -1    0    0    0    0 -0.00000000000E+00 -0.00000000000E+00 -0.35740347158E-01  0.35744000000E-01  0.51099999109E-03 0.  1.
       22    1    1    2    0    0  0.13728057232E-01 -0.64432471028E-02 -0.32359829979E-01  0.35737005818E-01  0.00000000000E+00 0.  1.
  9000001    1    1    2    0    0 -0.13728057232E-01  0.64432471028E-02  0.32359829979E-01  0.35750994182E-01  0.10000000475E-02 0. -1.
</event>
<event>
 4   0  0.4958067E-02  0.9118800E+02  0.7818609E-02  0.1379984E+01
      -11   -1    0    0    0    0  0.00000000000E+00  0.00000000000E+00  0.35740347158E-01  0.35744000000E-01  0.51099999109E-03 0.  1.
       11   -1    0    0    0    0 -0.00000000000E+00 -0.00000000000E+00 -0.35740347158E-01  0.35744000000E-01  0.51099999109E-03 0. -1.
       22    1    1    2    0    0 -0.15619579708E-03  0.56017111529E-02 -0.35294900763E-01  0.35737005818E-01  0.00000000000E+00 0. -1.
  9000001    1    1    2    0    0  0.15619579708E-03 -0.56017111529E-02  0.35294900763E-01  0.35750994182E-01  0.10000000475E-02 0.  1.
</event>
<event>
 4   0  0.4958067E-02  0.9118800E+02  0.7818609E-02  0.1379984E+01
      -11   -1    0    0    0    0  0.00000000000E+00  0.00000000000E+00  0.35740347158E-01  0.35744000000E-01  0.51099999109E-03 0. -1.
       11   -1    0    0    0    0 -0.00000000000E+00 -0.00000000000E+00 -0.35740347158E-01  0.35744000000E-01  0.51099999109E-03 0.  1.
       22    1    1    2    0    0 -0.35902781722E-02 -0.37612033022E-02  0.35356708518E-01  0.35737005818E-01  0.00000000000E+00 0. -1.
  9000001    1    1    2    0    0  0.35902781722E-02  0.37612033022E-02 -0.35356708518E-01  0.35750994182E-01  0.10000000475E-02 0.  1.
</event>
<event>
 4   0  0.4958067E-02  0.9118800E+02  0.7818609E-02  0.1379984E+01
      -11   -1    0    0    0    0  0.00000000000E+00  0.00000000000E+00  0.35740347158E-01  0.35744000000E-01  0.51099999109E-03 0. -1.
       11   -1    0    0    0    0 -0.00000000000E+00 -0.00000000000E+00 -0.35740347158E-01  0.35744000000E-01  0.51099999109E-03 0.  1.
       22    1    1    2    0    0 -0.31353662224E-01  0.82613265186E-02  0.15027705552E-01  0.35737005818E-01  0.00000000000E+00 0.  1.
  9000001    1    1    2    0    0  0.31353662224E-01 -0.82613265186E-02 -0.15027705552E-01  0.35750994182E-01  0.10000000475E-02 0. -1.
</event>
<event>
 4   0  0.4958067E-02  0.9118800E+02  0.7818609E-02  0.1379984E+01
      -11   -1    0    0    0    0  0.00000000000E+00  0.00000000000E+00  0.35740347158E-01  0.35744000000E-01  0.51099999109E-03 0. -1.
       11   -1    0    0    0    0 -0.00000000000E+00 -0.00000000000E+00 -0.35740347158E-01  0.35744000000E-01  0.51099999109E-03 0.  1.
       22    1    1    2    0    0  0.87237763756E-02 -0.26433387433E-01 -0.22412169450E-01  0.35737005818E-01  0.00000000000E+00 0.  1.
  9000001    1    1    2    0    0 -0.87237763756E-02  0.26433387433E-01  0.22412169450E-01  0.35750994182E-01  0.10000000475E-02 0. -1.
</event>
<event>
 4   0  0.4958067E-02  0.9118800E+02  0.7818609E-02  0.1379984E+01
      -11   -1    0    0    0    0  0.00000000000E+00  0.00000000000E+00  0.35740347158E-01  0.35744000000E-01  0.51099999109E-03 0.  1.
       11   -1    0    0    0    0 -0.00000000000E+00 -0.00000000000E+00 -0.35740347158E-01  0.35744000000E-01  0.51099999109E-03 0. -1.
       22    1    1    2    0    0  0.41094042349E-02  0.12286044054E-01  0.33306148129E-01  0.35737005818E-01  0.00000000000E+00 0.  1.
  9000001    1    1    2    0    0 -0.41094042349E-02 -0.12286044054E-01 -0.33306148129E-01  0.35750994182E-01  0.10000000475E-02 0. -1.
</event>
<event>
 4   0  0.4958067E-02  0.9118800E+02  0.7818609E-02  0.1379984E+01
      -11   -1    0    0    0    0  0.00000000000E+00  0.00000000000E+00  0.35740347158E-01  0.35744000000E-01  0.51099999109E-03 0. -1.
       11   -1    0    0    0    0 -0.00000000000E+00 -0.00000000000E+00 -0.35740347158E-01  0.35744000000E-01  0.51099999109E-03 0.  1.
       22    1    1    2    0    0  0.65038274435E-02 -0.94090563939E-03 -0.35127603249E-01  0.35737005818E-01  0.00000000000E+00 0.  1.
  9000001    1    1    2    0    0 -0.65038274435E-02  0.94090563939E-03  0.35127603249E-01  0.35750994182E-01  0.10000000475E-02 0. -1.
</event>
<event>
 4   0  0.4958067E-02  0.9118800E+02  0.7818609E-02  0.1379984E+01
      -11   -1    0    0    0    0  0.00000000000E+00  0.00000000000E+00  0.35740347158E-01  0.35744000000E-01  0.51099999109E-03 0. -1.
       11   -1    0    0    0    0 -0.00000000000E+00 -0.00000000000E+00 -0.35740347158E-01  0.35744000000E-01  0.51099999109E-03 0.  1.
       22    1    1    2    0    0 -0.54821786260E-02 -0.19997041533E-01 -0.29106659587E-01  0.35737005818E-01  0.00000000000E+00 0.  1.
  9000001    1    1    2    0    0  0.54821786260E-02  0.19997041533E-01  0.29106659587E-01  0.35750994182E-01  0.10000000475E-02 0. -1.
</event>
<event>
 4   0  0.4958067E-02  0.9118800E+02  0.7818609E-02  0.1379984E+01
      -11   -1    0    0    0    0  0.00000000000E+00  0.00000000000E+00  0.35740347158E-01  0.35744000000E-01  0.51099999109E-03 0. -1.
       11   -1    0    0    0    0 -0.00000000000E+00 -0.00000000000E+00 -0.35740347158E-01  0.35744000000E-01  0.51099999109E-03 0.  1.
       22    1    1    2    0    0  0.95844958374E-02 -0.25883442457E-02 -0.34330329134E-01  0.35737005818E-01  0.00000000000E+00 0.  1.
  9000001    1    1    2    0    0 -0.95844958374E-02  0.25883442457E-02  0.34330329134E-01  0.35750994182E-01  0.10000000475E-02 0. -1.
</event>
<event>
 4   0  0.4958067E-02  0.9118800E+02  0.7818609E-02  0.1379984E+01
      -11   -1    0    0    0    0  0.00000000000E+00  0.00000000000E+00  0.35740347158E-01  0.35744000000E-01  0.51099999109E-03 0.  1.
       11   -1    0    0    0    0 -0.00000000000E+00 -0.00000000000E+00 -0.35740347158E-01  0.35744000000E-01  0.51099999109E-03 0. -1.
       22    1    1    2    0    0 -0.51537410182E-02  0.29790376951E-01 -0.19055339922E-01  0.35737005818E-01  0.00000000000E+00 0. -1.
  9000001    1    1    2    0    0  0.51537410182E-02 -0.29790376951E-01  0.19055339922E-01  0.35750994182E-01  0.10000000475E-02 0.  1.
</event>
<event>
 4   0  0.4958067E-02  0.9118800E+02  0.7818609E-02  0.1379984E+01
      -11   -1    0    0    0    0  0.00000000000E+00  0.00000000000E+00  0.35740347158E-01  0.35744000000E-01  0.51099999109E-03 0. -1.
       11   -1    0    0    0    0 -0.00000000000E+00 -0.00000000000E+00 -0.35740347158E-01  0.35744000000E-01  0.51099999109E-03 0.  1.
       22    1    1    2    0    0  0.79967429804E-02 -0.75169945783E-02  0.34010005573E-01  0.35737005818E-01  0.00000000000E+00 0. -1.
  9000001    1    1    2    0    0 -0.79967429804E-02  0.75169945783E-02 -0.34010005573E-01  0.35750994182E-01  0.10000000475E-02 0.  1.
</event>
<event>
 4   0  0.4958067E-02  0.9118800E+02  0.7818609E-02  0.1379984E+01
      -11   -1    0    0    0    0  0.00000000000E+00  0.00000000000E+00  0.35740347158E-01  0.35744000000E-01  0.51099999109E-03 0. -1.
       11   -1    0    0    0    0 -0.00000000000E+00 -0.00000000000E+00 -0.35740347158E-01  0.35744000000E-01  0.51099999109E-03 0.  1.
       22    1    1    2    0    0  0.11511271594E-01  0.14315443923E-01  0.30654400605E-01  0.35737005818E-01  0.00000000000E+00 0. -1.
  9000001    1    1    2    0    0 -0.11511271594E-01 -0.14315443923E-01 -0.30654400605E-01  0.35750994182E-01  0.10000000475E-02 0.  1.
</event>
<event>
 4   0  0.4958067E-02  0.9118800E+02  0.7818609E-02  0.1379984E+01
      -11   -1    0    0    0    0  0.00000000000E+00  0.00000000000E+00  0.35740347158E-01  0.35744000000E-01  0.51099999109E-03 0. -1.
       11   -1    0    0    0    0 -0.00000000000E+00 -0.00000000000E+00 -0.35740347158E-01  0.35744000000E-01  0.51099999109E-03 0.  1.
       22    1    1    2    0    0  0.28532514542E-02  0.10304430938E-02 -0.35608014941E-01  0.35737005818E-01  0.00000000000E+00 0.  1.
  9000001    1    1    2    0    0 -0.28532514542E-02 -0.10304430938E-02  0.35608014941E-01  0.35750994182E-01  0.10000000475E-02 0. -1.
</event>
<event>
 4   0  0.4958067E-02  0.9118800E+02  0.7818609E-02  0.1379984E+01
      -11   -1    0    0    0    0  0.00000000000E+00  0.00000000000E+00  0.35740347158E-01  0.35744000000E-01  0.51099999109E-03 0.  1.
       11   -1    0    0    0    0 -0.00000000000E+00 -0.00000000000E+00 -0.35740347158E-01  0.35744000000E-01  0.51099999109E-03 0. -1.
       22    1    1    2    0    0  0.19133957198E-01  0.12786758893E-01 -0.27340886303E-01  0.35737005818E-01  0.00000000000E+00 0. -1.
  9000001    1    1    2    0    0 -0.19133957198E-01 -0.12786758893E-01  0.27340886303E-01  0.35750994182E-01  0.10000000475E-02 0.  1.
</event>
<event>
 4   0  0.4958067E-02  0.9118800E+02  0.7818609E-02  0.1379984E+01
      -11   -1    0    0    0    0  0.00000000000E+00  0.00000000000E+00  0.35740347158E-01  0.35744000000E-01  0.51099999109E-03 0. -1.
       11   -1    0    0    0    0 -0.00000000000E+00 -0.00000000000E+00 -0.35740347158E-01  0.35744000000E-01  0.51099999109E-03 0.  1.
       22    1    1    2    0    0 -0.94934836566E-02  0.75723475582E-02  0.33610517779E-01  0.35737005818E-01  0.00000000000E+00 0. -1.
  9000001    1    1    2    0    0  0.94934836566E-02 -0.75723475582E-02 -0.33610517779E-01  0.35750994182E-01  0.10000000475E-02 0.  1.
</event>
<event>
 4   0  0.4958067E-02  0.9118800E+02  0.7818609E-02  0.1379984E+01
      -11   -1    0    0    0    0  0.00000000000E+00  0.00000000000E+00  0.35740347158E-01  0.35744000000E-01  0.51099999109E-03 0. -1.
       11   -1    0    0    0    0 -0.00000000000E+00 -0.00000000000E+00 -0.35740347158E-01  0.35744000000E-01  0.51099999109E-03 0.  1.
       22    1    1    2    0    0 -0.26251120929E-02  0.94830744412E-02 -0.34355693422E-01  0.35737005818E-01  0.00000000000E+00 0.  1.
  9000001    1    1    2    0    0  0.26251120929E-02 -0.94830744412E-02  0.34355693422E-01  0.35750994182E-01  0.10000000475E-02 0. -1.
</event>
<event>
 4   0  0.4958067E-02  0.9118800E+02  0.7818609E-02  0.1379984E+01
      -11   -1    0    0    0    0  0.00000000000E+00  0.00000000000E+00  0.35740347158E-01  0.35744000000E-01  0.51099999109E-03 0.  1.
       11   -1    0    0    0    0 -0.00000000000E+00 -0.00000000000E+00 -0.35740347158E-01  0.35744000000E-01  0.51099999109E-03 0. -1.
       22    1    1    2    0    0  0.95648078193E-02 -0.19448922786E-01  0.28414563849E-01  0.35737005818E-01  0.00000000000E+00 0.  1.
  9000001    1    1    2    0    0 -0.95648078193E-02  0.19448922786E-01 -0.28414563849E-01  0.35750994182E-01  0.10000000475E-02 0. -1.
</event>
<event>
 4   0  0.4958067E-02  0.9118800E+02  0.7818609E-02  0.1379984E+01
      -11   -1    0    0    0    0  0.00000000000E+00  0.00000000000E+00  0.35740347158E-01  0.35744000000E-01  0.51099999109E-03 0. -1.
       11   -1    0    0    0    0 -0.00000000000E+00 -0.00000000000E+00 -0.35740347158E-01  0.35744000000E-01  0.51099999109E-03 0.  1.
       22    1    1    2    0    0 -0.24194772479E-01  0.25749684669E-01  0.53572669356E-02  0.35737005818E-01  0.00000000000E+00 0. -1.
  9000001    1    1    2    0    0  0.24194772479E-01 -0.25749684669E-01 -0.53572669356E-02  0.35750994182E-01  0.10000000475E-02 0.  1.
</event>
<event>
 4   0  0.4958067E-02  0.9118800E+02  0.7818609E-02  0.1379984E+01
      -11   -1    0    0    0    0  0.00000000000E+00  0.00000000000E+00  0.35740347158E-01  0.35744000000E-01  0.51099999109E-03 0.  1.
       11   -1    0    0    0    0 -0.00000000000E+00 -0.00000000000E+00 -0.35740347158E-01  0.35744000000E-01  0.51099999109E-03 0. -1.
       22    1    1    2    0    0 -0.17118838259E-01 -0.13438539934E-01  0.28345804028E-01  0.35737005818E-01  0.00000000000E+00 0.  1.
  9000001    1    1    2    0    0  0.17118838259E-01  0.13438539934E-01 -0.28345804028E-01  0.35750994182E-01  0.10000000475E-02 0. -1.
</event>
<event>
 4   0  0.4958067E-02  0.9118800E+02  0.7818609E-02  0.1379984E+01
      -11   -1    0    0    0    0  0.00000000000E+00  0.00000000000E+00  0.35740347158E-01  0.35744000000E-01  0.51099999109E-03 0.  1.
       11   -1    0    0    0    0 -0.00000000000E+00 -0.00000000000E+00 -0.35740347158E-01  0.35744000000E-01  0.51099999109E-03 0. -1.
       22    1    1    2    0    0 -0.18625172592E-01  0.21604886160E-01 -0.21528247137E-01  0.35737005818E-01  0.00000000000E+00 0. -1.
  9000001    1    1    2    0    0  0.18625172592E-01 -0.21604886160E-01  0.21528247137E-01  0.35750994182E-01  0.10000000475E-02 0.  1.
</event>
<event>
 4   0  0.4958067E-02  0.9118800E+02  0.7818609E-02  0.1379984E+01
      -11   -1    0    0    0    0  0.00000000000E+00  0.00000000000E+00  0.35740347158E-01  0.35744000000E-01  0.51099999109E-03 0.  1.
       11   -1    0    0    0    0 -0.00000000000E+00 -0.00000000000E+00 -0.35740347158E-01  0.35744000000E-01  0.51099999109E-03 0. -1.
       22    1    1    2    0    0 -0.25275451738E-01  0.14917819308E-01 -0.20389796257E-01  0.35737005818E-01  0.00000000000E+00 0. -1.
  9000001    1    1    2    0    0  0.25275451738E-01 -0.14917819308E-01  0.20389796257E-01  0.35750994182E-01  0.10000000475E-02 0.  1.
</event>
<event>
 4   0  0.4958067E-02  0.9118800E+02  0.7818609E-02  0.1379984E+01
      -11   -1    0    0    0    0  0.00000000000E+00  0.00000000000E+00  0.35740347158E-01  0.35744000000E-01  0.51099999109E-03 0. -1.
       11   -1    0    0    0    0 -0.00000000000E+00 -0.00000000000E+00 -0.35740347158E-01  0.35744000000E-01  0.51099999109E-03 0.  1.
       22    1    1    2    0    0  0.55771476461E-02  0.54665404246E-02 -0.34873284112E-01  0.35737005818E-01  0.00000000000E+00 0.  1.
  9000001    1    1    2    0    0 -0.55771476461E-02 -0.54665404246E-02  0.34873284112E-01  0.35750994182E-01  0.10000000475E-02 0. -1.
</event>
<event>
 4   0  0.4958067E-02  0.9118800E+02  0.7818609E-02  0.1379984E+01
      -11   -1    0    0    0    0  0.00000000000E+00  0.00000000000E+00  0.35740347158E-01  0.35744000000E-01  0.51099999109E-03 0. -1.
       11   -1    0    0    0    0 -0.00000000000E+00 -0.00000000000E+00 -0.35740347158E-01  0.35744000000E-01  0.51099999109E-03 0.  1.
       22    1    1    2    0    0  0.27518118544E-01 -0.94099520738E-02 -0.20768715382E-01  0.35737005818E-01  0.00000000000E+00 0.  1.
  9000001    1    1    2    0    0 -0.27518118544E-01  0.94099520738E-02  0.20768715382E-01  0.35750994182E-01  0.10000000475E-02 0. -1.
</event>
<event>
 4   0  0.4958067E-02  0.9118800E+02  0.7818609E-02  0.1379984E+01
      -11   -1    0    0    0    0  0.00000000000E+00  0.00000000000E+00  0.35740347158E-01  0.35744000000E-01  0.51099999109E-03 0. -1.
       11   -1    0    0    0    0 -0.00000000000E+00 -0.00000000000E+00 -0.35740347158E-01  0.35744000000E-01  0.51099999109E-03 0.  1.
       22    1    1    2    0    0 -0.14298300282E-01  0.23088619560E-02  0.32670496635E-01  0.35737005818E-01  0.00000000000E+00 0. -1.
  9000001    1    1    2    0    0  0.14298300282E-01 -0.23088619560E-02 -0.32670496635E-01  0.35750994182E-01  0.10000000475E-02 0.  1.
</event>
<event>
 4   0  0.4958067E-02  0.9118800E+02  0.7818609E-02  0.1379984E+01
      -11   -1    0    0    0    0  0.00000000000E+00  0.00000000000E+00  0.35740347158E-01  0.35744000000E-01  0.51099999109E-03 0.  1.
       11   -1    0    0    0    0 -0.00000000000E+00 -0.00000000000E+00 -0.35740347158E-01  0.35744000000E-01  0.51099999109E-03 0. -1.
       22    1    1    2    0    0 -0.38596719902E-02 -0.77865822583E-02  0.34664184019E-01  0.35737005818E-01  0.00000000000E+00 0.  1.
  9000001    1    1    2    0    0  0.38596719902E-02  0.77865822583E-02 -0.34664184019E-01  0.35750994182E-01  0.10000000475E-02 0. -1.
</event>
<event>
 4   0  0.4958067E-02  0.9118800E+02  0.7818609E-02  0.1379984E+01
      -11   -1    0    0    0    0  0.00000000000E+00  0.00000000000E+00  0.35740347158E-01  0.35744000000E-01  0.51099999109E-03 0.  1.
       11   -1    0    0    0    0 -0.00000000000E+00 -0.00000000000E+00 -0.35740347158E-01  0.35744000000E-01  0.51099999109E-03 0. -1.
       22    1    1    2    0    0 -0.22992235250E-01 -0.23941899266E-01 -0.13239190407E-01  0.35737005818E-01  0.00000000000E+00 0.  1.
  9000001    1    1    2    0    0  0.22992235250E-01  0.23941899266E-01  0.13239190407E-01  0.35750994182E-01  0.10000000475E-02 0. -1.
</event>
<event>
 4   0  0.4958067E-02  0.9118800E+02  0.7818609E-02  0.1379984E+01
      -11   -1    0    0    0    0  0.00000000000E+00  0.00000000000E+00  0.35740347158E-01  0.35744000000E-01  0.51099999109E-03 0. -1.
       11   -1    0    0    0    0 -0.00000000000E+00 -0.00000000000E+00 -0.35740347158E-01  0.35744000000E-01  0.51099999109E-03 0.  1.
       22    1    1    2    0    0 -0.38707685891E-02  0.54877114981E-02 -0.35100366920E-01  0.35737005818E-01  0.00000000000E+00 0.  1.
  9000001    1    1    2    0    0  0.38707685891E-02 -0.54877114981E-02  0.35100366920E-01  0.35750994182E-01  0.10000000475E-02 0. -1.
</event>
<event>
 4   0  0.4958067E-02  0.9118800E+02  0.7818609E-02  0.1379984E+01
      -11   -1    0    0    0    0  0.00000000000E+00  0.00000000000E+00  0.35740347158E-01  0.35744000000E-01  0.51099999109E-03 0.  1.
       11   -1    0    0    0    0 -0.00000000000E+00 -0.00000000000E+00 -0.35740347158E-01  0.35744000000E-01  0.51099999109E-03 0. -1.
       22    1    1    2    0    0 -0.17710621161E-02  0.49602456836E-02  0.35346752137E-01  0.35737005818E-01  0.00000000000E+00 0.  1.
  9000001    1    1    2    0    0  0.17710621161E-02 -0.49602456836E-02 -0.35346752137E-01  0.35750994182E-01  0.10000000475E-02 0. -1.
</event>
<event>
 4   0  0.4958067E-02  0.9118800E+02  0.7818609E-02  0.1379984E+01
      -11   -1    0    0    0    0  0.00000000000E+00  0.00000000000E+00  0.35740347158E-01  0.35744000000E-01  0.51099999109E-03 0.  1.
       11   -1    0    0    0    0 -0.00000000000E+00 -0.00000000000E+00 -0.35740347158E-01  0.35744000000E-01  0.51099999109E-03 0. -1.
       22    1    1    2    0    0  0.28043538276E-03 -0.30279226935E-02 -0.35607395651E-01  0.35737005818E-01  0.00000000000E+00 0. -1.
  9000001    1    1    2    0    0 -0.28043538276E-03  0.30279226935E-02  0.35607395651E-01  0.35750994182E-01  0.10000000475E-02 0.  1.
</event>
<event>
 4   0  0.4958067E-02  0.9118800E+02  0.7818609E-02  0.1379984E+01
      -11   -1    0    0    0    0  0.00000000000E+00  0.00000000000E+00  0.35740347158E-01  0.35744000000E-01  0.51099999109E-03 0. -1.
       11   -1    0    0    0    0 -0.00000000000E+00 -0.00000000000E+00 -0.35740347158E-01  0.35744000000E-01  0.51099999109E-03 0.  1.
       22    1    1    2    0    0 -0.14461928462E-01  0.74168433644E-04 -0.32679974129E-01  0.35737005818E-01  0.00000000000E+00 0.  1.
  9000001    1    1    2    0    0  0.14461928462E-01 -0.74168433644E-04  0.32679974129E-01  0.35750994182E-01  0.10000000475E-02 0. -1.
</event>
<event>
 4   0  0.4958067E-02  0.9118800E+02  0.7818609E-02  0.1379984E+01
      -11   -1    0    0    0    0  0.00000000000E+00  0.00000000000E+00  0.35740347158E-01  0.35744000000E-01  0.51099999109E-03 0. -1.
       11   -1    0    0    0    0 -0.00000000000E+00 -0.00000000000E+00 -0.35740347158E-01  0.35744000000E-01  0.51099999109E-03 0.  1.
       22    1    1    2    0    0  0.32846127401E-02  0.23937266594E-03 -0.35584935081E-01  0.35737005818E-01  0.00000000000E+00 0.  1.
  9000001    1    1    2    0    0 -0.32846127401E-02 -0.23937266594E-03  0.35584935081E-01  0.35750994182E-01  0.10000000475E-02 0. -1.
</event>
<event>
 4   0  0.4958067E-02  0.9118800E+02  0.7818609E-02  0.1379984E+01
      -11   -1    0    0    0    0  0.00000000000E+00  0.00000000000E+00  0.35740347158E-01  0.35744000000E-01  0.51099999109E-03 0.  1.
       11   -1    0    0    0    0 -0.00000000000E+00 -0.00000000000E+00 -0.35740347158E-01  0.35744000000E-01  0.51099999109E-03 0. -1.
       22    1    1    2    0    0 -0.29739628568E-01 -0.11893929055E-02  0.19780632498E-01  0.35737005818E-01  0.00000000000E+00 0.  1.
  9000001    1    1    2    0    0  0.29739628568E-01  0.11893929055E-02 -0.19780632498E-01  0.35750994182E-01  0.10000000475E-02 0. -1.
</event>
<event>
 4   0  0.4958067E-02  0.9118800E+02  0.7818609E-02  0.1379984E+01
      -11   -1    0    0    0    0  0.00000000000E+00  0.00000000000E+00  0.35740347158E-01  0.35744000000E-01  0.51099999109E-03 0. -1.
       11   -1    0    0    0    0 -0.00000000000E+00 -0.00000000000E+00 -0.35740347158E-01  0.35744000000E-01  0.51099999109E-03 0.  1.
       22    1    1    2    0    0  0.21267034182E-02  0.25935979168E-02 -0.35579263164E-01  0.35737005818E-01  0.00000000000E+00 0.  1.
  9000001    1    1    2    0    0 -0.21267034182E-02 -0.25935979168E-02  0.35579263164E-01  0.35750994182E-01  0.10000000475E-02 0. -1.
</event>
<event>
 4   0  0.4958067E-02  0.9118800E+02  0.7818609E-02  0.1379984E+01
      -11   -1    0    0    0    0  0.00000000000E+00  0.00000000000E+00  0.35740347158E-01  0.35744000000E-01  0.51099999109E-03 0. -1.
       11   -1    0    0    0    0 -0.00000000000E+00 -0.00000000000E+00 -0.35740347158E-01  0.35744000000E-01  0.51099999109E-03 0.  1.
       22    1    1    2    0    0 -0.49210636595E-02  0.36664912228E-02  0.35206157976E-01  0.35737005818E-01  0.00000000000E+00 0. -1.
  9000001    1    1    2    0    0  0.49210636595E-02 -0.36664912228E-02 -0.35206157976E-01  0.35750994182E-01  0.10000000475E-02 0.  1.
</event>
<event>
 4   0  0.4958067E-02  0.9118800E+02  0.7818609E-02  0.1379984E+01
      -11   -1    0    0    0    0  0.00000000000E+00  0.00000000000E+00  0.35740347158E-01  0.35744000000E-01  0.51099999109E-03 0.  1.
       11   -1    0    0    0    0 -0.00000000000E+00 -0.00000000000E+00 -0.35740347158E-01  0.35744000000E-01  0.51099999109E-03 0. -1.
       22    1    1    2    0    0  0.39261407348E-02 -0.20358110162E-02  0.35462296560E-01  0.35737005818E-01  0.00000000000E+00 0.  1.
  9000001    1    1    2    0    0 -0.39261407348E-02  0.20358110162E-02 -0.35462296560E-01  0.35750994182E-01  0.10000000475E-02 0. -1.
</event>
<event>
 4   0  0.4958067E-02  0.9118800E+02  0.7818609E-02  0.1379984E+01
      -11   -1    0    0    0    0  0.00000000000E+00  0.00000000000E+00  0.35740347158E-01  0.35744000000E-01  0.51099999109E-03 0.  1.
       11   -1    0    0    0    0 -0.00000000000E+00 -0.00000000000E+00 -0.35740347158E-01  0.35744000000E-01  0.51099999109E-03 0. -1.
       22    1    1    2    0    0  0.32191605024E-02  0.22310508744E-01  0.27731061828E-01  0.35737005818E-01  0.00000000000E+00 0.  1.
  9000001    1    1    2    0    0 -0.32191605024E-02 -0.22310508744E-01 -0.27731061828E-01  0.35750994182E-01  0.10000000475E-02 0. -1.
</event>
<event>
 4   0  0.4958067E-02  0.9118800E+02  0.7818609E-02  0.1379984E+01
      -11   -1    0    0    0    0  0.00000000000E+00  0.00000000000E+00  0.35740347158E-01  0.35744000000E-01  0.51099999109E-03 0.  1.
       11   -1    0    0    0    0 -0.00000000000E+00 -0.00000000000E+00 -0.35740347158E-01  0.35744000000E-01  0.51099999109E-03 0. -1.
       22    1    1    2    0    0 -0.19712387517E-01 -0.13463590376E-01 -0.26594869757E-01  0.35737005818E-01  0.00000000000E+00 0. -1.
  9000001    1    1    2    0    0  0.19712387517E-01  0.13463590376E-01  0.26594869757E-01  0.35750994182E-01  0.10000000475E-02 0.  1.
</event>
<event>
 4   0  0.4958067E-02  0.9118800E+02  0.7818609E-02  0.1379984E+01
      -11   -1    0    0    0    0  0.00000000000E+00  0.00000000000E+00  0.35740347158E-01  0.35744000000E-01  0.51099999109E-03 0.  1.
       11   -1    0    0    0    0 -0.00000000000E+00 -0.00000000000E+00 -0.35740347158E-01  0.35744000000E-01  0.51099999109E-03 0. -1.
       22    1    1    2    0    0 -0.10319596253E-01  0.83165483632E-02  0.33188470007E-01  0.35737005818E-01  0.00000000000E+00 0.  1.
  9000001    1    1    2    0    0  0.10319596253E-01 -0.83165483632E-02 -0.33188470007E-01  0.35750994182E-01  0.10000000475E-02 0. -1.
</event>
<event>
 4   0  0.4958067E-02  0.9118800E+02  0.7818609E-02  0.1379984E+01
      -11   -1    0    0    0    0  0.00000000000E+00  0.00000000000E+00  0.35740347158E-01  0.35744000000E-01  0.51099999109E-03 0. -1.
       11   -1    0    0    0    0 -0.00000000000E+00 -0.00000000000E+00 -0.35740347158E-01  0.35744000000E-01  0.51099999109E-03 0.  1.
       22    1    1    2    0    0 -0.95805820958E-02  0.13069507937E-01 -0.31851750248E-01  0.35737005818E-01  0.00000000000E+00 0.  1.
  9000001    1    1    2    0    0  0.95805820958E-02 -0.13069507937E-01  0.31851750248E-01  0.35750994182E-01  0.10000000475E-02 0. -1.
</event>
<event>
 4   0  0.4958067E-02  0.9118800E+02  0.7818609E-02  0.1379984E+01
      -11   -1    0    0    0    0  0.00000000000E+00  0.00000000000E+00  0.35740347158E-01  0.35744000000E-01  0.51099999109E-03 0.  1.
       11   -1    0    0    0    0 -0.00000000000E+00 -0.00000000000E+00 -0.35740347158E-01  0.35744000000E-01  0.51099999109E-03 0. -1.
       22    1    1    2    0    0  0.22519630964E-02  0.66811363755E-02  0.35034620932E-01  0.35737005818E-01  0.00000000000E+00 0.  1.
  9000001    1    1    2    0    0 -0.22519630964E-02 -0.66811363755E-02 -0.35034620932E-01  0.35750994182E-01  0.10000000475E-02 0. -1.
</event>
<event>
 4   0  0.4958067E-02  0.9118800E+02  0.7818609E-02  0.1379984E+01
      -11   -1    0    0    0    0  0.00000000000E+00  0.00000000000E+00  0.35740347158E-01  0.35744000000E-01  0.51099999109E-03 0. -1.
       11   -1    0    0    0    0 -0.00000000000E+00 -0.00000000000E+00 -0.35740347158E-01  0.35744000000E-01  0.51099999109E-03 0.  1.
       22    1    1    2    0    0  0.86117092961E-02  0.38283666680E-02  0.34471954637E-01  0.35737005818E-01  0.00000000000E+00 0. -1.
  9000001    1    1    2    0    0 -0.86117092961E-02 -0.38283666680E-02 -0.34471954637E-01  0.35750994182E-01  0.10000000475E-02 0.  1.
</event>
<event>
 4   0  0.4958067E-02  0.9118800E+02  0.7818609E-02  0.1379984E+01
      -11   -1    0    0    0    0  0.00000000000E+00  0.00000000000E+00  0.35740347158E-01  0.35744000000E-01  0.51099999109E-03 0. -1.
       11   -1    0    0    0    0 -0.00000000000E+00 -0.00000000000E+00 -0.35740347158E-01  0.35744000000E-01  0.51099999109E-03 0.  1.
       22    1    1    2    0    0  0.37718264086E-02  0.38085486878E-02  0.35332730822E-01  0.35737005818E-01  0.00000000000E+00 0. -1.
  9000001    1    1    2    0    0 -0.37718264086E-02 -0.38085486878E-02 -0.35332730822E-01  0.35750994182E-01  0.10000000475E-02 0.  1.
</event>
<event>
 4   0  0.4958067E-02  0.9118800E+02  0.7818609E-02  0.1379984E+01
      -11   -1    0    0    0    0  0.00000000000E+00  0.00000000000E+00  0.35740347158E-01  0.35744000000E-01  0.51099999109E-03 0.  1.
       11   -1    0    0    0    0 -0.00000000000E+00 -0.00000000000E+00 -0.35740347158E-01  0.35744000000E-01  0.51099999109E-03 0. -1.
       22    1    1    2    0    0  0.17613967482E-02  0.75441779326E-02  0.34887196014E-01  0.35737005818E-01  0.00000000000E+00 0.  1.
  9000001    1    1    2    0    0 -0.17613967482E-02 -0.75441779326E-02 -0.34887196014E-01  0.35750994182E-01  0.10000000475E-02 0. -1.
</event>
<event>
 4   0  0.4958067E-02  0.9118800E+02  0.7818609E-02  0.1379984E+01
      -11   -1    0    0    0    0  0.00000000000E+00  0.00000000000E+00  0.35740347158E-01  0.35744000000E-01  0.51099999109E-03 0. -1.
       11   -1    0    0    0    0 -0.00000000000E+00 -0.00000000000E+00 -0.35740347158E-01  0.35744000000E-01  0.51099999109E-03 0.  1.
       22    1    1    2    0    0  0.23172988164E-02  0.22157571238E-02  0.35592894395E-01  0.35737005818E-01  0.00000000000E+00 0. -1.
  9000001    1    1    2    0    0 -0.23172988164E-02 -0.22157571238E-02 -0.35592894395E-01  0.35750994182E-01  0.10000000475E-02 0.  1.
</event>
<event>
 4   0  0.4958067E-02  0.9118800E+02  0.7818609E-02  0.1379984E+01
      -11   -1    0    0    0    0  0.00000000000E+00  0.00000000000E+00  0.35740347158E-01  0.35744000000E-01  0.51099999109E-03 0. -1.
       11   -1    0    0    0    0 -0.00000000000E+00 -0.00000000000E+00 -0.35740347158E-01  0.35744000000E-01  0.51099999109E-03 0.  1.
       22    1    1    2    0    0  0.14183269184E-02  0.77940100864E-02  0.34847888607E-01  0.35737005818E-01  0.00000000000E+00 0. -1.
  9000001    1    1    2    0    0 -0.14183269184E-02 -0.77940100864E-02 -0.34847888607E-01  0.35750994182E-01  0.10000000475E-02 0.  1.
</event>
<event>
 4   0  0.4958067E-02  0.9118800E+02  0.7818609E-02  0.1379984E+01
      -11   -1    0    0    0    0  0.00000000000E+00  0.00000000000E+00  0.35740347158E-01  0.35744000000E-01  0.51099999109E-03 0.  1.
       11   -1    0    0    0    0 -0.00000000000E+00 -0.00000000000E+00 -0.35740347158E-01  0.35744000000E-01  0.51099999109E-03 0. -1.
       22    1    1    2    0    0 -0.83964945577E-02  0.75349737641E-02 -0.33909536039E-01  0.35737005818E-01  0.00000000000E+00 0. -1.
  9000001    1    1    2    0    0  0.83964945577E-02 -0.75349737641E-02  0.33909536039E-01  0.35750994182E-01  0.10000000475E-02 0.  1.
</event>
<event>
 4   0  0.4958067E-02  0.9118800E+02  0.7818609E-02  0.1379984E+01
      -11   -1    0    0    0    0  0.00000000000E+00  0.00000000000E+00  0.35740347158E-01  0.35744000000E-01  0.51099999109E-03 0.  1.
       11   -1    0    0    0    0 -0.00000000000E+00 -0.00000000000E+00 -0.35740347158E-01  0.35744000000E-01  0.51099999109E-03 0. -1.
       22    1    1    2    0    0 -0.52376568473E-02 -0.85774541147E-03 -0.35340696207E-01  0.35737005818E-01  0.00000000000E+00 0. -1.
  9000001    1    1    2    0    0  0.52376568473E-02  0.85774541147E-03  0.35340696207E-01  0.35750994182E-01  0.10000000475E-02 0.  1.
</event>
<event>
 4   0  0.4958067E-02  0.9118800E+02  0.7818609E-02  0.1379984E+01
      -11   -1    0    0    0    0  0.00000000000E+00  0.00000000000E+00  0.35740347158E-01  0.35744000000E-01  0.51099999109E-03 0. -1.
       11   -1    0    0    0    0 -0.00000000000E+00 -0.00000000000E+00 -0.35740347158E-01  0.35744000000E-01  0.51099999109E-03 0.  1.
       22    1    1    2    0    0  0.47437009865E-02 -0.16965096607E-01 -0.31093671107E-01  0.35737005818E-01  0.00000000000E+00 0.  1.
  9000001    1    1    2    0    0 -0.47437009865E-02  0.16965096607E-01  0.31093671107E-01  0.35750994182E-01  0.10000000475E-02 0. -1.
</event>
<event>
 4   0  0.4958067E-02  0.9118800E+02  0.7818609E-02  0.1379984E+01
      -11   -1    0    0    0    0  0.00000000000E+00  0.00000000000E+00  0.35740347158E-01  0.35744000000E-01  0.51099999109E-03 0.  1.
       11   -1    0    0    0    0 -0.00000000000E+00 -0.00000000000E+00 -0.35740347158E-01  0.35744000000E-01  0.51099999109E-03 0. -1.
       22    1    1    2    0    0  0.11987049000E-01  0.34455018810E-02 -0.33489890384E-01  0.35737005818E-01  0.00000000000E+00 0. -1.
  9000001    1    1    2    0    0 -0.11987049000E-01 -0.34455018810E-02  0.33489890384E-01  0.35750994182E-01  0.10000000475E-02 0.  1.
</event>
<event>
 4   0  0.4958067E-02  0.9118800E+02  0.7818609E-02  0.1379984E+01
      -11   -1    0    0    0    0  0.00000000000E+00  0.00000000000E+00  0.35740347158E-01  0.35744000000E-01  0.51099999109E-03 0.  1.
       11   -1    0    0    0    0 -0.00000000000E+00 -0.00000000000E+00 -0.35740347158E-01  0.35744000000E-01  0.51099999109E-03 0. -1.
       22    1    1    2    0    0 -0.53093005674E-02  0.10266807345E-01  0.33816232482E-01  0.35737005818E-01  0.00000000000E+00 0.  1.
  9000001    1    1    2    0    0  0.53093005674E-02 -0.10266807345E-01 -0.33816232482E-01  0.35750994182E-01  0.10000000475E-02 0. -1.
</event>
<event>
 4   0  0.4958067E-02  0.9118800E+02  0.7818609E-02  0.1379984E+01
      -11   -1    0    0    0    0  0.00000000000E+00  0.00000000000E+00  0.35740347158E-01  0.35744000000E-01  0.51099999109E-03 0.  1.
       11   -1    0    0    0    0 -0.00000000000E+00 -0.00000000000E+00 -0.35740347158E-01  0.35744000000E-01  0.51099999109E-03 0. -1.
       22    1    1    2    0    0  0.65940686281E-02 -0.19965125256E-01 -0.28897155869E-01  0.35737005818E-01  0.00000000000E+00 0. -1.
  9000001    1    1    2    0    0 -0.65940686281E-02  0.19965125256E-01  0.28897155869E-01  0.35750994182E-01  0.10000000475E-02 0.  1.
</event>
<event>
 4   0  0.4958067E-02  0.9118800E+02  0.7818609E-02  0.1379984E+01
      -11   -1    0    0    0    0  0.00000000000E+00  0.00000000000E+00  0.35740347158E-01  0.35744000000E-01  0.51099999109E-03 0.  1.
       11   -1    0    0    0    0 -0.00000000000E+00 -0.00000000000E+00 -0.35740347158E-01  0.35744000000E-01  0.51099999109E-03 0. -1.
       22    1    1    2    0    0 -0.82729329492E-03  0.47998101331E-02 -0.35403544926E-01  0.35737005818E-01  0.00000000000E+00 0. -1.
  9000001    1    1    2    0    0  0.82729329492E-03 -0.47998101331E-02  0.35403544926E-01  0.35750994182E-01  0.10000000475E-02 0.  1.
</event>
<event>
 4   0  0.4958067E-02  0.9118800E+02  0.7818609E-02  0.1379984E+01
      -11   -1    0    0    0    0  0.00000000000E+00  0.00000000000E+00  0.35740347158E-01  0.35744000000E-01  0.51099999109E-03 0. -1.
       11   -1    0    0    0    0 -0.00000000000E+00 -0.00000000000E+00 -0.35740347158E-01  0.35744000000E-01  0.51099999109E-03 0.  1.
       22    1    1    2    0    0 -0.36873342877E-02 -0.22117253742E-02 -0.35477393106E-01  0.35737005818E-01  0.00000000000E+00 0.  1.
  9000001    1    1    2    0    0  0.36873342877E-02  0.22117253742E-02  0.35477393106E-01  0.35750994182E-01  0.10000000475E-02 0. -1.
</event>
<event>
 4   0  0.4958067E-02  0.9118800E+02  0.7818609E-02  0.1379984E+01
      -11   -1    0    0    0    0  0.00000000000E+00  0.00000000000E+00  0.35740347158E-01  0.35744000000E-01  0.51099999109E-03 0. -1.
       11   -1    0    0    0    0 -0.00000000000E+00 -0.00000000000E+00 -0.35740347158E-01  0.35744000000E-01  0.51099999109E-03 0.  1.
       22    1    1    2    0    0  0.31911919592E-02  0.19802647572E-02  0.35539111275E-01  0.35737005818E-01  0.00000000000E+00 0. -1.
  9000001    1    1    2    0    0 -0.31911919592E-02 -0.19802647572E-02 -0.35539111275E-01  0.35750994182E-01  0.10000000475E-02 0.  1.
</event>
<event>
 4   0  0.4958067E-02  0.9118800E+02  0.7818609E-02  0.1379984E+01
      -11   -1    0    0    0    0  0.00000000000E+00  0.00000000000E+00  0.35740347158E-01  0.35744000000E-01  0.51099999109E-03 0.  1.
       11   -1    0    0    0    0 -0.00000000000E+00 -0.00000000000E+00 -0.35740347158E-01  0.35744000000E-01  0.51099999109E-03 0. -1.
       22    1    1    2    0    0  0.10766338283E-02  0.49241887064E-02 -0.35379751413E-01  0.35737005818E-01  0.00000000000E+00 0. -1.
  9000001    1    1    2    0    0 -0.10766338283E-02 -0.49241887064E-02  0.35379751413E-01  0.35750994182E-01  0.10000000475E-02 0.  1.
</event>
<event>
 4   0  0.4958067E-02  0.9118800E+02  0.7818609E-02  0.1379984E+01
      -11   -1    0    0    0    0  0.00000000000E+00  0.00000000000E+00  0.35740347158E-01  0.35744000000E-01  0.51099999109E-03 0. -1.
       11   -1    0    0    0    0 -0.00000000000E+00 -0.00000000000E+00 -0.35740347158E-01  0.35744000000E-01  0.51099999109E-03 0.  1.
       22    1    1    2    0    0 -0.36250077814E-02  0.26203841296E-02  0.35455979615E-01  0.35737005818E-01  0.00000000000E+00 0. -1.
  9000001    1    1    2    0    0  0.36250077814E-02 -0.26203841296E-02 -0.35455979615E-01  0.35750994182E-01  0.10000000475E-02 0.  1.
</event>
<event>
 4   0  0.4958067E-02  0.9118800E+02  0.7818609E-02  0.1379984E+01
      -11   -1    0    0    0    0  0.00000000000E+00  0.00000000000E+00  0.35740347158E-01  0.35744000000E-01  0.51099999109E-03 0. -1.
       11   -1    0    0    0    0 -0.00000000000E+00 -0.00000000000E+00 -0.35740347158E-01  0.35744000000E-01  0.51099999109E-03 0.  1.
       22    1    1    2    0    0  0.43675663019E-02  0.67974954671E-02  0.34811664781E-01  0.35737005818E-01  0.00000000000E+00 0. -1.
  9000001    1    1    2    0    0 -0.43675663019E-02 -0.67974954671E-02 -0.34811664781E-01  0.35750994182E-01  0.10000000475E-02 0.  1.
</event>
<event>
 4   0  0.4958067E-02  0.9118800E+02  0.7818609E-02  0.1379984E+01
      -11   -1    0    0    0    0  0.00000000000E+00  0.00000000000E+00  0.35740347158E-01  0.35744000000E-01  0.51099999109E-03 0. -1.
       11   -1    0    0    0    0 -0.00000000000E+00 -0.00000000000E+00 -0.35740347158E-01  0.35744000000E-01  0.51099999109E-03 0.  1.
       22    1    1    2    0    0  0.38187179332E-02  0.65064824625E-02  0.34931599794E-01  0.35737005818E-01  0.00000000000E+00 0. -1.
  9000001    1    1    2    0    0 -0.38187179332E-02 -0.65064824625E-02 -0.34931599794E-01  0.35750994182E-01  0.10000000475E-02 0.  1.
</event>
<event>
 4   0  0.4958067E-02  0.9118800E+02  0.7818609E-02  0.1379984E+01
      -11   -1    0    0    0    0  0.00000000000E+00  0.00000000000E+00  0.35740347158E-01  0.35744000000E-01  0.51099999109E-03 0.  1.
       11   -1    0    0    0    0 -0.00000000000E+00 -0.00000000000E+00 -0.35740347158E-01  0.35744000000E-01  0.51099999109E-03 0. -1.
       22    1    1    2    0    0 -0.31569963750E-01  0.35630320796E-02  0.16363855783E-01  0.35737005818E-01  0.00000000000E+00 0.  1.
  9000001    1    1    2    0    0  0.31569963750E-01 -0.35630320796E-02 -0.16363855783E-01  0.35750994182E-01  0.10000000475E-02 0. -1.
</event>
<event>
 4   0  0.4958067E-02  0.9118800E+02  0.7818609E-02  0.1379984E+01
      -11   -1    0    0    0    0  0.00000000000E+00  0.00000000000E+00  0.35740347158E-01  0.35744000000E-01  0.51099999109E-03 0. -1.
       11   -1    0    0    0    0 -0.00000000000E+00 -0.00000000000E+00 -0.35740347158E-01  0.35744000000E-01  0.51099999109E-03 0.  1.
       22    1    1    2    0    0  0.10945279457E-03  0.45208362827E-02  0.35449734051E-01  0.35737005818E-01  0.00000000000E+00 0. -1.
  9000001    1    1    2    0    0 -0.10945279457E-03 -0.45208362827E-02 -0.35449734051E-01  0.35750994182E-01  0.10000000475E-02 0.  1.
</event>
<event>
 4   0  0.4958067E-02  0.9118800E+02  0.7818609E-02  0.1379984E+01
      -11   -1    0    0    0    0  0.00000000000E+00  0.00000000000E+00  0.35740347158E-01  0.35744000000E-01  0.51099999109E-03 0.  1.
       11   -1    0    0    0    0 -0.00000000000E+00 -0.00000000000E+00 -0.35740347158E-01  0.35744000000E-01  0.51099999109E-03 0. -1.
       22    1    1    2    0    0 -0.22386811290E-01 -0.20218754208E-01  0.19161582488E-01  0.35737005818E-01  0.00000000000E+00 0.  1.
  9000001    1    1    2    0    0  0.22386811290E-01  0.20218754208E-01 -0.19161582488E-01  0.35750994182E-01  0.10000000475E-02 0. -1.
</event>
<event>
 4   0  0.4958067E-02  0.9118800E+02  0.7818609E-02  0.1379984E+01
      -11   -1    0    0    0    0  0.00000000000E+00  0.00000000000E+00  0.35740347158E-01  0.35744000000E-01  0.51099999109E-03 0.  1.
       11   -1    0    0    0    0 -0.00000000000E+00 -0.00000000000E+00 -0.35740347158E-01  0.35744000000E-01  0.51099999109E-03 0. -1.
       22    1    1    2    0    0  0.32000325011E-02  0.44460638865E-03  0.35590668749E-01  0.35737005818E-01  0.00000000000E+00 0.  1.
  9000001    1    1    2    0    0 -0.32000325011E-02 -0.44460638865E-03 -0.35590668749E-01  0.35750994182E-01  0.10000000475E-02 0. -1.
</event>
<event>
 4   0  0.4958067E-02  0.9118800E+02  0.7818609E-02  0.1379984E+01
      -11   -1    0    0    0    0  0.00000000000E+00  0.00000000000E+00  0.35740347158E-01  0.35744000000E-01  0.51099999109E-03 0. -1.
       11   -1    0    0    0    0 -0.00000000000E+00 -0.00000000000E+00 -0.35740347158E-01  0.35744000000E-01  0.51099999109E-03 0.  1.
       22    1    1    2    0    0  0.63509441736E-02  0.72409868750E-02 -0.34414636451E-01  0.35737005818E-01  0.00000000000E+00 0.  1.
  9000001    1    1    2    0    0 -0.63509441736E-02 -0.72409868750E-02  0.34414636451E-01  0.35750994182E-01  0.10000000475E-02 0. -1.
</event>
<event>
 4   0  0.4958067E-02  0.9118800E+02  0.7818609E-02  0.1379984E+01
      -11   -1    0    0    0    0  0.00000000000E+00  0.00000000000E+00  0.35740347158E-01  0.35744000000E-01  0.51099999109E-03 0. -1.
       11   -1    0    0    0    0 -0.00000000000E+00 -0.00000000000E+00 -0.35740347158E-01  0.35744000000E-01  0.51099999109E-03 0.  1.
       22    1    1    2    0    0 -0.93846213985E-02 -0.31011202871E-01  0.15078718864E-01  0.35737005818E-01  0.00000000000E+00 0. -1.
  9000001    1    1    2    0    0  0.93846213985E-02  0.31011202871E-01 -0.15078718864E-01  0.35750994182E-01  0.10000000475E-02 0.  1.
</event>
<event>
 4   0  0.4958067E-02  0.9118800E+02  0.7818609E-02  0.1379984E+01
      -11   -1    0    0    0    0  0.00000000000E+00  0.00000000000E+00  0.35740347158E-01  0.35744000000E-01  0.51099999109E-03 0. -1.
       11   -1    0    0    0    0 -0.00000000000E+00 -0.00000000000E+00 -0.35740347158E-01  0.35744000000E-01  0.51099999109E-03 0.  1.
       22    1    1    2    0    0 -0.12246021114E-01 -0.20142894696E-01  0.26859492642E-01  0.35737005818E-01  0.00000000000E+00 0. -1.
  9000001    1    1    2    0    0  0.12246021114E-01  0.20142894696E-01 -0.26859492642E-01  0.35750994182E-01  0.10000000475E-02 0.  1.
</event>
<event>
 4   0  0.4958067E-02  0.9118800E+02  0.7818609E-02  0.1379984E+01
      -11   -1    0    0    0    0  0.00000000000E+00  0.00000000000E+00  0.35740347158E-01  0.35744000000E-01  0.51099999109E-03 0. -1.
       11   -1    0    0    0    0 -0.00000000000E+00 -0.00000000000E+00 -0.35740347158E-01  0.35744000000E-01  0.51099999109E-03 0.  1.
       22    1    1    2    0    0  0.14981723415E-01  0.31132465032E-01 -0.91351611597E-02  0.35737005818E-01  0.00000000000E+00 0.  1.
  9000001    1    1    2    0    0 -0.14981723415E-01 -0.31132465032E-01  0.91351611597E-02  0.35750994182E-01  0.10000000475E-02 0. -1.
</event>
<event>
 4   0  0.4958067E-02  0.9118800E+02  0.7818609E-02  0.1379984E+01
      -11   -1    0    0    0    0  0.00000000000E+00  0.00000000000E+00  0.35740347158E-01  0.35744000000E-01  0.51099999109E-03 0.  1.
       11   -1    0    0    0    0 -0.00000000000E+00 -0.00000000000E+00 -0.35740347158E-01  0.35744000000E-01  0.51099999109E-03 0. -1.
       22    1    1    2    0    0  0.35498359409E-02  0.15021234939E-02 -0.35528521988E-01  0.35737005818E-01  0.00000000000E+00 0. -1.
  9000001    1    1    2    0    0 -0.35498359409E-02 -0.15021234939E-02  0.35528521988E-01  0.35750994182E-01  0.10000000475E-02 0.  1.
</event>
<event>
 4   0  0.4958067E-02  0.9118800E+02  0.7818609E-02  0.1379984E+01
      -11   -1    0    0    0    0  0.00000000000E+00  0.00000000000E+00  0.35740347158E-01  0.35744000000E-01  0.51099999109E-03 0.  1.
       11   -1    0    0    0    0 -0.00000000000E+00 -0.00000000000E+00 -0.35740347158E-01  0.35744000000E-01  0.51099999109E-03 0. -1.
       22    1    1    2    0    0  0.22400438563E-02  0.28267120948E-02 -0.35554542426E-01  0.35737005818E-01  0.00000000000E+00 0. -1.
  9000001    1    1    2    0    0 -0.22400438563E-02 -0.28267120948E-02  0.35554542426E-01  0.35750994182E-01  0.10000000475E-02 0.  1.
</event>
<event>
 4   0  0.4958067E-02  0.9118800E+02  0.7818609E-02  0.1379984E+01
      -11   -1    0    0    0    0  0.00000000000E+00  0.00000000000E+00  0.35740347158E-01  0.35744000000E-01  0.51099999109E-03 0. -1.
       11   -1    0    0    0    0 -0.00000000000E+00 -0.00000000000E+00 -0.35740347158E-01  0.35744000000E-01  0.51099999109E-03 0.  1.
       22    1    1    2    0    0  0.28667709623E-02  0.14612045017E-02 -0.35591854272E-01  0.35737005818E-01  0.00000000000E+00 0.  1.
  9000001    1    1    2    0    0 -0.28667709623E-02 -0.14612045017E-02  0.35591854272E-01  0.35750994182E-01  0.10000000475E-02 0. -1.
</event>
<event>
 4   0  0.4958067E-02  0.9118800E+02  0.7818609E-02  0.1379984E+01
      -11   -1    0    0    0    0  0.00000000000E+00  0.00000000000E+00  0.35740347158E-01  0.35744000000E-01  0.51099999109E-03 0.  1.
       11   -1    0    0    0    0 -0.00000000000E+00 -0.00000000000E+00 -0.35740347158E-01  0.35744000000E-01  0.51099999109E-03 0. -1.
       22    1    1    2    0    0  0.67110480476E-03  0.15252207520E-01 -0.32311814696E-01  0.35737005818E-01  0.00000000000E+00 0. -1.
  9000001    1    1    2    0    0 -0.67110480476E-03 -0.15252207520E-01  0.32311814696E-01  0.35750994182E-01  0.10000000475E-02 0.  1.
</event>
<event>
 4   0  0.4958067E-02  0.9118800E+02  0.7818609E-02  0.1379984E+01
      -11   -1    0    0    0    0  0.00000000000E+00  0.00000000000E+00  0.35740347158E-01  0.35744000000E-01  0.51099999109E-03 0. -1.
       11   -1    0    0    0    0 -0.00000000000E+00 -0.00000000000E+00 -0.35740347158E-01  0.35744000000E-01  0.51099999109E-03 0.  1.
       22    1    1    2    0    0 -0.20081548460E-01  0.13491330352E-01 -0.26303022672E-01  0.35737005818E-01  0.00000000000E+00 0.  1.
  9000001    1    1    2    0    0  0.20081548460E-01 -0.13491330352E-01  0.26303022672E-01  0.35750994182E-01  0.10000000475E-02 0. -1.
</event>
<event>
 4   0  0.4958067E-02  0.9118800E+02  0.7818609E-02  0.1379984E+01
      -11   -1    0    0    0    0  0.00000000000E+00  0.00000000000E+00  0.35740347158E-01  0.35744000000E-01  0.51099999109E-03 0. -1.
       11   -1    0    0    0    0 -0.00000000000E+00 -0.00000000000E+00 -0.35740347158E-01  0.35744000000E-01  0.51099999109E-03 0.  1.
       22    1    1    2    0    0 -0.26296248614E-02  0.18547969542E-01 -0.30433394221E-01  0.35737005818E-01  0.00000000000E+00 0.  1.
  9000001    1    1    2    0    0  0.26296248614E-02 -0.18547969542E-01  0.30433394221E-01  0.35750994182E-01  0.10000000475E-02 0. -1.
</event>
<event>
 4   0  0.4958067E-02  0.9118800E+02  0.7818609E-02  0.1379984E+01
      -11   -1    0    0    0    0  0.00000000000E+00  0.00000000000E+00  0.35740347158E-01  0.35744000000E-01  0.51099999109E-03 0.  1.
       11   -1    0    0    0    0 -0.00000000000E+00 -0.00000000000E+00 -0.35740347158E-01  0.35744000000E-01  0.51099999109E-03 0. -1.
       22    1    1    2    0    0 -0.11468038866E-01  0.64749278136E-02 -0.33221875011E-01  0.35737005818E-01  0.00000000000E+00 0. -1.
  9000001    1    1    2    0    0  0.11468038866E-01 -0.64749278136E-02  0.33221875011E-01  0.35750994182E-01  0.10000000475E-02 0.  1.
</event>
<event>
 4   0  0.4958067E-02  0.9118800E+02  0.7818609E-02  0.1379984E+01
      -11   -1    0    0    0    0  0.00000000000E+00  0.00000000000E+00  0.35740347158E-01  0.35744000000E-01  0.51099999109E-03 0.  1.
       11   -1    0    0    0    0 -0.00000000000E+00 -0.00000000000E+00 -0.35740347158E-01  0.35744000000E-01  0.51099999109E-03 0. -1.
       22    1    1    2    0    0 -0.17510548285E-01 -0.14109677492E-01  0.27774651838E-01  0.35737005818E-01  0.00000000000E+00 0.  1.
  9000001    1    1    2    0    0  0.17510548285E-01  0.14109677492E-01 -0.27774651838E-01  0.35750994182E-01  0.10000000475E-02 0. -1.
</event>
<event>
 4   0  0.4958067E-02  0.9118800E+02  0.7818609E-02  0.1379984E+01
      -11   -1    0    0    0    0  0.00000000000E+00  0.00000000000E+00  0.35740347158E-01  0.35744000000E-01  0.51099999109E-03 0. -1.
       11   -1    0    0    0    0 -0.00000000000E+00 -0.00000000000E+00 -0.35740347158E-01  0.35744000000E-01  0.51099999109E-03 0.  1.
       22    1    1    2    0    0 -0.16668005812E-02  0.42838070176E-02  0.35440151779E-01  0.35737005818E-01  0.00000000000E+00 0. -1.
  9000001    1    1    2    0    0  0.16668005812E-02 -0.42838070176E-02 -0.35440151779E-01  0.35750994182E-01  0.10000000475E-02 0.  1.
</event>
<event>
 4   0  0.4958067E-02  0.9118800E+02  0.7818609E-02  0.1379984E+01
      -11   -1    0    0    0    0  0.00000000000E+00  0.00000000000E+00  0.35740347158E-01  0.35744000000E-01  0.51099999109E-03 0.  1.
       11   -1    0    0    0    0 -0.00000000000E+00 -0.00000000000E+00 -0.35740347158E-01  0.35744000000E-01  0.51099999109E-03 0. -1.
       22    1    1    2    0    0 -0.17867428447E-01 -0.14162266574E-01  0.27519425703E-01  0.35737005818E-01  0.00000000000E+00 0.  1.
  9000001    1    1    2    0    0  0.17867428447E-01  0.14162266574E-01 -0.27519425703E-01  0.35750994182E-01  0.10000000475E-02 0. -1.
</event>
<event>
 4   0  0.4958067E-02  0.9118800E+02  0.7818609E-02  0.1379984E+01
      -11   -1    0    0    0    0  0.00000000000E+00  0.00000000000E+00  0.35740347158E-01  0.35744000000E-01  0.51099999109E-03 0.  1.
       11   -1    0    0    0    0 -0.00000000000E+00 -0.00000000000E+00 -0.35740347158E-01  0.35744000000E-01  0.51099999109E-03 0. -1.
       22    1    1    2    0    0 -0.47369775966E-02  0.88277025127E-03  0.35410667105E-01  0.35737005818E-01  0.00000000000E+00 0.  1.
  9000001    1    1    2    0    0  0.47369775966E-02 -0.88277025127E-03 -0.35410667105E-01  0.35750994182E-01  0.10000000475E-02 0. -1.
</event>
<event>
 4   0  0.4958067E-02  0.9118800E+02  0.7818609E-02  0.1379984E+01
      -11   -1    0    0    0    0  0.00000000000E+00  0.00000000000E+00  0.35740347158E-01  0.35744000000E-01  0.51099999109E-03 0.  1.
       11   -1    0    0    0    0 -0.00000000000E+00 -0.00000000000E+00 -0.35740347158E-01  0.35744000000E-01  0.51099999109E-03 0. -1.
       22    1    1    2    0    0 -0.79545877270E-02  0.14110946939E-01 -0.31854972853E-01  0.35737005818E-01  0.00000000000E+00 0. -1.
  9000001    1    1    2    0    0  0.79545877270E-02 -0.14110946939E-01  0.31854972853E-01  0.35750994182E-01  0.10000000475E-02 0.  1.
</event>
<event>
 4   0  0.4958067E-02  0.9118800E+02  0.7818609E-02  0.1379984E+01
      -11   -1    0    0    0    0  0.00000000000E+00  0.00000000000E+00  0.35740347158E-01  0.35744000000E-01  0.51099999109E-03 0. -1.
       11   -1    0    0    0    0 -0.00000000000E+00 -0.00000000000E+00 -0.35740347158E-01  0.35744000000E-01  0.51099999109E-03 0.  1.
       22    1    1    2    0    0 -0.15800921614E-01 -0.13619416280E-02 -0.32025139750E-01  0.35737005818E-01  0.00000000000E+00 0.  1.
  9000001    1    1    2    0    0  0.15800921614E-01  0.13619416280E-02  0.32025139750E-01  0.35750994182E-01  0.10000000475E-02 0. -1.
</event>
<event>
 4   0  0.4958067E-02  0.9118800E+02  0.7818609E-02  0.1379984E+01
      -11   -1    0    0    0    0  0.00000000000E+00  0.00000000000E+00  0.35740347158E-01  0.35744000000E-01  0.51099999109E-03 0.  1.
       11   -1    0    0    0    0 -0.00000000000E+00 -0.00000000000E+00 -0.35740347158E-01  0.35744000000E-01  0.51099999109E-03 0. -1.
       22    1    1    2    0    0 -0.11709833411E-01 -0.86402443809E-02  0.32639846253E-01  0.35737005818E-01  0.00000000000E+00 0.  1.
  9000001    1    1    2    0    0  0.11709833411E-01  0.86402443809E-02 -0.32639846253E-01  0.35750994182E-01  0.10000000475E-02 0. -1.
</event>
<event>
 4   0  0.4958067E-02  0.9118800E+02  0.7818609E-02  0.1379984E+01
      -11   -1    0    0    0    0  0.00000000000E+00  0.00000000000E+00  0.35740347158E-01  0.35744000000E-01  0.51099999109E-03 0. -1.
       11   -1    0    0    0    0 -0.00000000000E+00 -0.00000000000E+00 -0.35740347158E-01  0.35744000000E-01  0.51099999109E-03 0.  1.
       22    1    1    2    0    0  0.27156643144E-02 -0.10147611455E-01  0.34158230838E-01  0.35737005818E-01  0.00000000000E+00 0. -1.
  9000001    1    1    2    0    0 -0.27156643144E-02  0.10147611455E-01 -0.34158230838E-01  0.35750994182E-01  0.10000000475E-02 0.  1.
</event>
<event>
 4   0  0.4958067E-02  0.9118800E+02  0.7818609E-02  0.1379984E+01
      -11   -1    0    0    0    0  0.00000000000E+00  0.00000000000E+00  0.35740347158E-01  0.35744000000E-01  0.51099999109E-03 0.  1.
       11   -1    0    0    0    0 -0.00000000000E+00 -0.00000000000E+00 -0.35740347158E-01  0.35744000000E-01  0.51099999109E-03 0. -1.
       22    1    1    2    0    0  0.23129085602E-01  0.22486452845E-02  0.27150001445E-01  0.35737005818E-01  0.00000000000E+00 0.  1.
  9000001    1    1    2    0    0 -0.23129085602E-01 -0.22486452845E-02 -0.27150001445E-01  0.35750994182E-01  0.10000000475E-02 0. -1.
</event>
<event>
 4   0  0.4958067E-02  0.9118800E+02  0.7818609E-02  0.1379984E+01
      -11   -1    0    0    0    0  0.00000000000E+00  0.00000000000E+00  0.35740347158E-01  0.35744000000E-01  0.51099999109E-03 0.  1.
       11   -1    0    0    0    0 -0.00000000000E+00 -0.00000000000E+00 -0.35740347158E-01  0.35744000000E-01  0.51099999109E-03 0. -1.
       22    1    1    2    0    0 -0.50693662723E-02 -0.19222377986E-02  0.35323364963E-01  0.35737005818E-01  0.00000000000E+00 0.  1.
  9000001    1    1    2    0    0  0.50693662723E-02  0.19222377986E-02 -0.35323364963E-01  0.35750994182E-01  0.10000000475E-02 0. -1.
</event>
<event>
 4   0  0.4958067E-02  0.9118800E+02  0.7818609E-02  0.1379984E+01
      -11   -1    0    0    0    0  0.00000000000E+00  0.00000000000E+00  0.35740347158E-01  0.35744000000E-01  0.51099999109E-03 0.  1.
       11   -1    0    0    0    0 -0.00000000000E+00 -0.00000000000E+00 -0.35740347158E-01  0.35744000000E-01  0.51099999109E-03 0. -1.
       22    1    1    2    0    0 -0.26878242961E-02 -0.11004450428E-01 -0.33894118313E-01  0.35737005818E-01  0.00000000000E+00 0. -1.
  9000001    1    1    2    0    0  0.26878242961E-02  0.11004450428E-01  0.33894118313E-01  0.35750994182E-01  0.10000000475E-02 0.  1.
</event>
<event>
 4   0  0.4958067E-02  0.9118800E+02  0.7818609E-02  0.1379984E+01
      -11   -1    0    0    0    0  0.00000000000E+00  0.00000000000E+00  0.35740347158E-01  0.35744000000E-01  0.51099999109E-03 0. -1.
       11   -1    0    0    0    0 -0.00000000000E+00 -0.00000000000E+00 -0.35740347158E-01  0.35744000000E-01  0.51099999109E-03 0.  1.
       22    1    1    2    0    0 -0.31336654057E-02  0.95221063973E-02  0.34302233393E-01  0.35737005818E-01  0.00000000000E+00 0. -1.
  9000001    1    1    2    0    0  0.31336654057E-02 -0.95221063973E-02 -0.34302233393E-01  0.35750994182E-01  0.10000000475E-02 0.  1.
</event>
<event>
 4   0  0.4958067E-02  0.9118800E+02  0.7818609E-02  0.1379984E+01
      -11   -1    0    0    0    0  0.00000000000E+00  0.00000000000E+00  0.35740347158E-01  0.35744000000E-01  0.51099999109E-03 0.  1.
       11   -1    0    0    0    0 -0.00000000000E+00 -0.00000000000E+00 -0.35740347158E-01  0.35744000000E-01  0.51099999109E-03 0. -1.
       22    1    1    2    0    0 -0.10058301529E-01 -0.13249794070E-01  0.31629212958E-01  0.35737005818E-01  0.00000000000E+00 0.  1.
  9000001    1    1    2    0    0  0.10058301529E-01  0.13249794070E-01 -0.31629212958E-01  0.35750994182E-01  0.10000000475E-02 0. -1.
</event>
<event>
 4   0  0.4958067E-02  0.9118800E+02  0.7818609E-02  0.1379984E+01
      -11   -1    0    0    0    0  0.00000000000E+00  0.00000000000E+00  0.35740347158E-01  0.35744000000E-01  0.51099999109E-03 0.  1.
       11   -1    0    0    0    0 -0.00000000000E+00 -0.00000000000E+00 -0.35740347158E-01  0.35744000000E-01  0.51099999109E-03 0. -1.
       22    1    1    2    0    0  0.68296448556E-02 -0.16901625958E-01 -0.30737998894E-01  0.35737005818E-01  0.00000000000E+00 0. -1.
  9000001    1    1    2    0    0 -0.68296448556E-02  0.16901625958E-01  0.30737998894E-01  0.35750994182E-01  0.10000000475E-02 0.  1.
</event>
<event>
 4   0  0.4958067E-02  0.9118800E+02  0.7818609E-02  0.1379984E+01
      -11   -1    0    0    0    0  0.00000000000E+00  0.00000000000E+00  0.35740347158E-01  0.35744000000E-01  0.51099999109E-03 0.  1.
       11   -1    0    0    0    0 -0.00000000000E+00 -0.00000000000E+00 -0.35740347158E-01  0.35744000000E-01  0.51099999109E-03 0. -1.
       22    1    1    2    0    0 -0.90349931471E-02  0.54716215399E-02 -0.34140355028E-01  0.35737005818E-01  0.00000000000E+00 0. -1.
  9000001    1    1    2    0    0  0.90349931471E-02 -0.54716215399E-02  0.34140355028E-01  0.35750994182E-01  0.10000000475E-02 0.  1.
</event>
<event>
 4   0  0.4958067E-02  0.9118800E+02  0.7818609E-02  0.1379984E+01
      -11   -1    0    0    0    0  0.00000000000E+00  0.00000000000E+00  0.35740347158E-01  0.35744000000E-01  0.51099999109E-03 0.  1.
       11   -1    0    0    0    0 -0.00000000000E+00 -0.00000000000E+00 -0.35740347158E-01  0.35744000000E-01  0.51099999109E-03 0. -1.
       22    1    1    2    0    0 -0.30507690436E-02  0.10488722441E-01  0.34026652710E-01  0.35737005818E-01  0.00000000000E+00 0.  1.
  9000001    1    1    2    0    0  0.30507690436E-02 -0.10488722441E-01 -0.34026652710E-01  0.35750994182E-01  0.10000000475E-02 0. -1.
</event>
<event>
 4   0  0.4958067E-02  0.9118800E+02  0.7818609E-02  0.1379984E+01
      -11   -1    0    0    0    0  0.00000000000E+00  0.00000000000E+00  0.35740347158E-01  0.35744000000E-01  0.51099999109E-03 0.  1.
       11   -1    0    0    0    0 -0.00000000000E+00 -0.00000000000E+00 -0.35740347158E-01  0.35744000000E-01  0.51099999109E-03 0. -1.
       22    1    1    2    0    0 -0.20674767369E-01  0.16507915999E-01 -0.24024493512E-01  0.35737005818E-01  0.00000000000E+00 0. -1.
  9000001    1    1    2    0    0  0.20674767369E-01 -0.16507915999E-01  0.24024493512E-01  0.35750994182E-01  0.10000000475E-02 0.  1.
</event>
<event>
 4   0  0.4958067E-02  0.9118800E+02  0.7818609E-02  0.1379984E+01
      -11   -1    0    0    0    0  0.00000000000E+00  0.00000000000E+00  0.35740347158E-01  0.35744000000E-01  0.51099999109E-03 0. -1.
       11   -1    0    0    0    0 -0.00000000000E+00 -0.00000000000E+00 -0.35740347158E-01  0.35744000000E-01  0.51099999109E-03 0.  1.
       22    1    1    2    0    0  0.48635260882E-02  0.16959996155E-02  0.35363869757E-01  0.35737005818E-01  0.00000000000E+00 0. -1.
  9000001    1    1    2    0    0 -0.48635260882E-02 -0.16959996155E-02 -0.35363869757E-01  0.35750994182E-01  0.10000000475E-02 0.  1.
</event>
<event>
 4   0  0.4958067E-02  0.9118800E+02  0.7818609E-02  0.1379984E+01
      -11   -1    0    0    0    0  0.00000000000E+00  0.00000000000E+00  0.35740347158E-01  0.35744000000E-01  0.51099999109E-03 0.  1.
       11   -1    0    0    0    0 -0.00000000000E+00 -0.00000000000E+00 -0.35740347158E-01  0.35744000000E-01  0.51099999109E-03 0. -1.
       22    1    1    2    0    0 -0.18662899090E-01  0.27137938568E-01 -0.13869465480E-01  0.35737005818E-01  0.00000000000E+00 0. -1.
  9000001    1    1    2    0    0  0.18662899090E-01 -0.27137938568E-01  0.13869465480E-01  0.35750994182E-01  0.10000000475E-02 0.  1.
</event>
<event>
 4   0  0.4958067E-02  0.9118800E+02  0.7818609E-02  0.1379984E+01
      -11   -1    0    0    0    0  0.00000000000E+00  0.00000000000E+00  0.35740347158E-01  0.35744000000E-01  0.51099999109E-03 0.  1.
       11   -1    0    0    0    0 -0.00000000000E+00 -0.00000000000E+00 -0.35740347158E-01  0.35744000000E-01  0.51099999109E-03 0. -1.
       22    1    1    2    0    0 -0.42346931700E-02 -0.60229442587E-02 -0.34970346025E-01  0.35737005818E-01  0.00000000000E+00 0. -1.
  9000001    1    1    2    0    0  0.42346931700E-02  0.60229442587E-02  0.34970346025E-01  0.35750994182E-01  0.10000000475E-02 0.  1.
</event>
<event>
 4   0  0.4958067E-02  0.9118800E+02  0.7818609E-02  0.1379984E+01
      -11   -1    0    0    0    0  0.00000000000E+00  0.00000000000E+00  0.35740347158E-01  0.35744000000E-01  0.51099999109E-03 0.  1.
       11   -1    0    0    0    0 -0.00000000000E+00 -0.00000000000E+00 -0.35740347158E-01  0.35744000000E-01  0.51099999109E-03 0. -1.
       22    1    1    2    0    0 -0.78421480310E-02  0.18294996982E-01 -0.29680420896E-01  0.35737005818E-01  0.00000000000E+00 0. -1.
  9000001    1    1    2    0    0  0.78421480310E-02 -0.18294996982E-01  0.29680420896E-01  0.35750994182E-01  0.10000000475E-02 0.  1.
</event>
<event>
 4   0  0.4958067E-02  0.9118800E+02  0.7818609E-02  0.1379984E+01
      -11   -1    0    0    0    0  0.00000000000E+00  0.00000000000E+00  0.35740347158E-01  0.35744000000E-01  0.51099999109E-03 0. -1.
       11   -1    0    0    0    0 -0.00000000000E+00 -0.00000000000E+00 -0.35740347158E-01  0.35744000000E-01  0.51099999109E-03 0.  1.
       22    1    1    2    0    0 -0.66213623815E-02 -0.63017771233E-02  0.34548209073E-01  0.35737005818E-01  0.00000000000E+00 0. -1.
  9000001    1    1    2    0    0  0.66213623815E-02  0.63017771233E-02 -0.34548209073E-01  0.35750994182E-01  0.10000000475E-02 0.  1.
</event>
<event>
 4   0  0.4958067E-02  0.9118800E+02  0.7818609E-02  0.1379984E+01
      -11   -1    0    0    0    0  0.00000000000E+00  0.00000000000E+00  0.35740347158E-01  0.35744000000E-01  0.51099999109E-03 0.  1.
       11   -1    0    0    0    0 -0.00000000000E+00 -0.00000000000E+00 -0.35740347158E-01  0.35744000000E-01  0.51099999109E-03 0. -1.
       22    1    1    2    0    0 -0.23961813932E-03 -0.60522600865E-02  0.35219970413E-01  0.35737005818E-01  0.00000000000E+00 0.  1.
  9000001    1    1    2    0    0  0.23961813932E-03  0.60522600865E-02 -0.35219970413E-01  0.35750994182E-01  0.10000000475E-02 0. -1.
</event>
<event>
 4   0  0.4958067E-02  0.9118800E+02  0.7818609E-02  0.1379984E+01
      -11   -1    0    0    0    0  0.00000000000E+00  0.00000000000E+00  0.35740347158E-01  0.35744000000E-01  0.51099999109E-03 0.  1.
       11   -1    0    0    0    0 -0.00000000000E+00 -0.00000000000E+00 -0.35740347158E-01  0.35744000000E-01  0.51099999109E-03 0. -1.
       22    1    1    2    0    0  0.15955424012E-01 -0.29516415367E-01 -0.12302002007E-01  0.35737005818E-01  0.00000000000E+00 0. -1.
  9000001    1    1    2    0    0 -0.15955424012E-01  0.29516415367E-01  0.12302002007E-01  0.35750994182E-01  0.10000000475E-02 0.  1.
</event>
<event>
 4   0  0.4958067E-02  0.9118800E+02  0.7818609E-02  0.1379984E+01
      -11   -1    0    0    0    0  0.00000000000E+00  0.00000000000E+00  0.35740347158E-01  0.35744000000E-01  0.51099999109E-03 0.  1.
       11   -1    0    0    0    0 -0.00000000000E+00 -0.00000000000E+00 -0.35740347158E-01  0.35744000000E-01  0.51099999109E-03 0. -1.
       22    1    1    2    0    0  0.18708826140E-02  0.20723037585E-01  0.29054932393E-01  0.35737005818E-01  0.00000000000E+00 0.  1.
  9000001    1    1    2    0    0 -0.18708826140E-02 -0.20723037585E-01 -0.29054932393E-01  0.35750994182E-01  0.10000000475E-02 0. -1.
</event>
<event>
 4   0  0.4958067E-02  0.9118800E+02  0.7818609E-02  0.1379984E+01
      -11   -1    0    0    0    0  0.00000000000E+00  0.00000000000E+00  0.35740347158E-01  0.35744000000E-01  0.51099999109E-03 0. -1.
       11   -1    0    0    0    0 -0.00000000000E+00 -0.00000000000E+00 -0.35740347158E-01  0.35744000000E-01  0.51099999109E-03 0.  1.
       22    1    1    2    0    0  0.32708940372E-01 -0.54158445610E-03 -0.14386295245E-01  0.35737005818E-01  0.00000000000E+00 0. -1.
  9000001    1    1    2    0    0 -0.32708940372E-01  0.54158445610E-03  0.14386295245E-01  0.35750994182E-01  0.10000000475E-02 0.  1.
</event>
<event>
 4   0  0.4958067E-02  0.9118800E+02  0.7818609E-02  0.1379984E+01
      -11   -1    0    0    0    0  0.00000000000E+00  0.00000000000E+00  0.35740347158E-01  0.35744000000E-01  0.51099999109E-03 0. -1.
       11   -1    0    0    0    0 -0.00000000000E+00 -0.00000000000E+00 -0.35740347158E-01  0.35744000000E-01  0.51099999109E-03 0.  1.
       22    1    1    2    0    0  0.17214774358E-02  0.46894189441E-02 -0.35386147717E-01  0.35737005818E-01  0.00000000000E+00 0.  1.
  9000001    1    1    2    0    0 -0.17214774358E-02 -0.46894189441E-02  0.35386147717E-01  0.35750994182E-01  0.10000000475E-02 0. -1.
</event>
<event>
 4   0  0.4958067E-02  0.9118800E+02  0.7818609E-02  0.1379984E+01
      -11   -1    0    0    0    0  0.00000000000E+00  0.00000000000E+00  0.35740347158E-01  0.35744000000E-01  0.51099999109E-03 0.  1.
       11   -1    0    0    0    0 -0.00000000000E+00 -0.00000000000E+00 -0.35740347158E-01  0.35744000000E-01  0.51099999109E-03 0. -1.
       22    1    1    2    0    0  0.28903935085E-02  0.78256711811E-02  0.34749648643E-01  0.35737005818E-01  0.00000000000E+00 0.  1.
  9000001    1    1    2    0    0 -0.28903935085E-02 -0.78256711811E-02 -0.34749648643E-01  0.35750994182E-01  0.10000000475E-02 0. -1.
</event>
<event>
 4   0  0.4958067E-02  0.9118800E+02  0.7818609E-02  0.1379984E+01
      -11   -1    0    0    0    0  0.00000000000E+00  0.00000000000E+00  0.35740347158E-01  0.35744000000E-01  0.51099999109E-03 0.  1.
       11   -1    0    0    0    0 -0.00000000000E+00 -0.00000000000E+00 -0.35740347158E-01  0.35744000000E-01  0.51099999109E-03 0. -1.
       22    1    1    2    0    0 -0.30779617922E-01  0.14181741547E-01 -0.11341380522E-01  0.35737005818E-01  0.00000000000E+00 0. -1.
  9000001    1    1    2    0    0  0.30779617922E-01 -0.14181741547E-01  0.11341380522E-01  0.35750994182E-01  0.10000000475E-02 0.  1.
</event>
<event>
 4   0  0.4958067E-02  0.9118800E+02  0.7818609E-02  0.1379984E+01
      -11   -1    0    0    0    0  0.00000000000E+00  0.00000000000E+00  0.35740347158E-01  0.35744000000E-01  0.51099999109E-03 0. -1.
       11   -1    0    0    0    0 -0.00000000000E+00 -0.00000000000E+00 -0.35740347158E-01  0.35744000000E-01  0.51099999109E-03 0.  1.
       22    1    1    2    0    0 -0.29834950269E-02 -0.28982037180E-02 -0.35494122859E-01  0.35737005818E-01  0.00000000000E+00 0.  1.
  9000001    1    1    2    0    0  0.29834950269E-02  0.28982037180E-02  0.35494122859E-01  0.35750994182E-01  0.10000000475E-02 0. -1.
</event>
<event>
 4   0  0.4958067E-02  0.9118800E+02  0.7818609E-02  0.1379984E+01
      -11   -1    0    0    0    0  0.00000000000E+00  0.00000000000E+00  0.35740347158E-01  0.35744000000E-01  0.51099999109E-03 0.  1.
       11   -1    0    0    0    0 -0.00000000000E+00 -0.00000000000E+00 -0.35740347158E-01  0.35744000000E-01  0.51099999109E-03 0. -1.
       22    1    1    2    0    0 -0.33424854581E-02  0.18114064497E-02  0.35534211438E-01  0.35737005818E-01  0.00000000000E+00 0.  1.
  9000001    1    1    2    0    0  0.33424854581E-02 -0.18114064497E-02 -0.35534211438E-01  0.35750994182E-01  0.10000000475E-02 0. -1.
</event>
<event>
 4   0  0.4958067E-02  0.9118800E+02  0.7818609E-02  0.1379984E+01
      -11   -1    0    0    0    0  0.00000000000E+00  0.00000000000E+00  0.35740347158E-01  0.35744000000E-01  0.51099999109E-03 0. -1.
       11   -1    0    0    0    0 -0.00000000000E+00 -0.00000000000E+00 -0.35740347158E-01  0.35744000000E-01  0.51099999109E-03 0.  1.
       22    1    1    2    0    0  0.62483831473E-02  0.13390051626E-01  0.32539173474E-01  0.35737005818E-01  0.00000000000E+00 0. -1.
  9000001    1    1    2    0    0 -0.62483831473E-02 -0.13390051626E-01 -0.32539173474E-01  0.35750994182E-01  0.10000000475E-02 0.  1.
</event>
<event>
 4   0  0.4958067E-02  0.9118800E+02  0.7818609E-02  0.1379984E+01
      -11   -1    0    0    0    0  0.00000000000E+00  0.00000000000E+00  0.35740347158E-01  0.35744000000E-01  0.51099999109E-03 0. -1.
       11   -1    0    0    0    0 -0.00000000000E+00 -0.00000000000E+00 -0.35740347158E-01  0.35744000000E-01  0.51099999109E-03 0.  1.
       22    1    1    2    0    0 -0.67554416776E-02  0.99452630247E-02 -0.33653964640E-01  0.35737005818E-01  0.00000000000E+00 0.  1.
  9000001    1    1    2    0    0  0.67554416776E-02 -0.99452630247E-02  0.33653964640E-01  0.35750994182E-01  0.10000000475E-02 0. -1.
</event>
<event>
 4   0  0.4958067E-02  0.9118800E+02  0.7818609E-02  0.1379984E+01
      -11   -1    0    0    0    0  0.00000000000E+00  0.00000000000E+00  0.35740347158E-01  0.35744000000E-01  0.51099999109E-03 0.  1.
       11   -1    0    0    0    0 -0.00000000000E+00 -0.00000000000E+00 -0.35740347158E-01  0.35744000000E-01  0.51099999109E-03 0. -1.
       22    1    1    2    0    0 -0.26337048789E-02  0.17086712607E-02  0.35598843043E-01  0.35737005818E-01  0.00000000000E+00 0.  1.
  9000001    1    1    2    0    0  0.26337048789E-02 -0.17086712607E-02 -0.35598843043E-01  0.35750994182E-01  0.10000000475E-02 0. -1.
</event>
<event>
 4   0  0.4958067E-02  0.9118800E+02  0.7818609E-02  0.1379984E+01
      -11   -1    0    0    0    0  0.00000000000E+00  0.00000000000E+00  0.35740347158E-01  0.35744000000E-01  0.51099999109E-03 0.  1.
       11   -1    0    0    0    0 -0.00000000000E+00 -0.00000000000E+00 -0.35740347158E-01  0.35744000000E-01  0.51099999109E-03 0. -1.
       22    1    1    2    0    0 -0.37946040767E-02 -0.98023886489E-02  0.34156225517E-01  0.35737005818E-01  0.00000000000E+00 0.  1.
  9000001    1    1    2    0    0  0.37946040767E-02  0.98023886489E-02 -0.34156225517E-01  0.35750994182E-01  0.10000000475E-02 0. -1.
</event>
<event>
 4   0  0.4958067E-02  0.9118800E+02  0.7818609E-02  0.1379984E+01
      -11   -1    0    0    0    0  0.00000000000E+00  0.00000000000E+00  0.35740347158E-01  0.35744000000E-01  0.51099999109E-03 0. -1.
       11   -1    0    0    0    0 -0.00000000000E+00 -0.00000000000E+00 -0.35740347158E-01  0.35744000000E-01  0.51099999109E-03 0.  1.
       22    1    1    2    0    0 -0.25712878975E-01  0.11971795864E-01  0.21740688662E-01  0.35737005818E-01  0.00000000000E+00 0. -1.
  9000001    1    1    2    0    0  0.25712878975E-01 -0.11971795864E-01 -0.21740688662E-01  0.35750994182E-01  0.10000000475E-02 0.  1.
</event>
<event>
 4   0  0.4958067E-02  0.9118800E+02  0.7818609E-02  0.1379984E+01
      -11   -1    0    0    0    0  0.00000000000E+00  0.00000000000E+00  0.35740347158E-01  0.35744000000E-01  0.51099999109E-03 0.  1.
       11   -1    0    0    0    0 -0.00000000000E+00 -0.00000000000E+00 -0.35740347158E-01  0.35744000000E-01  0.51099999109E-03 0. -1.
       22    1    1    2    0    0  0.31663895636E-02 -0.19050347777E-02 -0.35545441402E-01  0.35737005818E-01  0.00000000000E+00 0. -1.
  9000001    1    1    2    0    0 -0.31663895636E-02  0.19050347777E-02  0.35545441402E-01  0.35750994182E-01  0.10000000475E-02 0.  1.
</event>
<event>
 4   0  0.4958067E-02  0.9118800E+02  0.7818609E-02  0.1379984E+01
      -11   -1    0    0    0    0  0.00000000000E+00  0.00000000000E+00  0.35740347158E-01  0.35744000000E-01  0.51099999109E-03 0.  1.
       11   -1    0    0    0    0 -0.00000000000E+00 -0.00000000000E+00 -0.35740347158E-01  0.35744000000E-01  0.51099999109E-03 0. -1.
       22    1    1    2    0    0 -0.36380450892E-02 -0.95957508693E-02  0.34231853266E-01  0.35737005818E-01  0.00000000000E+00 0.  1.
  9000001    1    1    2    0    0  0.36380450892E-02  0.95957508693E-02 -0.34231853266E-01  0.35750994182E-01  0.10000000475E-02 0. -1.
</event>
<event>
 4   0  0.4958067E-02  0.9118800E+02  0.7818609E-02  0.1379984E+01
      -11   -1    0    0    0    0  0.00000000000E+00  0.00000000000E+00  0.35740347158E-01  0.35744000000E-01  0.51099999109E-03 0. -1.
       11   -1    0    0    0    0 -0.00000000000E+00 -0.00000000000E+00 -0.35740347158E-01  0.35744000000E-01  0.51099999109E-03 0.  1.
       22    1    1    2    0    0  0.23961552082E-01 -0.16677875483E-01  0.20611309422E-01  0.35737005818E-01  0.00000000000E+00 0. -1.
  9000001    1    1    2    0    0 -0.23961552082E-01  0.16677875483E-01 -0.20611309422E-01  0.35750994182E-01  0.10000000475E-02 0.  1.
</event>
<event>
 4   0  0.4958067E-02  0.9118800E+02  0.7818609E-02  0.1379984E+01
      -11   -1    0    0    0    0  0.00000000000E+00  0.00000000000E+00  0.35740347158E-01  0.35744000000E-01  0.51099999109E-03 0. -1.
       11   -1    0    0    0    0 -0.00000000000E+00 -0.00000000000E+00 -0.35740347158E-01  0.35744000000E-01  0.51099999109E-03 0.  1.
       22    1    1    2    0    0  0.17251499003E-01  0.26271511042E-01  0.17009617121E-01  0.35737005818E-01  0.00000000000E+00 0. -1.
  9000001    1    1    2    0    0 -0.17251499003E-01 -0.26271511042E-01 -0.17009617121E-01  0.35750994182E-01  0.10000000475E-02 0.  1.
</event>
<event>
 4   0  0.4958067E-02  0.9118800E+02  0.7818609E-02  0.1379984E+01
      -11   -1    0    0    0    0  0.00000000000E+00  0.00000000000E+00  0.35740347158E-01  0.35744000000E-01  0.51099999109E-03 0.  1.
       11   -1    0    0    0    0 -0.00000000000E+00 -0.00000000000E+00 -0.35740347158E-01  0.35744000000E-01  0.51099999109E-03 0. -1.
       22    1    1    2    0    0  0.33184616486E-01  0.12440739727E-01 -0.45981309912E-02  0.35737005818E-01  0.00000000000E+00 0.  1.
  9000001    1    1    2    0    0 -0.33184616486E-01 -0.12440739727E-01  0.45981309912E-02  0.35750994182E-01  0.10000000475E-02 0. -1.
</event>
<event>
 4   0  0.4958067E-02  0.9118800E+02  0.7818609E-02  0.1379984E+01
      -11   -1    0    0    0    0  0.00000000000E+00  0.00000000000E+00  0.35740347158E-01  0.35744000000E-01  0.51099999109E-03 0. -1.
       11   -1    0    0    0    0 -0.00000000000E+00 -0.00000000000E+00 -0.35740347158E-01  0.35744000000E-01  0.51099999109E-03 0.  1.
       22    1    1    2    0    0 -0.23945321586E-02  0.33836878105E-01 -0.11245687207E-01  0.35737005818E-01  0.00000000000E+00 0.  1.
  9000001    1    1    2    0    0  0.23945321586E-02 -0.33836878105E-01  0.11245687207E-01  0.35750994182E-01  0.10000000475E-02 0. -1.
</event>
<event>
 4   0  0.4958067E-02  0.9118800E+02  0.7818609E-02  0.1379984E+01
      -11   -1    0    0    0    0  0.00000000000E+00  0.00000000000E+00  0.35740347158E-01  0.35744000000E-01  0.51099999109E-03 0. -1.
       11   -1    0    0    0    0 -0.00000000000E+00 -0.00000000000E+00 -0.35740347158E-01  0.35744000000E-01  0.51099999109E-03 0.  1.
       22    1    1    2    0    0  0.53168433548E-02 -0.12275579194E-01 -0.33138722321E-01  0.35737005818E-01  0.00000000000E+00 0.  1.
  9000001    1    1    2    0    0 -0.53168433548E-02  0.12275579194E-01  0.33138722321E-01  0.35750994182E-01  0.10000000475E-02 0. -1.
</event>
<event>
 4   0  0.4958067E-02  0.9118800E+02  0.7818609E-02  0.1379984E+01
      -11   -1    0    0    0    0  0.00000000000E+00  0.00000000000E+00  0.35740347158E-01  0.35744000000E-01  0.51099999109E-03 0. -1.
       11   -1    0    0    0    0 -0.00000000000E+00 -0.00000000000E+00 -0.35740347158E-01  0.35744000000E-01  0.51099999109E-03 0.  1.
       22    1    1    2    0    0 -0.42726762910E-02 -0.23771842226E-02  0.35400943735E-01  0.35737005818E-01  0.00000000000E+00 0. -1.
  9000001    1    1    2    0    0  0.42726762910E-02  0.23771842226E-02 -0.35400943735E-01  0.35750994182E-01  0.10000000475E-02 0.  1.
</event>
<event>
 4   0  0.4958067E-02  0.9118800E+02  0.7818609E-02  0.1379984E+01
      -11   -1    0    0    0    0  0.00000000000E+00  0.00000000000E+00  0.35740347158E-01  0.35744000000E-01  0.51099999109E-03 0.  1.
       11   -1    0    0    0    0 -0.00000000000E+00 -0.00000000000E+00 -0.35740347158E-01  0.35744000000E-01  0.51099999109E-03 0. -1.
       22    1    1    2    0    0 -0.46406035661E-02  0.11396842864E-01  0.33551607356E-01  0.35737005818E-01  0.00000000000E+00 0.  1.
  9000001    1    1    2    0    0  0.46406035661E-02 -0.11396842864E-01 -0.33551607356E-01  0.35750994182E-01  0.10000000475E-02 0. -1.
</event>
<event>
 4   0  0.4958067E-02  0.9118800E+02  0.7818609E-02  0.1379984E+01
      -11   -1    0    0    0    0  0.00000000000E+00  0.00000000000E+00  0.35740347158E-01  0.35744000000E-01  0.51099999109E-03 0.  1.
       11   -1    0    0    0    0 -0.00000000000E+00 -0.00000000000E+00 -0.35740347158E-01  0.35744000000E-01  0.51099999109E-03 0. -1.
       22    1    1    2    0    0 -0.31928240055E-01  0.12658054024E-01  0.98739424844E-02  0.35737005818E-01  0.00000000000E+00 0.  1.
  9000001    1    1    2    0    0  0.31928240055E-01 -0.12658054024E-01 -0.98739424844E-02  0.35750994182E-01  0.10000000475E-02 0. -1.
</event>
<event>
 4   0  0.4958067E-02  0.9118800E+02  0.7818609E-02  0.1379984E+01
      -11   -1    0    0    0    0  0.00000000000E+00  0.00000000000E+00  0.35740347158E-01  0.35744000000E-01  0.51099999109E-03 0.  1.
       11   -1    0    0    0    0 -0.00000000000E+00 -0.00000000000E+00 -0.35740347158E-01  0.35744000000E-01  0.51099999109E-03 0. -1.
       22    1    1    2    0    0 -0.58884411653E-03  0.54765955675E-02 -0.35309966702E-01  0.35737005818E-01  0.00000000000E+00 0. -1.
  9000001    1    1    2    0    0  0.58884411653E-03 -0.54765955675E-02  0.35309966702E-01  0.35750994182E-01  0.10000000475E-02 0.  1.
</event>
<event>
 4   0  0.4958067E-02  0.9118800E+02  0.7818609E-02  0.1379984E+01
      -11   -1    0    0    0    0  0.00000000000E+00  0.00000000000E+00  0.35740347158E-01  0.35744000000E-01  0.51099999109E-03 0.  1.
       11   -1    0    0    0    0 -0.00000000000E+00 -0.00000000000E+00 -0.35740347158E-01  0.35744000000E-01  0.51099999109E-03 0. -1.
       22    1    1    2    0    0 -0.15636649737E-02 -0.32998224326E-02 -0.35549960740E-01  0.35737005818E-01  0.00000000000E+00 0. -1.
  9000001    1    1    2    0    0  0.15636649737E-02  0.32998224326E-02  0.35549960740E-01  0.35750994182E-01  0.10000000475E-02 0.  1.
</event>
<event>
 4   0  0.4958067E-02  0.9118800E+02  0.7818609E-02  0.1379984E+01
      -11   -1    0    0    0    0  0.00000000000E+00  0.00000000000E+00  0.35740347158E-01  0.35744000000E-01  0.51099999109E-03 0. -1.
       11   -1    0    0    0    0 -0.00000000000E+00 -0.00000000000E+00 -0.35740347158E-01  0.35744000000E-01  0.51099999109E-03 0.  1.
       22    1    1    2    0    0 -0.34241816799E-02 -0.70055815195E-03  0.35565682659E-01  0.35737005818E-01  0.00000000000E+00 0. -1.
  9000001    1    1    2    0    0  0.34241816799E-02  0.70055815195E-03 -0.35565682659E-01  0.35750994182E-01  0.10000000475E-02 0.  1.
</event>
<event>
 4   0  0.4958067E-02  0.9118800E+02  0.7818609E-02  0.1379984E+01
      -11   -1    0    0    0    0  0.00000000000E+00  0.00000000000E+00  0.35740347158E-01  0.35744000000E-01  0.51099999109E-03 0.  1.
       11   -1    0    0    0    0 -0.00000000000E+00 -0.00000000000E+00 -0.35740347158E-01  0.35744000000E-01  0.51099999109E-03 0. -1.
       22    1    1    2    0    0  0.56304086086E-02 -0.46586976829E-03  0.35287604752E-01  0.35737005818E-01  0.00000000000E+00 0.  1.
  9000001    1    1    2    0    0 -0.56304086086E-02  0.46586976829E-03 -0.35287604752E-01  0.35750994182E-01  0.10000000475E-02 0. -1.
</event>
<event>
 4   0  0.4958067E-02  0.9118800E+02  0.7818609E-02  0.1379984E+01
      -11   -1    0    0    0    0  0.00000000000E+00  0.00000000000E+00  0.35740347158E-01  0.35744000000E-01  0.51099999109E-03 0.  1.
       11   -1    0    0    0    0 -0.00000000000E+00 -0.00000000000E+00 -0.35740347158E-01  0.35744000000E-01  0.51099999109E-03 0. -1.
       22    1    1    2    0    0  0.43753944862E-02 -0.42827689910E-02 -0.35208626752E-01  0.35737005818E-01  0.00000000000E+00 0. -1.
  9000001    1    1    2    0    0 -0.43753944862E-02  0.42827689910E-02  0.35208626752E-01  0.35750994182E-01  0.10000000475E-02 0.  1.
</event>
<event>
 4   0  0.4958067E-02  0.9118800E+02  0.7818609E-02  0.1379984E+01
      -11   -1    0    0    0    0  0.00000000000E+00  0.00000000000E+00  0.35740347158E-01  0.35744000000E-01  0.51099999109E-03 0.  1.
       11   -1    0    0    0    0 -0.00000000000E+00 -0.00000000000E+00 -0.35740347158E-01  0.35744000000E-01  0.51099999109E-03 0. -1.
       22    1    1    2    0    0  0.16471982049E-01  0.15202509809E-02 -0.31678008606E-01  0.35737005818E-01  0.00000000000E+00 0. -1.
  9000001    1    1    2    0    0 -0.16471982049E-01 -0.15202509809E-02  0.31678008606E-01  0.35750994182E-01  0.10000000475E-02 0.  1.
</event>
<event>
 4   0  0.4958067E-02  0.9118800E+02  0.7818609E-02  0.1379984E+01
      -11   -1    0    0    0    0  0.00000000000E+00  0.00000000000E+00  0.35740347158E-01  0.35744000000E-01  0.51099999109E-03 0. -1.
       11   -1    0    0    0    0 -0.00000000000E+00 -0.00000000000E+00 -0.35740347158E-01  0.35744000000E-01  0.51099999109E-03 0.  1.
       22    1    1    2    0    0 -0.10124690042E-02  0.43487871287E-02 -0.35456967466E-01  0.35737005818E-01  0.00000000000E+00 0.  1.
  9000001    1    1    2    0    0  0.10124690042E-02 -0.43487871287E-02  0.35456967466E-01  0.35750994182E-01  0.10000000475E-02 0. -1.
</event>
<event>
 4   0  0.4958067E-02  0.9118800E+02  0.7818609E-02  0.1379984E+01
      -11   -1    0    0    0    0  0.00000000000E+00  0.00000000000E+00  0.35740347158E-01  0.35744000000E-01  0.51099999109E-03 0.  1.
       11   -1    0    0    0    0 -0.00000000000E+00 -0.00000000000E+00 -0.35740347158E-01  0.35744000000E-01  0.51099999109E-03 0. -1.
       22    1    1    2    0    0 -0.14257076618E-01  0.87928947379E-02  0.31568249133E-01  0.35737005818E-01  0.00000000000E+00 0.  1.
  9000001    1    1    2    0    0  0.14257076618E-01 -0.87928947379E-02 -0.31568249133E-01  0.35750994182E-01  0.10000000475E-02 0. -1.
</event>
<event>
 4   0  0.4958067E-02  0.9118800E+02  0.7818609E-02  0.1379984E+01
      -11   -1    0    0    0    0  0.00000000000E+00  0.00000000000E+00  0.35740347158E-01  0.35744000000E-01  0.51099999109E-03 0. -1.
       11   -1    0    0    0    0 -0.00000000000E+00 -0.00000000000E+00 -0.35740347158E-01  0.35744000000E-01  0.51099999109E-03 0.  1.
       22    1    1    2    0    0 -0.11836396304E-02 -0.37593069227E-02  0.35519011720E-01  0.35737005818E-01  0.00000000000E+00 0. -1.
  9000001    1    1    2    0    0  0.11836396304E-02  0.37593069227E-02 -0.35519011720E-01  0.35750994182E-01  0.10000000475E-02 0.  1.
</event>
<event>
 4   0  0.4958067E-02  0.9118800E+02  0.7818609E-02  0.1379984E+01
      -11   -1    0    0    0    0  0.00000000000E+00  0.00000000000E+00  0.35740347158E-01  0.35744000000E-01  0.51099999109E-03 0. -1.
       11   -1    0    0    0    0 -0.00000000000E+00 -0.00000000000E+00 -0.35740347158E-01  0.35744000000E-01  0.51099999109E-03 0.  1.
       22    1    1    2    0    0 -0.42636374782E-02 -0.36567942336E-02 -0.35292815647E-01  0.35737005818E-01  0.00000000000E+00 0.  1.
  9000001    1    1    2    0    0  0.42636374782E-02  0.36567942336E-02  0.35292815647E-01  0.35750994182E-01  0.10000000475E-02 0. -1.
</event>
<event>
 4   0  0.4958067E-02  0.9118800E+02  0.7818609E-02  0.1379984E+01
      -11   -1    0    0    0    0  0.00000000000E+00  0.00000000000E+00  0.35740347158E-01  0.35744000000E-01  0.51099999109E-03 0. -1.
       11   -1    0    0    0    0 -0.00000000000E+00 -0.00000000000E+00 -0.35740347158E-01  0.35744000000E-01  0.51099999109E-03 0.  1.
       22    1    1    2    0    0 -0.12676616619E-01 -0.15620122510E-01 -0.29537243418E-01  0.35737005818E-01  0.00000000000E+00 0.  1.
  9000001    1    1    2    0    0  0.12676616619E-01  0.15620122510E-01  0.29537243418E-01  0.35750994182E-01  0.10000000475E-02 0. -1.
</event>
<event>
 4   0  0.4958067E-02  0.9118800E+02  0.7818609E-02  0.1379984E+01
      -11   -1    0    0    0    0  0.00000000000E+00  0.00000000000E+00  0.35740347158E-01  0.35744000000E-01  0.51099999109E-03 0. -1.
       11   -1    0    0    0    0 -0.00000000000E+00 -0.00000000000E+00 -0.35740347158E-01  0.35744000000E-01  0.51099999109E-03 0.  1.
       22    1    1    2    0    0  0.15346116593E-01 -0.12508771497E-01 -0.29751654173E-01  0.35737005818E-01  0.00000000000E+00 0.  1.
  9000001    1    1    2    0    0 -0.15346116593E-01  0.12508771497E-01  0.29751654173E-01  0.35750994182E-01  0.10000000475E-02 0. -1.
</event>
<event>
 4   0  0.4958067E-02  0.9118800E+02  0.7818609E-02  0.1379984E+01
      -11   -1    0    0    0    0  0.00000000000E+00  0.00000000000E+00  0.35740347158E-01  0.35744000000E-01  0.51099999109E-03 0. -1.
       11   -1    0    0    0    0 -0.00000000000E+00 -0.00000000000E+00 -0.35740347158E-01  0.35744000000E-01  0.51099999109E-03 0.  1.
       22    1    1    2    0    0  0.12459434584E-01 -0.46802918291E-02  0.33166111365E-01  0.35737005818E-01  0.00000000000E+00 0. -1.
  9000001    1    1    2    0    0 -0.12459434584E-01  0.46802918291E-02 -0.33166111365E-01  0.35750994182E-01  0.10000000475E-02 0.  1.
</event>
<event>
 4   0  0.4958067E-02  0.9118800E+02  0.7818609E-02  0.1379984E+01
      -11   -1    0    0    0    0  0.00000000000E+00  0.00000000000E+00  0.35740347158E-01  0.35744000000E-01  0.51099999109E-03 0. -1.
       11   -1    0    0    0    0 -0.00000000000E+00 -0.00000000000E+00 -0.35740347158E-01  0.35744000000E-01  0.51099999109E-03 0.  1.
       22    1    1    2    0    0  0.37599530250E-02  0.80330758682E-02  0.34618868124E-01  0.35737005818E-01  0.00000000000E+00 0. -1.
  9000001    1    1    2    0    0 -0.37599530250E-02 -0.80330758682E-02 -0.34618868124E-01  0.35750994182E-01  0.10000000475E-02 0.  1.
</event>
<event>
 4   0  0.4958067E-02  0.9118800E+02  0.7818609E-02  0.1379984E+01
      -11   -1    0    0    0    0  0.00000000000E+00  0.00000000000E+00  0.35740347158E-01  0.35744000000E-01  0.51099999109E-03 0.  1.
       11   -1    0    0    0    0 -0.00000000000E+00 -0.00000000000E+00 -0.35740347158E-01  0.35744000000E-01  0.51099999109E-03 0. -1.
       22    1    1    2    0    0  0.99098917870E-02 -0.14733822002E-01  0.31013579588E-01  0.35737005818E-01  0.00000000000E+00 0.  1.
  9000001    1    1    2    0    0 -0.99098917870E-02  0.14733822002E-01 -0.31013579588E-01  0.35750994182E-01  0.10000000475E-02 0. -1.
</event>
<event>
 4   0  0.4958067E-02  0.9118800E+02  0.7818609E-02  0.1379984E+01
      -11   -1    0    0    0    0  0.00000000000E+00  0.00000000000E+00  0.35740347158E-01  0.35744000000E-01  0.51099999109E-03 0. -1.
       11   -1    0    0    0    0 -0.00000000000E+00 -0.00000000000E+00 -0.35740347158E-01  0.35744000000E-01  0.51099999109E-03 0.  1.
       22    1    1    2    0    0 -0.53038963514E-02 -0.62831538300E-02 -0.34778215111E-01  0.35737005818E-01  0.00000000000E+00 0.  1.
  9000001    1    1    2    0    0  0.53038963514E-02  0.62831538300E-02  0.34778215111E-01  0.35750994182E-01  0.10000000475E-02 0. -1.
</event>
<event>
 4   0  0.4958067E-02  0.9118800E+02  0.7818609E-02  0.1379984E+01
      -11   -1    0    0    0    0  0.00000000000E+00  0.00000000000E+00  0.35740347158E-01  0.35744000000E-01  0.51099999109E-03 0. -1.
       11   -1    0    0    0    0 -0.00000000000E+00 -0.00000000000E+00 -0.35740347158E-01  0.35744000000E-01  0.51099999109E-03 0.  1.
       22    1    1    2    0    0  0.28011465803E-01  0.21176786162E-01  0.66358945338E-02  0.35737005818E-01  0.00000000000E+00 0.  1.
  9000001    1    1    2    0    0 -0.28011465803E-01 -0.21176786162E-01 -0.66358945338E-02  0.35750994182E-01  0.10000000475E-02 0. -1.
</event>
<event>
 4   0  0.4958067E-02  0.9118800E+02  0.7818609E-02  0.1379984E+01
      -11   -1    0    0    0    0  0.00000000000E+00  0.00000000000E+00  0.35740347158E-01  0.35744000000E-01  0.51099999109E-03 0.  1.
       11   -1    0    0    0    0 -0.00000000000E+00 -0.00000000000E+00 -0.35740347158E-01  0.35744000000E-01  0.51099999109E-03 0. -1.
       22    1    1    2    0    0  0.11747065899E-01 -0.19393877605E-01 -0.27622772111E-01  0.35737005818E-01  0.00000000000E+00 0.  1.
  9000001    1    1    2    0    0 -0.11747065899E-01  0.19393877605E-01  0.27622772111E-01  0.35750994182E-01  0.10000000475E-02 0. -1.
</event>
<event>
 4   0  0.4958067E-02  0.9118800E+02  0.7818609E-02  0.1379984E+01
      -11   -1    0    0    0    0  0.00000000000E+00  0.00000000000E+00  0.35740347158E-01  0.35744000000E-01  0.51099999109E-03 0.  1.
       11   -1    0    0    0    0 -0.00000000000E+00 -0.00000000000E+00 -0.35740347158E-01  0.35744000000E-01  0.51099999109E-03 0. -1.
       22    1    1    2    0    0  0.28108193004E-02 -0.56242718869E-02 -0.35179545840E-01  0.35737005818E-01  0.00000000000E+00 0. -1.
  9000001    1    1    2    0    0 -0.28108193004E-02  0.56242718869E-02  0.35179545840E-01  0.35750994182E-01  0.10000000475E-02 0.  1.
</event>
<event>
 4   0  0.4958067E-02  0.9118800E+02  0.7818609E-02  0.1379984E+01
      -11   -1    0    0    0    0  0.00000000000E+00  0.00000000000E+00  0.35740347158E-01  0.35744000000E-01  0.51099999109E-03 0. -1.
       11   -1    0    0    0    0 -0.00000000000E+00 -0.00000000000E+00 -0.35740347158E-01  0.35744000000E-01  0.51099999109E-03 0.  1.
       22    1    1    2    0    0  0.60283722413E-02  0.82798183934E-02  0.34237945621E-01  0.35737005818E-01  0.00000000000E+00 0. -1.
  9000001    1    1    2    0    0 -0.60283722413E-02 -0.82798183934E-02 -0.34237945621E-01  0.35750994182E-01  0.10000000475E-02 0.  1.
</event>
<event>
 4   0  0.4958067E-02  0.9118800E+02  0.7818609E-02  0.1379984E+01
      -11   -1    0    0    0    0  0.00000000000E+00  0.00000000000E+00  0.35740347158E-01  0.35744000000E-01  0.51099999109E-03 0. -1.
       11   -1    0    0    0    0 -0.00000000000E+00 -0.00000000000E+00 -0.35740347158E-01  0.35744000000E-01  0.51099999109E-03 0.  1.
       22    1    1    2    0    0 -0.30290144082E-02 -0.12004768344E-01  0.33523785490E-01  0.35737005818E-01  0.00000000000E+00 0. -1.
  9000001    1    1    2    0    0  0.30290144082E-02  0.12004768344E-01 -0.33523785490E-01  0.35750994182E-01  0.10000000475E-02 0.  1.
</event>
<event>
 4   0  0.4958067E-02  0.9118800E+02  0.7818609E-02  0.1379984E+01
      -11   -1    0    0    0    0  0.00000000000E+00  0.00000000000E+00  0.35740347158E-01  0.35744000000E-01  0.51099999109E-03 0. -1.
       11   -1    0    0    0    0 -0.00000000000E+00 -0.00000000000E+00 -0.35740347158E-01  0.35744000000E-01  0.51099999109E-03 0.  1.
       22    1    1    2    0    0  0.28769486256E-01 -0.18681518912E-01  0.10022529451E-01  0.35737005818E-01  0.00000000000E+00 0. -1.
  9000001    1    1    2    0    0 -0.28769486256E-01  0.18681518912E-01 -0.10022529451E-01  0.35750994182E-01  0.10000000475E-02 0.  1.
</event>
<event>
 4   0  0.4958067E-02  0.9118800E+02  0.7818609E-02  0.1379984E+01
      -11   -1    0    0    0    0  0.00000000000E+00  0.00000000000E+00  0.35740347158E-01  0.35744000000E-01  0.51099999109E-03 0.  1.
       11   -1    0    0    0    0 -0.00000000000E+00 -0.00000000000E+00 -0.35740347158E-01  0.35744000000E-01  0.51099999109E-03 0. -1.
       22    1    1    2    0    0  0.30524882908E-02 -0.27131671882E-02  0.35502881910E-01  0.35737005818E-01  0.00000000000E+00 0.  1.
  9000001    1    1    2    0    0 -0.30524882908E-02  0.27131671882E-02 -0.35502881910E-01  0.35750994182E-01  0.10000000475E-02 0. -1.
</event>
<event>
 4   0  0.4958067E-02  0.9118800E+02  0.7818609E-02  0.1379984E+01
      -11   -1    0    0    0    0  0.00000000000E+00  0.00000000000E+00  0.35740347158E-01  0.35744000000E-01  0.51099999109E-03 0.  1.
       11   -1    0    0    0    0 -0.00000000000E+00 -0.00000000000E+00 -0.35740347158E-01  0.35744000000E-01  0.51099999109E-03 0. -1.
       22    1    1    2    0    0  0.56580090426E-02  0.20640254711E-01  0.28619930189E-01  0.35737005818E-01  0.00000000000E+00 0.  1.
  9000001    1    1    2    0    0 -0.56580090426E-02 -0.20640254711E-01 -0.28619930189E-01  0.35750994182E-01  0.10000000475E-02 0. -1.
</event>
<event>
 4   0  0.4958067E-02  0.9118800E+02  0.7818609E-02  0.1379984E+01
      -11   -1    0    0    0    0  0.00000000000E+00  0.00000000000E+00  0.35740347158E-01  0.35744000000E-01  0.51099999109E-03 0. -1.
       11   -1    0    0    0    0 -0.00000000000E+00 -0.00000000000E+00 -0.35740347158E-01  0.35744000000E-01  0.51099999109E-03 0.  1.
       22    1    1    2    0    0  0.73753339133E-02  0.28581058971E-01  0.20145994705E-01  0.35737005818E-01  0.00000000000E+00 0. -1.
  9000001    1    1    2    0    0 -0.73753339133E-02 -0.28581058971E-01 -0.20145994705E-01  0.35750994182E-01  0.10000000475E-02 0.  1.
</event>
<event>
 4   0  0.4958067E-02  0.9118800E+02  0.7818609E-02  0.1379984E+01
      -11   -1    0    0    0    0  0.00000000000E+00  0.00000000000E+00  0.35740347158E-01  0.35744000000E-01  0.51099999109E-03 0.  1.
       11   -1    0    0    0    0 -0.00000000000E+00 -0.00000000000E+00 -0.35740347158E-01  0.35744000000E-01  0.51099999109E-03 0. -1.
       22    1    1    2    0    0  0.13445973459E-02 -0.79273414975E-02  0.34820725145E-01  0.35737005818E-01  0.00000000000E+00 0.  1.
  9000001    1    1    2    0    0 -0.13445973459E-02  0.79273414975E-02 -0.34820725145E-01  0.35750994182E-01  0.10000000475E-02 0. -1.
</event>
<event>
 4   0  0.4958067E-02  0.9118800E+02  0.7818609E-02  0.1379984E+01
      -11   -1    0    0    0    0  0.00000000000E+00  0.00000000000E+00  0.35740347158E-01  0.35744000000E-01  0.51099999109E-03 0.  1.
       11   -1    0    0    0    0 -0.00000000000E+00 -0.00000000000E+00 -0.35740347158E-01  0.35744000000E-01  0.51099999109E-03 0. -1.
       22    1    1    2    0    0 -0.19393551511E-01  0.25109284237E-01 -0.16448330912E-01  0.35737005818E-01  0.00000000000E+00 0. -1.
  9000001    1    1    2    0    0  0.19393551511E-01 -0.25109284237E-01  0.16448330912E-01  0.35750994182E-01  0.10000000475E-02 0.  1.
</event>
<event>
 4   0  0.4958067E-02  0.9118800E+02  0.7818609E-02  0.1379984E+01
      -11   -1    0    0    0    0  0.00000000000E+00  0.00000000000E+00  0.35740347158E-01  0.35744000000E-01  0.51099999109E-03 0. -1.
       11   -1    0    0    0    0 -0.00000000000E+00 -0.00000000000E+00 -0.35740347158E-01  0.35744000000E-01  0.51099999109E-03 0.  1.
       22    1    1    2    0    0 -0.24087107793E-02  0.69133530777E-02 -0.34979097279E-01  0.35737005818E-01  0.00000000000E+00 0.  1.
  9000001    1    1    2    0    0  0.24087107793E-02 -0.69133530777E-02  0.34979097279E-01  0.35750994182E-01  0.10000000475E-02 0. -1.
</event>
<event>
 4   0  0.4958067E-02  0.9118800E+02  0.7818609E-02  0.1379984E+01
      -11   -1    0    0    0    0  0.00000000000E+00  0.00000000000E+00  0.35740347158E-01  0.35744000000E-01  0.51099999109E-03 0.  1.
       11   -1    0    0    0    0 -0.00000000000E+00 -0.00000000000E+00 -0.35740347158E-01  0.35744000000E-01  0.51099999109E-03 0. -1.
       22    1    1    2    0    0  0.15814429513E-01 -0.25184400412E-02 -0.31948315508E-01  0.35737005818E-01  0.00000000000E+00 0. -1.
  9000001    1    1    2    0    0 -0.15814429513E-01  0.25184400412E-02  0.31948315508E-01  0.35750994182E-01  0.10000000475E-02 0.  1.
</event>
<event>
 4   0  0.4958067E-02  0.9118800E+02  0.7818609E-02  0.1379984E+01
      -11   -1    0    0    0    0  0.00000000000E+00  0.00000000000E+00  0.35740347158E-01  0.35744000000E-01  0.51099999109E-03 0. -1.
       11   -1    0    0    0    0 -0.00000000000E+00 -0.00000000000E+00 -0.35740347158E-01  0.35744000000E-01  0.51099999109E-03 0.  1.
       22    1    1    2    0    0 -0.22783163062E-03  0.50190772642E-02  0.35382065245E-01  0.35737005818E-01  0.00000000000E+00 0. -1.
  9000001    1    1    2    0    0  0.22783163062E-03 -0.50190772642E-02 -0.35382065245E-01  0.35750994182E-01  0.10000000475E-02 0.  1.
</event>
<event>
 4   0  0.4958067E-02  0.9118800E+02  0.7818609E-02  0.1379984E+01
      -11   -1    0    0    0    0  0.00000000000E+00  0.00000000000E+00  0.35740347158E-01  0.35744000000E-01  0.51099999109E-03 0. -1.
       11   -1    0    0    0    0 -0.00000000000E+00 -0.00000000000E+00 -0.35740347158E-01  0.35744000000E-01  0.51099999109E-03 0.  1.
       22    1    1    2    0    0  0.23106664433E-01 -0.16889192203E-01 -0.21400253045E-01  0.35737005818E-01  0.00000000000E+00 0.  1.
  9000001    1    1    2    0    0 -0.23106664433E-01  0.16889192203E-01  0.21400253045E-01  0.35750994182E-01  0.10000000475E-02 0. -1.
</event>
<event>
 4   0  0.4958067E-02  0.9118800E+02  0.7818609E-02  0.1379984E+01
      -11   -1    0    0    0    0  0.00000000000E+00  0.00000000000E+00  0.35740347158E-01  0.35744000000E-01  0.51099999109E-03 0. -1.
       11   -1    0    0    0    0 -0.00000000000E+00 -0.00000000000E+00 -0.35740347158E-01  0.35744000000E-01  0.51099999109E-03 0.  1.
       22    1    1    2    0    0  0.41328004178E-02 -0.18456764503E-02 -0.35449217537E-01  0.35737005818E-01  0.00000000000E+00 0.  1.
  9000001    1    1    2    0    0 -0.41328004178E-02  0.18456764503E-02  0.35449217537E-01  0.35750994182E-01  0.10000000475E-02 0. -1.
</event>
<event>
 4   0  0.4958067E-02  0.9118800E+02  0.7818609E-02  0.1379984E+01
      -11   -1    0    0    0    0  0.00000000000E+00  0.00000000000E+00  0.35740347158E-01  0.35744000000E-01  0.51099999109E-03 0.  1.
       11   -1    0    0    0    0 -0.00000000000E+00 -0.00000000000E+00 -0.35740347158E-01  0.35744000000E-01  0.51099999109E-03 0. -1.
       22    1    1    2    0    0  0.70003925221E-03  0.92038425188E-02 -0.34524379977E-01  0.35737005818E-01  0.00000000000E+00 0. -1.
  9000001    1    1    2    0    0 -0.70003925221E-03 -0.92038425188E-02  0.34524379977E-01  0.35750994182E-01  0.10000000475E-02 0.  1.
</event>
<event>
 4   0  0.4958067E-02  0.9118800E+02  0.7818609E-02  0.1379984E+01
      -11   -1    0    0    0    0  0.00000000000E+00  0.00000000000E+00  0.35740347158E-01  0.35744000000E-01  0.51099999109E-03 0.  1.
       11   -1    0    0    0    0 -0.00000000000E+00 -0.00000000000E+00 -0.35740347158E-01  0.35744000000E-01  0.51099999109E-03 0. -1.
       22    1    1    2    0    0 -0.17904494475E-02 -0.20627708845E-01 -0.29127744565E-01  0.35737005818E-01  0.00000000000E+00 0. -1.
  9000001    1    1    2    0    0  0.17904494475E-02  0.20627708845E-01  0.29127744565E-01  0.35750994182E-01  0.10000000475E-02 0.  1.
</event>
<event>
 4   0  0.4958067E-02  0.9118800E+02  0.7818609E-02  0.1379984E+01
      -11   -1    0    0    0    0  0.00000000000E+00  0.00000000000E+00  0.35740347158E-01  0.35744000000E-01  0.51099999109E-03 0.  1.
       11   -1    0    0    0    0 -0.00000000000E+00 -0.00000000000E+00 -0.35740347158E-01  0.35744000000E-01  0.51099999109E-03 0. -1.
       22    1    1    2    0    0 -0.21586631412E-01 -0.24287548024E-02 -0.28376963884E-01  0.35737005818E-01  0.00000000000E+00 0. -1.
  9000001    1    1    2    0    0  0.21586631412E-01  0.24287548024E-02  0.28376963884E-01  0.35750994182E-01  0.10000000475E-02 0.  1.
</event>
<event>
 4   0  0.4958067E-02  0.9118800E+02  0.7818609E-02  0.1379984E+01
      -11   -1    0    0    0    0  0.00000000000E+00  0.00000000000E+00  0.35740347158E-01  0.35744000000E-01  0.51099999109E-03 0. -1.
       11   -1    0    0    0    0 -0.00000000000E+00 -0.00000000000E+00 -0.35740347158E-01  0.35744000000E-01  0.51099999109E-03 0.  1.
       22    1    1    2    0    0 -0.73845282152E-03 -0.67976449585E-02 -0.35076777151E-01  0.35737005818E-01  0.00000000000E+00 0.  1.
  9000001    1    1    2    0    0  0.73845282152E-03  0.67976449585E-02  0.35076777151E-01  0.35750994182E-01  0.10000000475E-02 0. -1.
</event>
<event>
 4   0  0.4958067E-02  0.9118800E+02  0.7818609E-02  0.1379984E+01
      -11   -1    0    0    0    0  0.00000000000E+00  0.00000000000E+00  0.35740347158E-01  0.35744000000E-01  0.51099999109E-03 0.  1.
       11   -1    0    0    0    0 -0.00000000000E+00 -0.00000000000E+00 -0.35740347158E-01  0.35744000000E-01  0.51099999109E-03 0. -1.
       22    1    1    2    0    0  0.21733764756E-01  0.72082480481E-02  0.27437532952E-01  0.35737005818E-01  0.00000000000E+00 0.  1.
  9000001    1    1    2    0    0 -0.21733764756E-01 -0.72082480481E-02 -0.27437532952E-01  0.35750994182E-01  0.10000000475E-02 0. -1.
</event>
<event>
 4   0  0.4958067E-02  0.9118800E+02  0.7818609E-02  0.1379984E+01
      -11   -1    0    0    0    0  0.00000000000E+00  0.00000000000E+00  0.35740347158E-01  0.35744000000E-01  0.51099999109E-03 0. -1.
       11   -1    0    0    0    0 -0.00000000000E+00 -0.00000000000E+00 -0.35740347158E-01  0.35744000000E-01  0.51099999109E-03 0.  1.
       22    1    1    2    0    0  0.32318254979E-02 -0.30140673577E-02 -0.35462716856E-01  0.35737005818E-01  0.00000000000E+00 0.  1.
  9000001    1    1    2    0    0 -0.32318254979E-02  0.30140673577E-02  0.35462716856E-01  0.35750994182E-01  0.10000000475E-02 0. -1.
</event>
<event>
 4   0  0.4958067E-02  0.9118800E+02  0.7818609E-02  0.1379984E+01
      -11   -1    0    0    0    0  0.00000000000E+00  0.00000000000E+00  0.35740347158E-01  0.35744000000E-01  0.51099999109E-03 0. -1.
       11   -1    0    0    0    0 -0.00000000000E+00 -0.00000000000E+00 -0.35740347158E-01  0.35744000000E-01  0.51099999109E-03 0.  1.
       22    1    1    2    0    0  0.10425183832E-01 -0.19694085194E-01  0.27939078999E-01  0.35737005818E-01  0.00000000000E+00 0. -1.
  9000001    1    1    2    0    0 -0.10425183832E-01  0.19694085194E-01 -0.27939078999E-01  0.35750994182E-01  0.10000000475E-02 0.  1.
</event>
<event>
 4   0  0.4958067E-02  0.9118800E+02  0.7818609E-02  0.1379984E+01
      -11   -1    0    0    0    0  0.00000000000E+00  0.00000000000E+00  0.35740347158E-01  0.35744000000E-01  0.51099999109E-03 0.  1.
       11   -1    0    0    0    0 -0.00000000000E+00 -0.00000000000E+00 -0.35740347158E-01  0.35744000000E-01  0.51099999109E-03 0. -1.
       22    1    1    2    0    0  0.10842269106E-01 -0.22393807103E-02  0.33978875195E-01  0.35737005818E-01  0.00000000000E+00 0.  1.
  9000001    1    1    2    0    0 -0.10842269106E-01  0.22393807103E-02 -0.33978875195E-01  0.35750994182E-01  0.10000000475E-02 0. -1.
</event>
<event>
 4   0  0.4958067E-02  0.9118800E+02  0.7818609E-02  0.1379984E+01
      -11   -1    0    0    0    0  0.00000000000E+00  0.00000000000E+00  0.35740347158E-01  0.35744000000E-01  0.51099999109E-03 0.  1.
       11   -1    0    0    0    0 -0.00000000000E+00 -0.00000000000E+00 -0.35740347158E-01  0.35744000000E-01  0.51099999109E-03 0. -1.
       22    1    1    2    0    0 -0.28061629635E-02  0.18358180185E-02 -0.35579331170E-01  0.35737005818E-01  0.00000000000E+00 0. -1.
  9000001    1    1    2    0    0  0.28061629635E-02 -0.18358180185E-02  0.35579331170E-01  0.35750994182E-01  0.10000000475E-02 0.  1.
</event>
<event>
 4   0  0.4958067E-02  0.9118800E+02  0.7818609E-02  0.1379984E+01
      -11   -1    0    0    0    0  0.00000000000E+00  0.00000000000E+00  0.35740347158E-01  0.35744000000E-01  0.51099999109E-03 0.  1.
       11   -1    0    0    0    0 -0.00000000000E+00 -0.00000000000E+00 -0.35740347158E-01  0.35744000000E-01  0.51099999109E-03 0. -1.
       22    1    1    2    0    0 -0.10633165983E-02 -0.40212212255E-02 -0.35494122366E-01  0.35737005818E-01  0.00000000000E+00 0. -1.
  9000001    1    1    2    0    0  0.10633165983E-02  0.40212212255E-02  0.35494122366E-01  0.35750994182E-01  0.10000000475E-02 0.  1.
</event>
<event>
 4   0  0.4958067E-02  0.9118800E+02  0.7818609E-02  0.1379984E+01
      -11   -1    0    0    0    0  0.00000000000E+00  0.00000000000E+00  0.35740347158E-01  0.35744000000E-01  0.51099999109E-03 0.  1.
       11   -1    0    0    0    0 -0.00000000000E+00 -0.00000000000E+00 -0.35740347158E-01  0.35744000000E-01  0.51099999109E-03 0. -1.
       22    1    1    2    0    0 -0.13448159989E-01 -0.89714545387E-02  0.31871516770E-01  0.35737005818E-01  0.00000000000E+00 0.  1.
  9000001    1    1    2    0    0  0.13448159989E-01  0.89714545387E-02 -0.31871516770E-01  0.35750994182E-01  0.10000000475E-02 0. -1.
</event>
<event>
 4   0  0.4958067E-02  0.9118800E+02  0.7818609E-02  0.1379984E+01
      -11   -1    0    0    0    0  0.00000000000E+00  0.00000000000E+00  0.35740347158E-01  0.35744000000E-01  0.51099999109E-03 0. -1.
       11   -1    0    0    0    0 -0.00000000000E+00 -0.00000000000E+00 -0.35740347158E-01  0.35744000000E-01  0.51099999109E-03 0.  1.
       22    1    1    2    0    0 -0.24687354266E-01  0.21551235077E-01 -0.14255258358E-01  0.35737005818E-01  0.00000000000E+00 0.  1.
  9000001    1    1    2    0    0  0.24687354266E-01 -0.21551235077E-01  0.14255258358E-01  0.35750994182E-01  0.10000000475E-02 0. -1.
</event>
<event>
 4   0  0.4958067E-02  0.9118800E+02  0.7818609E-02  0.1379984E+01
      -11   -1    0    0    0    0  0.00000000000E+00  0.00000000000E+00  0.35740347158E-01  0.35744000000E-01  0.51099999109E-03 0. -1.
       11   -1    0    0    0    0 -0.00000000000E+00 -0.00000000000E+00 -0.35740347158E-01  0.35744000000E-01  0.51099999109E-03 0.  1.
       22    1    1    2    0    0 -0.63380048849E-02  0.53889951832E-02  0.34755172419E-01  0.35737005818E-01  0.00000000000E+00 0. -1.
  9000001    1    1    2    0    0  0.63380048849E-02 -0.53889951832E-02 -0.34755172419E-01  0.35750994182E-01  0.10000000475E-02 0.  1.
</event>
<event>
 4   0  0.4958067E-02  0.9118800E+02  0.7818609E-02  0.1379984E+01
      -11   -1    0    0    0    0  0.00000000000E+00  0.00000000000E+00  0.35740347158E-01  0.35744000000E-01  0.51099999109E-03 0. -1.
       11   -1    0    0    0    0 -0.00000000000E+00 -0.00000000000E+00 -0.35740347158E-01  0.35744000000E-01  0.51099999109E-03 0.  1.
       22    1    1    2    0    0 -0.40858507908E-02 -0.18873613762E-02 -0.35452465009E-01  0.35737005818E-01  0.00000000000E+00 0.  1.
  9000001    1    1    2    0    0  0.40858507908E-02  0.18873613762E-02  0.35452465009E-01  0.35750994182E-01  0.10000000475E-02 0. -1.
</event>
<event>
 4   0  0.4958067E-02  0.9118800E+02  0.7818609E-02  0.1379984E+01
      -11   -1    0    0    0    0  0.00000000000E+00  0.00000000000E+00  0.35740347158E-01  0.35744000000E-01  0.51099999109E-03 0. -1.
       11   -1    0    0    0    0 -0.00000000000E+00 -0.00000000000E+00 -0.35740347158E-01  0.35744000000E-01  0.51099999109E-03 0.  1.
       22    1    1    2    0    0 -0.76089568716E-02  0.12478245268E-01  0.32611819257E-01  0.35737005818E-01  0.00000000000E+00 0. -1.
  9000001    1    1    2    0    0  0.76089568716E-02 -0.12478245268E-01 -0.32611819257E-01  0.35750994182E-01  0.10000000475E-02 0.  1.
</event>
<event>
 4   0  0.4958067E-02  0.9118800E+02  0.7818609E-02  0.1379984E+01
      -11   -1    0    0    0    0  0.00000000000E+00  0.00000000000E+00  0.35740347158E-01  0.35744000000E-01  0.51099999109E-03 0. -1.
       11   -1    0    0    0    0 -0.00000000000E+00 -0.00000000000E+00 -0.35740347158E-01  0.35744000000E-01  0.51099999109E-03 0.  1.
       22    1    1    2    0    0 -0.63905106301E-02  0.37226051227E-02  0.34963368972E-01  0.35737005818E-01  0.00000000000E+00 0. -1.
  9000001    1    1    2    0    0  0.63905106301E-02 -0.37226051227E-02 -0.34963368972E-01  0.35750994182E-01  0.10000000475E-02 0.  1.
</event>
<event>
 4   0  0.4958067E-02  0.9118800E+02  0.7818609E-02  0.1379984E+01
      -11   -1    0    0    0    0  0.00000000000E+00  0.00000000000E+00  0.35740347158E-01  0.35744000000E-01  0.51099999109E-03 0. -1.
       11   -1    0    0    0    0 -0.00000000000E+00 -0.00000000000E+00 -0.35740347158E-01  0.35744000000E-01  0.51099999109E-03 0.  1.
       22    1    1    2    0    0  0.48206209731E-02  0.11721100025E-01  0.33414233681E-01  0.35737005818E-01  0.00000000000E+00 0. -1.
  9000001    1    1    2    0    0 -0.48206209731E-02 -0.11721100025E-01 -0.33414233681E-01  0.35750994182E-01  0.10000000475E-02 0.  1.
</event>
<event>
 4   0  0.4958067E-02  0.9118800E+02  0.7818609E-02  0.1379984E+01
      -11   -1    0    0    0    0  0.00000000000E+00  0.00000000000E+00  0.35740347158E-01  0.35744000000E-01  0.51099999109E-03 0. -1.
       11   -1    0    0    0    0 -0.00000000000E+00 -0.00000000000E+00 -0.35740347158E-01  0.35744000000E-01  0.51099999109E-03 0.  1.
       22    1    1    2    0    0 -0.16245266755E-02  0.31964416531E-02  0.35556676711E-01  0.35737005818E-01  0.00000000000E+00 0. -1.
  9000001    1    1    2    0    0  0.16245266755E-02 -0.31964416531E-02 -0.35556676711E-01  0.35750994182E-01  0.10000000475E-02 0.  1.
</event>
<event>
 4   0  0.4958067E-02  0.9118800E+02  0.7818609E-02  0.1379984E+01
      -11   -1    0    0    0    0  0.00000000000E+00  0.00000000000E+00  0.35740347158E-01  0.35744000000E-01  0.51099999109E-03 0. -1.
       11   -1    0    0    0    0 -0.00000000000E+00 -0.00000000000E+00 -0.35740347158E-01  0.35744000000E-01  0.51099999109E-03 0.  1.
       22    1    1    2    0    0  0.15713745613E-01  0.12144362378E-01  0.29710709283E-01  0.35737005818E-01  0.00000000000E+00 0. -1.
  9000001    1    1    2    0    0 -0.15713745613E-01 -0.12144362378E-01 -0.29710709283E-01  0.35750994182E-01  0.10000000475E-02 0.  1.
</event>
<event>
 4   0  0.4958067E-02  0.9118800E+02  0.7818609E-02  0.1379984E+01
      -11   -1    0    0    0    0  0.00000000000E+00  0.00000000000E+00  0.35740347158E-01  0.35744000000E-01  0.51099999109E-03 0. -1.
       11   -1    0    0    0    0 -0.00000000000E+00 -0.00000000000E+00 -0.35740347158E-01  0.35744000000E-01  0.51099999109E-03 0.  1.
       22    1    1    2    0    0 -0.26030863481E-01 -0.13812273195E-02 -0.24446266431E-01  0.35737005818E-01  0.00000000000E+00 0.  1.
  9000001    1    1    2    0    0  0.26030863481E-01  0.13812273195E-02  0.24446266431E-01  0.35750994182E-01  0.10000000475E-02 0. -1.
</event>
<event>
 4   0  0.4958067E-02  0.9118800E+02  0.7818609E-02  0.1379984E+01
      -11   -1    0    0    0    0  0.00000000000E+00  0.00000000000E+00  0.35740347158E-01  0.35744000000E-01  0.51099999109E-03 0. -1.
       11   -1    0    0    0    0 -0.00000000000E+00 -0.00000000000E+00 -0.35740347158E-01  0.35744000000E-01  0.51099999109E-03 0.  1.
       22    1    1    2    0    0  0.30878551309E-01  0.43207502295E-02 -0.17463670044E-01  0.35737005818E-01  0.00000000000E+00 0.  1.
  9000001    1    1    2    0    0 -0.30878551309E-01 -0.43207502295E-02  0.17463670044E-01  0.35750994182E-01  0.10000000475E-02 0. -1.
</event>
<event>
 4   0  0.4958067E-02  0.9118800E+02  0.7818609E-02  0.1379984E+01
      -11   -1    0    0    0    0  0.00000000000E+00  0.00000000000E+00  0.35740347158E-01  0.35744000000E-01  0.51099999109E-03 0. -1.
       11   -1    0    0    0    0 -0.00000000000E+00 -0.00000000000E+00 -0.35740347158E-01  0.35744000000E-01  0.51099999109E-03 0.  1.
       22    1    1    2    0    0 -0.29893059069E-02 -0.15737527824E-02  0.35576972008E-01  0.35737005818E-01  0.00000000000E+00 0. -1.
  9000001    1    1    2    0    0  0.29893059069E-02  0.15737527824E-02 -0.35576972008E-01  0.35750994182E-01  0.10000000475E-02 0.  1.
</event>
<event>
 4   0  0.4958067E-02  0.9118800E+02  0.7818609E-02  0.1379984E+01
      -11   -1    0    0    0    0  0.00000000000E+00  0.00000000000E+00  0.35740347158E-01  0.35744000000E-01  0.51099999109E-03 0.  1.
       11   -1    0    0    0    0 -0.00000000000E+00 -0.00000000000E+00 -0.35740347158E-01  0.35744000000E-01  0.51099999109E-03 0. -1.
       22    1    1    2    0    0  0.85280016052E-02  0.31553256196E-01  0.14449871865E-01  0.35737005818E-01  0.00000000000E+00 0.  1.
  9000001    1    1    2    0    0 -0.85280016052E-02 -0.31553256196E-01 -0.14449871865E-01  0.35750994182E-01  0.10000000475E-02 0. -1.
</event>
<event>
 4   0  0.4958067E-02  0.9118800E+02  0.7818609E-02  0.1379984E+01
      -11   -1    0    0    0    0  0.00000000000E+00  0.00000000000E+00  0.35740347158E-01  0.35744000000E-01  0.51099999109E-03 0. -1.
       11   -1    0    0    0    0 -0.00000000000E+00 -0.00000000000E+00 -0.35740347158E-01  0.35744000000E-01  0.51099999109E-03 0.  1.
       22    1    1    2    0    0 -0.11340568100E-01  0.11987490058E-01  0.31698977620E-01  0.35737005818E-01  0.00000000000E+00 0. -1.
  9000001    1    1    2    0    0  0.11340568100E-01 -0.11987490058E-01 -0.31698977620E-01  0.35750994182E-01  0.10000000475E-02 0.  1.
</event>
<event>
 4   0  0.4958067E-02  0.9118800E+02  0.7818609E-02  0.1379984E+01
      -11   -1    0    0    0    0  0.00000000000E+00  0.00000000000E+00  0.35740347158E-01  0.35744000000E-01  0.51099999109E-03 0. -1.
       11   -1    0    0    0    0 -0.00000000000E+00 -0.00000000000E+00 -0.35740347158E-01  0.35744000000E-01  0.51099999109E-03 0.  1.
       22    1    1    2    0    0  0.44119682282E-02  0.32528291793E-01  0.14127220329E-01  0.35737005818E-01  0.00000000000E+00 0. -1.
  9000001    1    1    2    0    0 -0.44119682282E-02 -0.32528291793E-01 -0.14127220329E-01  0.35750994182E-01  0.10000000475E-02 0.  1.
</event>
<event>
 4   0  0.4958067E-02  0.9118800E+02  0.7818609E-02  0.1379984E+01
      -11   -1    0    0    0    0  0.00000000000E+00  0.00000000000E+00  0.35740347158E-01  0.35744000000E-01  0.51099999109E-03 0. -1.
       11   -1    0    0    0    0 -0.00000000000E+00 -0.00000000000E+00 -0.35740347158E-01  0.35744000000E-01  0.51099999109E-03 0.  1.
       22    1    1    2    0    0 -0.21028745703E-02 -0.28485274796E-02  0.35561178195E-01  0.35737005818E-01  0.00000000000E+00 0. -1.
  9000001    1    1    2    0    0  0.21028745703E-02  0.28485274796E-02 -0.35561178195E-01  0.35750994182E-01  0.10000000475E-02 0.  1.
</event>
<event>
 4   0  0.4958067E-02  0.9118800E+02  0.7818609E-02  0.1379984E+01
      -11   -1    0    0    0    0  0.00000000000E+00  0.00000000000E+00  0.35740347158E-01  0.35744000000E-01  0.51099999109E-03 0. -1.
       11   -1    0    0    0    0 -0.00000000000E+00 -0.00000000000E+00 -0.35740347158E-01  0.35744000000E-01  0.51099999109E-03 0.  1.
       22    1    1    2    0    0 -0.12977706638E-01  0.20373991751E-02  0.33234947268E-01  0.35737005818E-01  0.00000000000E+00 0. -1.
  9000001    1    1    2    0    0  0.12977706638E-01 -0.20373991751E-02 -0.33234947268E-01  0.35750994182E-01  0.10000000475E-02 0.  1.
</event>
<event>
 4   0  0.4958067E-02  0.9118800E+02  0.7818609E-02  0.1379984E+01
      -11   -1    0    0    0    0  0.00000000000E+00  0.00000000000E+00  0.35740347158E-01  0.35744000000E-01  0.51099999109E-03 0. -1.
       11   -1    0    0    0    0 -0.00000000000E+00 -0.00000000000E+00 -0.35740347158E-01  0.35744000000E-01  0.51099999109E-03 0.  1.
       22    1    1    2    0    0 -0.46644627587E-02 -0.12613803332E-02 -0.35408830702E-01  0.35737005818E-01  0.00000000000E+00 0.  1.
  9000001    1    1    2    0    0  0.46644627587E-02  0.12613803332E-02  0.35408830702E-01  0.35750994182E-01  0.10000000475E-02 0. -1.
</event>
<event>
 4   0  0.4958067E-02  0.9118800E+02  0.7818609E-02  0.1379984E+01
      -11   -1    0    0    0    0  0.00000000000E+00  0.00000000000E+00  0.35740347158E-01  0.35744000000E-01  0.51099999109E-03 0. -1.
       11   -1    0    0    0    0 -0.00000000000E+00 -0.00000000000E+00 -0.35740347158E-01  0.35744000000E-01  0.51099999109E-03 0.  1.
       22    1    1    2    0    0 -0.44013387758E-02  0.16676180048E-01 -0.31299629724E-01  0.35737005818E-01  0.00000000000E+00 0.  1.
  9000001    1    1    2    0    0  0.44013387758E-02 -0.16676180048E-01  0.31299629724E-01  0.35750994182E-01  0.10000000475E-02 0. -1.
</event>
<event>
 4   0  0.4958067E-02  0.9118800E+02  0.7818609E-02  0.1379984E+01
      -11   -1    0    0    0    0  0.00000000000E+00  0.00000000000E+00  0.35740347158E-01  0.35744000000E-01  0.51099999109E-03 0. -1.
       11   -1    0    0    0    0 -0.00000000000E+00 -0.00000000000E+00 -0.35740347158E-01  0.35744000000E-01  0.51099999109E-03 0.  1.
       22    1    1    2    0    0  0.15186560976E-02 -0.45810039406E-02  0.35409626818E-01  0.35737005818E-01  0.00000000000E+00 0. -1.
  9000001    1    1    2    0    0 -0.15186560976E-02  0.45810039406E-02 -0.35409626818E-01  0.35750994182E-01  0.10000000475E-02 0.  1.
</event>
<event>
 4   0  0.4958067E-02  0.9118800E+02  0.7818609E-02  0.1379984E+01
      -11   -1    0    0    0    0  0.00000000000E+00  0.00000000000E+00  0.35740347158E-01  0.35744000000E-01  0.51099999109E-03 0.  1.
       11   -1    0    0    0    0 -0.00000000000E+00 -0.00000000000E+00 -0.35740347158E-01  0.35744000000E-01  0.51099999109E-03 0. -1.
       22    1    1    2    0    0  0.34713529595E-02 -0.75710581247E-02  0.34752875743E-01  0.35737005818E-01  0.00000000000E+00 0.  1.
  9000001    1    1    2    0    0 -0.34713529595E-02  0.75710581247E-02 -0.34752875743E-01  0.35750994182E-01  0.10000000475E-02 0. -1.
</event>
<event>
 4   0  0.4958067E-02  0.9118800E+02  0.7818609E-02  0.1379984E+01
      -11   -1    0    0    0    0  0.00000000000E+00  0.00000000000E+00  0.35740347158E-01  0.35744000000E-01  0.51099999109E-03 0.  1.
       11   -1    0    0    0    0 -0.00000000000E+00 -0.00000000000E+00 -0.35740347158E-01  0.35744000000E-01  0.51099999109E-03 0. -1.
       22    1    1    2    0    0  0.30300138320E-02 -0.12770945277E-02 -0.35585413172E-01  0.35737005818E-01  0.00000000000E+00 0. -1.
  9000001    1    1    2    0    0 -0.30300138320E-02  0.12770945277E-02  0.35585413172E-01  0.35750994182E-01  0.10000000475E-02 0.  1.
</event>
<event>
 4   0  0.4958067E-02  0.9118800E+02  0.7818609E-02  0.1379984E+01
      -11   -1    0    0    0    0  0.00000000000E+00  0.00000000000E+00  0.35740347158E-01  0.35744000000E-01  0.51099999109E-03 0. -1.
       11   -1    0    0    0    0 -0.00000000000E+00 -0.00000000000E+00 -0.35740347158E-01  0.35744000000E-01  0.51099999109E-03 0.  1.
       22    1    1    2    0    0  0.24006519648E-01  0.22856532295E-02 -0.26374161381E-01  0.35737005818E-01  0.00000000000E+00 0.  1.
  9000001    1    1    2    0    0 -0.24006519648E-01 -0.22856532295E-02  0.26374161381E-01  0.35750994182E-01  0.10000000475E-02 0. -1.
</event>
<event>
 4   0  0.4958067E-02  0.9118800E+02  0.7818609E-02  0.1379984E+01
      -11   -1    0    0    0    0  0.00000000000E+00  0.00000000000E+00  0.35740347158E-01  0.35744000000E-01  0.51099999109E-03 0. -1.
       11   -1    0    0    0    0 -0.00000000000E+00 -0.00000000000E+00 -0.35740347158E-01  0.35744000000E-01  0.51099999109E-03 0.  1.
       22    1    1    2    0    0 -0.29758554344E-01  0.15615436588E-01 -0.12154018611E-01  0.35737005818E-01  0.00000000000E+00 0.  1.
  9000001    1    1    2    0    0  0.29758554344E-01 -0.15615436588E-01  0.12154018611E-01  0.35750994182E-01  0.10000000475E-02 0. -1.
</event>
<event>
 4   0  0.4958067E-02  0.9118800E+02  0.7818609E-02  0.1379984E+01
      -11   -1    0    0    0    0  0.00000000000E+00  0.00000000000E+00  0.35740347158E-01  0.35744000000E-01  0.51099999109E-03 0. -1.
       11   -1    0    0    0    0 -0.00000000000E+00 -0.00000000000E+00 -0.35740347158E-01  0.35744000000E-01  0.51099999109E-03 0.  1.
       22    1    1    2    0    0  0.13393719257E-01  0.13322647646E-02  0.33105391403E-01  0.35737005818E-01  0.00000000000E+00 0. -1.
  9000001    1    1    2    0    0 -0.13393719257E-01 -0.13322647646E-02 -0.33105391403E-01  0.35750994182E-01  0.10000000475E-02 0.  1.
</event>
<event>
 4   0  0.4958067E-02  0.9118800E+02  0.7818609E-02  0.1379984E+01
      -11   -1    0    0    0    0  0.00000000000E+00  0.00000000000E+00  0.35740347158E-01  0.35744000000E-01  0.51099999109E-03 0. -1.
       11   -1    0    0    0    0 -0.00000000000E+00 -0.00000000000E+00 -0.35740347158E-01  0.35744000000E-01  0.51099999109E-03 0.  1.
       22    1    1    2    0    0  0.16216169270E-02 -0.47852075415E-02 -0.35378040254E-01  0.35737005818E-01  0.00000000000E+00 0.  1.
  9000001    1    1    2    0    0 -0.16216169270E-02  0.47852075415E-02  0.35378040254E-01  0.35750994182E-01  0.10000000475E-02 0. -1.
</event>
<event>
 4   0  0.4958067E-02  0.9118800E+02  0.7818609E-02  0.1379984E+01
      -11   -1    0    0    0    0  0.00000000000E+00  0.00000000000E+00  0.35740347158E-01  0.35744000000E-01  0.51099999109E-03 0. -1.
       11   -1    0    0    0    0 -0.00000000000E+00 -0.00000000000E+00 -0.35740347158E-01  0.35744000000E-01  0.51099999109E-03 0.  1.
       22    1    1    2    0    0 -0.15323975263E-02 -0.77100191028E-02 -0.34861740463E-01  0.35737005818E-01  0.00000000000E+00 0.  1.
  9000001    1    1    2    0    0  0.15323975263E-02  0.77100191028E-02  0.34861740463E-01  0.35750994182E-01  0.10000000475E-02 0. -1.
</event>
<event>
 4   0  0.4958067E-02  0.9118800E+02  0.7818609E-02  0.1379984E+01
      -11   -1    0    0    0    0  0.00000000000E+00  0.00000000000E+00  0.35740347158E-01  0.35744000000E-01  0.51099999109E-03 0. -1.
       11   -1    0    0    0    0 -0.00000000000E+00 -0.00000000000E+00 -0.35740347158E-01  0.35744000000E-01  0.51099999109E-03 0.  1.
       22    1    1    2    0    0 -0.96514844093E-02 -0.15690726775E-01  0.30623251409E-01  0.35737005818E-01  0.00000000000E+00 0. -1.
  9000001    1    1    2    0    0  0.96514844093E-02  0.15690726775E-01 -0.30623251409E-01  0.35750994182E-01  0.10000000475E-02 0.  1.
</event>
<event>
 4   0  0.4958067E-02  0.9118800E+02  0.7818609E-02  0.1379984E+01
      -11   -1    0    0    0    0  0.00000000000E+00  0.00000000000E+00  0.35740347158E-01  0.35744000000E-01  0.51099999109E-03 0.  1.
       11   -1    0    0    0    0 -0.00000000000E+00 -0.00000000000E+00 -0.35740347158E-01  0.35744000000E-01  0.51099999109E-03 0. -1.
       22    1    1    2    0    0  0.11237417965E-01 -0.29739106434E-01 -0.16322976776E-01  0.35737005818E-01  0.00000000000E+00 0. -1.
  9000001    1    1    2    0    0 -0.11237417965E-01  0.29739106434E-01  0.16322976776E-01  0.35750994182E-01  0.10000000475E-02 0.  1.
</event>
<event>
 4   0  0.4958067E-02  0.9118800E+02  0.7818609E-02  0.1379984E+01
      -11   -1    0    0    0    0  0.00000000000E+00  0.00000000000E+00  0.35740347158E-01  0.35744000000E-01  0.51099999109E-03 0. -1.
       11   -1    0    0    0    0 -0.00000000000E+00 -0.00000000000E+00 -0.35740347158E-01  0.35744000000E-01  0.51099999109E-03 0.  1.
       22    1    1    2    0    0  0.92366721253E-03 -0.53187772368E-02  0.35326916543E-01  0.35737005818E-01  0.00000000000E+00 0. -1.
  9000001    1    1    2    0    0 -0.92366721253E-03  0.53187772368E-02 -0.35326916543E-01  0.35750994182E-01  0.10000000475E-02 0.  1.
</event>
<event>
 4   0  0.4958067E-02  0.9118800E+02  0.7818609E-02  0.1379984E+01
      -11   -1    0    0    0    0  0.00000000000E+00  0.00000000000E+00  0.35740347158E-01  0.35744000000E-01  0.51099999109E-03 0.  1.
       11   -1    0    0    0    0 -0.00000000000E+00 -0.00000000000E+00 -0.35740347158E-01  0.35744000000E-01  0.51099999109E-03 0. -1.
       22    1    1    2    0    0  0.37767194732E-02 -0.89120179353E-02  0.34401248687E-01  0.35737005818E-01  0.00000000000E+00 0.  1.
  9000001    1    1    2    0    0 -0.37767194732E-02  0.89120179353E-02 -0.34401248687E-01  0.35750994182E-01  0.10000000475E-02 0. -1.
</event>
<event>
 4   0  0.4958067E-02  0.9118800E+02  0.7818609E-02  0.1379984E+01
      -11   -1    0    0    0    0  0.00000000000E+00  0.00000000000E+00  0.35740347158E-01  0.35744000000E-01  0.51099999109E-03 0. -1.
       11   -1    0    0    0    0 -0.00000000000E+00 -0.00000000000E+00 -0.35740347158E-01  0.35744000000E-01  0.51099999109E-03 0.  1.
       22    1    1    2    0    0  0.55706104127E-02 -0.15133068027E-02  0.35267715931E-01  0.35737005818E-01  0.00000000000E+00 0. -1.
  9000001    1    1    2    0    0 -0.55706104127E-02  0.15133068027E-02 -0.35267715931E-01  0.35750994182E-01  0.10000000475E-02 0.  1.
</event>
<event>
 4   0  0.4958067E-02  0.9118800E+02  0.7818609E-02  0.1379984E+01
      -11   -1    0    0    0    0  0.00000000000E+00  0.00000000000E+00  0.35740347158E-01  0.35744000000E-01  0.51099999109E-03 0. -1.
       11   -1    0    0    0    0 -0.00000000000E+00 -0.00000000000E+00 -0.35740347158E-01  0.35744000000E-01  0.51099999109E-03 0.  1.
       22    1    1    2    0    0 -0.18521998863E-01  0.88930319831E-02 -0.29240094479E-01  0.35737005818E-01  0.00000000000E+00 0.  1.
  9000001    1    1    2    0    0  0.18521998863E-01 -0.88930319831E-02  0.29240094479E-01  0.35750994182E-01  0.10000000475E-02 0. -1.
</event>
<event>
 4   0  0.4958067E-02  0.9118800E+02  0.7818609E-02  0.1379984E+01
      -11   -1    0    0    0    0  0.00000000000E+00  0.00000000000E+00  0.35740347158E-01  0.35744000000E-01  0.51099999109E-03 0. -1.
       11   -1    0    0    0    0 -0.00000000000E+00 -0.00000000000E+00 -0.35740347158E-01  0.35744000000E-01  0.51099999109E-03 0.  1.
       22    1    1    2    0    0 -0.85748800849E-02 -0.81578753514E-02 -0.33720232593E-01  0.35737005818E-01  0.00000000000E+00 0.  1.
  9000001    1    1    2    0    0  0.85748800849E-02  0.81578753514E-02  0.33720232593E-01  0.35750994182E-01  0.10000000475E-02 0. -1.
</event>
<event>
 4   0  0.4958067E-02  0.9118800E+02  0.7818609E-02  0.1379984E+01
      -11   -1    0    0    0    0  0.00000000000E+00  0.00000000000E+00  0.35740347158E-01  0.35744000000E-01  0.51099999109E-03 0.  1.
       11   -1    0    0    0    0 -0.00000000000E+00 -0.00000000000E+00 -0.35740347158E-01  0.35744000000E-01  0.51099999109E-03 0. -1.
       22    1    1    2    0    0 -0.56183275025E-02  0.68538491280E-02  0.34620698044E-01  0.35737005818E-01  0.00000000000E+00 0.  1.
  9000001    1    1    2    0    0  0.56183275025E-02 -0.68538491280E-02 -0.34620698044E-01  0.35750994182E-01  0.10000000475E-02 0. -1.
</event>
<event>
 4   0  0.4958067E-02  0.9118800E+02  0.7818609E-02  0.1379984E+01
      -11   -1    0    0    0    0  0.00000000000E+00  0.00000000000E+00  0.35740347158E-01  0.35744000000E-01  0.51099999109E-03 0. -1.
       11   -1    0    0    0    0 -0.00000000000E+00 -0.00000000000E+00 -0.35740347158E-01  0.35744000000E-01  0.51099999109E-03 0.  1.
       22    1    1    2    0    0  0.82808030095E-02  0.48031275539E-02  0.34430972279E-01  0.35737005818E-01  0.00000000000E+00 0. -1.
  9000001    1    1    2    0    0 -0.82808030095E-02 -0.48031275539E-02 -0.34430972279E-01  0.35750994182E-01  0.10000000475E-02 0.  1.
</event>
<event>
 4   0  0.4958067E-02  0.9118800E+02  0.7818609E-02  0.1379984E+01
      -11   -1    0    0    0    0  0.00000000000E+00  0.00000000000E+00  0.35740347158E-01  0.35744000000E-01  0.51099999109E-03 0.  1.
       11   -1    0    0    0    0 -0.00000000000E+00 -0.00000000000E+00 -0.35740347158E-01  0.35744000000E-01  0.51099999109E-03 0. -1.
       22    1    1    2    0    0  0.32528230798E-02 -0.22387870084E-02  0.35518172245E-01  0.35737005818E-01  0.00000000000E+00 0.  1.
  9000001    1    1    2    0    0 -0.32528230798E-02  0.22387870084E-02 -0.35518172245E-01  0.35750994182E-01  0.10000000475E-02 0. -1.
</event>
<event>
 4   0  0.4958067E-02  0.9118800E+02  0.7818609E-02  0.1379984E+01
      -11   -1    0    0    0    0  0.00000000000E+00  0.00000000000E+00  0.35740347158E-01  0.35744000000E-01  0.51099999109E-03 0. -1.
       11   -1    0    0    0    0 -0.00000000000E+00 -0.00000000000E+00 -0.35740347158E-01  0.35744000000E-01  0.51099999109E-03 0.  1.
       22    1    1    2    0    0  0.65521176295E-02 -0.11544044910E-02 -0.35112258397E-01  0.35737005818E-01  0.00000000000E+00 0.  1.
  9000001    1    1    2    0    0 -0.65521176295E-02  0.11544044910E-02  0.35112258397E-01  0.35750994182E-01  0.10000000475E-02 0. -1.
</event>
<event>
 4   0  0.4958067E-02  0.9118800E+02  0.7818609E-02  0.1379984E+01
      -11   -1    0    0    0    0  0.00000000000E+00  0.00000000000E+00  0.35740347158E-01  0.35744000000E-01  0.51099999109E-03 0.  1.
       11   -1    0    0    0    0 -0.00000000000E+00 -0.00000000000E+00 -0.35740347158E-01  0.35744000000E-01  0.51099999109E-03 0. -1.
       22    1    1    2    0    0  0.71665206554E-02  0.12049000804E-02  0.34990324125E-01  0.35737005818E-01  0.00000000000E+00 0.  1.
  9000001    1    1    2    0    0 -0.71665206554E-02 -0.12049000804E-02 -0.34990324125E-01  0.35750994182E-01  0.10000000475E-02 0. -1.
</event>
<event>
 4   0  0.4958067E-02  0.9118800E+02  0.7818609E-02  0.1379984E+01
      -11   -1    0    0    0    0  0.00000000000E+00  0.00000000000E+00  0.35740347158E-01  0.35744000000E-01  0.51099999109E-03 0. -1.
       11   -1    0    0    0    0 -0.00000000000E+00 -0.00000000000E+00 -0.35740347158E-01  0.35744000000E-01  0.51099999109E-03 0.  1.
       22    1    1    2    0    0  0.16404580908E-01  0.12634196312E-01 -0.29127313533E-01  0.35737005818E-01  0.00000000000E+00 0.  1.
  9000001    1    1    2    0    0 -0.16404580908E-01 -0.12634196312E-01  0.29127313533E-01  0.35750994182E-01  0.10000000475E-02 0. -1.
</event>
<event>
 4   0  0.4958067E-02  0.9118800E+02  0.7818609E-02  0.1379984E+01
      -11   -1    0    0    0    0  0.00000000000E+00  0.00000000000E+00  0.35740347158E-01  0.35744000000E-01  0.51099999109E-03 0. -1.
       11   -1    0    0    0    0 -0.00000000000E+00 -0.00000000000E+00 -0.35740347158E-01  0.35744000000E-01  0.51099999109E-03 0.  1.
       22    1    1    2    0    0  0.87427023616E-02  0.11866646004E-01 -0.32555820569E-01  0.35737005818E-01  0.00000000000E+00 0.  1.
  9000001    1    1    2    0    0 -0.87427023616E-02 -0.11866646004E-01  0.32555820569E-01  0.35750994182E-01  0.10000000475E-02 0. -1.
</event>
<event>
 4   0  0.4958067E-02  0.9118800E+02  0.7818609E-02  0.1379984E+01
      -11   -1    0    0    0    0  0.00000000000E+00  0.00000000000E+00  0.35740347158E-01  0.35744000000E-01  0.51099999109E-03 0.  1.
       11   -1    0    0    0    0 -0.00000000000E+00 -0.00000000000E+00 -0.35740347158E-01  0.35744000000E-01  0.51099999109E-03 0. -1.
       22    1    1    2    0    0  0.14390179006E-01  0.20520758227E-01 -0.25474591554E-01  0.35737005818E-01  0.00000000000E+00 0. -1.
  9000001    1    1    2    0    0 -0.14390179006E-01 -0.20520758227E-01  0.25474591554E-01  0.35750994182E-01  0.10000000475E-02 0.  1.
</event>
<event>
 4   0  0.4958067E-02  0.9118800E+02  0.7818609E-02  0.1379984E+01
      -11   -1    0    0    0    0  0.00000000000E+00  0.00000000000E+00  0.35740347158E-01  0.35744000000E-01  0.51099999109E-03 0. -1.
       11   -1    0    0    0    0 -0.00000000000E+00 -0.00000000000E+00 -0.35740347158E-01  0.35744000000E-01  0.51099999109E-03 0.  1.
       22    1    1    2    0    0  0.76801509876E-02 -0.36878327909E-03 -0.34900041040E-01  0.35737005818E-01  0.00000000000E+00 0.  1.
  9000001    1    1    2    0    0 -0.76801509876E-02  0.36878327909E-03  0.34900041040E-01  0.35750994182E-01  0.10000000475E-02 0. -1.
</event>
<event>
 4   0  0.4958067E-02  0.9118800E+02  0.7818609E-02  0.1379984E+01
      -11   -1    0    0    0    0  0.00000000000E+00  0.00000000000E+00  0.35740347158E-01  0.35744000000E-01  0.51099999109E-03 0. -1.
       11   -1    0    0    0    0 -0.00000000000E+00 -0.00000000000E+00 -0.35740347158E-01  0.35744000000E-01  0.51099999109E-03 0.  1.
       22    1    1    2    0    0 -0.15912543917E-02  0.83399323445E-02 -0.34713787215E-01  0.35737005818E-01  0.00000000000E+00 0.  1.
  9000001    1    1    2    0    0  0.15912543917E-02 -0.83399323445E-02  0.34713787215E-01  0.35750994182E-01  0.10000000475E-02 0. -1.
</event>
<event>
 4   0  0.4958067E-02  0.9118800E+02  0.7818609E-02  0.1379984E+01
      -11   -1    0    0    0    0  0.00000000000E+00  0.00000000000E+00  0.35740347158E-01  0.35744000000E-01  0.51099999109E-03 0.  1.
       11   -1    0    0    0    0 -0.00000000000E+00 -0.00000000000E+00 -0.35740347158E-01  0.35744000000E-01  0.51099999109E-03 0. -1.
       22    1    1    2    0    0  0.16118114843E-01 -0.92231457288E-02  0.30533154794E-01  0.35737005818E-01  0.00000000000E+00 0.  1.
  9000001    1    1    2    0    0 -0.16118114843E-01  0.92231457288E-02 -0.30533154794E-01  0.35750994182E-01  0.10000000475E-02 0. -1.
</event>
<event>
 4   0  0.4958067E-02  0.9118800E+02  0.7818609E-02  0.1379984E+01
      -11   -1    0    0    0    0  0.00000000000E+00  0.00000000000E+00  0.35740347158E-01  0.35744000000E-01  0.51099999109E-03 0.  1.
       11   -1    0    0    0    0 -0.00000000000E+00 -0.00000000000E+00 -0.35740347158E-01  0.35744000000E-01  0.51099999109E-03 0. -1.
       22    1    1    2    0    0 -0.77858425717E-02  0.23940414467E-03  0.34877742558E-01  0.35737005818E-01  0.00000000000E+00 0.  1.
  9000001    1    1    2    0    0  0.77858425717E-02 -0.23940414467E-03 -0.34877742558E-01  0.35750994182E-01  0.10000000475E-02 0. -1.
</event>
<event>
 4   0  0.4958067E-02  0.9118800E+02  0.7818609E-02  0.1379984E+01
      -11   -1    0    0    0    0  0.00000000000E+00  0.00000000000E+00  0.35740347158E-01  0.35744000000E-01  0.51099999109E-03 0.  1.
       11   -1    0    0    0    0 -0.00000000000E+00 -0.00000000000E+00 -0.35740347158E-01  0.35744000000E-01  0.51099999109E-03 0. -1.
       22    1    1    2    0    0  0.79156867671E-02  0.19845653576E-01 -0.28646562132E-01  0.35737005818E-01  0.00000000000E+00 0. -1.
  9000001    1    1    2    0    0 -0.79156867671E-02 -0.19845653576E-01  0.28646562132E-01  0.35750994182E-01  0.10000000475E-02 0.  1.
</event>
<event>
 4   0  0.4958067E-02  0.9118800E+02  0.7818609E-02  0.1379984E+01
      -11   -1    0    0    0    0  0.00000000000E+00  0.00000000000E+00  0.35740347158E-01  0.35744000000E-01  0.51099999109E-03 0. -1.
       11   -1    0    0    0    0 -0.00000000000E+00 -0.00000000000E+00 -0.35740347158E-01  0.35744000000E-01  0.51099999109E-03 0.  1.
       22    1    1    2    0    0  0.33544921261E-02  0.39098738726E-03  0.35577072621E-01  0.35737005818E-01  0.00000000000E+00 0. -1.
  9000001    1    1    2    0    0 -0.33544921261E-02 -0.39098738726E-03 -0.35577072621E-01  0.35750994182E-01  0.10000000475E-02 0.  1.
</event>
<event>
 4   0  0.4958067E-02  0.9118800E+02  0.7818609E-02  0.1379984E+01
      -11   -1    0    0    0    0  0.00000000000E+00  0.00000000000E+00  0.35740347158E-01  0.35744000000E-01  0.51099999109E-03 0.  1.
       11   -1    0    0    0    0 -0.00000000000E+00 -0.00000000000E+00 -0.35740347158E-01  0.35744000000E-01  0.51099999109E-03 0. -1.
       22    1    1    2    0    0  0.10668114527E-02  0.44595570362E-02  0.35441611832E-01  0.35737005818E-01  0.00000000000E+00 0.  1.
  9000001    1    1    2    0    0 -0.10668114527E-02 -0.44595570362E-02 -0.35441611832E-01  0.35750994182E-01  0.10000000475E-02 0. -1.
</event>
<event>
 4   0  0.4958067E-02  0.9118800E+02  0.7818609E-02  0.1379984E+01
      -11   -1    0    0    0    0  0.00000000000E+00  0.00000000000E+00  0.35740347158E-01  0.35744000000E-01  0.51099999109E-03 0. -1.
       11   -1    0    0    0    0 -0.00000000000E+00 -0.00000000000E+00 -0.35740347158E-01  0.35744000000E-01  0.51099999109E-03 0.  1.
       22    1    1    2    0    0  0.31992922628E-02  0.36760881138E-02 -0.35403170622E-01  0.35737005818E-01  0.00000000000E+00 0.  1.
  9000001    1    1    2    0    0 -0.31992922628E-02 -0.36760881138E-02  0.35403170622E-01  0.35750994182E-01  0.10000000475E-02 0. -1.
</event>
<event>
 4   0  0.4958067E-02  0.9118800E+02  0.7818609E-02  0.1379984E+01
      -11   -1    0    0    0    0  0.00000000000E+00  0.00000000000E+00  0.35740347158E-01  0.35744000000E-01  0.51099999109E-03 0. -1.
       11   -1    0    0    0    0 -0.00000000000E+00 -0.00000000000E+00 -0.35740347158E-01  0.35744000000E-01  0.51099999109E-03 0.  1.
       22    1    1    2    0    0 -0.23881753110E-01  0.25795267345E-01 -0.64342548779E-02  0.35737005818E-01  0.00000000000E+00 0. -1.
  9000001    1    1    2    0    0  0.23881753110E-01 -0.25795267345E-01  0.64342548779E-02  0.35750994182E-01  0.10000000475E-02 0.  1.
</event>
<event>
 4   0  0.4958067E-02  0.9118800E+02  0.7818609E-02  0.1379984E+01
      -11   -1    0    0    0    0  0.00000000000E+00  0.00000000000E+00  0.35740347158E-01  0.35744000000E-01  0.51099999109E-03 0. -1.
       11   -1    0    0    0    0 -0.00000000000E+00 -0.00000000000E+00 -0.35740347158E-01  0.35744000000E-01  0.51099999109E-03 0.  1.
       22    1    1    2    0    0 -0.27640975050E-01  0.13212960300E-01 -0.18399123981E-01  0.35737005818E-01  0.00000000000E+00 0.  1.
  9000001    1    1    2    0    0  0.27640975050E-01 -0.13212960300E-01  0.18399123981E-01  0.35750994182E-01  0.10000000475E-02 0. -1.
</event>
<event>
 4   0  0.4958067E-02  0.9118800E+02  0.7818609E-02  0.1379984E+01
      -11   -1    0    0    0    0  0.00000000000E+00  0.00000000000E+00  0.35740347158E-01  0.35744000000E-01  0.51099999109E-03 0.  1.
       11   -1    0    0    0    0 -0.00000000000E+00 -0.00000000000E+00 -0.35740347158E-01  0.35744000000E-01  0.51099999109E-03 0. -1.
       22    1    1    2    0    0 -0.55896990041E-02 -0.22788939897E-01 -0.26954648362E-01  0.35737005818E-01  0.00000000000E+00 0. -1.
  9000001    1    1    2    0    0  0.55896990041E-02  0.22788939897E-01  0.26954648362E-01  0.35750994182E-01  0.10000000475E-02 0.  1.
</event>
<event>
 4   0  0.4958067E-02  0.9118800E+02  0.7818609E-02  0.1379984E+01
      -11   -1    0    0    0    0  0.00000000000E+00  0.00000000000E+00  0.35740347158E-01  0.35744000000E-01  0.51099999109E-03 0. -1.
       11   -1    0    0    0    0 -0.00000000000E+00 -0.00000000000E+00 -0.35740347158E-01  0.35744000000E-01  0.51099999109E-03 0.  1.
       22    1    1    2    0    0 -0.34317589963E-02  0.77436036118E-02  0.34718773281E-01  0.35737005818E-01  0.00000000000E+00 0. -1.
  9000001    1    1    2    0    0  0.34317589963E-02 -0.77436036118E-02 -0.34718773281E-01  0.35750994182E-01  0.10000000475E-02 0.  1.
</event>
<event>
 4   0  0.4958067E-02  0.9118800E+02  0.7818609E-02  0.1379984E+01
      -11   -1    0    0    0    0  0.00000000000E+00  0.00000000000E+00  0.35740347158E-01  0.35744000000E-01  0.51099999109E-03 0. -1.
       11   -1    0    0    0    0 -0.00000000000E+00 -0.00000000000E+00 -0.35740347158E-01  0.35744000000E-01  0.51099999109E-03 0.  1.
       22    1    1    2    0    0  0.55491984934E-02  0.13423016433E-01 -0.32652145577E-01  0.35737005818E-01  0.00000000000E+00 0.  1.
  9000001    1    1    2    0    0 -0.55491984934E-02 -0.13423016433E-01  0.32652145577E-01  0.35750994182E-01  0.10000000475E-02 0. -1.
</event>
<event>
 4   0  0.4958067E-02  0.9118800E+02  0.7818609E-02  0.1379984E+01
      -11   -1    0    0    0    0  0.00000000000E+00  0.00000000000E+00  0.35740347158E-01  0.35744000000E-01  0.51099999109E-03 0.  1.
       11   -1    0    0    0    0 -0.00000000000E+00 -0.00000000000E+00 -0.35740347158E-01  0.35744000000E-01  0.51099999109E-03 0. -1.
       22    1    1    2    0    0 -0.26916018577E-01 -0.44521298189E-02  0.23083328809E-01  0.35737005818E-01  0.00000000000E+00 0.  1.
  9000001    1    1    2    0    0  0.26916018577E-01  0.44521298189E-02 -0.23083328809E-01  0.35750994182E-01  0.10000000475E-02 0. -1.
</event>
<event>
 4   0  0.4958067E-02  0.9118800E+02  0.7818609E-02  0.1379984E+01
      -11   -1    0    0    0    0  0.00000000000E+00  0.00000000000E+00  0.35740347158E-01  0.35744000000E-01  0.51099999109E-03 0. -1.
       11   -1    0    0    0    0 -0.00000000000E+00 -0.00000000000E+00 -0.35740347158E-01  0.35744000000E-01  0.51099999109E-03 0.  1.
       22    1    1    2    0    0  0.24409179291E-01 -0.32687106797E-02 -0.25896738824E-01  0.35737005818E-01  0.00000000000E+00 0.  1.
  9000001    1    1    2    0    0 -0.24409179291E-01  0.32687106797E-02  0.25896738824E-01  0.35750994182E-01  0.10000000475E-02 0. -1.
</event>
<event>
 4   0  0.4958067E-02  0.9118800E+02  0.7818609E-02  0.1379984E+01
      -11   -1    0    0    0    0  0.00000000000E+00  0.00000000000E+00  0.35740347158E-01  0.35744000000E-01  0.51099999109E-03 0.  1.
       11   -1    0    0    0    0 -0.00000000000E+00 -0.00000000000E+00 -0.35740347158E-01  0.35744000000E-01  0.51099999109E-03 0. -1.
       22    1    1    2    0    0 -0.24510806028E-01  0.13720733085E-01  0.22092882482E-01  0.35737005818E-01  0.00000000000E+00 0.  1.
  9000001    1    1    2    0    0  0.24510806028E-01 -0.13720733085E-01 -0.22092882482E-01  0.35750994182E-01  0.10000000475E-02 0. -1.
</event>
<event>
 4   0  0.4958067E-02  0.9118800E+02  0.7818609E-02  0.1379984E+01
      -11   -1    0    0    0    0  0.00000000000E+00  0.00000000000E+00  0.35740347158E-01  0.35744000000E-01  0.51099999109E-03 0.  1.
       11   -1    0    0    0    0 -0.00000000000E+00 -0.00000000000E+00 -0.35740347158E-01  0.35744000000E-01  0.51099999109E-03 0. -1.
       22    1    1    2    0    0 -0.15316812186E-01  0.28246487563E-01 -0.15641764278E-01  0.35737005818E-01  0.00000000000E+00 0. -1.
  9000001    1    1    2    0    0  0.15316812186E-01 -0.28246487563E-01  0.15641764278E-01  0.35750994182E-01  0.10000000475E-02 0.  1.
</event>
<event>
 4   0  0.4958067E-02  0.9118800E+02  0.7818609E-02  0.1379984E+01
      -11   -1    0    0    0    0  0.00000000000E+00  0.00000000000E+00  0.35740347158E-01  0.35744000000E-01  0.51099999109E-03 0. -1.
       11   -1    0    0    0    0 -0.00000000000E+00 -0.00000000000E+00 -0.35740347158E-01  0.35744000000E-01  0.51099999109E-03 0.  1.
       22    1    1    2    0    0  0.63344103643E-02  0.28441238188E-02 -0.35055952275E-01  0.35737005818E-01  0.00000000000E+00 0.  1.
  9000001    1    1    2    0    0 -0.63344103643E-02 -0.28441238188E-02  0.35055952275E-01  0.35750994182E-01  0.10000000475E-02 0. -1.
</event>
<event>
 4   0  0.4958067E-02  0.9118800E+02  0.7818609E-02  0.1379984E+01
      -11   -1    0    0    0    0  0.00000000000E+00  0.00000000000E+00  0.35740347158E-01  0.35744000000E-01  0.51099999109E-03 0.  1.
       11   -1    0    0    0    0 -0.00000000000E+00 -0.00000000000E+00 -0.35740347158E-01  0.35744000000E-01  0.51099999109E-03 0. -1.
       22    1    1    2    0    0  0.43851518373E-02 -0.13095790233E-01 -0.32960647846E-01  0.35737005818E-01  0.00000000000E+00 0. -1.
  9000001    1    1    2    0    0 -0.43851518373E-02  0.13095790233E-01  0.32960647846E-01  0.35750994182E-01  0.10000000475E-02 0.  1.
</event>
<event>
 4   0  0.4958067E-02  0.9118800E+02  0.7818609E-02  0.1379984E+01
      -11   -1    0    0    0    0  0.00000000000E+00  0.00000000000E+00  0.35740347158E-01  0.35744000000E-01  0.51099999109E-03 0. -1.
       11   -1    0    0    0    0 -0.00000000000E+00 -0.00000000000E+00 -0.35740347158E-01  0.35744000000E-01  0.51099999109E-03 0.  1.
       22    1    1    2    0    0 -0.19583655117E-01  0.14723268931E-01  0.26016137091E-01  0.35737005818E-01  0.00000000000E+00 0. -1.
  9000001    1    1    2    0    0  0.19583655117E-01 -0.14723268931E-01 -0.26016137091E-01  0.35750994182E-01  0.10000000475E-02 0.  1.
</event>
<event>
 4   0  0.4958067E-02  0.9118800E+02  0.7818609E-02  0.1379984E+01
      -11   -1    0    0    0    0  0.00000000000E+00  0.00000000000E+00  0.35740347158E-01  0.35744000000E-01  0.51099999109E-03 0. -1.
       11   -1    0    0    0    0 -0.00000000000E+00 -0.00000000000E+00 -0.35740347158E-01  0.35744000000E-01  0.51099999109E-03 0.  1.
       22    1    1    2    0    0  0.27069728183E-01 -0.15679354885E-01  0.17277766968E-01  0.35737005818E-01  0.00000000000E+00 0. -1.
  9000001    1    1    2    0    0 -0.27069728183E-01  0.15679354885E-01 -0.17277766968E-01  0.35750994182E-01  0.10000000475E-02 0.  1.
</event>
<event>
 4   0  0.4958067E-02  0.9118800E+02  0.7818609E-02  0.1379984E+01
      -11   -1    0    0    0    0  0.00000000000E+00  0.00000000000E+00  0.35740347158E-01  0.35744000000E-01  0.51099999109E-03 0. -1.
       11   -1    0    0    0    0 -0.00000000000E+00 -0.00000000000E+00 -0.35740347158E-01  0.35744000000E-01  0.51099999109E-03 0.  1.
       22    1    1    2    0    0  0.32697845690E-02 -0.13154097743E-02 -0.35562786602E-01  0.35737005818E-01  0.00000000000E+00 0.  1.
  9000001    1    1    2    0    0 -0.32697845690E-02  0.13154097743E-02  0.35562786602E-01  0.35750994182E-01  0.10000000475E-02 0. -1.
</event>
<event>
 4   0  0.4958067E-02  0.9118800E+02  0.7818609E-02  0.1379984E+01
      -11   -1    0    0    0    0  0.00000000000E+00  0.00000000000E+00  0.35740347158E-01  0.35744000000E-01  0.51099999109E-03 0.  1.
       11   -1    0    0    0    0 -0.00000000000E+00 -0.00000000000E+00 -0.35740347158E-01  0.35744000000E-01  0.51099999109E-03 0. -1.
       22    1    1    2    0    0  0.26301232146E-02  0.28545453696E-01  0.21339473050E-01  0.35737005818E-01  0.00000000000E+00 0.  1.
  9000001    1    1    2    0    0 -0.26301232146E-02 -0.28545453696E-01 -0.21339473050E-01  0.35750994182E-01  0.10000000475E-02 0. -1.
</event>
<event>
 4   0  0.4958067E-02  0.9118800E+02  0.7818609E-02  0.1379984E+01
      -11   -1    0    0    0    0  0.00000000000E+00  0.00000000000E+00  0.35740347158E-01  0.35744000000E-01  0.51099999109E-03 0.  1.
       11   -1    0    0    0    0 -0.00000000000E+00 -0.00000000000E+00 -0.35740347158E-01  0.35744000000E-01  0.51099999109E-03 0. -1.
       22    1    1    2    0    0 -0.85035613259E-02  0.24645686330E-02 -0.34622953818E-01  0.35737005818E-01  0.00000000000E+00 0. -1.
  9000001    1    1    2    0    0  0.85035613259E-02 -0.24645686330E-02  0.34622953818E-01  0.35750994182E-01  0.10000000475E-02 0.  1.
</event>
<event>
 4   0  0.4958067E-02  0.9118800E+02  0.7818609E-02  0.1379984E+01
      -11   -1    0    0    0    0  0.00000000000E+00  0.00000000000E+00  0.35740347158E-01  0.35744000000E-01  0.51099999109E-03 0.  1.
       11   -1    0    0    0    0 -0.00000000000E+00 -0.00000000000E+00 -0.35740347158E-01  0.35744000000E-01  0.51099999109E-03 0. -1.
       22    1    1    2    0    0  0.78790126475E-02 -0.51675462744E-02 -0.34472470322E-01  0.35737005818E-01  0.00000000000E+00 0. -1.
  9000001    1    1    2    0    0 -0.78790126475E-02  0.51675462744E-02  0.34472470322E-01  0.35750994182E-01  0.10000000475E-02 0.  1.
</event>
<event>
 4   0  0.4958067E-02  0.9118800E+02  0.7818609E-02  0.1379984E+01
      -11   -1    0    0    0    0  0.00000000000E+00  0.00000000000E+00  0.35740347158E-01  0.35744000000E-01  0.51099999109E-03 0. -1.
       11   -1    0    0    0    0 -0.00000000000E+00 -0.00000000000E+00 -0.35740347158E-01  0.35744000000E-01  0.51099999109E-03 0.  1.
       22    1    1    2    0    0 -0.43605893954E-02 -0.90450882059E-02 -0.34297306372E-01  0.35737005818E-01  0.00000000000E+00 0.  1.
  9000001    1    1    2    0    0  0.43605893954E-02  0.90450882059E-02  0.34297306372E-01  0.35750994182E-01  0.10000000475E-02 0. -1.
</event>
<event>
 4   0  0.4958067E-02  0.9118800E+02  0.7818609E-02  0.1379984E+01
      -11   -1    0    0    0    0  0.00000000000E+00  0.00000000000E+00  0.35740347158E-01  0.35744000000E-01  0.51099999109E-03 0. -1.
       11   -1    0    0    0    0 -0.00000000000E+00 -0.00000000000E+00 -0.35740347158E-01  0.35744000000E-01  0.51099999109E-03 0.  1.
       22    1    1    2    0    0 -0.33296756040E-02 -0.17100324603E-01  0.31202976520E-01  0.35737005818E-01  0.00000000000E+00 0. -1.
  9000001    1    1    2    0    0  0.33296756040E-02  0.17100324603E-01 -0.31202976520E-01  0.35750994182E-01  0.10000000475E-02 0.  1.
</event>
<event>
 4   0  0.4958067E-02  0.9118800E+02  0.7818609E-02  0.1379984E+01
      -11   -1    0    0    0    0  0.00000000000E+00  0.00000000000E+00  0.35740347158E-01  0.35744000000E-01  0.51099999109E-03 0.  1.
       11   -1    0    0    0    0 -0.00000000000E+00 -0.00000000000E+00 -0.35740347158E-01  0.35744000000E-01  0.51099999109E-03 0. -1.
       22    1    1    2    0    0  0.50406103554E-02  0.16923805264E-02  0.35339237121E-01  0.35737005818E-01  0.00000000000E+00 0.  1.
  9000001    1    1    2    0    0 -0.50406103554E-02 -0.16923805264E-02 -0.35339237121E-01  0.35750994182E-01  0.10000000475E-02 0. -1.
</event>
<event>
 4   0  0.4958067E-02  0.9118800E+02  0.7818609E-02  0.1379984E+01
      -11   -1    0    0    0    0  0.00000000000E+00  0.00000000000E+00  0.35740347158E-01  0.35744000000E-01  0.51099999109E-03 0. -1.
       11   -1    0    0    0    0 -0.00000000000E+00 -0.00000000000E+00 -0.35740347158E-01  0.35744000000E-01  0.51099999109E-03 0.  1.
       22    1    1    2    0    0 -0.12941644433E-01 -0.35323887841E-02 -0.33123551345E-01  0.35737005818E-01  0.00000000000E+00 0.  1.
  9000001    1    1    2    0    0  0.12941644433E-01  0.35323887841E-02  0.33123551345E-01  0.35750994182E-01  0.10000000475E-02 0. -1.
</event>
<event>
 4   0  0.4958067E-02  0.9118800E+02  0.7818609E-02  0.1379984E+01
      -11   -1    0    0    0    0  0.00000000000E+00  0.00000000000E+00  0.35740347158E-01  0.35744000000E-01  0.51099999109E-03 0. -1.
       11   -1    0    0    0    0 -0.00000000000E+00 -0.00000000000E+00 -0.35740347158E-01  0.35744000000E-01  0.51099999109E-03 0.  1.
       22    1    1    2    0    0 -0.11616546400E-01  0.16875495452E-01  0.29281514439E-01  0.35737005818E-01  0.00000000000E+00 0. -1.
  9000001    1    1    2    0    0  0.11616546400E-01 -0.16875495452E-01 -0.29281514439E-01  0.35750994182E-01  0.10000000475E-02 0.  1.
</event>
<event>
 4   0  0.4958067E-02  0.9118800E+02  0.7818609E-02  0.1379984E+01
      -11   -1    0    0    0    0  0.00000000000E+00  0.00000000000E+00  0.35740347158E-01  0.35744000000E-01  0.51099999109E-03 0. -1.
       11   -1    0    0    0    0 -0.00000000000E+00 -0.00000000000E+00 -0.35740347158E-01  0.35744000000E-01  0.51099999109E-03 0.  1.
       22    1    1    2    0    0  0.52920741083E-02 -0.56787982313E-03  0.35338435860E-01  0.35737005818E-01  0.00000000000E+00 0. -1.
  9000001    1    1    2    0    0 -0.52920741083E-02  0.56787982313E-03 -0.35338435860E-01  0.35750994182E-01  0.10000000475E-02 0.  1.
</event>
<event>
 4   0  0.4958067E-02  0.9118800E+02  0.7818609E-02  0.1379984E+01
      -11   -1    0    0    0    0  0.00000000000E+00  0.00000000000E+00  0.35740347158E-01  0.35744000000E-01  0.51099999109E-03 0. -1.
       11   -1    0    0    0    0 -0.00000000000E+00 -0.00000000000E+00 -0.35740347158E-01  0.35744000000E-01  0.51099999109E-03 0.  1.
       22    1    1    2    0    0  0.79722744484E-03 -0.53307878434E-02  0.35328185833E-01  0.35737005818E-01  0.00000000000E+00 0. -1.
  9000001    1    1    2    0    0 -0.79722744484E-03  0.53307878434E-02 -0.35328185833E-01  0.35750994182E-01  0.10000000475E-02 0.  1.
</event>
<event>
 4   0  0.4958067E-02  0.9118800E+02  0.7818609E-02  0.1379984E+01
      -11   -1    0    0    0    0  0.00000000000E+00  0.00000000000E+00  0.35740347158E-01  0.35744000000E-01  0.51099999109E-03 0.  1.
       11   -1    0    0    0    0 -0.00000000000E+00 -0.00000000000E+00 -0.35740347158E-01  0.35744000000E-01  0.51099999109E-03 0. -1.
       22    1    1    2    0    0 -0.23641611405E-01 -0.10798730547E-01 -0.24527437975E-01  0.35737005818E-01  0.00000000000E+00 0. -1.
  9000001    1    1    2    0    0  0.23641611405E-01  0.10798730547E-01  0.24527437975E-01  0.35750994182E-01  0.10000000475E-02 0.  1.
</event>
<event>
 4   0  0.4958067E-02  0.9118800E+02  0.7818609E-02  0.1379984E+01
      -11   -1    0    0    0    0  0.00000000000E+00  0.00000000000E+00  0.35740347158E-01  0.35744000000E-01  0.51099999109E-03 0.  1.
       11   -1    0    0    0    0 -0.00000000000E+00 -0.00000000000E+00 -0.35740347158E-01  0.35744000000E-01  0.51099999109E-03 0. -1.
       22    1    1    2    0    0 -0.78673416253E-02  0.50892428656E-02  0.34486781927E-01  0.35737005818E-01  0.00000000000E+00 0.  1.
  9000001    1    1    2    0    0  0.78673416253E-02 -0.50892428656E-02 -0.34486781927E-01  0.35750994182E-01  0.10000000475E-02 0. -1.
</event>
<event>
 4   0  0.4958067E-02  0.9118800E+02  0.7818609E-02  0.1379984E+01
      -11   -1    0    0    0    0  0.00000000000E+00  0.00000000000E+00  0.35740347158E-01  0.35744000000E-01  0.51099999109E-03 0. -1.
       11   -1    0    0    0    0 -0.00000000000E+00 -0.00000000000E+00 -0.35740347158E-01  0.35744000000E-01  0.51099999109E-03 0.  1.
       22    1    1    2    0    0 -0.44662736157E-02 -0.29464874199E-01 -0.19723264772E-01  0.35737005818E-01  0.00000000000E+00 0. -1.
  9000001    1    1    2    0    0  0.44662736157E-02  0.29464874199E-01  0.19723264772E-01  0.35750994182E-01  0.10000000475E-02 0.  1.
</event>
<event>
 4   0  0.4958067E-02  0.9118800E+02  0.7818609E-02  0.1379984E+01
      -11   -1    0    0    0    0  0.00000000000E+00  0.00000000000E+00  0.35740347158E-01  0.35744000000E-01  0.51099999109E-03 0.  1.
       11   -1    0    0    0    0 -0.00000000000E+00 -0.00000000000E+00 -0.35740347158E-01  0.35744000000E-01  0.51099999109E-03 0. -1.
       22    1    1    2    0    0  0.37655350738E-02 -0.69509423004E-03  0.35531270375E-01  0.35737005818E-01  0.00000000000E+00 0.  1.
  9000001    1    1    2    0    0 -0.37655350738E-02  0.69509423004E-03 -0.35531270375E-01  0.35750994182E-01  0.10000000475E-02 0. -1.
</event>
<event>
 4   0  0.4958067E-02  0.9118800E+02  0.7818609E-02  0.1379984E+01
      -11   -1    0    0    0    0  0.00000000000E+00  0.00000000000E+00  0.35740347158E-01  0.35744000000E-01  0.51099999109E-03 0.  1.
       11   -1    0    0    0    0 -0.00000000000E+00 -0.00000000000E+00 -0.35740347158E-01  0.35744000000E-01  0.51099999109E-03 0. -1.
       22    1    1    2    0    0 -0.19193878740E-01 -0.11910761237E-01  0.27692279981E-01  0.35737005818E-01  0.00000000000E+00 0.  1.
  9000001    1    1    2    0    0  0.19193878740E-01  0.11910761237E-01 -0.27692279981E-01  0.35750994182E-01  0.10000000475E-02 0. -1.
</event>
<event>
 4   0  0.4958067E-02  0.9118800E+02  0.7818609E-02  0.1379984E+01
      -11   -1    0    0    0    0  0.00000000000E+00  0.00000000000E+00  0.35740347158E-01  0.35744000000E-01  0.51099999109E-03 0.  1.
       11   -1    0    0    0    0 -0.00000000000E+00 -0.00000000000E+00 -0.35740347158E-01  0.35744000000E-01  0.51099999109E-03 0. -1.
       22    1    1    2    0    0  0.13638488404E-01 -0.12596556876E-01  0.30536076595E-01  0.35737005818E-01  0.00000000000E+00 0.  1.
  9000001    1    1    2    0    0 -0.13638488404E-01  0.12596556876E-01 -0.30536076595E-01  0.35750994182E-01  0.10000000475E-02 0. -1.
</event>
<event>
 4   0  0.4958067E-02  0.9118800E+02  0.7818609E-02  0.1379984E+01
      -11   -1    0    0    0    0  0.00000000000E+00  0.00000000000E+00  0.35740347158E-01  0.35744000000E-01  0.51099999109E-03 0. -1.
       11   -1    0    0    0    0 -0.00000000000E+00 -0.00000000000E+00 -0.35740347158E-01  0.35744000000E-01  0.51099999109E-03 0.  1.
       22    1    1    2    0    0 -0.59336601146E-02 -0.76257246901E-03 -0.35232708464E-01  0.35737005818E-01  0.00000000000E+00 0.  1.
  9000001    1    1    2    0    0  0.59336601146E-02  0.76257246901E-03  0.35232708464E-01  0.35750994182E-01  0.10000000475E-02 0. -1.
</event>
<event>
 4   0  0.4958067E-02  0.9118800E+02  0.7818609E-02  0.1379984E+01
      -11   -1    0    0    0    0  0.00000000000E+00  0.00000000000E+00  0.35740347158E-01  0.35744000000E-01  0.51099999109E-03 0.  1.
       11   -1    0    0    0    0 -0.00000000000E+00 -0.00000000000E+00 -0.35740347158E-01  0.35744000000E-01  0.51099999109E-03 0. -1.
       22    1    1    2    0    0 -0.75952434642E-02 -0.37563807818E-02 -0.34717941543E-01  0.35737005818E-01  0.00000000000E+00 0. -1.
  9000001    1    1    2    0    0  0.75952434642E-02  0.37563807818E-02  0.34717941543E-01  0.35750994182E-01  0.10000000475E-02 0.  1.
</event>
<event>
 4   0  0.4958067E-02  0.9118800E+02  0.7818609E-02  0.1379984E+01
      -11   -1    0    0    0    0  0.00000000000E+00  0.00000000000E+00  0.35740347158E-01  0.35744000000E-01  0.51099999109E-03 0. -1.
       11   -1    0    0    0    0 -0.00000000000E+00 -0.00000000000E+00 -0.35740347158E-01  0.35744000000E-01  0.51099999109E-03 0.  1.
       22    1    1    2    0    0  0.12601223428E-01 -0.12348977494E-01 -0.31078055085E-01  0.35737005818E-01  0.00000000000E+00 0.  1.
  9000001    1    1    2    0    0 -0.12601223428E-01  0.12348977494E-01  0.31078055085E-01  0.35750994182E-01  0.10000000475E-02 0. -1.
</event>
<event>
 4   0  0.4958067E-02  0.9118800E+02  0.7818609E-02  0.1379984E+01
      -11   -1    0    0    0    0  0.00000000000E+00  0.00000000000E+00  0.35740347158E-01  0.35744000000E-01  0.51099999109E-03 0.  1.
       11   -1    0    0    0    0 -0.00000000000E+00 -0.00000000000E+00 -0.35740347158E-01  0.35744000000E-01  0.51099999109E-03 0. -1.
       22    1    1    2    0    0  0.18888420411E-01 -0.51674239529E-02  0.29894128001E-01  0.35737005818E-01  0.00000000000E+00 0.  1.
  9000001    1    1    2    0    0 -0.18888420411E-01  0.51674239529E-02 -0.29894128001E-01  0.35750994182E-01  0.10000000475E-02 0. -1.
</event>
<event>
 4   0  0.4958067E-02  0.9118800E+02  0.7818609E-02  0.1379984E+01
      -11   -1    0    0    0    0  0.00000000000E+00  0.00000000000E+00  0.35740347158E-01  0.35744000000E-01  0.51099999109E-03 0. -1.
       11   -1    0    0    0    0 -0.00000000000E+00 -0.00000000000E+00 -0.35740347158E-01  0.35744000000E-01  0.51099999109E-03 0.  1.
       22    1    1    2    0    0  0.66880226987E-03 -0.60399741202E-02 -0.35216544422E-01  0.35737005818E-01  0.00000000000E+00 0.  1.
  9000001    1    1    2    0    0 -0.66880226987E-03  0.60399741202E-02  0.35216544422E-01  0.35750994182E-01  0.10000000475E-02 0. -1.
</event>
<event>
 4   0  0.4958067E-02  0.9118800E+02  0.7818609E-02  0.1379984E+01
      -11   -1    0    0    0    0  0.00000000000E+00  0.00000000000E+00  0.35740347158E-01  0.35744000000E-01  0.51099999109E-03 0. -1.
       11   -1    0    0    0    0 -0.00000000000E+00 -0.00000000000E+00 -0.35740347158E-01  0.35744000000E-01  0.51099999109E-03 0.  1.
       22    1    1    2    0    0 -0.63149659896E-02  0.30303135985E-03 -0.35173327415E-01  0.35737005818E-01  0.00000000000E+00 0.  1.
  9000001    1    1    2    0    0  0.63149659896E-02 -0.30303135985E-03  0.35173327415E-01  0.35750994182E-01  0.10000000475E-02 0. -1.
</event>
<event>
 4   0  0.4958067E-02  0.9118800E+02  0.7818609E-02  0.1379984E+01
      -11   -1    0    0    0    0  0.00000000000E+00  0.00000000000E+00  0.35740347158E-01  0.35744000000E-01  0.51099999109E-03 0.  1.
       11   -1    0    0    0    0 -0.00000000000E+00 -0.00000000000E+00 -0.35740347158E-01  0.35744000000E-01  0.51099999109E-03 0. -1.
       22    1    1    2    0    0  0.13418979850E-01 -0.62841644150E-03 -0.33116003041E-01  0.35737005818E-01  0.00000000000E+00 0. -1.
  9000001    1    1    2    0    0 -0.13418979850E-01  0.62841644150E-03  0.33116003041E-01  0.35750994182E-01  0.10000000475E-02 0.  1.
</event>
<event>
 4   0  0.4958067E-02  0.9118800E+02  0.7818609E-02  0.1379984E+01
      -11   -1    0    0    0    0  0.00000000000E+00  0.00000000000E+00  0.35740347158E-01  0.35744000000E-01  0.51099999109E-03 0.  1.
       11   -1    0    0    0    0 -0.00000000000E+00 -0.00000000000E+00 -0.35740347158E-01  0.35744000000E-01  0.51099999109E-03 0. -1.
       22    1    1    2    0    0  0.16210931087E-01  0.31221295307E-01 -0.62904703709E-02  0.35737005818E-01  0.00000000000E+00 0.  1.
  9000001    1    1    2    0    0 -0.16210931087E-01 -0.31221295307E-01  0.62904703709E-02  0.35750994182E-01  0.10000000475E-02 0. -1.
</event>
<event>
 4   0  0.4958067E-02  0.9118800E+02  0.7818609E-02  0.1379984E+01
      -11   -1    0    0    0    0  0.00000000000E+00  0.00000000000E+00  0.35740347158E-01  0.35744000000E-01  0.51099999109E-03 0. -1.
       11   -1    0    0    0    0 -0.00000000000E+00 -0.00000000000E+00 -0.35740347158E-01  0.35744000000E-01  0.51099999109E-03 0.  1.
       22    1    1    2    0    0  0.14426616803E-01 -0.25943216321E-01  0.19898639135E-01  0.35737005818E-01  0.00000000000E+00 0.  1.
  9000001    1    1    2    0    0 -0.14426616803E-01  0.25943216321E-01 -0.19898639135E-01  0.35750994182E-01  0.10000000475E-02 0. -1.
</event>
<event>
 4   0  0.4958067E-02  0.9118800E+02  0.7818609E-02  0.1379984E+01
      -11   -1    0    0    0    0  0.00000000000E+00  0.00000000000E+00  0.35740347158E-01  0.35744000000E-01  0.51099999109E-03 0.  1.
       11   -1    0    0    0    0 -0.00000000000E+00 -0.00000000000E+00 -0.35740347158E-01  0.35744000000E-01  0.51099999109E-03 0. -1.
       22    1    1    2    0    0 -0.14695609808E-01 -0.10040060153E-01 -0.30989834291E-01  0.35737005818E-01  0.00000000000E+00 0. -1.
  9000001    1    1    2    0    0  0.14695609808E-01  0.10040060153E-01  0.30989834291E-01  0.35750994182E-01  0.10000000475E-02 0.  1.
</event>
<event>
 4   0  0.4958067E-02  0.9118800E+02  0.7818609E-02  0.1379984E+01
      -11   -1    0    0    0    0  0.00000000000E+00  0.00000000000E+00  0.35740347158E-01  0.35744000000E-01  0.51099999109E-03 0.  1.
       11   -1    0    0    0    0 -0.00000000000E+00 -0.00000000000E+00 -0.35740347158E-01  0.35744000000E-01  0.51099999109E-03 0. -1.
       22    1    1    2    0    0  0.15947360567E-02  0.49223299966E-02 -0.35360444980E-01  0.35737005818E-01  0.00000000000E+00 0. -1.
  9000001    1    1    2    0    0 -0.15947360567E-02 -0.49223299966E-02  0.35360444980E-01  0.35750994182E-01  0.10000000475E-02 0.  1.
</event>
<event>
 4   0  0.4958067E-02  0.9118800E+02  0.7818609E-02  0.1379984E+01
      -11   -1    0    0    0    0  0.00000000000E+00  0.00000000000E+00  0.35740347158E-01  0.35744000000E-01  0.51099999109E-03 0. -1.
       11   -1    0    0    0    0 -0.00000000000E+00 -0.00000000000E+00 -0.35740347158E-01  0.35744000000E-01  0.51099999109E-03 0.  1.
       22    1    1    2    0    0 -0.10662637553E-01 -0.86302417233E-03  0.34098342109E-01  0.35737005818E-01  0.00000000000E+00 0. -1.
  9000001    1    1    2    0    0  0.10662637553E-01  0.86302417233E-03 -0.34098342109E-01  0.35750994182E-01  0.10000000475E-02 0.  1.
</event>
<event>
 4   0  0.4958067E-02  0.9118800E+02  0.7818609E-02  0.1379984E+01
      -11   -1    0    0    0    0  0.00000000000E+00  0.00000000000E+00  0.35740347158E-01  0.35744000000E-01  0.51099999109E-03 0.  1.
       11   -1    0    0    0    0 -0.00000000000E+00 -0.00000000000E+00 -0.35740347158E-01  0.35744000000E-01  0.51099999109E-03 0. -1.
       22    1    1    2    0    0  0.15208586834E-02  0.34191190971E-02  0.35540543023E-01  0.35737005818E-01  0.00000000000E+00 0.  1.
  9000001    1    1    2    0    0 -0.15208586834E-02 -0.34191190971E-02 -0.35540543023E-01  0.35750994182E-01  0.10000000475E-02 0. -1.
</event>
<event>
 4   0  0.4958067E-02  0.9118800E+02  0.7818609E-02  0.1379984E+01
      -11   -1    0    0    0    0  0.00000000000E+00  0.00000000000E+00  0.35740347158E-01  0.35744000000E-01  0.51099999109E-03 0. -1.
       11   -1    0    0    0    0 -0.00000000000E+00 -0.00000000000E+00 -0.35740347158E-01  0.35744000000E-01  0.51099999109E-03 0.  1.
       22    1    1    2    0    0 -0.14852802178E-02  0.10572300123E-01  0.34105043581E-01  0.35737005818E-01  0.00000000000E+00 0. -1.
  9000001    1    1    2    0    0  0.14852802178E-02 -0.10572300123E-01 -0.34105043581E-01  0.35750994182E-01  0.10000000475E-02 0.  1.
</event>
<event>
 4   0  0.4958067E-02  0.9118800E+02  0.7818609E-02  0.1379984E+01
      -11   -1    0    0    0    0  0.00000000000E+00  0.00000000000E+00  0.35740347158E-01  0.35744000000E-01  0.51099999109E-03 0.  1.
       11   -1    0    0    0    0 -0.00000000000E+00 -0.00000000000E+00 -0.35740347158E-01  0.35744000000E-01  0.51099999109E-03 0. -1.
       22    1    1    2    0    0  0.15372464753E-02  0.37649375285E-02 -0.35504868730E-01  0.35737005818E-01  0.00000000000E+00 0. -1.
  9000001    1    1    2    0    0 -0.15372464753E-02 -0.37649375285E-02  0.35504868730E-01  0.35750994182E-01  0.10000000475E-02 0.  1.
</event>
<event>
 4   0  0.4958067E-02  0.9118800E+02  0.7818609E-02  0.1379984E+01
      -11   -1    0    0    0    0  0.00000000000E+00  0.00000000000E+00  0.35740347158E-01  0.35744000000E-01  0.51099999109E-03 0.  1.
       11   -1    0    0    0    0 -0.00000000000E+00 -0.00000000000E+00 -0.35740347158E-01  0.35744000000E-01  0.51099999109E-03 0. -1.
       22    1    1    2    0    0  0.11420623184E-01 -0.84588479994E-03  0.33852436099E-01  0.35737005818E-01  0.00000000000E+00 0.  1.
  9000001    1    1    2    0    0 -0.11420623184E-01  0.84588479994E-03 -0.33852436099E-01  0.35750994182E-01  0.10000000475E-02 0. -1.
</event>
<event>
 4   0  0.4958067E-02  0.9118800E+02  0.7818609E-02  0.1379984E+01
      -11   -1    0    0    0    0  0.00000000000E+00  0.00000000000E+00  0.35740347158E-01  0.35744000000E-01  0.51099999109E-03 0. -1.
       11   -1    0    0    0    0 -0.00000000000E+00 -0.00000000000E+00 -0.35740347158E-01  0.35744000000E-01  0.51099999109E-03 0.  1.
       22    1    1    2    0    0  0.18200811501E-01  0.97446346728E-02  0.29170295519E-01  0.35737005818E-01  0.00000000000E+00 0. -1.
  9000001    1    1    2    0    0 -0.18200811501E-01 -0.97446346728E-02 -0.29170295519E-01  0.35750994182E-01  0.10000000475E-02 0.  1.
</event>
<event>
 4   0  0.4958067E-02  0.9118800E+02  0.7818609E-02  0.1379984E+01
      -11   -1    0    0    0    0  0.00000000000E+00  0.00000000000E+00  0.35740347158E-01  0.35744000000E-01  0.51099999109E-03 0. -1.
       11   -1    0    0    0    0 -0.00000000000E+00 -0.00000000000E+00 -0.35740347158E-01  0.35744000000E-01  0.51099999109E-03 0.  1.
       22    1    1    2    0    0  0.13126119476E-01 -0.82661950448E-02 -0.32194853500E-01  0.35737005818E-01  0.00000000000E+00 0.  1.
  9000001    1    1    2    0    0 -0.13126119476E-01  0.82661950448E-02  0.32194853500E-01  0.35750994182E-01  0.10000000475E-02 0. -1.
</event>
<event>
 4   0  0.4958067E-02  0.9118800E+02  0.7818609E-02  0.1379984E+01
      -11   -1    0    0    0    0  0.00000000000E+00  0.00000000000E+00  0.35740347158E-01  0.35744000000E-01  0.51099999109E-03 0.  1.
       11   -1    0    0    0    0 -0.00000000000E+00 -0.00000000000E+00 -0.35740347158E-01  0.35744000000E-01  0.51099999109E-03 0. -1.
       22    1    1    2    0    0 -0.34309182581E-02 -0.31315087211E-02  0.35433826182E-01  0.35737005818E-01  0.00000000000E+00 0.  1.
  9000001    1    1    2    0    0  0.34309182581E-02  0.31315087211E-02 -0.35433826182E-01  0.35750994182E-01  0.10000000475E-02 0. -1.
</event>
<event>
 4   0  0.4958067E-02  0.9118800E+02  0.7818609E-02  0.1379984E+01
      -11   -1    0    0    0    0  0.00000000000E+00  0.00000000000E+00  0.35740347158E-01  0.35744000000E-01  0.51099999109E-03 0.  1.
       11   -1    0    0    0    0 -0.00000000000E+00 -0.00000000000E+00 -0.35740347158E-01  0.35744000000E-01  0.51099999109E-03 0. -1.
       22    1    1    2    0    0 -0.12364335541E-02  0.51847174324E-02  0.35337282325E-01  0.35737005818E-01  0.00000000000E+00 0.  1.
  9000001    1    1    2    0    0  0.12364335541E-02 -0.51847174324E-02 -0.35337282325E-01  0.35750994182E-01  0.10000000475E-02 0. -1.
</event>
<event>
 4   0  0.4958067E-02  0.9118800E+02  0.7818609E-02  0.1379984E+01
      -11   -1    0    0    0    0  0.00000000000E+00  0.00000000000E+00  0.35740347158E-01  0.35744000000E-01  0.51099999109E-03 0. -1.
       11   -1    0    0    0    0 -0.00000000000E+00 -0.00000000000E+00 -0.35740347158E-01  0.35744000000E-01  0.51099999109E-03 0.  1.
       22    1    1    2    0    0  0.14199813001E-01 -0.39299301968E-02  0.32558478838E-01  0.35737005818E-01  0.00000000000E+00 0. -1.
  9000001    1    1    2    0    0 -0.14199813001E-01  0.39299301968E-02 -0.32558478838E-01  0.35750994182E-01  0.10000000475E-02 0.  1.
</event>
<event>
 4   0  0.4958067E-02  0.9118800E+02  0.7818609E-02  0.1379984E+01
      -11   -1    0    0    0    0  0.00000000000E+00  0.00000000000E+00  0.35740347158E-01  0.35744000000E-01  0.51099999109E-03 0. -1.
       11   -1    0    0    0    0 -0.00000000000E+00 -0.00000000000E+00 -0.35740347158E-01  0.35744000000E-01  0.51099999109E-03 0.  1.
       22    1    1    2    0    0  0.12717582332E-02  0.33764287547E-02 -0.35554408232E-01  0.35737005818E-01  0.00000000000E+00 0.  1.
  9000001    1    1    2    0    0 -0.12717582332E-02 -0.33764287547E-02  0.35554408232E-01  0.35750994182E-01  0.10000000475E-02 0. -1.
</event>
<event>
 4   0  0.4958067E-02  0.9118800E+02  0.7818609E-02  0.1379984E+01
      -11   -1    0    0    0    0  0.00000000000E+00  0.00000000000E+00  0.35740347158E-01  0.35744000000E-01  0.51099999109E-03 0.  1.
       11   -1    0    0    0    0 -0.00000000000E+00 -0.00000000000E+00 -0.35740347158E-01  0.35744000000E-01  0.51099999109E-03 0. -1.
       22    1    1    2    0    0  0.21462879926E-03 -0.34268566835E-02 -0.35571676551E-01  0.35737005818E-01  0.00000000000E+00 0. -1.
  9000001    1    1    2    0    0 -0.21462879926E-03  0.34268566835E-02  0.35571676551E-01  0.35750994182E-01  0.10000000475E-02 0.  1.
</event>
<event>
 4   0  0.4958067E-02  0.9118800E+02  0.7818609E-02  0.1379984E+01
      -11   -1    0    0    0    0  0.00000000000E+00  0.00000000000E+00  0.35740347158E-01  0.35744000000E-01  0.51099999109E-03 0.  1.
       11   -1    0    0    0    0 -0.00000000000E+00 -0.00000000000E+00 -0.35740347158E-01  0.35744000000E-01  0.51099999109E-03 0. -1.
       22    1    1    2    0    0  0.25783718238E-02  0.39134199394E-02  0.35428388730E-01  0.35737005818E-01  0.00000000000E+00 0.  1.
  9000001    1    1    2    0    0 -0.25783718238E-02 -0.39134199394E-02 -0.35428388730E-01  0.35750994182E-01  0.10000000475E-02 0. -1.
</event>
<event>
 4   0  0.4958067E-02  0.9118800E+02  0.7818609E-02  0.1379984E+01
      -11   -1    0    0    0    0  0.00000000000E+00  0.00000000000E+00  0.35740347158E-01  0.35744000000E-01  0.51099999109E-03 0. -1.
       11   -1    0    0    0    0 -0.00000000000E+00 -0.00000000000E+00 -0.35740347158E-01  0.35744000000E-01  0.51099999109E-03 0.  1.
       22    1    1    2    0    0  0.33732483894E-02 -0.39668835936E-02 -0.35355602310E-01  0.35737005818E-01  0.00000000000E+00 0.  1.
  9000001    1    1    2    0    0 -0.33732483894E-02  0.39668835936E-02  0.35355602310E-01  0.35750994182E-01  0.10000000475E-02 0. -1.
</event>
<event>
 4   0  0.4958067E-02  0.9118800E+02  0.7818609E-02  0.1379984E+01
      -11   -1    0    0    0    0  0.00000000000E+00  0.00000000000E+00  0.35740347158E-01  0.35744000000E-01  0.51099999109E-03 0.  1.
       11   -1    0    0    0    0 -0.00000000000E+00 -0.00000000000E+00 -0.35740347158E-01  0.35744000000E-01  0.51099999109E-03 0. -1.
       22    1    1    2    0    0 -0.41577221319E-02  0.12061063290E-02  0.35473824703E-01  0.35737005818E-01  0.00000000000E+00 0.  1.
  9000001    1    1    2    0    0  0.41577221319E-02 -0.12061063290E-02 -0.35473824703E-01  0.35750994182E-01  0.10000000475E-02 0. -1.
</event>
<event>
 4   0  0.4958067E-02  0.9118800E+02  0.7818609E-02  0.1379984E+01
      -11   -1    0    0    0    0  0.00000000000E+00  0.00000000000E+00  0.35740347158E-01  0.35744000000E-01  0.51099999109E-03 0.  1.
       11   -1    0    0    0    0 -0.00000000000E+00 -0.00000000000E+00 -0.35740347158E-01  0.35744000000E-01  0.51099999109E-03 0. -1.
       22    1    1    2    0    0  0.55290033595E-02  0.46921118319E-02 -0.34993539308E-01  0.35737005818E-01  0.00000000000E+00 0. -1.
  9000001    1    1    2    0    0 -0.55290033595E-02 -0.46921118319E-02  0.34993539308E-01  0.35750994182E-01  0.10000000475E-02 0.  1.
</event>
<event>
 4   0  0.4958067E-02  0.9118800E+02  0.7818609E-02  0.1379984E+01
      -11   -1    0    0    0    0  0.00000000000E+00  0.00000000000E+00  0.35740347158E-01  0.35744000000E-01  0.51099999109E-03 0.  1.
       11   -1    0    0    0    0 -0.00000000000E+00 -0.00000000000E+00 -0.35740347158E-01  0.35744000000E-01  0.51099999109E-03 0. -1.
       22    1    1    2    0    0 -0.17130552951E-01  0.64172737184E-02  0.30700103233E-01  0.35737005818E-01  0.00000000000E+00 0.  1.
  9000001    1    1    2    0    0  0.17130552951E-01 -0.64172737184E-02 -0.30700103233E-01  0.35750994182E-01  0.10000000475E-02 0. -1.
</event>
<event>
 4   0  0.4958067E-02  0.9118800E+02  0.7818609E-02  0.1379984E+01
      -11   -1    0    0    0    0  0.00000000000E+00  0.00000000000E+00  0.35740347158E-01  0.35744000000E-01  0.51099999109E-03 0. -1.
       11   -1    0    0    0    0 -0.00000000000E+00 -0.00000000000E+00 -0.35740347158E-01  0.35744000000E-01  0.51099999109E-03 0.  1.
       22    1    1    2    0    0 -0.37405926404E-02 -0.13670145890E-01 -0.32806533845E-01  0.35737005818E-01  0.00000000000E+00 0.  1.
  9000001    1    1    2    0    0  0.37405926404E-02  0.13670145890E-01  0.32806533845E-01  0.35750994182E-01  0.10000000475E-02 0. -1.
</event>
<event>
 4   0  0.4958067E-02  0.9118800E+02  0.7818609E-02  0.1379984E+01
      -11   -1    0    0    0    0  0.00000000000E+00  0.00000000000E+00  0.35740347158E-01  0.35744000000E-01  0.51099999109E-03 0.  1.
       11   -1    0    0    0    0 -0.00000000000E+00 -0.00000000000E+00 -0.35740347158E-01  0.35744000000E-01  0.51099999109E-03 0. -1.
       22    1    1    2    0    0  0.74008199620E-02  0.45337494778E-03  0.34959346389E-01  0.35737005818E-01  0.00000000000E+00 0.  1.
  9000001    1    1    2    0    0 -0.74008199620E-02 -0.45337494778E-03 -0.34959346389E-01  0.35750994182E-01  0.10000000475E-02 0. -1.
</event>
<event>
 4   0  0.4958067E-02  0.9118800E+02  0.7818609E-02  0.1379984E+01
      -11   -1    0    0    0    0  0.00000000000E+00  0.00000000000E+00  0.35740347158E-01  0.35744000000E-01  0.51099999109E-03 0.  1.
       11   -1    0    0    0    0 -0.00000000000E+00 -0.00000000000E+00 -0.35740347158E-01  0.35744000000E-01  0.51099999109E-03 0. -1.
       22    1    1    2    0    0 -0.16505810018E-01  0.16011421363E-01 -0.27355551657E-01  0.35737005818E-01  0.00000000000E+00 0. -1.
  9000001    1    1    2    0    0  0.16505810018E-01 -0.16011421363E-01  0.27355551657E-01  0.35750994182E-01  0.10000000475E-02 0.  1.
</event>
<event>
 4   0  0.4958067E-02  0.9118800E+02  0.7818609E-02  0.1379984E+01
      -11   -1    0    0    0    0  0.00000000000E+00  0.00000000000E+00  0.35740347158E-01  0.35744000000E-01  0.51099999109E-03 0.  1.
       11   -1    0    0    0    0 -0.00000000000E+00 -0.00000000000E+00 -0.35740347158E-01  0.35744000000E-01  0.51099999109E-03 0. -1.
       22    1    1    2    0    0 -0.26648247649E-01  0.23063109651E-01 -0.59243105376E-02  0.35737005818E-01  0.00000000000E+00 0. -1.
  9000001    1    1    2    0    0  0.26648247649E-01 -0.23063109651E-01  0.59243105376E-02  0.35750994182E-01  0.10000000475E-02 0.  1.
</event>
<event>
 4   0  0.4958067E-02  0.9118800E+02  0.7818609E-02  0.1379984E+01
      -11   -1    0    0    0    0  0.00000000000E+00  0.00000000000E+00  0.35740347158E-01  0.35744000000E-01  0.51099999109E-03 0.  1.
       11   -1    0    0    0    0 -0.00000000000E+00 -0.00000000000E+00 -0.35740347158E-01  0.35744000000E-01  0.51099999109E-03 0. -1.
       22    1    1    2    0    0  0.24977387705E-01 -0.15339402690E-01  0.20444226897E-01  0.35737005818E-01  0.00000000000E+00 0.  1.
  9000001    1    1    2    0    0 -0.24977387705E-01  0.15339402690E-01 -0.20444226897E-01  0.35750994182E-01  0.10000000475E-02 0. -1.
</event>
<event>
 4   0  0.4958067E-02  0.9118800E+02  0.7818609E-02  0.1379984E+01
      -11   -1    0    0    0    0  0.00000000000E+00  0.00000000000E+00  0.35740347158E-01  0.35744000000E-01  0.51099999109E-03 0. -1.
       11   -1    0    0    0    0 -0.00000000000E+00 -0.00000000000E+00 -0.35740347158E-01  0.35744000000E-01  0.51099999109E-03 0.  1.
       22    1    1    2    0    0 -0.34454630792E-01 -0.55169197689E-02  0.77185230538E-02  0.35737005818E-01  0.00000000000E+00 0. -1.
  9000001    1    1    2    0    0  0.34454630792E-01  0.55169197689E-02 -0.77185230538E-02  0.35750994182E-01  0.10000000475E-02 0.  1.
</event>
<event>
 4   0  0.4958067E-02  0.9118800E+02  0.7818609E-02  0.1379984E+01
      -11   -1    0    0    0    0  0.00000000000E+00  0.00000000000E+00  0.35740347158E-01  0.35744000000E-01  0.51099999109E-03 0.  1.
       11   -1    0    0    0    0 -0.00000000000E+00 -0.00000000000E+00 -0.35740347158E-01  0.35744000000E-01  0.51099999109E-03 0. -1.
       22    1    1    2    0    0 -0.36928128286E-02 -0.48695186778E-02  0.35210573783E-01  0.35737005818E-01  0.00000000000E+00 0.  1.
  9000001    1    1    2    0    0  0.36928128286E-02  0.48695186778E-02 -0.35210573783E-01  0.35750994182E-01  0.10000000475E-02 0. -1.
</event>
<event>
 4   0  0.4958067E-02  0.9118800E+02  0.7818609E-02  0.1379984E+01
      -11   -1    0    0    0    0  0.00000000000E+00  0.00000000000E+00  0.35740347158E-01  0.35744000000E-01  0.51099999109E-03 0.  1.
       11   -1    0    0    0    0 -0.00000000000E+00 -0.00000000000E+00 -0.35740347158E-01  0.35744000000E-01  0.51099999109E-03 0. -1.
       22    1    1    2    0    0  0.36885449156E-02  0.40337367693E-02  0.35316528552E-01  0.35737005818E-01  0.00000000000E+00 0.  1.
  9000001    1    1    2    0    0 -0.36885449156E-02 -0.40337367693E-02 -0.35316528552E-01  0.35750994182E-01  0.10000000475E-02 0. -1.
</event>
<event>
 4   0  0.4958067E-02  0.9118800E+02  0.7818609E-02  0.1379984E+01
      -11   -1    0    0    0    0  0.00000000000E+00  0.00000000000E+00  0.35740347158E-01  0.35744000000E-01  0.51099999109E-03 0. -1.
       11   -1    0    0    0    0 -0.00000000000E+00 -0.00000000000E+00 -0.35740347158E-01  0.35744000000E-01  0.51099999109E-03 0.  1.
       22    1    1    2    0    0  0.33690714439E-01 -0.11526119016E-01  0.30361037332E-02  0.35737005818E-01  0.00000000000E+00 0. -1.
  9000001    1    1    2    0    0 -0.33690714439E-01  0.11526119016E-01 -0.30361037332E-02  0.35750994182E-01  0.10000000475E-02 0.  1.
</event>
<event>
 4   0  0.4958067E-02  0.9118800E+02  0.7818609E-02  0.1379984E+01
      -11   -1    0    0    0    0  0.00000000000E+00  0.00000000000E+00  0.35740347158E-01  0.35744000000E-01  0.51099999109E-03 0.  1.
       11   -1    0    0    0    0 -0.00000000000E+00 -0.00000000000E+00 -0.35740347158E-01  0.35744000000E-01  0.51099999109E-03 0. -1.
       22    1    1    2    0    0  0.74417977159E-02  0.48866666398E-02 -0.34610312347E-01  0.35737005818E-01  0.00000000000E+00 0. -1.
  9000001    1    1    2    0    0 -0.74417977159E-02 -0.48866666398E-02  0.34610312347E-01  0.35750994182E-01  0.10000000475E-02 0.  1.
</event>
<event>
 4   0  0.4958067E-02  0.9118800E+02  0.7818609E-02  0.1379984E+01
      -11   -1    0    0    0    0  0.00000000000E+00  0.00000000000E+00  0.35740347158E-01  0.35744000000E-01  0.51099999109E-03 0.  1.
       11   -1    0    0    0    0 -0.00000000000E+00 -0.00000000000E+00 -0.35740347158E-01  0.35744000000E-01  0.51099999109E-03 0. -1.
       22    1    1    2    0    0 -0.84087338970E-03  0.11007477681E-01  0.33989144619E-01  0.35737005818E-01  0.00000000000E+00 0.  1.
  9000001    1    1    2    0    0  0.84087338970E-03 -0.11007477681E-01 -0.33989144619E-01  0.35750994182E-01  0.10000000475E-02 0. -1.
</event>
<event>
 4   0  0.4958067E-02  0.9118800E+02  0.7818609E-02  0.1379984E+01
      -11   -1    0    0    0    0  0.00000000000E+00  0.00000000000E+00  0.35740347158E-01  0.35744000000E-01  0.51099999109E-03 0. -1.
       11   -1    0    0    0    0 -0.00000000000E+00 -0.00000000000E+00 -0.35740347158E-01  0.35744000000E-01  0.51099999109E-03 0.  1.
       22    1    1    2    0    0 -0.25113554476E-01 -0.15984951964E-01 -0.19771805106E-01  0.35737005818E-01  0.00000000000E+00 0.  1.
  9000001    1    1    2    0    0  0.25113554476E-01  0.15984951964E-01  0.19771805106E-01  0.35750994182E-01  0.10000000475E-02 0. -1.
</event>
<event>
 4   0  0.4958067E-02  0.9118800E+02  0.7818609E-02  0.1379984E+01
      -11   -1    0    0    0    0  0.00000000000E+00  0.00000000000E+00  0.35740347158E-01  0.35744000000E-01  0.51099999109E-03 0. -1.
       11   -1    0    0    0    0 -0.00000000000E+00 -0.00000000000E+00 -0.35740347158E-01  0.35744000000E-01  0.51099999109E-03 0.  1.
       22    1    1    2    0    0  0.70535366714E-02  0.15206326903E-01  0.31561825476E-01  0.35737005818E-01  0.00000000000E+00 0. -1.
  9000001    1    1    2    0    0 -0.70535366714E-02 -0.15206326903E-01 -0.31561825476E-01  0.35750994182E-01  0.10000000475E-02 0.  1.
</event>
<event>
 4   0  0.4958067E-02  0.9118800E+02  0.7818609E-02  0.1379984E+01
      -11   -1    0    0    0    0  0.00000000000E+00  0.00000000000E+00  0.35740347158E-01  0.35744000000E-01  0.51099999109E-03 0. -1.
       11   -1    0    0    0    0 -0.00000000000E+00 -0.00000000000E+00 -0.35740347158E-01  0.35744000000E-01  0.51099999109E-03 0.  1.
       22    1    1    2    0    0 -0.27850830607E-01  0.45877316963E-03 -0.22388710248E-01  0.35737005818E-01  0.00000000000E+00 0.  1.
  9000001    1    1    2    0    0  0.27850830607E-01 -0.45877316963E-03  0.22388710248E-01  0.35750994182E-01  0.10000000475E-02 0. -1.
</event>
<event>
 4   0  0.4958067E-02  0.9118800E+02  0.7818609E-02  0.1379984E+01
      -11   -1    0    0    0    0  0.00000000000E+00  0.00000000000E+00  0.35740347158E-01  0.35744000000E-01  0.51099999109E-03 0.  1.
       11   -1    0    0    0    0 -0.00000000000E+00 -0.00000000000E+00 -0.35740347158E-01  0.35744000000E-01  0.51099999109E-03 0. -1.
       22    1    1    2    0    0  0.51863633244E-02 -0.99173666794E-02 -0.33939373278E-01  0.35737005818E-01  0.00000000000E+00 0. -1.
  9000001    1    1    2    0    0 -0.51863633244E-02  0.99173666794E-02  0.33939373278E-01  0.35750994182E-01  0.10000000475E-02 0.  1.
</event>
<event>
 4   0  0.4958067E-02  0.9118800E+02  0.7818609E-02  0.1379984E+01
      -11   -1    0    0    0    0  0.00000000000E+00  0.00000000000E+00  0.35740347158E-01  0.35744000000E-01  0.51099999109E-03 0.  1.
       11   -1    0    0    0    0 -0.00000000000E+00 -0.00000000000E+00 -0.35740347158E-01  0.35744000000E-01  0.51099999109E-03 0. -1.
       22    1    1    2    0    0  0.12048553537E-01  0.10184684240E-01  0.32066152708E-01  0.35737005818E-01  0.00000000000E+00 0.  1.
  9000001    1    1    2    0    0 -0.12048553537E-01 -0.10184684240E-01 -0.32066152708E-01  0.35750994182E-01  0.10000000475E-02 0. -1.
</event>
<event>
 4   0  0.4958067E-02  0.9118800E+02  0.7818609E-02  0.1379984E+01
      -11   -1    0    0    0    0  0.00000000000E+00  0.00000000000E+00  0.35740347158E-01  0.35744000000E-01  0.51099999109E-03 0. -1.
       11   -1    0    0    0    0 -0.00000000000E+00 -0.00000000000E+00 -0.35740347158E-01  0.35744000000E-01  0.51099999109E-03 0.  1.
       22    1    1    2    0    0  0.41396094043E-02 -0.16612587578E-01  0.31369079566E-01  0.35737005818E-01  0.00000000000E+00 0. -1.
  9000001    1    1    2    0    0 -0.41396094043E-02  0.16612587578E-01 -0.31369079566E-01  0.35750994182E-01  0.10000000475E-02 0.  1.
</event>
<event>
 4   0  0.4958067E-02  0.9118800E+02  0.7818609E-02  0.1379984E+01
      -11   -1    0    0    0    0  0.00000000000E+00  0.00000000000E+00  0.35740347158E-01  0.35744000000E-01  0.51099999109E-03 0.  1.
       11   -1    0    0    0    0 -0.00000000000E+00 -0.00000000000E+00 -0.35740347158E-01  0.35744000000E-01  0.51099999109E-03 0. -1.
       22    1    1    2    0    0 -0.59220955975E-02  0.15207787139E-02  0.35210078113E-01  0.35737005818E-01  0.00000000000E+00 0.  1.
  9000001    1    1    2    0    0  0.59220955975E-02 -0.15207787139E-02 -0.35210078113E-01  0.35750994182E-01  0.10000000475E-02 0. -1.
</event>
<event>
 4   0  0.4958067E-02  0.9118800E+02  0.7818609E-02  0.1379984E+01
      -11   -1    0    0    0    0  0.00000000000E+00  0.00000000000E+00  0.35740347158E-01  0.35744000000E-01  0.51099999109E-03 0.  1.
       11   -1    0    0    0    0 -0.00000000000E+00 -0.00000000000E+00 -0.35740347158E-01  0.35744000000E-01  0.51099999109E-03 0. -1.
       22    1    1    2    0    0 -0.34190831584E-02 -0.24238012636E-02 -0.35490402120E-01  0.35737005818E-01  0.00000000000E+00 0. -1.
  9000001    1    1    2    0    0  0.34190831584E-02  0.24238012636E-02  0.35490402120E-01  0.35750994182E-01  0.10000000475E-02 0.  1.
</event>
<event>
 4   0  0.4958067E-02  0.9118800E+02  0.7818609E-02  0.1379984E+01
      -11   -1    0    0    0    0  0.00000000000E+00  0.00000000000E+00  0.35740347158E-01  0.35744000000E-01  0.51099999109E-03 0.  1.
       11   -1    0    0    0    0 -0.00000000000E+00 -0.00000000000E+00 -0.35740347158E-01  0.35744000000E-01  0.51099999109E-03 0. -1.
       22    1    1    2    0    0  0.29781577186E-01 -0.18798495768E-01  0.60669433864E-02  0.35737005818E-01  0.00000000000E+00 0.  1.
  9000001    1    1    2    0    0 -0.29781577186E-01  0.18798495768E-01 -0.60669433864E-02  0.35750994182E-01  0.10000000475E-02 0. -1.
</event>
<event>
 4   0  0.4958067E-02  0.9118800E+02  0.7818609E-02  0.1379984E+01
      -11   -1    0    0    0    0  0.00000000000E+00  0.00000000000E+00  0.35740347158E-01  0.35744000000E-01  0.51099999109E-03 0. -1.
       11   -1    0    0    0    0 -0.00000000000E+00 -0.00000000000E+00 -0.35740347158E-01  0.35744000000E-01  0.51099999109E-03 0.  1.
       22    1    1    2    0    0  0.82352053561E-02  0.32591592056E-01 -0.12128606881E-01  0.35737005818E-01  0.00000000000E+00 0.  1.
  9000001    1    1    2    0    0 -0.82352053561E-02 -0.32591592056E-01  0.12128606881E-01  0.35750994182E-01  0.10000000475E-02 0. -1.
</event>
<event>
 4   0  0.4958067E-02  0.9118800E+02  0.7818609E-02  0.1379984E+01
      -11   -1    0    0    0    0  0.00000000000E+00  0.00000000000E+00  0.35740347158E-01  0.35744000000E-01  0.51099999109E-03 0.  1.
       11   -1    0    0    0    0 -0.00000000000E+00 -0.00000000000E+00 -0.35740347158E-01  0.35744000000E-01  0.51099999109E-03 0. -1.
       22    1    1    2    0    0 -0.62070876664E-02 -0.22403372281E-02  0.35122450608E-01  0.35737005818E-01  0.00000000000E+00 0.  1.
  9000001    1    1    2    0    0  0.62070876664E-02  0.22403372281E-02 -0.35122450608E-01  0.35750994182E-01  0.10000000475E-02 0. -1.
</event>
<event>
 4   0  0.4958067E-02  0.9118800E+02  0.7818609E-02  0.1379984E+01
      -11   -1    0    0    0    0  0.00000000000E+00  0.00000000000E+00  0.35740347158E-01  0.35744000000E-01  0.51099999109E-03 0.  1.
       11   -1    0    0    0    0 -0.00000000000E+00 -0.00000000000E+00 -0.35740347158E-01  0.35744000000E-01  0.51099999109E-03 0. -1.
       22    1    1    2    0    0 -0.28603853484E-01 -0.20618146215E-01 -0.58176625395E-02  0.35737005818E-01  0.00000000000E+00 0.  1.
  9000001    1    1    2    0    0  0.28603853484E-01  0.20618146215E-01  0.58176625395E-02  0.35750994182E-01  0.10000000475E-02 0. -1.
</event>
<event>
 4   0  0.4958067E-02  0.9118800E+02  0.7818609E-02  0.1379984E+01
      -11   -1    0    0    0    0  0.00000000000E+00  0.00000000000E+00  0.35740347158E-01  0.35744000000E-01  0.51099999109E-03 0.  1.
       11   -1    0    0    0    0 -0.00000000000E+00 -0.00000000000E+00 -0.35740347158E-01  0.35744000000E-01  0.51099999109E-03 0. -1.
       22    1    1    2    0    0  0.55693051786E-02 -0.36742900328E-02  0.35108631666E-01  0.35737005818E-01  0.00000000000E+00 0.  1.
  9000001    1    1    2    0    0 -0.55693051786E-02  0.36742900328E-02 -0.35108631666E-01  0.35750994182E-01  0.10000000475E-02 0. -1.
</event>
<event>
 4   0  0.4958067E-02  0.9118800E+02  0.7818609E-02  0.1379984E+01
      -11   -1    0    0    0    0  0.00000000000E+00  0.00000000000E+00  0.35740347158E-01  0.35744000000E-01  0.51099999109E-03 0. -1.
       11   -1    0    0    0    0 -0.00000000000E+00 -0.00000000000E+00 -0.35740347158E-01  0.35744000000E-01  0.51099999109E-03 0.  1.
       22    1    1    2    0    0 -0.10809680547E-01  0.17013227109E-01  0.29509905026E-01  0.35737005818E-01  0.00000000000E+00 0. -1.
  9000001    1    1    2    0    0  0.10809680547E-01 -0.17013227109E-01 -0.29509905026E-01  0.35750994182E-01  0.10000000475E-02 0.  1.
</event>
<event>
 4   0  0.4958067E-02  0.9118800E+02  0.7818609E-02  0.1379984E+01
      -11   -1    0    0    0    0  0.00000000000E+00  0.00000000000E+00  0.35740347158E-01  0.35744000000E-01  0.51099999109E-03 0.  1.
       11   -1    0    0    0    0 -0.00000000000E+00 -0.00000000000E+00 -0.35740347158E-01  0.35744000000E-01  0.51099999109E-03 0. -1.
       22    1    1    2    0    0 -0.25286261749E-01 -0.13020024514E-01 -0.21638334346E-01  0.35737005818E-01  0.00000000000E+00 0. -1.
  9000001    1    1    2    0    0  0.25286261749E-01  0.13020024514E-01  0.21638334346E-01  0.35750994182E-01  0.10000000475E-02 0.  1.
</event>
<event>
 4   0  0.4958067E-02  0.9118800E+02  0.7818609E-02  0.1379984E+01
      -11   -1    0    0    0    0  0.00000000000E+00  0.00000000000E+00  0.35740347158E-01  0.35744000000E-01  0.51099999109E-03 0.  1.
       11   -1    0    0    0    0 -0.00000000000E+00 -0.00000000000E+00 -0.35740347158E-01  0.35744000000E-01  0.51099999109E-03 0. -1.
       22    1    1    2    0    0  0.82167648293E-02  0.51301747527E-02 -0.34399123065E-01  0.35737005818E-01  0.00000000000E+00 0. -1.
  9000001    1    1    2    0    0 -0.82167648293E-02 -0.51301747527E-02  0.34399123065E-01  0.35750994182E-01  0.10000000475E-02 0.  1.
</event>
<event>
 4   0  0.4958067E-02  0.9118800E+02  0.7818609E-02  0.1379984E+01
      -11   -1    0    0    0    0  0.00000000000E+00  0.00000000000E+00  0.35740347158E-01  0.35744000000E-01  0.51099999109E-03 0.  1.
       11   -1    0    0    0    0 -0.00000000000E+00 -0.00000000000E+00 -0.35740347158E-01  0.35744000000E-01  0.51099999109E-03 0. -1.
       22    1    1    2    0    0  0.11742433339E-01  0.56926912141E-02  0.33269236704E-01  0.35737005818E-01  0.00000000000E+00 0.  1.
  9000001    1    1    2    0    0 -0.11742433339E-01 -0.56926912141E-02 -0.33269236704E-01  0.35750994182E-01  0.10000000475E-02 0. -1.
</event>
<event>
 4   0  0.4958067E-02  0.9118800E+02  0.7818609E-02  0.1379984E+01
      -11   -1    0    0    0    0  0.00000000000E+00  0.00000000000E+00  0.35740347158E-01  0.35744000000E-01  0.51099999109E-03 0.  1.
       11   -1    0    0    0    0 -0.00000000000E+00 -0.00000000000E+00 -0.35740347158E-01  0.35744000000E-01  0.51099999109E-03 0. -1.
       22    1    1    2    0    0 -0.35113936897E-01 -0.34797421373E-02  0.56600720096E-02  0.35737005818E-01  0.00000000000E+00 0. -1.
  9000001    1    1    2    0    0  0.35113936897E-01  0.34797421373E-02 -0.56600720096E-02  0.35750994182E-01  0.10000000475E-02 0.  1.
</event>
<event>
 4   0  0.4958067E-02  0.9118800E+02  0.7818609E-02  0.1379984E+01
      -11   -1    0    0    0    0  0.00000000000E+00  0.00000000000E+00  0.35740347158E-01  0.35744000000E-01  0.51099999109E-03 0. -1.
       11   -1    0    0    0    0 -0.00000000000E+00 -0.00000000000E+00 -0.35740347158E-01  0.35744000000E-01  0.51099999109E-03 0.  1.
       22    1    1    2    0    0  0.17020182868E-01  0.56067585694E-02 -0.30919431081E-01  0.35737005818E-01  0.00000000000E+00 0.  1.
  9000001    1    1    2    0    0 -0.17020182868E-01 -0.56067585694E-02  0.30919431081E-01  0.35750994182E-01  0.10000000475E-02 0. -1.
</event>
<event>
 4   0  0.4958067E-02  0.9118800E+02  0.7818609E-02  0.1379984E+01
      -11   -1    0    0    0    0  0.00000000000E+00  0.00000000000E+00  0.35740347158E-01  0.35744000000E-01  0.51099999109E-03 0.  1.
       11   -1    0    0    0    0 -0.00000000000E+00 -0.00000000000E+00 -0.35740347158E-01  0.35744000000E-01  0.51099999109E-03 0. -1.
       22    1    1    2    0    0  0.92823536428E-02 -0.15513112544E-01  0.30827176889E-01  0.35737005818E-01  0.00000000000E+00 0.  1.
  9000001    1    1    2    0    0 -0.92823536428E-02  0.15513112544E-01 -0.30827176889E-01  0.35750994182E-01  0.10000000475E-02 0. -1.
</event>
<event>
 4   0  0.4958067E-02  0.9118800E+02  0.7818609E-02  0.1379984E+01
      -11   -1    0    0    0    0  0.00000000000E+00  0.00000000000E+00  0.35740347158E-01  0.35744000000E-01  0.51099999109E-03 0.  1.
       11   -1    0    0    0    0 -0.00000000000E+00 -0.00000000000E+00 -0.35740347158E-01  0.35744000000E-01  0.51099999109E-03 0. -1.
       22    1    1    2    0    0 -0.23484945610E-02 -0.61513904957E-02  0.35125184030E-01  0.35737005818E-01  0.00000000000E+00 0.  1.
  9000001    1    1    2    0    0  0.23484945610E-02  0.61513904957E-02 -0.35125184030E-01  0.35750994182E-01  0.10000000475E-02 0. -1.
</event>
<event>
 4   0  0.4958067E-02  0.9118800E+02  0.7818609E-02  0.1379984E+01
      -11   -1    0    0    0    0  0.00000000000E+00  0.00000000000E+00  0.35740347158E-01  0.35744000000E-01  0.51099999109E-03 0.  1.
       11   -1    0    0    0    0 -0.00000000000E+00 -0.00000000000E+00 -0.35740347158E-01  0.35744000000E-01  0.51099999109E-03 0. -1.
       22    1    1    2    0    0 -0.10498164509E-01 -0.18863269405E-01  0.28479803268E-01  0.35737005818E-01  0.00000000000E+00 0.  1.
  9000001    1    1    2    0    0  0.10498164509E-01  0.18863269405E-01 -0.28479803268E-01  0.35750994182E-01  0.10000000475E-02 0. -1.
</event>
<event>
 4   0  0.4958067E-02  0.9118800E+02  0.7818609E-02  0.1379984E+01
      -11   -1    0    0    0    0  0.00000000000E+00  0.00000000000E+00  0.35740347158E-01  0.35744000000E-01  0.51099999109E-03 0.  1.
       11   -1    0    0    0    0 -0.00000000000E+00 -0.00000000000E+00 -0.35740347158E-01  0.35744000000E-01  0.51099999109E-03 0. -1.
       22    1    1    2    0    0 -0.24512267466E-02  0.30645890103E-02 -0.35520886342E-01  0.35737005818E-01  0.00000000000E+00 0. -1.
  9000001    1    1    2    0    0  0.24512267466E-02 -0.30645890103E-02  0.35520886342E-01  0.35750994182E-01  0.10000000475E-02 0.  1.
</event>
<event>
 4   0  0.4958067E-02  0.9118800E+02  0.7818609E-02  0.1379984E+01
      -11   -1    0    0    0    0  0.00000000000E+00  0.00000000000E+00  0.35740347158E-01  0.35744000000E-01  0.51099999109E-03 0.  1.
       11   -1    0    0    0    0 -0.00000000000E+00 -0.00000000000E+00 -0.35740347158E-01  0.35744000000E-01  0.51099999109E-03 0. -1.
       22    1    1    2    0    0  0.35271517605E-01  0.44516204854E-02 -0.36382283845E-02  0.35737005818E-01  0.00000000000E+00 0. -1.
  9000001    1    1    2    0    0 -0.35271517605E-01 -0.44516204854E-02  0.36382283845E-02  0.35750994182E-01  0.10000000475E-02 0.  1.
</event>
<event>
 4   0  0.4958067E-02  0.9118800E+02  0.7818609E-02  0.1379984E+01
      -11   -1    0    0    0    0  0.00000000000E+00  0.00000000000E+00  0.35740347158E-01  0.35744000000E-01  0.51099999109E-03 0. -1.
       11   -1    0    0    0    0 -0.00000000000E+00 -0.00000000000E+00 -0.35740347158E-01  0.35744000000E-01  0.51099999109E-03 0.  1.
       22    1    1    2    0    0 -0.31154499601E-01 -0.10317197868E-01  0.14145181781E-01  0.35737005818E-01  0.00000000000E+00 0.  1.
  9000001    1    1    2    0    0  0.31154499601E-01  0.10317197868E-01 -0.14145181781E-01  0.35750994182E-01  0.10000000475E-02 0. -1.
</event>
<event>
 4   0  0.4958067E-02  0.9118800E+02  0.7818609E-02  0.1379984E+01
      -11   -1    0    0    0    0  0.00000000000E+00  0.00000000000E+00  0.35740347158E-01  0.35744000000E-01  0.51099999109E-03 0. -1.
       11   -1    0    0    0    0 -0.00000000000E+00 -0.00000000000E+00 -0.35740347158E-01  0.35744000000E-01  0.51099999109E-03 0.  1.
       22    1    1    2    0    0  0.39194326035E-02 -0.25240994765E-02 -0.35431632121E-01  0.35737005818E-01  0.00000000000E+00 0.  1.
  9000001    1    1    2    0    0 -0.39194326035E-02  0.25240994765E-02  0.35431632121E-01  0.35750994182E-01  0.10000000475E-02 0. -1.
</event>
<event>
 4   0  0.4958067E-02  0.9118800E+02  0.7818609E-02  0.1379984E+01
      -11   -1    0    0    0    0  0.00000000000E+00  0.00000000000E+00  0.35740347158E-01  0.35744000000E-01  0.51099999109E-03 0.  1.
       11   -1    0    0    0    0 -0.00000000000E+00 -0.00000000000E+00 -0.35740347158E-01  0.35744000000E-01  0.51099999109E-03 0. -1.
       22    1    1    2    0    0  0.58492619447E-02 -0.67892667295E-02  0.34595166958E-01  0.35737005818E-01  0.00000000000E+00 0.  1.
  9000001    1    1    2    0    0 -0.58492619447E-02  0.67892667295E-02 -0.34595166958E-01  0.35750994182E-01  0.10000000475E-02 0. -1.
</event>
<event>
 4   0  0.4958067E-02  0.9118800E+02  0.7818609E-02  0.1379984E+01
      -11   -1    0    0    0    0  0.00000000000E+00  0.00000000000E+00  0.35740347158E-01  0.35744000000E-01  0.51099999109E-03 0.  1.
       11   -1    0    0    0    0 -0.00000000000E+00 -0.00000000000E+00 -0.35740347158E-01  0.35744000000E-01  0.51099999109E-03 0. -1.
       22    1    1    2    0    0  0.13209500902E-03  0.40839821516E-02  0.35502636882E-01  0.35737005818E-01  0.00000000000E+00 0.  1.
  9000001    1    1    2    0    0 -0.13209500902E-03 -0.40839821516E-02 -0.35502636882E-01  0.35750994182E-01  0.10000000475E-02 0. -1.
</event>
<event>
 4   0  0.4958067E-02  0.9118800E+02  0.7818609E-02  0.1379984E+01
      -11   -1    0    0    0    0  0.00000000000E+00  0.00000000000E+00  0.35740347158E-01  0.35744000000E-01  0.51099999109E-03 0. -1.
       11   -1    0    0    0    0 -0.00000000000E+00 -0.00000000000E+00 -0.35740347158E-01  0.35744000000E-01  0.51099999109E-03 0.  1.
       22    1    1    2    0    0  0.11131924096E-02  0.11968118928E-01  0.33654992451E-01  0.35737005818E-01  0.00000000000E+00 0. -1.
  9000001    1    1    2    0    0 -0.11131924096E-02 -0.11968118928E-01 -0.33654992451E-01  0.35750994182E-01  0.10000000475E-02 0.  1.
</event>
<event>
 4   0  0.4958067E-02  0.9118800E+02  0.7818609E-02  0.1379984E+01
      -11   -1    0    0    0    0  0.00000000000E+00  0.00000000000E+00  0.35740347158E-01  0.35744000000E-01  0.51099999109E-03 0. -1.
       11   -1    0    0    0    0 -0.00000000000E+00 -0.00000000000E+00 -0.35740347158E-01  0.35744000000E-01  0.51099999109E-03 0.  1.
       22    1    1    2    0    0 -0.29756065610E-01  0.83734874849E-03 -0.19773947289E-01  0.35737005818E-01  0.00000000000E+00 0. -1.
  9000001    1    1    2    0    0  0.29756065610E-01 -0.83734874849E-03  0.19773947289E-01  0.35750994182E-01  0.10000000475E-02 0.  1.
</event>
<event>
 4   0  0.4958067E-02  0.9118800E+02  0.7818609E-02  0.1379984E+01
      -11   -1    0    0    0    0  0.00000000000E+00  0.00000000000E+00  0.35740347158E-01  0.35744000000E-01  0.51099999109E-03 0. -1.
       11   -1    0    0    0    0 -0.00000000000E+00 -0.00000000000E+00 -0.35740347158E-01  0.35744000000E-01  0.51099999109E-03 0.  1.
       22    1    1    2    0    0  0.12269455678E-01 -0.17523732741E-02  0.33518998048E-01  0.35737005818E-01  0.00000000000E+00 0. -1.
  9000001    1    1    2    0    0 -0.12269455678E-01  0.17523732741E-02 -0.33518998048E-01  0.35750994182E-01  0.10000000475E-02 0.  1.
</event>
<event>
 4   0  0.4958067E-02  0.9118800E+02  0.7818609E-02  0.1379984E+01
      -11   -1    0    0    0    0  0.00000000000E+00  0.00000000000E+00  0.35740347158E-01  0.35744000000E-01  0.51099999109E-03 0. -1.
       11   -1    0    0    0    0 -0.00000000000E+00 -0.00000000000E+00 -0.35740347158E-01  0.35744000000E-01  0.51099999109E-03 0.  1.
       22    1    1    2    0    0 -0.11553776167E-01 -0.66404882268E-02 -0.33159429387E-01  0.35737005818E-01  0.00000000000E+00 0.  1.
  9000001    1    1    2    0    0  0.11553776167E-01  0.66404882268E-02  0.33159429387E-01  0.35750994182E-01  0.10000000475E-02 0. -1.
</event>
<event>
 4   0  0.4958067E-02  0.9118800E+02  0.7818609E-02  0.1379984E+01
      -11   -1    0    0    0    0  0.00000000000E+00  0.00000000000E+00  0.35740347158E-01  0.35744000000E-01  0.51099999109E-03 0.  1.
       11   -1    0    0    0    0 -0.00000000000E+00 -0.00000000000E+00 -0.35740347158E-01  0.35744000000E-01  0.51099999109E-03 0. -1.
       22    1    1    2    0    0 -0.17507371926E-01  0.11021305346E-01 -0.29140287260E-01  0.35737005818E-01  0.00000000000E+00 0. -1.
  9000001    1    1    2    0    0  0.17507371926E-01 -0.11021305346E-01  0.29140287260E-01  0.35750994182E-01  0.10000000475E-02 0.  1.
</event>
<event>
 4   0  0.4958067E-02  0.9118800E+02  0.7818609E-02  0.1379984E+01
      -11   -1    0    0    0    0  0.00000000000E+00  0.00000000000E+00  0.35740347158E-01  0.35744000000E-01  0.51099999109E-03 0. -1.
       11   -1    0    0    0    0 -0.00000000000E+00 -0.00000000000E+00 -0.35740347158E-01  0.35744000000E-01  0.51099999109E-03 0.  1.
       22    1    1    2    0    0 -0.38781029965E-02 -0.89358065488E-02 -0.34383793615E-01  0.35737005818E-01  0.00000000000E+00 0.  1.
  9000001    1    1    2    0    0  0.38781029965E-02  0.89358065488E-02  0.34383793615E-01  0.35750994182E-01  0.10000000475E-02 0. -1.
</event>
<event>
 4   0  0.4958067E-02  0.9118800E+02  0.7818609E-02  0.1379984E+01
      -11   -1    0    0    0    0  0.00000000000E+00  0.00000000000E+00  0.35740347158E-01  0.35744000000E-01  0.51099999109E-03 0.  1.
       11   -1    0    0    0    0 -0.00000000000E+00 -0.00000000000E+00 -0.35740347158E-01  0.35744000000E-01  0.51099999109E-03 0. -1.
       22    1    1    2    0    0 -0.32919871139E-02 -0.32366729689E-02  0.35437555697E-01  0.35737005818E-01  0.00000000000E+00 0.  1.
  9000001    1    1    2    0    0  0.32919871139E-02  0.32366729689E-02 -0.35437555697E-01  0.35750994182E-01  0.10000000475E-02 0. -1.
</event>
<event>
 4   0  0.4958067E-02  0.9118800E+02  0.7818609E-02  0.1379984E+01
      -11   -1    0    0    0    0  0.00000000000E+00  0.00000000000E+00  0.35740347158E-01  0.35744000000E-01  0.51099999109E-03 0. -1.
       11   -1    0    0    0    0 -0.00000000000E+00 -0.00000000000E+00 -0.35740347158E-01  0.35744000000E-01  0.51099999109E-03 0.  1.
       22    1    1    2    0    0  0.80526548766E-02  0.24769904984E-01 -0.24469167157E-01  0.35737005818E-01  0.00000000000E+00 0.  1.
  9000001    1    1    2    0    0 -0.80526548766E-02 -0.24769904984E-01  0.24469167157E-01  0.35750994182E-01  0.10000000475E-02 0. -1.
</event>
<event>
 4   0  0.4958067E-02  0.9118800E+02  0.7818609E-02  0.1379984E+01
      -11   -1    0    0    0    0  0.00000000000E+00  0.00000000000E+00  0.35740347158E-01  0.35744000000E-01  0.51099999109E-03 0.  1.
       11   -1    0    0    0    0 -0.00000000000E+00 -0.00000000000E+00 -0.35740347158E-01  0.35744000000E-01  0.51099999109E-03 0. -1.
       22    1    1    2    0    0 -0.12716066275E-01  0.93411500289E-02  0.32065217284E-01  0.35737005818E-01  0.00000000000E+00 0.  1.
  9000001    1    1    2    0    0  0.12716066275E-01 -0.93411500289E-02 -0.32065217284E-01  0.35750994182E-01  0.10000000475E-02 0. -1.
</event>
<event>
 4   0  0.4958067E-02  0.9118800E+02  0.7818609E-02  0.1379984E+01
      -11   -1    0    0    0    0  0.00000000000E+00  0.00000000000E+00  0.35740347158E-01  0.35744000000E-01  0.51099999109E-03 0.  1.
       11   -1    0    0    0    0 -0.00000000000E+00 -0.00000000000E+00 -0.35740347158E-01  0.35744000000E-01  0.51099999109E-03 0. -1.
       22    1    1    2    0    0 -0.41275307434E-02 -0.10287098962E-01 -0.33974588589E-01  0.35737005818E-01  0.00000000000E+00 0. -1.
  9000001    1    1    2    0    0  0.41275307434E-02  0.10287098962E-01  0.33974588589E-01  0.35750994182E-01  0.10000000475E-02 0.  1.
</event>
<event>
 4   0  0.4958067E-02  0.9118800E+02  0.7818609E-02  0.1379984E+01
      -11   -1    0    0    0    0  0.00000000000E+00  0.00000000000E+00  0.35740347158E-01  0.35744000000E-01  0.51099999109E-03 0. -1.
       11   -1    0    0    0    0 -0.00000000000E+00 -0.00000000000E+00 -0.35740347158E-01  0.35744000000E-01  0.51099999109E-03 0.  1.
       22    1    1    2    0    0  0.21325736634E-02 -0.21943740320E-01 -0.28125752883E-01  0.35737005818E-01  0.00000000000E+00 0.  1.
  9000001    1    1    2    0    0 -0.21325736634E-02  0.21943740320E-01  0.28125752883E-01  0.35750994182E-01  0.10000000475E-02 0. -1.
</event>
<event>
 4   0  0.4958067E-02  0.9118800E+02  0.7818609E-02  0.1379984E+01
      -11   -1    0    0    0    0  0.00000000000E+00  0.00000000000E+00  0.35740347158E-01  0.35744000000E-01  0.51099999109E-03 0.  1.
       11   -1    0    0    0    0 -0.00000000000E+00 -0.00000000000E+00 -0.35740347158E-01  0.35744000000E-01  0.51099999109E-03 0. -1.
       22    1    1    2    0    0 -0.62498298954E-02 -0.20548802829E-01 -0.28562561395E-01  0.35737005818E-01  0.00000000000E+00 0. -1.
  9000001    1    1    2    0    0  0.62498298954E-02  0.20548802829E-01  0.28562561395E-01  0.35750994182E-01  0.10000000475E-02 0.  1.
</event>
<event>
 4   0  0.4958067E-02  0.9118800E+02  0.7818609E-02  0.1379984E+01
      -11   -1    0    0    0    0  0.00000000000E+00  0.00000000000E+00  0.35740347158E-01  0.35744000000E-01  0.51099999109E-03 0.  1.
       11   -1    0    0    0    0 -0.00000000000E+00 -0.00000000000E+00 -0.35740347158E-01  0.35744000000E-01  0.51099999109E-03 0. -1.
       22    1    1    2    0    0  0.23202121212E-01 -0.47046184042E-02 -0.26770538317E-01  0.35737005818E-01  0.00000000000E+00 0. -1.
  9000001    1    1    2    0    0 -0.23202121212E-01  0.47046184042E-02  0.26770538317E-01  0.35750994182E-01  0.10000000475E-02 0.  1.
</event>
<event>
 4   0  0.4958067E-02  0.9118800E+02  0.7818609E-02  0.1379984E+01
      -11   -1    0    0    0    0  0.00000000000E+00  0.00000000000E+00  0.35740347158E-01  0.35744000000E-01  0.51099999109E-03 0.  1.
       11   -1    0    0    0    0 -0.00000000000E+00 -0.00000000000E+00 -0.35740347158E-01  0.35744000000E-01  0.51099999109E-03 0. -1.
       22    1    1    2    0    0 -0.14978341639E-01  0.13088459184E-01  0.29689646391E-01  0.35737005818E-01  0.00000000000E+00 0.  1.
  9000001    1    1    2    0    0  0.14978341639E-01 -0.13088459184E-01 -0.29689646391E-01  0.35750994182E-01  0.10000000475E-02 0. -1.
</event>
<event>
 4   0  0.4958067E-02  0.9118800E+02  0.7818609E-02  0.1379984E+01
      -11   -1    0    0    0    0  0.00000000000E+00  0.00000000000E+00  0.35740347158E-01  0.35744000000E-01  0.51099999109E-03 0. -1.
       11   -1    0    0    0    0 -0.00000000000E+00 -0.00000000000E+00 -0.35740347158E-01  0.35744000000E-01  0.51099999109E-03 0.  1.
       22    1    1    2    0    0 -0.25501895994E-01 -0.13296476421E-01 -0.21212981883E-01  0.35737005818E-01  0.00000000000E+00 0.  1.
  9000001    1    1    2    0    0  0.25501895994E-01  0.13296476421E-01  0.21212981883E-01  0.35750994182E-01  0.10000000475E-02 0. -1.
</event>
<event>
 4   0  0.4958067E-02  0.9118800E+02  0.7818609E-02  0.1379984E+01
      -11   -1    0    0    0    0  0.00000000000E+00  0.00000000000E+00  0.35740347158E-01  0.35744000000E-01  0.51099999109E-03 0. -1.
       11   -1    0    0    0    0 -0.00000000000E+00 -0.00000000000E+00 -0.35740347158E-01  0.35744000000E-01  0.51099999109E-03 0.  1.
       22    1    1    2    0    0  0.48627633301E-02  0.73045799008E-02 -0.34642895811E-01  0.35737005818E-01  0.00000000000E+00 0.  1.
  9000001    1    1    2    0    0 -0.48627633301E-02 -0.73045799008E-02  0.34642895811E-01  0.35750994182E-01  0.10000000475E-02 0. -1.
</event>
<event>
 4   0  0.4958067E-02  0.9118800E+02  0.7818609E-02  0.1379984E+01
      -11   -1    0    0    0    0  0.00000000000E+00  0.00000000000E+00  0.35740347158E-01  0.35744000000E-01  0.51099999109E-03 0. -1.
       11   -1    0    0    0    0 -0.00000000000E+00 -0.00000000000E+00 -0.35740347158E-01  0.35744000000E-01  0.51099999109E-03 0.  1.
       22    1    1    2    0    0 -0.35011950710E-02 -0.13801118514E-03 -0.35564816474E-01  0.35737005818E-01  0.00000000000E+00 0.  1.
  9000001    1    1    2    0    0  0.35011950710E-02  0.13801118514E-03  0.35564816474E-01  0.35750994182E-01  0.10000000475E-02 0. -1.
</event>
<event>
 4   0  0.4958067E-02  0.9118800E+02  0.7818609E-02  0.1379984E+01
      -11   -1    0    0    0    0  0.00000000000E+00  0.00000000000E+00  0.35740347158E-01  0.35744000000E-01  0.51099999109E-03 0.  1.
       11   -1    0    0    0    0 -0.00000000000E+00 -0.00000000000E+00 -0.35740347158E-01  0.35744000000E-01  0.51099999109E-03 0. -1.
       22    1    1    2    0    0 -0.36691538535E-02  0.26514506613E-02  0.35449128399E-01  0.35737005818E-01  0.00000000000E+00 0.  1.
  9000001    1    1    2    0    0  0.36691538535E-02 -0.26514506613E-02 -0.35449128399E-01  0.35750994182E-01  0.10000000475E-02 0. -1.
</event>
<event>
 4   0  0.4958067E-02  0.9118800E+02  0.7818609E-02  0.1379984E+01
      -11   -1    0    0    0    0  0.00000000000E+00  0.00000000000E+00  0.35740347158E-01  0.35744000000E-01  0.51099999109E-03 0.  1.
       11   -1    0    0    0    0 -0.00000000000E+00 -0.00000000000E+00 -0.35740347158E-01  0.35744000000E-01  0.51099999109E-03 0. -1.
       22    1    1    2    0    0 -0.15534974217E-01  0.31056965300E-01  0.84417455118E-02  0.35737005818E-01  0.00000000000E+00 0. -1.
  9000001    1    1    2    0    0  0.15534974217E-01 -0.31056965300E-01 -0.84417455118E-02  0.35750994182E-01  0.10000000475E-02 0.  1.
</event>
<event>
 4   0  0.4958067E-02  0.9118800E+02  0.7818609E-02  0.1379984E+01
      -11   -1    0    0    0    0  0.00000000000E+00  0.00000000000E+00  0.35740347158E-01  0.35744000000E-01  0.51099999109E-03 0.  1.
       11   -1    0    0    0    0 -0.00000000000E+00 -0.00000000000E+00 -0.35740347158E-01  0.35744000000E-01  0.51099999109E-03 0. -1.
       22    1    1    2    0    0  0.17033534720E-01  0.10906824398E-01 -0.29462407596E-01  0.35737005818E-01  0.00000000000E+00 0. -1.
  9000001    1    1    2    0    0 -0.17033534720E-01 -0.10906824398E-01  0.29462407596E-01  0.35750994182E-01  0.10000000475E-02 0.  1.
</event>
<event>
 4   0  0.4958067E-02  0.9118800E+02  0.7818609E-02  0.1379984E+01
      -11   -1    0    0    0    0  0.00000000000E+00  0.00000000000E+00  0.35740347158E-01  0.35744000000E-01  0.51099999109E-03 0.  1.
       11   -1    0    0    0    0 -0.00000000000E+00 -0.00000000000E+00 -0.35740347158E-01  0.35744000000E-01  0.51099999109E-03 0. -1.
       22    1    1    2    0    0 -0.61236479044E-02 -0.31024370225E-01  0.16647010944E-01  0.35737005818E-01  0.00000000000E+00 0. -1.
  9000001    1    1    2    0    0  0.61236479044E-02  0.31024370225E-01 -0.16647010944E-01  0.35750994182E-01  0.10000000475E-02 0.  1.
</event>
<event>
 4   0  0.4958067E-02  0.9118800E+02  0.7818609E-02  0.1379984E+01
      -11   -1    0    0    0    0  0.00000000000E+00  0.00000000000E+00  0.35740347158E-01  0.35744000000E-01  0.51099999109E-03 0. -1.
       11   -1    0    0    0    0 -0.00000000000E+00 -0.00000000000E+00 -0.35740347158E-01  0.35744000000E-01  0.51099999109E-03 0.  1.
       22    1    1    2    0    0 -0.23249870007E-01 -0.11457901631E-01  0.24602715699E-01  0.35737005818E-01  0.00000000000E+00 0. -1.
  9000001    1    1    2    0    0  0.23249870007E-01  0.11457901631E-01 -0.24602715699E-01  0.35750994182E-01  0.10000000475E-02 0.  1.
</event>
<event>
 4   0  0.4958067E-02  0.9118800E+02  0.7818609E-02  0.1379984E+01
      -11   -1    0    0    0    0  0.00000000000E+00  0.00000000000E+00  0.35740347158E-01  0.35744000000E-01  0.51099999109E-03 0. -1.
       11   -1    0    0    0    0 -0.00000000000E+00 -0.00000000000E+00 -0.35740347158E-01  0.35744000000E-01  0.51099999109E-03 0.  1.
       22    1    1    2    0    0 -0.11589106651E-02 -0.20331505219E-01  0.29366995189E-01  0.35737005818E-01  0.00000000000E+00 0. -1.
  9000001    1    1    2    0    0  0.11589106651E-02  0.20331505219E-01 -0.29366995189E-01  0.35750994182E-01  0.10000000475E-02 0.  1.
</event>
<event>
 4   0  0.4958067E-02  0.9118800E+02  0.7818609E-02  0.1379984E+01
      -11   -1    0    0    0    0  0.00000000000E+00  0.00000000000E+00  0.35740347158E-01  0.35744000000E-01  0.51099999109E-03 0. -1.
       11   -1    0    0    0    0 -0.00000000000E+00 -0.00000000000E+00 -0.35740347158E-01  0.35744000000E-01  0.51099999109E-03 0.  1.
       22    1    1    2    0    0 -0.23986231849E-01 -0.33994241913E-02 -0.26272384393E-01  0.35737005818E-01  0.00000000000E+00 0.  1.
  9000001    1    1    2    0    0  0.23986231849E-01  0.33994241913E-02  0.26272384393E-01  0.35750994182E-01  0.10000000475E-02 0. -1.
</event>
<event>
 4   0  0.4958067E-02  0.9118800E+02  0.7818609E-02  0.1379984E+01
      -11   -1    0    0    0    0  0.00000000000E+00  0.00000000000E+00  0.35740347158E-01  0.35744000000E-01  0.51099999109E-03 0. -1.
       11   -1    0    0    0    0 -0.00000000000E+00 -0.00000000000E+00 -0.35740347158E-01  0.35744000000E-01  0.51099999109E-03 0.  1.
       22    1    1    2    0    0  0.18563835569E-01  0.20896049402E-01  0.22268199596E-01  0.35737005818E-01  0.00000000000E+00 0. -1.
  9000001    1    1    2    0    0 -0.18563835569E-01 -0.20896049402E-01 -0.22268199596E-01  0.35750994182E-01  0.10000000475E-02 0.  1.
</event>
<event>
 4   0  0.4958067E-02  0.9118800E+02  0.7818609E-02  0.1379984E+01
      -11   -1    0    0    0    0  0.00000000000E+00  0.00000000000E+00  0.35740347158E-01  0.35744000000E-01  0.51099999109E-03 0.  1.
       11   -1    0    0    0    0 -0.00000000000E+00 -0.00000000000E+00 -0.35740347158E-01  0.35744000000E-01  0.51099999109E-03 0. -1.
       22    1    1    2    0    0  0.65941418233E-02  0.71058151250E-02  0.34397067751E-01  0.35737005818E-01  0.00000000000E+00 0.  1.
  9000001    1    1    2    0    0 -0.65941418233E-02 -0.71058151250E-02 -0.34397067751E-01  0.35750994182E-01  0.10000000475E-02 0. -1.
</event>
<event>
 4   0  0.4958067E-02  0.9118800E+02  0.7818609E-02  0.1379984E+01
      -11   -1    0    0    0    0  0.00000000000E+00  0.00000000000E+00  0.35740347158E-01  0.35744000000E-01  0.51099999109E-03 0.  1.
       11   -1    0    0    0    0 -0.00000000000E+00 -0.00000000000E+00 -0.35740347158E-01  0.35744000000E-01  0.51099999109E-03 0. -1.
       22    1    1    2    0    0  0.32669303477E-02 -0.10167287575E-01 -0.34104061552E-01  0.35737005818E-01  0.00000000000E+00 0. -1.
  9000001    1    1    2    0    0 -0.32669303477E-02  0.10167287575E-01  0.34104061552E-01  0.35750994182E-01  0.10000000475E-02 0.  1.
</event>
<event>
 4   0  0.4958067E-02  0.9118800E+02  0.7818609E-02  0.1379984E+01
      -11   -1    0    0    0    0  0.00000000000E+00  0.00000000000E+00  0.35740347158E-01  0.35744000000E-01  0.51099999109E-03 0. -1.
       11   -1    0    0    0    0 -0.00000000000E+00 -0.00000000000E+00 -0.35740347158E-01  0.35744000000E-01  0.51099999109E-03 0.  1.
       22    1    1    2    0    0  0.18372914900E-01  0.17576878307E-02  0.30601962624E-01  0.35737005818E-01  0.00000000000E+00 0. -1.
  9000001    1    1    2    0    0 -0.18372914900E-01 -0.17576878307E-02 -0.30601962624E-01  0.35750994182E-01  0.10000000475E-02 0.  1.
</event>
<event>
 4   0  0.4958067E-02  0.9118800E+02  0.7818609E-02  0.1379984E+01
      -11   -1    0    0    0    0  0.00000000000E+00  0.00000000000E+00  0.35740347158E-01  0.35744000000E-01  0.51099999109E-03 0. -1.
       11   -1    0    0    0    0 -0.00000000000E+00 -0.00000000000E+00 -0.35740347158E-01  0.35744000000E-01  0.51099999109E-03 0.  1.
       22    1    1    2    0    0  0.65287243890E-02 -0.25079580196E-01  0.24607397260E-01  0.35737005818E-01  0.00000000000E+00 0. -1.
  9000001    1    1    2    0    0 -0.65287243890E-02  0.25079580196E-01 -0.24607397260E-01  0.35750994182E-01  0.10000000475E-02 0.  1.
</event>
<event>
 4   0  0.4958067E-02  0.9118800E+02  0.7818609E-02  0.1379984E+01
      -11   -1    0    0    0    0  0.00000000000E+00  0.00000000000E+00  0.35740347158E-01  0.35744000000E-01  0.51099999109E-03 0.  1.
       11   -1    0    0    0    0 -0.00000000000E+00 -0.00000000000E+00 -0.35740347158E-01  0.35744000000E-01  0.51099999109E-03 0. -1.
       22    1    1    2    0    0  0.85448195944E-02 -0.16422390004E-01  0.30568361905E-01  0.35737005818E-01  0.00000000000E+00 0.  1.
  9000001    1    1    2    0    0 -0.85448195944E-02  0.16422390004E-01 -0.30568361905E-01  0.35750994182E-01  0.10000000475E-02 0. -1.
</event>
<event>
 4   0  0.4958067E-02  0.9118800E+02  0.7818609E-02  0.1379984E+01
      -11   -1    0    0    0    0  0.00000000000E+00  0.00000000000E+00  0.35740347158E-01  0.35744000000E-01  0.51099999109E-03 0.  1.
       11   -1    0    0    0    0 -0.00000000000E+00 -0.00000000000E+00 -0.35740347158E-01  0.35744000000E-01  0.51099999109E-03 0. -1.
       22    1    1    2    0    0 -0.73568092767E-02  0.29009843278E-01 -0.19530487325E-01  0.35737005818E-01  0.00000000000E+00 0.  1.
  9000001    1    1    2    0    0  0.73568092767E-02 -0.29009843278E-01  0.19530487325E-01  0.35750994182E-01  0.10000000475E-02 0. -1.
</event>
<event>
 4   0  0.4958067E-02  0.9118800E+02  0.7818609E-02  0.1379984E+01
      -11   -1    0    0    0    0  0.00000000000E+00  0.00000000000E+00  0.35740347158E-01  0.35744000000E-01  0.51099999109E-03 0.  1.
       11   -1    0    0    0    0 -0.00000000000E+00 -0.00000000000E+00 -0.35740347158E-01  0.35744000000E-01  0.51099999109E-03 0. -1.
       22    1    1    2    0    0  0.94812853187E-02  0.27701611517E-02 -0.34344796124E-01  0.35737005818E-01  0.00000000000E+00 0. -1.
  9000001    1    1    2    0    0 -0.94812853187E-02 -0.27701611517E-02  0.34344796124E-01  0.35750994182E-01  0.10000000475E-02 0.  1.
</event>
<event>
 4   0  0.4958067E-02  0.9118800E+02  0.7818609E-02  0.1379984E+01
      -11   -1    0    0    0    0  0.00000000000E+00  0.00000000000E+00  0.35740347158E-01  0.35744000000E-01  0.51099999109E-03 0.  1.
       11   -1    0    0    0    0 -0.00000000000E+00 -0.00000000000E+00 -0.35740347158E-01  0.35744000000E-01  0.51099999109E-03 0. -1.
       22    1    1    2    0    0  0.41332656874E-02 -0.20540732982E-01  0.28950440207E-01  0.35737005818E-01  0.00000000000E+00 0.  1.
  9000001    1    1    2    0    0 -0.41332656874E-02  0.20540732982E-01 -0.28950440207E-01  0.35750994182E-01  0.10000000475E-02 0. -1.
</event>
<event>
 4   0  0.4958067E-02  0.9118800E+02  0.7818609E-02  0.1379984E+01
      -11   -1    0    0    0    0  0.00000000000E+00  0.00000000000E+00  0.35740347158E-01  0.35744000000E-01  0.51099999109E-03 0. -1.
       11   -1    0    0    0    0 -0.00000000000E+00 -0.00000000000E+00 -0.35740347158E-01  0.35744000000E-01  0.51099999109E-03 0.  1.
       22    1    1    2    0    0 -0.92319085361E-02 -0.34474007546E-01 -0.18569473286E-02  0.35737005818E-01  0.00000000000E+00 0.  1.
  9000001    1    1    2    0    0  0.92319085361E-02  0.34474007546E-01  0.18569473286E-02  0.35750994182E-01  0.10000000475E-02 0. -1.
</event>
<event>
 4   0  0.4958067E-02  0.9118800E+02  0.7818609E-02  0.1379984E+01
      -11   -1    0    0    0    0  0.00000000000E+00  0.00000000000E+00  0.35740347158E-01  0.35744000000E-01  0.51099999109E-03 0.  1.
       11   -1    0    0    0    0 -0.00000000000E+00 -0.00000000000E+00 -0.35740347158E-01  0.35744000000E-01  0.51099999109E-03 0. -1.
       22    1    1    2    0    0  0.32514128239E-02  0.20522819963E-02  0.35529565690E-01  0.35737005818E-01  0.00000000000E+00 0.  1.
  9000001    1    1    2    0    0 -0.32514128239E-02 -0.20522819963E-02 -0.35529565690E-01  0.35750994182E-01  0.10000000475E-02 0. -1.
</event>
<event>
 4   0  0.4958067E-02  0.9118800E+02  0.7818609E-02  0.1379984E+01
      -11   -1    0    0    0    0  0.00000000000E+00  0.00000000000E+00  0.35740347158E-01  0.35744000000E-01  0.51099999109E-03 0. -1.
       11   -1    0    0    0    0 -0.00000000000E+00 -0.00000000000E+00 -0.35740347158E-01  0.35744000000E-01  0.51099999109E-03 0.  1.
       22    1    1    2    0    0 -0.21634029304E-01  0.13085943453E-02 -0.28414607894E-01  0.35737005818E-01  0.00000000000E+00 0.  1.
  9000001    1    1    2    0    0  0.21634029304E-01 -0.13085943453E-02  0.28414607894E-01  0.35750994182E-01  0.10000000475E-02 0. -1.
</event>
<event>
 4   0  0.4958067E-02  0.9118800E+02  0.7818609E-02  0.1379984E+01
      -11   -1    0    0    0    0  0.00000000000E+00  0.00000000000E+00  0.35740347158E-01  0.35744000000E-01  0.51099999109E-03 0. -1.
       11   -1    0    0    0    0 -0.00000000000E+00 -0.00000000000E+00 -0.35740347158E-01  0.35744000000E-01  0.51099999109E-03 0.  1.
       22    1    1    2    0    0 -0.14458627532E-02  0.26809693944E-02 -0.35606958153E-01  0.35737005818E-01  0.00000000000E+00 0.  1.
  9000001    1    1    2    0    0  0.14458627532E-02 -0.26809693944E-02  0.35606958153E-01  0.35750994182E-01  0.10000000475E-02 0. -1.
</event>
<event>
 4   0  0.4958067E-02  0.9118800E+02  0.7818609E-02  0.1379984E+01
      -11   -1    0    0    0    0  0.00000000000E+00  0.00000000000E+00  0.35740347158E-01  0.35744000000E-01  0.51099999109E-03 0.  1.
       11   -1    0    0    0    0 -0.00000000000E+00 -0.00000000000E+00 -0.35740347158E-01  0.35744000000E-01  0.51099999109E-03 0. -1.
       22    1    1    2    0    0  0.32889431868E-02  0.25698974789E-03 -0.35584412231E-01  0.35737005818E-01  0.00000000000E+00 0. -1.
  9000001    1    1    2    0    0 -0.32889431868E-02 -0.25698974789E-03  0.35584412231E-01  0.35750994182E-01  0.10000000475E-02 0.  1.
</event>
<event>
 4   0  0.4958067E-02  0.9118800E+02  0.7818609E-02  0.1379984E+01
      -11   -1    0    0    0    0  0.00000000000E+00  0.00000000000E+00  0.35740347158E-01  0.35744000000E-01  0.51099999109E-03 0.  1.
       11   -1    0    0    0    0 -0.00000000000E+00 -0.00000000000E+00 -0.35740347158E-01  0.35744000000E-01  0.51099999109E-03 0. -1.
       22    1    1    2    0    0  0.24287811380E-01 -0.84114087857E-02 -0.24829095946E-01  0.35737005818E-01  0.00000000000E+00 0. -1.
  9000001    1    1    2    0    0 -0.24287811380E-01  0.84114087857E-02  0.24829095946E-01  0.35750994182E-01  0.10000000475E-02 0.  1.
</event>
<event>
 4   0  0.4958067E-02  0.9118800E+02  0.7818609E-02  0.1379984E+01
      -11   -1    0    0    0    0  0.00000000000E+00  0.00000000000E+00  0.35740347158E-01  0.35744000000E-01  0.51099999109E-03 0. -1.
       11   -1    0    0    0    0 -0.00000000000E+00 -0.00000000000E+00 -0.35740347158E-01  0.35744000000E-01  0.51099999109E-03 0.  1.
       22    1    1    2    0    0 -0.64593727196E-02 -0.17174989417E-01 -0.30666428346E-01  0.35737005818E-01  0.00000000000E+00 0.  1.
  9000001    1    1    2    0    0  0.64593727196E-02  0.17174989417E-01  0.30666428346E-01  0.35750994182E-01  0.10000000475E-02 0. -1.
</event>
<event>
 4   0  0.4958067E-02  0.9118800E+02  0.7818609E-02  0.1379984E+01
      -11   -1    0    0    0    0  0.00000000000E+00  0.00000000000E+00  0.35740347158E-01  0.35744000000E-01  0.51099999109E-03 0. -1.
       11   -1    0    0    0    0 -0.00000000000E+00 -0.00000000000E+00 -0.35740347158E-01  0.35744000000E-01  0.51099999109E-03 0.  1.
       22    1    1    2    0    0  0.38564865286E-03 -0.64586438784E-02 -0.35146419152E-01  0.35737005818E-01  0.00000000000E+00 0.  1.
  9000001    1    1    2    0    0 -0.38564865286E-03  0.64586438784E-02  0.35146419152E-01  0.35750994182E-01  0.10000000475E-02 0. -1.
</event>
<event>
 4   0  0.4958067E-02  0.9118800E+02  0.7818609E-02  0.1379984E+01
      -11   -1    0    0    0    0  0.00000000000E+00  0.00000000000E+00  0.35740347158E-01  0.35744000000E-01  0.51099999109E-03 0.  1.
       11   -1    0    0    0    0 -0.00000000000E+00 -0.00000000000E+00 -0.35740347158E-01  0.35744000000E-01  0.51099999109E-03 0. -1.
       22    1    1    2    0    0 -0.64125112007E-02 -0.11457863767E-03 -0.35156793891E-01  0.35737005818E-01  0.00000000000E+00 0. -1.
  9000001    1    1    2    0    0  0.64125112007E-02  0.11457863767E-03  0.35156793891E-01  0.35750994182E-01  0.10000000475E-02 0.  1.
</event>
<event>
 4   0  0.4958067E-02  0.9118800E+02  0.7818609E-02  0.1379984E+01
      -11   -1    0    0    0    0  0.00000000000E+00  0.00000000000E+00  0.35740347158E-01  0.35744000000E-01  0.51099999109E-03 0. -1.
       11   -1    0    0    0    0 -0.00000000000E+00 -0.00000000000E+00 -0.35740347158E-01  0.35744000000E-01  0.51099999109E-03 0.  1.
       22    1    1    2    0    0 -0.20008662148E-01 -0.17159577897E-01  0.24131637125E-01  0.35737005818E-01  0.00000000000E+00 0. -1.
  9000001    1    1    2    0    0  0.20008662148E-01  0.17159577897E-01 -0.24131637125E-01  0.35750994182E-01  0.10000000475E-02 0.  1.
</event>
<event>
 4   0  0.4958067E-02  0.9118800E+02  0.7818609E-02  0.1379984E+01
      -11   -1    0    0    0    0  0.00000000000E+00  0.00000000000E+00  0.35740347158E-01  0.35744000000E-01  0.51099999109E-03 0. -1.
       11   -1    0    0    0    0 -0.00000000000E+00 -0.00000000000E+00 -0.35740347158E-01  0.35744000000E-01  0.51099999109E-03 0.  1.
       22    1    1    2    0    0  0.11634381816E-02 -0.16779613332E-01 -0.31531326850E-01  0.35737005818E-01  0.00000000000E+00 0.  1.
  9000001    1    1    2    0    0 -0.11634381816E-02  0.16779613332E-01  0.31531326850E-01  0.35750994182E-01  0.10000000475E-02 0. -1.
</event>
<event>
 4   0  0.4958067E-02  0.9118800E+02  0.7818609E-02  0.1379984E+01
      -11   -1    0    0    0    0  0.00000000000E+00  0.00000000000E+00  0.35740347158E-01  0.35744000000E-01  0.51099999109E-03 0. -1.
       11   -1    0    0    0    0 -0.00000000000E+00 -0.00000000000E+00 -0.35740347158E-01  0.35744000000E-01  0.51099999109E-03 0.  1.
       22    1    1    2    0    0  0.67512566646E-02 -0.88062742307E-02  0.33970629263E-01  0.35737005818E-01  0.00000000000E+00 0. -1.
  9000001    1    1    2    0    0 -0.67512566646E-02  0.88062742307E-02 -0.33970629263E-01  0.35750994182E-01  0.10000000475E-02 0.  1.
</event>
<event>
 4   0  0.4958067E-02  0.9118800E+02  0.7818609E-02  0.1379984E+01
      -11   -1    0    0    0    0  0.00000000000E+00  0.00000000000E+00  0.35740347158E-01  0.35744000000E-01  0.51099999109E-03 0. -1.
       11   -1    0    0    0    0 -0.00000000000E+00 -0.00000000000E+00 -0.35740347158E-01  0.35744000000E-01  0.51099999109E-03 0.  1.
       22    1    1    2    0    0 -0.15455641543E-02 -0.24195709806E-01  0.26254760393E-01  0.35737005818E-01  0.00000000000E+00 0. -1.
  9000001    1    1    2    0    0  0.15455641543E-02  0.24195709806E-01 -0.26254760393E-01  0.35750994182E-01  0.10000000475E-02 0.  1.
</event>
<event>
 4   0  0.4958067E-02  0.9118800E+02  0.7818609E-02  0.1379984E+01
      -11   -1    0    0    0    0  0.00000000000E+00  0.00000000000E+00  0.35740347158E-01  0.35744000000E-01  0.51099999109E-03 0. -1.
       11   -1    0    0    0    0 -0.00000000000E+00 -0.00000000000E+00 -0.35740347158E-01  0.35744000000E-01  0.51099999109E-03 0.  1.
       22    1    1    2    0    0 -0.16258434757E-01  0.12397171524E-02 -0.31800314236E-01  0.35737005818E-01  0.00000000000E+00 0.  1.
  9000001    1    1    2    0    0  0.16258434757E-01 -0.12397171524E-02  0.31800314236E-01  0.35750994182E-01  0.10000000475E-02 0. -1.
</event>
<event>
 4   0  0.4958067E-02  0.9118800E+02  0.7818609E-02  0.1379984E+01
      -11   -1    0    0    0    0  0.00000000000E+00  0.00000000000E+00  0.35740347158E-01  0.35744000000E-01  0.51099999109E-03 0. -1.
       11   -1    0    0    0    0 -0.00000000000E+00 -0.00000000000E+00 -0.35740347158E-01  0.35744000000E-01  0.51099999109E-03 0.  1.
       22    1    1    2    0    0 -0.45534088387E-02  0.27323184351E-01 -0.22579717662E-01  0.35737005818E-01  0.00000000000E+00 0.  1.
  9000001    1    1    2    0    0  0.45534088387E-02 -0.27323184351E-01  0.22579717662E-01  0.35750994182E-01  0.10000000475E-02 0. -1.
</event>
<event>
 4   0  0.4958067E-02  0.9118800E+02  0.7818609E-02  0.1379984E+01
      -11   -1    0    0    0    0  0.00000000000E+00  0.00000000000E+00  0.35740347158E-01  0.35744000000E-01  0.51099999109E-03 0.  1.
       11   -1    0    0    0    0 -0.00000000000E+00 -0.00000000000E+00 -0.35740347158E-01  0.35744000000E-01  0.51099999109E-03 0. -1.
       22    1    1    2    0    0 -0.18013532929E-01  0.19897470500E-01 -0.23595272493E-01  0.35737005818E-01  0.00000000000E+00 0. -1.
  9000001    1    1    2    0    0  0.18013532929E-01 -0.19897470500E-01  0.23595272493E-01  0.35750994182E-01  0.10000000475E-02 0.  1.
</event>
<event>
 4   0  0.4958067E-02  0.9118800E+02  0.7818609E-02  0.1379984E+01
      -11   -1    0    0    0    0  0.00000000000E+00  0.00000000000E+00  0.35740347158E-01  0.35744000000E-01  0.51099999109E-03 0.  1.
       11   -1    0    0    0    0 -0.00000000000E+00 -0.00000000000E+00 -0.35740347158E-01  0.35744000000E-01  0.51099999109E-03 0. -1.
       22    1    1    2    0    0  0.49971597445E-02 -0.36118342916E-02  0.35201088512E-01  0.35737005818E-01  0.00000000000E+00 0.  1.
  9000001    1    1    2    0    0 -0.49971597445E-02  0.36118342916E-02 -0.35201088512E-01  0.35750994182E-01  0.10000000475E-02 0. -1.
</event>
<event>
 4   0  0.4958067E-02  0.9118800E+02  0.7818609E-02  0.1379984E+01
      -11   -1    0    0    0    0  0.00000000000E+00  0.00000000000E+00  0.35740347158E-01  0.35744000000E-01  0.51099999109E-03 0.  1.
       11   -1    0    0    0    0 -0.00000000000E+00 -0.00000000000E+00 -0.35740347158E-01  0.35744000000E-01  0.51099999109E-03 0. -1.
       22    1    1    2    0    0 -0.59542109818E-02 -0.36219879890E-02 -0.35050851052E-01  0.35737005818E-01  0.00000000000E+00 0. -1.
  9000001    1    1    2    0    0  0.59542109818E-02  0.36219879890E-02  0.35050851052E-01  0.35750994182E-01  0.10000000475E-02 0.  1.
</event>
<event>
 4   0  0.4958067E-02  0.9118800E+02  0.7818609E-02  0.1379984E+01
      -11   -1    0    0    0    0  0.00000000000E+00  0.00000000000E+00  0.35740347158E-01  0.35744000000E-01  0.51099999109E-03 0.  1.
       11   -1    0    0    0    0 -0.00000000000E+00 -0.00000000000E+00 -0.35740347158E-01  0.35744000000E-01  0.51099999109E-03 0. -1.
       22    1    1    2    0    0 -0.23695588692E-01  0.41289227472E-02  0.26431130478E-01  0.35737005818E-01  0.00000000000E+00 0.  1.
  9000001    1    1    2    0    0  0.23695588692E-01 -0.41289227472E-02 -0.26431130478E-01  0.35750994182E-01  0.10000000475E-02 0. -1.
</event>
<event>
 4   0  0.4958067E-02  0.9118800E+02  0.7818609E-02  0.1379984E+01
      -11   -1    0    0    0    0  0.00000000000E+00  0.00000000000E+00  0.35740347158E-01  0.35744000000E-01  0.51099999109E-03 0. -1.
       11   -1    0    0    0    0 -0.00000000000E+00 -0.00000000000E+00 -0.35740347158E-01  0.35744000000E-01  0.51099999109E-03 0.  1.
       22    1    1    2    0    0  0.11955669511E-01  0.64507361811E-02  0.33054251680E-01  0.35737005818E-01  0.00000000000E+00 0. -1.
  9000001    1    1    2    0    0 -0.11955669511E-01 -0.64507361811E-02 -0.33054251680E-01  0.35750994182E-01  0.10000000475E-02 0.  1.
</event>
<event>
 4   0  0.4958067E-02  0.9118800E+02  0.7818609E-02  0.1379984E+01
      -11   -1    0    0    0    0  0.00000000000E+00  0.00000000000E+00  0.35740347158E-01  0.35744000000E-01  0.51099999109E-03 0.  1.
       11   -1    0    0    0    0 -0.00000000000E+00 -0.00000000000E+00 -0.35740347158E-01  0.35744000000E-01  0.51099999109E-03 0. -1.
       22    1    1    2    0    0 -0.11343329729E-01  0.85984879144E-02 -0.32780000932E-01  0.35737005818E-01  0.00000000000E+00 0. -1.
  9000001    1    1    2    0    0  0.11343329729E-01 -0.85984879144E-02  0.32780000932E-01  0.35750994182E-01  0.10000000475E-02 0.  1.
</event>
<event>
 4   0  0.4958067E-02  0.9118800E+02  0.7818609E-02  0.1379984E+01
      -11   -1    0    0    0    0  0.00000000000E+00  0.00000000000E+00  0.35740347158E-01  0.35744000000E-01  0.51099999109E-03 0. -1.
       11   -1    0    0    0    0 -0.00000000000E+00 -0.00000000000E+00 -0.35740347158E-01  0.35744000000E-01  0.51099999109E-03 0.  1.
       22    1    1    2    0    0 -0.69760161416E-02  0.15251990729E-01 -0.31557020811E-01  0.35737005818E-01  0.00000000000E+00 0.  1.
  9000001    1    1    2    0    0  0.69760161416E-02 -0.15251990729E-01  0.31557020811E-01  0.35750994182E-01  0.10000000475E-02 0. -1.
</event>
<event>
 4   0  0.4958067E-02  0.9118800E+02  0.7818609E-02  0.1379984E+01
      -11   -1    0    0    0    0  0.00000000000E+00  0.00000000000E+00  0.35740347158E-01  0.35744000000E-01  0.51099999109E-03 0. -1.
       11   -1    0    0    0    0 -0.00000000000E+00 -0.00000000000E+00 -0.35740347158E-01  0.35744000000E-01  0.51099999109E-03 0.  1.
       22    1    1    2    0    0 -0.60659460599E-03 -0.47562086718E-02 -0.35413897088E-01  0.35737005818E-01  0.00000000000E+00 0.  1.
  9000001    1    1    2    0    0  0.60659460599E-03  0.47562086718E-02  0.35413897088E-01  0.35750994182E-01  0.10000000475E-02 0. -1.
</event>
<event>
 4   0  0.4958067E-02  0.9118800E+02  0.7818609E-02  0.1379984E+01
      -11   -1    0    0    0    0  0.00000000000E+00  0.00000000000E+00  0.35740347158E-01  0.35744000000E-01  0.51099999109E-03 0.  1.
       11   -1    0    0    0    0 -0.00000000000E+00 -0.00000000000E+00 -0.35740347158E-01  0.35744000000E-01  0.51099999109E-03 0. -1.
       22    1    1    2    0    0 -0.43773076129E-02  0.13363672718E-04  0.35467909219E-01  0.35737005818E-01  0.00000000000E+00 0.  1.
  9000001    1    1    2    0    0  0.43773076129E-02 -0.13363672718E-04 -0.35467909219E-01  0.35750994182E-01  0.10000000475E-02 0. -1.
</event>
<event>
 4   0  0.4958067E-02  0.9118800E+02  0.7818609E-02  0.1379984E+01
      -11   -1    0    0    0    0  0.00000000000E+00  0.00000000000E+00  0.35740347158E-01  0.35744000000E-01  0.51099999109E-03 0.  1.
       11   -1    0    0    0    0 -0.00000000000E+00 -0.00000000000E+00 -0.35740347158E-01  0.35744000000E-01  0.51099999109E-03 0. -1.
       22    1    1    2    0    0  0.82093029621E-02  0.31234159732E-02 -0.34640802566E-01  0.35737005818E-01  0.00000000000E+00 0. -1.
  9000001    1    1    2    0    0 -0.82093029621E-02 -0.31234159732E-02  0.34640802566E-01  0.35750994182E-01  0.10000000475E-02 0.  1.
</event>
<event>
 4   0  0.4958067E-02  0.9118800E+02  0.7818609E-02  0.1379984E+01
      -11   -1    0    0    0    0  0.00000000000E+00  0.00000000000E+00  0.35740347158E-01  0.35744000000E-01  0.51099999109E-03 0.  1.
       11   -1    0    0    0    0 -0.00000000000E+00 -0.00000000000E+00 -0.35740347158E-01  0.35744000000E-01  0.51099999109E-03 0. -1.
       22    1    1    2    0    0  0.10532053943E-02 -0.23097345126E-01 -0.27249531948E-01  0.35737005818E-01  0.00000000000E+00 0. -1.
  9000001    1    1    2    0    0 -0.10532053943E-02  0.23097345126E-01  0.27249531948E-01  0.35750994182E-01  0.10000000475E-02 0.  1.
</event>
<event>
 4   0  0.4958067E-02  0.9118800E+02  0.7818609E-02  0.1379984E+01
      -11   -1    0    0    0    0  0.00000000000E+00  0.00000000000E+00  0.35740347158E-01  0.35744000000E-01  0.51099999109E-03 0. -1.
       11   -1    0    0    0    0 -0.00000000000E+00 -0.00000000000E+00 -0.35740347158E-01  0.35744000000E-01  0.51099999109E-03 0.  1.
       22    1    1    2    0    0 -0.40450930148E-03  0.32076879962E-02 -0.35590457918E-01  0.35737005818E-01  0.00000000000E+00 0.  1.
  9000001    1    1    2    0    0  0.40450930148E-03 -0.32076879962E-02  0.35590457918E-01  0.35750994182E-01  0.10000000475E-02 0. -1.
</event>
<event>
 4   0  0.4958067E-02  0.9118800E+02  0.7818609E-02  0.1379984E+01
      -11   -1    0    0    0    0  0.00000000000E+00  0.00000000000E+00  0.35740347158E-01  0.35744000000E-01  0.51099999109E-03 0.  1.
       11   -1    0    0    0    0 -0.00000000000E+00 -0.00000000000E+00 -0.35740347158E-01  0.35744000000E-01  0.51099999109E-03 0. -1.
       22    1    1    2    0    0  0.18365136321E-01 -0.21086650223E-01 -0.22253281446E-01  0.35737005818E-01  0.00000000000E+00 0. -1.
  9000001    1    1    2    0    0 -0.18365136321E-01  0.21086650223E-01  0.22253281446E-01  0.35750994182E-01  0.10000000475E-02 0.  1.
</event>
<event>
 4   0  0.4958067E-02  0.9118800E+02  0.7818609E-02  0.1379984E+01
      -11   -1    0    0    0    0  0.00000000000E+00  0.00000000000E+00  0.35740347158E-01  0.35744000000E-01  0.51099999109E-03 0. -1.
       11   -1    0    0    0    0 -0.00000000000E+00 -0.00000000000E+00 -0.35740347158E-01  0.35744000000E-01  0.51099999109E-03 0.  1.
       22    1    1    2    0    0  0.14398128263E-02 -0.17358198740E-01 -0.31205022999E-01  0.35737005818E-01  0.00000000000E+00 0.  1.
  9000001    1    1    2    0    0 -0.14398128263E-02  0.17358198740E-01  0.31205022999E-01  0.35750994182E-01  0.10000000475E-02 0. -1.
</event>
<event>
 4   0  0.4958067E-02  0.9118800E+02  0.7818609E-02  0.1379984E+01
      -11   -1    0    0    0    0  0.00000000000E+00  0.00000000000E+00  0.35740347158E-01  0.35744000000E-01  0.51099999109E-03 0.  1.
       11   -1    0    0    0    0 -0.00000000000E+00 -0.00000000000E+00 -0.35740347158E-01  0.35744000000E-01  0.51099999109E-03 0. -1.
       22    1    1    2    0    0  0.98582280574E-02  0.69323124664E-02 -0.33643602190E-01  0.35737005818E-01  0.00000000000E+00 0. -1.
  9000001    1    1    2    0    0 -0.98582280574E-02 -0.69323124664E-02  0.33643602190E-01  0.35750994182E-01  0.10000000475E-02 0.  1.
</event>
<event>
 4   0  0.4958067E-02  0.9118800E+02  0.7818609E-02  0.1379984E+01
      -11   -1    0    0    0    0  0.00000000000E+00  0.00000000000E+00  0.35740347158E-01  0.35744000000E-01  0.51099999109E-03 0.  1.
       11   -1    0    0    0    0 -0.00000000000E+00 -0.00000000000E+00 -0.35740347158E-01  0.35744000000E-01  0.51099999109E-03 0. -1.
       22    1    1    2    0    0 -0.19236227573E-02 -0.33913912433E-02 -0.35523678382E-01  0.35737005818E-01  0.00000000000E+00 0. -1.
  9000001    1    1    2    0    0  0.19236227573E-02  0.33913912433E-02  0.35523678382E-01  0.35750994182E-01  0.10000000475E-02 0.  1.
</event>
<event>
 4   0  0.4958067E-02  0.9118800E+02  0.7818609E-02  0.1379984E+01
      -11   -1    0    0    0    0  0.00000000000E+00  0.00000000000E+00  0.35740347158E-01  0.35744000000E-01  0.51099999109E-03 0.  1.
       11   -1    0    0    0    0 -0.00000000000E+00 -0.00000000000E+00 -0.35740347158E-01  0.35744000000E-01  0.51099999109E-03 0. -1.
       22    1    1    2    0    0  0.26779981892E-01  0.76309790832E-02  0.22399426621E-01  0.35737005818E-01  0.00000000000E+00 0.  1.
  9000001    1    1    2    0    0 -0.26779981892E-01 -0.76309790832E-02 -0.22399426621E-01  0.35750994182E-01  0.10000000475E-02 0. -1.
</event>
<event>
 4   0  0.4958067E-02  0.9118800E+02  0.7818609E-02  0.1379984E+01
      -11   -1    0    0    0    0  0.00000000000E+00  0.00000000000E+00  0.35740347158E-01  0.35744000000E-01  0.51099999109E-03 0.  1.
       11   -1    0    0    0    0 -0.00000000000E+00 -0.00000000000E+00 -0.35740347158E-01  0.35744000000E-01  0.51099999109E-03 0. -1.
       22    1    1    2    0    0  0.19283459537E-02  0.39269934192E-02  0.35468208151E-01  0.35737005818E-01  0.00000000000E+00 0.  1.
  9000001    1    1    2    0    0 -0.19283459537E-02 -0.39269934192E-02 -0.35468208151E-01  0.35750994182E-01  0.10000000475E-02 0. -1.
</event>
<event>
 4   0  0.4958067E-02  0.9118800E+02  0.7818609E-02  0.1379984E+01
      -11   -1    0    0    0    0  0.00000000000E+00  0.00000000000E+00  0.35740347158E-01  0.35744000000E-01  0.51099999109E-03 0. -1.
       11   -1    0    0    0    0 -0.00000000000E+00 -0.00000000000E+00 -0.35740347158E-01  0.35744000000E-01  0.51099999109E-03 0.  1.
       22    1    1    2    0    0 -0.13117574911E-01 -0.23125274812E-01  0.23880629769E-01  0.35737005818E-01  0.00000000000E+00 0. -1.
  9000001    1    1    2    0    0  0.13117574911E-01  0.23125274812E-01 -0.23880629769E-01  0.35750994182E-01  0.10000000475E-02 0.  1.
</event>
<event>
 4   0  0.4958067E-02  0.9118800E+02  0.7818609E-02  0.1379984E+01
      -11   -1    0    0    0    0  0.00000000000E+00  0.00000000000E+00  0.35740347158E-01  0.35744000000E-01  0.51099999109E-03 0.  1.
       11   -1    0    0    0    0 -0.00000000000E+00 -0.00000000000E+00 -0.35740347158E-01  0.35744000000E-01  0.51099999109E-03 0. -1.
       22    1    1    2    0    0  0.46416284797E-02  0.98946582232E-02 -0.34024764637E-01  0.35737005818E-01  0.00000000000E+00 0. -1.
  9000001    1    1    2    0    0 -0.46416284797E-02 -0.98946582232E-02  0.34024764637E-01  0.35750994182E-01  0.10000000475E-02 0.  1.
</event>
<event>
 4   0  0.4958067E-02  0.9118800E+02  0.7818609E-02  0.1379984E+01
      -11   -1    0    0    0    0  0.00000000000E+00  0.00000000000E+00  0.35740347158E-01  0.35744000000E-01  0.51099999109E-03 0.  1.
       11   -1    0    0    0    0 -0.00000000000E+00 -0.00000000000E+00 -0.35740347158E-01  0.35744000000E-01  0.51099999109E-03 0. -1.
       22    1    1    2    0    0 -0.17619652948E-01  0.32620018415E-02 -0.30919908778E-01  0.35737005818E-01  0.00000000000E+00 0. -1.
  9000001    1    1    2    0    0  0.17619652948E-01 -0.32620018415E-02  0.30919908778E-01  0.35750994182E-01  0.10000000475E-02 0.  1.
</event>
<event>
 4   0  0.4958067E-02  0.9118800E+02  0.7818609E-02  0.1379984E+01
      -11   -1    0    0    0    0  0.00000000000E+00  0.00000000000E+00  0.35740347158E-01  0.35744000000E-01  0.51099999109E-03 0.  1.
       11   -1    0    0    0    0 -0.00000000000E+00 -0.00000000000E+00 -0.35740347158E-01  0.35744000000E-01  0.51099999109E-03 0. -1.
       22    1    1    2    0    0  0.91334305319E-02 -0.12067840347E-01  0.32374083168E-01  0.35737005818E-01  0.00000000000E+00 0.  1.
  9000001    1    1    2    0    0 -0.91334305319E-02  0.12067840347E-01 -0.32374083168E-01  0.35750994182E-01  0.10000000475E-02 0. -1.
</event>
<event>
 4   0  0.4958067E-02  0.9118800E+02  0.7818609E-02  0.1379984E+01
      -11   -1    0    0    0    0  0.00000000000E+00  0.00000000000E+00  0.35740347158E-01  0.35744000000E-01  0.51099999109E-03 0. -1.
       11   -1    0    0    0    0 -0.00000000000E+00 -0.00000000000E+00 -0.35740347158E-01  0.35744000000E-01  0.51099999109E-03 0.  1.
       22    1    1    2    0    0  0.44561156894E-02  0.27851144761E-02 -0.35348546720E-01  0.35737005818E-01  0.00000000000E+00 0.  1.
  9000001    1    1    2    0    0 -0.44561156894E-02 -0.27851144761E-02  0.35348546720E-01  0.35750994182E-01  0.10000000475E-02 0. -1.
</event>
<event>
 4   0  0.4958067E-02  0.9118800E+02  0.7818609E-02  0.1379984E+01
      -11   -1    0    0    0    0  0.00000000000E+00  0.00000000000E+00  0.35740347158E-01  0.35744000000E-01  0.51099999109E-03 0.  1.
       11   -1    0    0    0    0 -0.00000000000E+00 -0.00000000000E+00 -0.35740347158E-01  0.35744000000E-01  0.51099999109E-03 0. -1.
       22    1    1    2    0    0  0.12655310491E-02 -0.51830140533E-02  0.35336502110E-01  0.35737005818E-01  0.00000000000E+00 0.  1.
  9000001    1    1    2    0    0 -0.12655310491E-02  0.51830140533E-02 -0.35336502110E-01  0.35750994182E-01  0.10000000475E-02 0. -1.
</event>
<event>
 4   0  0.4958067E-02  0.9118800E+02  0.7818609E-02  0.1379984E+01
      -11   -1    0    0    0    0  0.00000000000E+00  0.00000000000E+00  0.35740347158E-01  0.35744000000E-01  0.51099999109E-03 0. -1.
       11   -1    0    0    0    0 -0.00000000000E+00 -0.00000000000E+00 -0.35740347158E-01  0.35744000000E-01  0.51099999109E-03 0.  1.
       22    1    1    2    0    0  0.31914473885E-03  0.39465862130E-02 -0.35516984511E-01  0.35737005818E-01  0.00000000000E+00 0.  1.
  9000001    1    1    2    0    0 -0.31914473885E-03 -0.39465862130E-02  0.35516984511E-01  0.35750994182E-01  0.10000000475E-02 0. -1.
</event>
<event>
 4   0  0.4958067E-02  0.9118800E+02  0.7818609E-02  0.1379984E+01
      -11   -1    0    0    0    0  0.00000000000E+00  0.00000000000E+00  0.35740347158E-01  0.35744000000E-01  0.51099999109E-03 0.  1.
       11   -1    0    0    0    0 -0.00000000000E+00 -0.00000000000E+00 -0.35740347158E-01  0.35744000000E-01  0.51099999109E-03 0. -1.
       22    1    1    2    0    0 -0.17018749613E-02  0.51011530711E-02 -0.35330092610E-01  0.35737005818E-01  0.00000000000E+00 0. -1.
  9000001    1    1    2    0    0  0.17018749613E-02 -0.51011530711E-02  0.35330092610E-01  0.35750994182E-01  0.10000000475E-02 0.  1.
</event>
<event>
 4   0  0.4958067E-02  0.9118800E+02  0.7818609E-02  0.1379984E+01
      -11   -1    0    0    0    0  0.00000000000E+00  0.00000000000E+00  0.35740347158E-01  0.35744000000E-01  0.51099999109E-03 0.  1.
       11   -1    0    0    0    0 -0.00000000000E+00 -0.00000000000E+00 -0.35740347158E-01  0.35744000000E-01  0.51099999109E-03 0. -1.
       22    1    1    2    0    0 -0.23738928483E-01 -0.16690446396E-01  0.20857273514E-01  0.35737005818E-01  0.00000000000E+00 0. -1.
  9000001    1    1    2    0    0  0.23738928483E-01  0.16690446396E-01 -0.20857273514E-01  0.35750994182E-01  0.10000000475E-02 0.  1.
</event>
<event>
 4   0  0.4958067E-02  0.9118800E+02  0.7818609E-02  0.1379984E+01
      -11   -1    0    0    0    0  0.00000000000E+00  0.00000000000E+00  0.35740347158E-01  0.35744000000E-01  0.51099999109E-03 0.  1.
       11   -1    0    0    0    0 -0.00000000000E+00 -0.00000000000E+00 -0.35740347158E-01  0.35744000000E-01  0.51099999109E-03 0. -1.
       22    1    1    2    0    0 -0.17462023993E-01 -0.10295661462E-01  0.29431456947E-01  0.35737005818E-01  0.00000000000E+00 0.  1.
  9000001    1    1    2    0    0  0.17462023993E-01  0.10295661462E-01 -0.29431456947E-01  0.35750994182E-01  0.10000000475E-02 0. -1.
</event>
<event>
 4   0  0.4958067E-02  0.9118800E+02  0.7818609E-02  0.1379984E+01
      -11   -1    0    0    0    0  0.00000000000E+00  0.00000000000E+00  0.35740347158E-01  0.35744000000E-01  0.51099999109E-03 0. -1.
       11   -1    0    0    0    0 -0.00000000000E+00 -0.00000000000E+00 -0.35740347158E-01  0.35744000000E-01  0.51099999109E-03 0.  1.
       22    1    1    2    0    0 -0.67444654431E-02 -0.23771499122E-02 -0.35014210387E-01  0.35737005818E-01  0.00000000000E+00 0.  1.
  9000001    1    1    2    0    0  0.67444654431E-02  0.23771499122E-02  0.35014210387E-01  0.35750994182E-01  0.10000000475E-02 0. -1.
</event>
<event>
 4   0  0.4958067E-02  0.9118800E+02  0.7818609E-02  0.1379984E+01
      -11   -1    0    0    0    0  0.00000000000E+00  0.00000000000E+00  0.35740347158E-01  0.35744000000E-01  0.51099999109E-03 0. -1.
       11   -1    0    0    0    0 -0.00000000000E+00 -0.00000000000E+00 -0.35740347158E-01  0.35744000000E-01  0.51099999109E-03 0.  1.
       22    1    1    2    0    0 -0.19363686152E-01 -0.78017577614E-02 -0.29005410173E-01  0.35737005818E-01  0.00000000000E+00 0.  1.
  9000001    1    1    2    0    0  0.19363686152E-01  0.78017577614E-02  0.29005410173E-01  0.35750994182E-01  0.10000000475E-02 0. -1.
</event>
<event>
 4   0  0.4958067E-02  0.9118800E+02  0.7818609E-02  0.1379984E+01
      -11   -1    0    0    0    0  0.00000000000E+00  0.00000000000E+00  0.35740347158E-01  0.35744000000E-01  0.51099999109E-03 0.  1.
       11   -1    0    0    0    0 -0.00000000000E+00 -0.00000000000E+00 -0.35740347158E-01  0.35744000000E-01  0.51099999109E-03 0. -1.
       22    1    1    2    0    0 -0.36315156683E-02 -0.89536045394E-03 -0.35540737309E-01  0.35737005818E-01  0.00000000000E+00 0. -1.
  9000001    1    1    2    0    0  0.36315156683E-02  0.89536045394E-03  0.35540737309E-01  0.35750994182E-01  0.10000000475E-02 0.  1.
</event>
<event>
 4   0  0.4958067E-02  0.9118800E+02  0.7818609E-02  0.1379984E+01
      -11   -1    0    0    0    0  0.00000000000E+00  0.00000000000E+00  0.35740347158E-01  0.35744000000E-01  0.51099999109E-03 0.  1.
       11   -1    0    0    0    0 -0.00000000000E+00 -0.00000000000E+00 -0.35740347158E-01  0.35744000000E-01  0.51099999109E-03 0. -1.
       22    1    1    2    0    0  0.73606474379E-02 -0.75389346854E-02  0.34148483392E-01  0.35737005818E-01  0.00000000000E+00 0.  1.
  9000001    1    1    2    0    0 -0.73606474379E-02  0.75389346854E-02 -0.34148483392E-01  0.35750994182E-01  0.10000000475E-02 0. -1.
</event>
<event>
 4   0  0.4958067E-02  0.9118800E+02  0.7818609E-02  0.1379984E+01
      -11   -1    0    0    0    0  0.00000000000E+00  0.00000000000E+00  0.35740347158E-01  0.35744000000E-01  0.51099999109E-03 0.  1.
       11   -1    0    0    0    0 -0.00000000000E+00 -0.00000000000E+00 -0.35740347158E-01  0.35744000000E-01  0.51099999109E-03 0. -1.
       22    1    1    2    0    0 -0.23362103122E-02 -0.34367869972E-02 -0.35494565801E-01  0.35737005818E-01  0.00000000000E+00 0. -1.
  9000001    1    1    2    0    0  0.23362103122E-02  0.34367869972E-02  0.35494565801E-01  0.35750994182E-01  0.10000000475E-02 0.  1.
</event>
<event>
 4   0  0.4958067E-02  0.9118800E+02  0.7818609E-02  0.1379984E+01
      -11   -1    0    0    0    0  0.00000000000E+00  0.00000000000E+00  0.35740347158E-01  0.35744000000E-01  0.51099999109E-03 0.  1.
       11   -1    0    0    0    0 -0.00000000000E+00 -0.00000000000E+00 -0.35740347158E-01  0.35744000000E-01  0.51099999109E-03 0. -1.
       22    1    1    2    0    0  0.47471093403E-02  0.31324667597E-02 -0.35281527600E-01  0.35737005818E-01  0.00000000000E+00 0. -1.
  9000001    1    1    2    0    0 -0.47471093403E-02 -0.31324667597E-02  0.35281527600E-01  0.35750994182E-01  0.10000000475E-02 0.  1.
</event>
<event>
 4   0  0.4958067E-02  0.9118800E+02  0.7818609E-02  0.1379984E+01
      -11   -1    0    0    0    0  0.00000000000E+00  0.00000000000E+00  0.35740347158E-01  0.35744000000E-01  0.51099999109E-03 0.  1.
       11   -1    0    0    0    0 -0.00000000000E+00 -0.00000000000E+00 -0.35740347158E-01  0.35744000000E-01  0.51099999109E-03 0. -1.
       22    1    1    2    0    0 -0.64019541255E-02 -0.22293517783E-02 -0.35088154111E-01  0.35737005818E-01  0.00000000000E+00 0. -1.
  9000001    1    1    2    0    0  0.64019541255E-02  0.22293517783E-02  0.35088154111E-01  0.35750994182E-01  0.10000000475E-02 0.  1.
</event>
<event>
 4   0  0.4958067E-02  0.9118800E+02  0.7818609E-02  0.1379984E+01
      -11   -1    0    0    0    0  0.00000000000E+00  0.00000000000E+00  0.35740347158E-01  0.35744000000E-01  0.51099999109E-03 0. -1.
       11   -1    0    0    0    0 -0.00000000000E+00 -0.00000000000E+00 -0.35740347158E-01  0.35744000000E-01  0.51099999109E-03 0.  1.
       22    1    1    2    0    0  0.32557749557E-02  0.21099172952E-03  0.35587764706E-01  0.35737005818E-01  0.00000000000E+00 0. -1.
  9000001    1    1    2    0    0 -0.32557749557E-02 -0.21099172952E-03 -0.35587764706E-01  0.35750994182E-01  0.10000000475E-02 0.  1.
</event>
<event>
 4   0  0.4958067E-02  0.9118800E+02  0.7818609E-02  0.1379984E+01
      -11   -1    0    0    0    0  0.00000000000E+00  0.00000000000E+00  0.35740347158E-01  0.35744000000E-01  0.51099999109E-03 0. -1.
       11   -1    0    0    0    0 -0.00000000000E+00 -0.00000000000E+00 -0.35740347158E-01  0.35744000000E-01  0.51099999109E-03 0.  1.
       22    1    1    2    0    0 -0.15641152682E-01  0.13405189252E-01 -0.29202548327E-01  0.35737005818E-01  0.00000000000E+00 0.  1.
  9000001    1    1    2    0    0  0.15641152682E-01 -0.13405189252E-01  0.29202548327E-01  0.35750994182E-01  0.10000000475E-02 0. -1.
</event>
<event>
 4   0  0.4958067E-02  0.9118800E+02  0.7818609E-02  0.1379984E+01
      -11   -1    0    0    0    0  0.00000000000E+00  0.00000000000E+00  0.35740347158E-01  0.35744000000E-01  0.51099999109E-03 0.  1.
       11   -1    0    0    0    0 -0.00000000000E+00 -0.00000000000E+00 -0.35740347158E-01  0.35744000000E-01  0.51099999109E-03 0. -1.
       22    1    1    2    0    0  0.74378196881E-03 -0.54093846286E-02  0.35317402668E-01  0.35737005818E-01  0.00000000000E+00 0.  1.
  9000001    1    1    2    0    0 -0.74378196881E-03  0.54093846286E-02 -0.35317402668E-01  0.35750994182E-01  0.10000000475E-02 0. -1.
</event>
<event>
 4   0  0.4958067E-02  0.9118800E+02  0.7818609E-02  0.1379984E+01
      -11   -1    0    0    0    0  0.00000000000E+00  0.00000000000E+00  0.35740347158E-01  0.35744000000E-01  0.51099999109E-03 0. -1.
       11   -1    0    0    0    0 -0.00000000000E+00 -0.00000000000E+00 -0.35740347158E-01  0.35744000000E-01  0.51099999109E-03 0.  1.
       22    1    1    2    0    0  0.24682500769E-01 -0.97972901404E-02  0.23914866643E-01  0.35737005818E-01  0.00000000000E+00 0. -1.
  9000001    1    1    2    0    0 -0.24682500769E-01  0.97972901404E-02 -0.23914866643E-01  0.35750994182E-01  0.10000000475E-02 0.  1.
</event>
<event>
 4   0  0.4958067E-02  0.9118800E+02  0.7818609E-02  0.1379984E+01
      -11   -1    0    0    0    0  0.00000000000E+00  0.00000000000E+00  0.35740347158E-01  0.35744000000E-01  0.51099999109E-03 0. -1.
       11   -1    0    0    0    0 -0.00000000000E+00 -0.00000000000E+00 -0.35740347158E-01  0.35744000000E-01  0.51099999109E-03 0.  1.
       22    1    1    2    0    0  0.15040949545E-01 -0.76595078739E-03 -0.32408590544E-01  0.35737005818E-01  0.00000000000E+00 0.  1.
  9000001    1    1    2    0    0 -0.15040949545E-01  0.76595078739E-03  0.32408590544E-01  0.35750994182E-01  0.10000000475E-02 0. -1.
</event>
<event>
 4   0  0.4958067E-02  0.9118800E+02  0.7818609E-02  0.1379984E+01
      -11   -1    0    0    0    0  0.00000000000E+00  0.00000000000E+00  0.35740347158E-01  0.35744000000E-01  0.51099999109E-03 0.  1.
       11   -1    0    0    0    0 -0.00000000000E+00 -0.00000000000E+00 -0.35740347158E-01  0.35744000000E-01  0.51099999109E-03 0. -1.
       22    1    1    2    0    0  0.11999073809E-01 -0.15634362639E-01  0.29811449436E-01  0.35737005818E-01  0.00000000000E+00 0.  1.
  9000001    1    1    2    0    0 -0.11999073809E-01  0.15634362639E-01 -0.29811449436E-01  0.35750994182E-01  0.10000000475E-02 0. -1.
</event>
<event>
 4   0  0.4958067E-02  0.9118800E+02  0.7818609E-02  0.1379984E+01
      -11   -1    0    0    0    0  0.00000000000E+00  0.00000000000E+00  0.35740347158E-01  0.35744000000E-01  0.51099999109E-03 0.  1.
       11   -1    0    0    0    0 -0.00000000000E+00 -0.00000000000E+00 -0.35740347158E-01  0.35744000000E-01  0.51099999109E-03 0. -1.
       22    1    1    2    0    0 -0.29448607269E-01 -0.15586162335E-01  0.12922254389E-01  0.35737005818E-01  0.00000000000E+00 0.  1.
  9000001    1    1    2    0    0  0.29448607269E-01  0.15586162335E-01 -0.12922254389E-01  0.35750994182E-01  0.10000000475E-02 0. -1.
</event>
<event>
 4   0  0.4958067E-02  0.9118800E+02  0.7818609E-02  0.1379984E+01
      -11   -1    0    0    0    0  0.00000000000E+00  0.00000000000E+00  0.35740347158E-01  0.35744000000E-01  0.51099999109E-03 0. -1.
       11   -1    0    0    0    0 -0.00000000000E+00 -0.00000000000E+00 -0.35740347158E-01  0.35744000000E-01  0.51099999109E-03 0.  1.
       22    1    1    2    0    0  0.25322709928E-02  0.53620172907E-02  0.35241594162E-01  0.35737005818E-01  0.00000000000E+00 0. -1.
  9000001    1    1    2    0    0 -0.25322709928E-02 -0.53620172907E-02 -0.35241594162E-01  0.35750994182E-01  0.10000000475E-02 0.  1.
</event>
<event>
 4   0  0.4958067E-02  0.9118800E+02  0.7818609E-02  0.1379984E+01
      -11   -1    0    0    0    0  0.00000000000E+00  0.00000000000E+00  0.35740347158E-01  0.35744000000E-01  0.51099999109E-03 0.  1.
       11   -1    0    0    0    0 -0.00000000000E+00 -0.00000000000E+00 -0.35740347158E-01  0.35744000000E-01  0.51099999109E-03 0. -1.
       22    1    1    2    0    0  0.28960550341E-03  0.72317480737E-02  0.34996450296E-01  0.35737005818E-01  0.00000000000E+00 0.  1.
  9000001    1    1    2    0    0 -0.28960550341E-03 -0.72317480737E-02 -0.34996450296E-01  0.35750994182E-01  0.10000000475E-02 0. -1.
</event>
<event>
 4   0  0.4958067E-02  0.9118800E+02  0.7818609E-02  0.1379984E+01
      -11   -1    0    0    0    0  0.00000000000E+00  0.00000000000E+00  0.35740347158E-01  0.35744000000E-01  0.51099999109E-03 0. -1.
       11   -1    0    0    0    0 -0.00000000000E+00 -0.00000000000E+00 -0.35740347158E-01  0.35744000000E-01  0.51099999109E-03 0.  1.
       22    1    1    2    0    0  0.62152727728E-03  0.76310113557E-02  0.34907233554E-01  0.35737005818E-01  0.00000000000E+00 0. -1.
  9000001    1    1    2    0    0 -0.62152727728E-03 -0.76310113557E-02 -0.34907233554E-01  0.35750994182E-01  0.10000000475E-02 0.  1.
</event>
<event>
 4   0  0.4958067E-02  0.9118800E+02  0.7818609E-02  0.1379984E+01
      -11   -1    0    0    0    0  0.00000000000E+00  0.00000000000E+00  0.35740347158E-01  0.35744000000E-01  0.51099999109E-03 0. -1.
       11   -1    0    0    0    0 -0.00000000000E+00 -0.00000000000E+00 -0.35740347158E-01  0.35744000000E-01  0.51099999109E-03 0.  1.
       22    1    1    2    0    0 -0.59098413567E-02  0.25544450759E-02 -0.35152271198E-01  0.35737005818E-01  0.00000000000E+00 0.  1.
  9000001    1    1    2    0    0  0.59098413567E-02 -0.25544450759E-02  0.35152271198E-01  0.35750994182E-01  0.10000000475E-02 0. -1.
</event>
<event>
 4   0  0.4958067E-02  0.9118800E+02  0.7818609E-02  0.1379984E+01
      -11   -1    0    0    0    0  0.00000000000E+00  0.00000000000E+00  0.35740347158E-01  0.35744000000E-01  0.51099999109E-03 0.  1.
       11   -1    0    0    0    0 -0.00000000000E+00 -0.00000000000E+00 -0.35740347158E-01  0.35744000000E-01  0.51099999109E-03 0. -1.
       22    1    1    2    0    0 -0.32376252751E-02 -0.11460149074E-01 -0.33694455785E-01  0.35737005818E-01  0.00000000000E+00 0. -1.
  9000001    1    1    2    0    0  0.32376252751E-02  0.11460149074E-01  0.33694455785E-01  0.35750994182E-01  0.10000000475E-02 0.  1.
</event>
<event>
 4   0  0.4958067E-02  0.9118800E+02  0.7818609E-02  0.1379984E+01
      -11   -1    0    0    0    0  0.00000000000E+00  0.00000000000E+00  0.35740347158E-01  0.35744000000E-01  0.51099999109E-03 0.  1.
       11   -1    0    0    0    0 -0.00000000000E+00 -0.00000000000E+00 -0.35740347158E-01  0.35744000000E-01  0.51099999109E-03 0. -1.
       22    1    1    2    0    0  0.11296842962E-01 -0.81385389838E-03  0.33894727699E-01  0.35737005818E-01  0.00000000000E+00 0.  1.
  9000001    1    1    2    0    0 -0.11296842962E-01  0.81385389838E-03 -0.33894727699E-01  0.35750994182E-01  0.10000000475E-02 0. -1.
</event>
<event>
 4   0  0.4958067E-02  0.9118800E+02  0.7818609E-02  0.1379984E+01
      -11   -1    0    0    0    0  0.00000000000E+00  0.00000000000E+00  0.35740347158E-01  0.35744000000E-01  0.51099999109E-03 0.  1.
       11   -1    0    0    0    0 -0.00000000000E+00 -0.00000000000E+00 -0.35740347158E-01  0.35744000000E-01  0.51099999109E-03 0. -1.
       22    1    1    2    0    0  0.81340933901E-02  0.85710253949E-02 -0.33726957071E-01  0.35737005818E-01  0.00000000000E+00 0. -1.
  9000001    1    1    2    0    0 -0.81340933901E-02 -0.85710253949E-02  0.33726957071E-01  0.35750994182E-01  0.10000000475E-02 0.  1.
</event>
<event>
 4   0  0.4958067E-02  0.9118800E+02  0.7818609E-02  0.1379984E+01
      -11   -1    0    0    0    0  0.00000000000E+00  0.00000000000E+00  0.35740347158E-01  0.35744000000E-01  0.51099999109E-03 0.  1.
       11   -1    0    0    0    0 -0.00000000000E+00 -0.00000000000E+00 -0.35740347158E-01  0.35744000000E-01  0.51099999109E-03 0. -1.
       22    1    1    2    0    0 -0.39527259944E-02  0.29223104220E-02  0.35397311252E-01  0.35737005818E-01  0.00000000000E+00 0.  1.
  9000001    1    1    2    0    0  0.39527259944E-02 -0.29223104220E-02 -0.35397311252E-01  0.35750994182E-01  0.10000000475E-02 0. -1.
</event>
<event>
 4   0  0.4958067E-02  0.9118800E+02  0.7818609E-02  0.1379984E+01
      -11   -1    0    0    0    0  0.00000000000E+00  0.00000000000E+00  0.35740347158E-01  0.35744000000E-01  0.51099999109E-03 0. -1.
       11   -1    0    0    0    0 -0.00000000000E+00 -0.00000000000E+00 -0.35740347158E-01  0.35744000000E-01  0.51099999109E-03 0.  1.
       22    1    1    2    0    0 -0.26569873495E-01 -0.30979304363E-02 -0.23697641957E-01  0.35737005818E-01  0.00000000000E+00 0.  1.
  9000001    1    1    2    0    0  0.26569873495E-01  0.30979304363E-02  0.23697641957E-01  0.35750994182E-01  0.10000000475E-02 0. -1.
</event>
<event>
 4   0  0.4958067E-02  0.9118800E+02  0.7818609E-02  0.1379984E+01
      -11   -1    0    0    0    0  0.00000000000E+00  0.00000000000E+00  0.35740347158E-01  0.35744000000E-01  0.51099999109E-03 0.  1.
       11   -1    0    0    0    0 -0.00000000000E+00 -0.00000000000E+00 -0.35740347158E-01  0.35744000000E-01  0.51099999109E-03 0. -1.
       22    1    1    2    0    0 -0.25832839081E-01 -0.15919293016E-01 -0.18877873814E-01  0.35737005818E-01  0.00000000000E+00 0. -1.
  9000001    1    1    2    0    0  0.25832839081E-01  0.15919293016E-01  0.18877873814E-01  0.35750994182E-01  0.10000000475E-02 0.  1.
</event>
<event>
 4   0  0.4958067E-02  0.9118800E+02  0.7818609E-02  0.1379984E+01
      -11   -1    0    0    0    0  0.00000000000E+00  0.00000000000E+00  0.35740347158E-01  0.35744000000E-01  0.51099999109E-03 0. -1.
       11   -1    0    0    0    0 -0.00000000000E+00 -0.00000000000E+00 -0.35740347158E-01  0.35744000000E-01  0.51099999109E-03 0.  1.
       22    1    1    2    0    0  0.24226692852E-01 -0.14785200492E-01  0.21716325305E-01  0.35737005818E-01  0.00000000000E+00 0. -1.
  9000001    1    1    2    0    0 -0.24226692852E-01  0.14785200492E-01 -0.21716325305E-01  0.35750994182E-01  0.10000000475E-02 0.  1.
</event>
<event>
 4   0  0.4958067E-02  0.9118800E+02  0.7818609E-02  0.1379984E+01
      -11   -1    0    0    0    0  0.00000000000E+00  0.00000000000E+00  0.35740347158E-01  0.35744000000E-01  0.51099999109E-03 0.  1.
       11   -1    0    0    0    0 -0.00000000000E+00 -0.00000000000E+00 -0.35740347158E-01  0.35744000000E-01  0.51099999109E-03 0. -1.
       22    1    1    2    0    0  0.24500637098E-01 -0.24110063081E-01  0.97753375860E-02  0.35737005818E-01  0.00000000000E+00 0.  1.
  9000001    1    1    2    0    0 -0.24500637098E-01  0.24110063081E-01 -0.97753375860E-02  0.35750994182E-01  0.10000000475E-02 0. -1.
</event>
<event>
 4   0  0.4958067E-02  0.9118800E+02  0.7818609E-02  0.1379984E+01
      -11   -1    0    0    0    0  0.00000000000E+00  0.00000000000E+00  0.35740347158E-01  0.35744000000E-01  0.51099999109E-03 0. -1.
       11   -1    0    0    0    0 -0.00000000000E+00 -0.00000000000E+00 -0.35740347158E-01  0.35744000000E-01  0.51099999109E-03 0.  1.
       22    1    1    2    0    0 -0.22215505465E-01 -0.45515293624E-02 -0.27620435954E-01  0.35737005818E-01  0.00000000000E+00 0.  1.
  9000001    1    1    2    0    0  0.22215505465E-01  0.45515293624E-02  0.27620435954E-01  0.35750994182E-01  0.10000000475E-02 0. -1.
</event>
<event>
 4   0  0.4958067E-02  0.9118800E+02  0.7818609E-02  0.1379984E+01
      -11   -1    0    0    0    0  0.00000000000E+00  0.00000000000E+00  0.35740347158E-01  0.35744000000E-01  0.51099999109E-03 0. -1.
       11   -1    0    0    0    0 -0.00000000000E+00 -0.00000000000E+00 -0.35740347158E-01  0.35744000000E-01  0.51099999109E-03 0.  1.
       22    1    1    2    0    0  0.71485967971E-02 -0.24079234820E-02  0.34931834381E-01  0.35737005818E-01  0.00000000000E+00 0. -1.
  9000001    1    1    2    0    0 -0.71485967971E-02  0.24079234820E-02 -0.34931834381E-01  0.35750994182E-01  0.10000000475E-02 0.  1.
</event>
<event>
 4   0  0.4958067E-02  0.9118800E+02  0.7818609E-02  0.1379984E+01
      -11   -1    0    0    0    0  0.00000000000E+00  0.00000000000E+00  0.35740347158E-01  0.35744000000E-01  0.51099999109E-03 0. -1.
       11   -1    0    0    0    0 -0.00000000000E+00 -0.00000000000E+00 -0.35740347158E-01  0.35744000000E-01  0.51099999109E-03 0.  1.
       22    1    1    2    0    0 -0.27109136047E-02 -0.81977640112E-02 -0.34678252515E-01  0.35737005818E-01  0.00000000000E+00 0.  1.
  9000001    1    1    2    0    0  0.27109136047E-02  0.81977640112E-02  0.34678252515E-01  0.35750994182E-01  0.10000000475E-02 0. -1.
</event>
<event>
 4   0  0.4958067E-02  0.9118800E+02  0.7818609E-02  0.1379984E+01
      -11   -1    0    0    0    0  0.00000000000E+00  0.00000000000E+00  0.35740347158E-01  0.35744000000E-01  0.51099999109E-03 0.  1.
       11   -1    0    0    0    0 -0.00000000000E+00 -0.00000000000E+00 -0.35740347158E-01  0.35744000000E-01  0.51099999109E-03 0. -1.
       22    1    1    2    0    0  0.25459521632E-02  0.33518450720E-02 -0.35488263512E-01  0.35737005818E-01  0.00000000000E+00 0. -1.
  9000001    1    1    2    0    0 -0.25459521632E-02 -0.33518450720E-02  0.35488263512E-01  0.35750994182E-01  0.10000000475E-02 0.  1.
</event>
<event>
 4   0  0.4958067E-02  0.9118800E+02  0.7818609E-02  0.1379984E+01
      -11   -1    0    0    0    0  0.00000000000E+00  0.00000000000E+00  0.35740347158E-01  0.35744000000E-01  0.51099999109E-03 0.  1.
       11   -1    0    0    0    0 -0.00000000000E+00 -0.00000000000E+00 -0.35740347158E-01  0.35744000000E-01  0.51099999109E-03 0. -1.
       22    1    1    2    0    0 -0.66619242413E-02  0.12600527678E-01 -0.32771619620E-01  0.35737005818E-01  0.00000000000E+00 0. -1.
  9000001    1    1    2    0    0  0.66619242413E-02 -0.12600527678E-01  0.32771619620E-01  0.35750994182E-01  0.10000000475E-02 0.  1.
</event>
<event>
 4   0  0.4958067E-02  0.9118800E+02  0.7818609E-02  0.1379984E+01
      -11   -1    0    0    0    0  0.00000000000E+00  0.00000000000E+00  0.35740347158E-01  0.35744000000E-01  0.51099999109E-03 0.  1.
       11   -1    0    0    0    0 -0.00000000000E+00 -0.00000000000E+00 -0.35740347158E-01  0.35744000000E-01  0.51099999109E-03 0. -1.
       22    1    1    2    0    0  0.97739084647E-03 -0.46725821742E-02 -0.35416737114E-01  0.35737005818E-01  0.00000000000E+00 0. -1.
  9000001    1    1    2    0    0 -0.97739084647E-03  0.46725821742E-02  0.35416737114E-01  0.35750994182E-01  0.10000000475E-02 0.  1.
</event>
<event>
 4   0  0.4958067E-02  0.9118800E+02  0.7818609E-02  0.1379984E+01
      -11   -1    0    0    0    0  0.00000000000E+00  0.00000000000E+00  0.35740347158E-01  0.35744000000E-01  0.51099999109E-03 0. -1.
       11   -1    0    0    0    0 -0.00000000000E+00 -0.00000000000E+00 -0.35740347158E-01  0.35744000000E-01  0.51099999109E-03 0.  1.
       22    1    1    2    0    0  0.99875292205E-03 -0.80920789201E-02 -0.34794458413E-01  0.35737005818E-01  0.00000000000E+00 0.  1.
  9000001    1    1    2    0    0 -0.99875292205E-03  0.80920789201E-02  0.34794458413E-01  0.35750994182E-01  0.10000000475E-02 0. -1.
</event>
<event>
 4   0  0.4958067E-02  0.9118800E+02  0.7818609E-02  0.1379984E+01
      -11   -1    0    0    0    0  0.00000000000E+00  0.00000000000E+00  0.35740347158E-01  0.35744000000E-01  0.51099999109E-03 0.  1.
       11   -1    0    0    0    0 -0.00000000000E+00 -0.00000000000E+00 -0.35740347158E-01  0.35744000000E-01  0.51099999109E-03 0. -1.
       22    1    1    2    0    0 -0.39979976675E-02 -0.59504193315E-02  0.35010599956E-01  0.35737005818E-01  0.00000000000E+00 0.  1.
  9000001    1    1    2    0    0  0.39979976675E-02  0.59504193315E-02 -0.35010599956E-01  0.35750994182E-01  0.10000000475E-02 0. -1.
</event>
<event>
 4   0  0.4958067E-02  0.9118800E+02  0.7818609E-02  0.1379984E+01
      -11   -1    0    0    0    0  0.00000000000E+00  0.00000000000E+00  0.35740347158E-01  0.35744000000E-01  0.51099999109E-03 0. -1.
       11   -1    0    0    0    0 -0.00000000000E+00 -0.00000000000E+00 -0.35740347158E-01  0.35744000000E-01  0.51099999109E-03 0.  1.
       22    1    1    2    0    0  0.52612706095E-02 -0.92830806294E-03  0.35335405199E-01  0.35737005818E-01  0.00000000000E+00 0. -1.
  9000001    1    1    2    0    0 -0.52612706095E-02  0.92830806294E-03 -0.35335405199E-01  0.35750994182E-01  0.10000000475E-02 0.  1.
</event>
<event>
 4   0  0.4958067E-02  0.9118800E+02  0.7818609E-02  0.1379984E+01
      -11   -1    0    0    0    0  0.00000000000E+00  0.00000000000E+00  0.35740347158E-01  0.35744000000E-01  0.51099999109E-03 0. -1.
       11   -1    0    0    0    0 -0.00000000000E+00 -0.00000000000E+00 -0.35740347158E-01  0.35744000000E-01  0.51099999109E-03 0.  1.
       22    1    1    2    0    0 -0.24361861263E-01  0.24360655336E-01  0.94969348881E-02  0.35737005818E-01  0.00000000000E+00 0.  1.
  9000001    1    1    2    0    0  0.24361861263E-01 -0.24360655336E-01 -0.94969348881E-02  0.35750994182E-01  0.10000000475E-02 0. -1.
</event>
<event>
 4   0  0.4958067E-02  0.9118800E+02  0.7818609E-02  0.1379984E+01
      -11   -1    0    0    0    0  0.00000000000E+00  0.00000000000E+00  0.35740347158E-01  0.35744000000E-01  0.51099999109E-03 0.  1.
       11   -1    0    0    0    0 -0.00000000000E+00 -0.00000000000E+00 -0.35740347158E-01  0.35744000000E-01  0.51099999109E-03 0. -1.
       22    1    1    2    0    0  0.22500318058E-01  0.78360207537E-02 -0.26635803929E-01  0.35737005818E-01  0.00000000000E+00 0. -1.
  9000001    1    1    2    0    0 -0.22500318058E-01 -0.78360207537E-02  0.26635803929E-01  0.35750994182E-01  0.10000000475E-02 0.  1.
</event>
<event>
 4   0  0.4958067E-02  0.9118800E+02  0.7818609E-02  0.1379984E+01
      -11   -1    0    0    0    0  0.00000000000E+00  0.00000000000E+00  0.35740347158E-01  0.35744000000E-01  0.51099999109E-03 0. -1.
       11   -1    0    0    0    0 -0.00000000000E+00 -0.00000000000E+00 -0.35740347158E-01  0.35744000000E-01  0.51099999109E-03 0.  1.
       22    1    1    2    0    0 -0.33072228077E-01 -0.10532719759E-01  0.85101779877E-02  0.35737005818E-01  0.00000000000E+00 0. -1.
  9000001    1    1    2    0    0  0.33072228077E-01  0.10532719759E-01 -0.85101779877E-02  0.35750994182E-01  0.10000000475E-02 0.  1.
</event>
<event>
 4   0  0.4958067E-02  0.9118800E+02  0.7818609E-02  0.1379984E+01
      -11   -1    0    0    0    0  0.00000000000E+00  0.00000000000E+00  0.35740347158E-01  0.35744000000E-01  0.51099999109E-03 0.  1.
       11   -1    0    0    0    0 -0.00000000000E+00 -0.00000000000E+00 -0.35740347158E-01  0.35744000000E-01  0.51099999109E-03 0. -1.
       22    1    1    2    0    0 -0.26884791749E-02  0.32497139961E-02  0.35487251564E-01  0.35737005818E-01  0.00000000000E+00 0.  1.
  9000001    1    1    2    0    0  0.26884791749E-02 -0.32497139961E-02 -0.35487251564E-01  0.35750994182E-01  0.10000000475E-02 0. -1.
</event>
<event>
 4   0  0.4958067E-02  0.9118800E+02  0.7818609E-02  0.1379984E+01
      -11   -1    0    0    0    0  0.00000000000E+00  0.00000000000E+00  0.35740347158E-01  0.35744000000E-01  0.51099999109E-03 0. -1.
       11   -1    0    0    0    0 -0.00000000000E+00 -0.00000000000E+00 -0.35740347158E-01  0.35744000000E-01  0.51099999109E-03 0.  1.
       22    1    1    2    0    0  0.31134729050E-01 -0.17049681874E-01  0.41316558223E-02  0.35737005818E-01  0.00000000000E+00 0.  1.
  9000001    1    1    2    0    0 -0.31134729050E-01  0.17049681874E-01 -0.41316558223E-02  0.35750994182E-01  0.10000000475E-02 0. -1.
</event>
<event>
 4   0  0.4958067E-02  0.9118800E+02  0.7818609E-02  0.1379984E+01
      -11   -1    0    0    0    0  0.00000000000E+00  0.00000000000E+00  0.35740347158E-01  0.35744000000E-01  0.51099999109E-03 0.  1.
       11   -1    0    0    0    0 -0.00000000000E+00 -0.00000000000E+00 -0.35740347158E-01  0.35744000000E-01  0.51099999109E-03 0. -1.
       22    1    1    2    0    0  0.12261210223E-01 -0.78510168480E-02  0.32636756015E-01  0.35737005818E-01  0.00000000000E+00 0.  1.
  9000001    1    1    2    0    0 -0.12261210223E-01  0.78510168480E-02 -0.32636756015E-01  0.35750994182E-01  0.10000000475E-02 0. -1.
</event>
<event>
 4   0  0.4958067E-02  0.9118800E+02  0.7818609E-02  0.1379984E+01
      -11   -1    0    0    0    0  0.00000000000E+00  0.00000000000E+00  0.35740347158E-01  0.35744000000E-01  0.51099999109E-03 0. -1.
       11   -1    0    0    0    0 -0.00000000000E+00 -0.00000000000E+00 -0.35740347158E-01  0.35744000000E-01  0.51099999109E-03 0.  1.
       22    1    1    2    0    0  0.32445909215E-01 -0.13859285587E-01 -0.56847834688E-02  0.35737005818E-01  0.00000000000E+00 0.  1.
  9000001    1    1    2    0    0 -0.32445909215E-01  0.13859285587E-01  0.56847834688E-02  0.35750994182E-01  0.10000000475E-02 0. -1.
</event>
<event>
 4   0  0.4958067E-02  0.9118800E+02  0.7818609E-02  0.1379984E+01
      -11   -1    0    0    0    0  0.00000000000E+00  0.00000000000E+00  0.35740347158E-01  0.35744000000E-01  0.51099999109E-03 0. -1.
       11   -1    0    0    0    0 -0.00000000000E+00 -0.00000000000E+00 -0.35740347158E-01  0.35744000000E-01  0.51099999109E-03 0.  1.
       22    1    1    2    0    0 -0.29926928279E-01  0.88908360270E-02  0.17391537695E-01  0.35737005818E-01  0.00000000000E+00 0. -1.
  9000001    1    1    2    0    0  0.29926928279E-01 -0.88908360270E-02 -0.17391537695E-01  0.35750994182E-01  0.10000000475E-02 0.  1.
</event>
<event>
 4   0  0.4958067E-02  0.9118800E+02  0.7818609E-02  0.1379984E+01
      -11   -1    0    0    0    0  0.00000000000E+00  0.00000000000E+00  0.35740347158E-01  0.35744000000E-01  0.51099999109E-03 0.  1.
       11   -1    0    0    0    0 -0.00000000000E+00 -0.00000000000E+00 -0.35740347158E-01  0.35744000000E-01  0.51099999109E-03 0. -1.
       22    1    1    2    0    0  0.15582825549E-01  0.10436989313E-01  0.30420032657E-01  0.35737005818E-01  0.00000000000E+00 0.  1.
  9000001    1    1    2    0    0 -0.15582825549E-01 -0.10436989313E-01 -0.30420032657E-01  0.35750994182E-01  0.10000000475E-02 0. -1.
</event>
<event>
 4   0  0.4958067E-02  0.9118800E+02  0.7818609E-02  0.1379984E+01
      -11   -1    0    0    0    0  0.00000000000E+00  0.00000000000E+00  0.35740347158E-01  0.35744000000E-01  0.51099999109E-03 0.  1.
       11   -1    0    0    0    0 -0.00000000000E+00 -0.00000000000E+00 -0.35740347158E-01  0.35744000000E-01  0.51099999109E-03 0.  1.
       22    1    1    2    0    0 -0.30704270702E-02 -0.13084457777E-02 -0.35580809886E-01  0.35737005818E-01  0.00000000000E+00 0.  1.
  9000001    1    1    2    0    0  0.30704270702E-02  0.13084457777E-02  0.35580809886E-01  0.35750994182E-01  0.10000000475E-02 0.  1.
</event>
<event>
 4   0  0.4958067E-02  0.9118800E+02  0.7818609E-02  0.1379984E+01
      -11   -1    0    0    0    0  0.00000000000E+00  0.00000000000E+00  0.35740347158E-01  0.35744000000E-01  0.51099999109E-03 0. -1.
       11   -1    0    0    0    0 -0.00000000000E+00 -0.00000000000E+00 -0.35740347158E-01  0.35744000000E-01  0.51099999109E-03 0.  1.
       22    1    1    2    0    0 -0.28792583525E-02  0.27843908869E-02 -0.35511837795E-01  0.35737005818E-01  0.00000000000E+00 0.  1.
  9000001    1    1    2    0    0  0.28792583525E-02 -0.27843908869E-02  0.35511837795E-01  0.35750994182E-01  0.10000000475E-02 0. -1.
</event>
<event>
 4   0  0.4958067E-02  0.9118800E+02  0.7818609E-02  0.1379984E+01
      -11   -1    0    0    0    0  0.00000000000E+00  0.00000000000E+00  0.35740347158E-01  0.35744000000E-01  0.51099999109E-03 0. -1.
       11   -1    0    0    0    0 -0.00000000000E+00 -0.00000000000E+00 -0.35740347158E-01  0.35744000000E-01  0.51099999109E-03 0.  1.
       22    1    1    2    0    0 -0.36817387289E-02 -0.19053906146E-01 -0.30008782804E-01  0.35737005818E-01  0.00000000000E+00 0.  1.
  9000001    1    1    2    0    0  0.36817387289E-02  0.19053906146E-01  0.30008782804E-01  0.35750994182E-01  0.10000000475E-02 0. -1.
</event>
<event>
 4   0  0.4958067E-02  0.9118800E+02  0.7818609E-02  0.1379984E+01
      -11   -1    0    0    0    0  0.00000000000E+00  0.00000000000E+00  0.35740347158E-01  0.35744000000E-01  0.51099999109E-03 0.  1.
       11   -1    0    0    0    0 -0.00000000000E+00 -0.00000000000E+00 -0.35740347158E-01  0.35744000000E-01  0.51099999109E-03 0. -1.
       22    1    1    2    0    0  0.20955665363E-02  0.26849687109E-01 -0.23491200223E-01  0.35737005818E-01  0.00000000000E+00 0. -1.
  9000001    1    1    2    0    0 -0.20955665363E-02 -0.26849687109E-01  0.23491200223E-01  0.35750994182E-01  0.10000000475E-02 0.  1.
</event>
<event>
 4   0  0.4958067E-02  0.9118800E+02  0.7818609E-02  0.1379984E+01
      -11   -1    0    0    0    0  0.00000000000E+00  0.00000000000E+00  0.35740347158E-01  0.35744000000E-01  0.51099999109E-03 0.  1.
       11   -1    0    0    0    0 -0.00000000000E+00 -0.00000000000E+00 -0.35740347158E-01  0.35744000000E-01  0.51099999109E-03 0. -1.
       22    1    1    2    0    0 -0.35925940579E-02  0.59203123650E-02  0.35059617144E-01  0.35737005818E-01  0.00000000000E+00 0.  1.
  9000001    1    1    2    0    0  0.35925940579E-02 -0.59203123650E-02 -0.35059617144E-01  0.35750994182E-01  0.10000000475E-02 0. -1.
</event>
<event>
 4   0  0.4958067E-02  0.9118800E+02  0.7818609E-02  0.1379984E+01
      -11   -1    0    0    0    0  0.00000000000E+00  0.00000000000E+00  0.35740347158E-01  0.35744000000E-01  0.51099999109E-03 0. -1.
       11   -1    0    0    0    0 -0.00000000000E+00 -0.00000000000E+00 -0.35740347158E-01  0.35744000000E-01  0.51099999109E-03 0.  1.
       22    1    1    2    0    0 -0.12070956930E-01 -0.20641530380E-01 -0.26558479008E-01  0.35737005818E-01  0.00000000000E+00 0.  1.
  9000001    1    1    2    0    0  0.12070956930E-01  0.20641530380E-01  0.26558479008E-01  0.35750994182E-01  0.10000000475E-02 0. -1.
</event>
<event>
 4   0  0.4958067E-02  0.9118800E+02  0.7818609E-02  0.1379984E+01
      -11   -1    0    0    0    0  0.00000000000E+00  0.00000000000E+00  0.35740347158E-01  0.35744000000E-01  0.51099999109E-03 0.  1.
       11   -1    0    0    0    0 -0.00000000000E+00 -0.00000000000E+00 -0.35740347158E-01  0.35744000000E-01  0.51099999109E-03 0. -1.
       22    1    1    2    0    0 -0.28287679679E-01  0.57139433018E-02  0.21078226093E-01  0.35737005818E-01  0.00000000000E+00 0.  1.
  9000001    1    1    2    0    0  0.28287679679E-01 -0.57139433018E-02 -0.21078226093E-01  0.35750994182E-01  0.10000000475E-02 0. -1.
</event>
<event>
 4   0  0.4958067E-02  0.9118800E+02  0.7818609E-02  0.1379984E+01
      -11   -1    0    0    0    0  0.00000000000E+00  0.00000000000E+00  0.35740347158E-01  0.35744000000E-01  0.51099999109E-03 0.  1.
       11   -1    0    0    0    0 -0.00000000000E+00 -0.00000000000E+00 -0.35740347158E-01  0.35744000000E-01  0.51099999109E-03 0. -1.
       22    1    1    2    0    0 -0.61006101092E-02 -0.94648489833E-04 -0.35212315783E-01  0.35737005818E-01  0.00000000000E+00 0. -1.
  9000001    1    1    2    0    0  0.61006101092E-02  0.94648489833E-04  0.35212315783E-01  0.35750994182E-01  0.10000000475E-02 0.  1.
</event>
<event>
 4   0  0.4958067E-02  0.9118800E+02  0.7818609E-02  0.1379984E+01
      -11   -1    0    0    0    0  0.00000000000E+00  0.00000000000E+00  0.35740347158E-01  0.35744000000E-01  0.51099999109E-03 0. -1.
       11   -1    0    0    0    0 -0.00000000000E+00 -0.00000000000E+00 -0.35740347158E-01  0.35744000000E-01  0.51099999109E-03 0.  1.
       22    1    1    2    0    0 -0.67218026721E-02 -0.27483661211E-02 -0.34991390904E-01  0.35737005818E-01  0.00000000000E+00 0.  1.
  9000001    1    1    2    0    0  0.67218026721E-02  0.27483661211E-02  0.34991390904E-01  0.35750994182E-01  0.10000000475E-02 0. -1.
</event>
<event>
 4   0  0.4958067E-02  0.9118800E+02  0.7818609E-02  0.1379984E+01
      -11   -1    0    0    0    0  0.00000000000E+00  0.00000000000E+00  0.35740347158E-01  0.35744000000E-01  0.51099999109E-03 0.  1.
       11   -1    0    0    0    0 -0.00000000000E+00 -0.00000000000E+00 -0.35740347158E-01  0.35744000000E-01  0.51099999109E-03 0. -1.
       22    1    1    2    0    0  0.36574299796E-02  0.88069534918E-02 -0.34441172469E-01  0.35737005818E-01  0.00000000000E+00 0. -1.
  9000001    1    1    2    0    0 -0.36574299796E-02 -0.88069534918E-02  0.34441172469E-01  0.35750994182E-01  0.10000000475E-02 0.  1.
</event>
<event>
 4   0  0.4958067E-02  0.9118800E+02  0.7818609E-02  0.1379984E+01
      -11   -1    0    0    0    0  0.00000000000E+00  0.00000000000E+00  0.35740347158E-01  0.35744000000E-01  0.51099999109E-03 0. -1.
       11   -1    0    0    0    0 -0.00000000000E+00 -0.00000000000E+00 -0.35740347158E-01  0.35744000000E-01  0.51099999109E-03 0.  1.
       22    1    1    2    0    0  0.95509600590E-02  0.32171983522E-01 -0.12283168284E-01  0.35737005818E-01  0.00000000000E+00 0.  1.
  9000001    1    1    2    0    0 -0.95509600590E-02 -0.32171983522E-01  0.12283168284E-01  0.35750994182E-01  0.10000000475E-02 0. -1.
</event>
<event>
 4   0  0.4958067E-02  0.9118800E+02  0.7818609E-02  0.1379984E+01
      -11   -1    0    0    0    0  0.00000000000E+00  0.00000000000E+00  0.35740347158E-01  0.35744000000E-01  0.51099999109E-03 0.  1.
       11   -1    0    0    0    0 -0.00000000000E+00 -0.00000000000E+00 -0.35740347158E-01  0.35744000000E-01  0.51099999109E-03 0. -1.
       22    1    1    2    0    0  0.23524702031E-02  0.11460528373E-01  0.33767673272E-01  0.35737005818E-01  0.00000000000E+00 0.  1.
  9000001    1    1    2    0    0 -0.23524702031E-02 -0.11460528373E-01 -0.33767673272E-01  0.35750994182E-01  0.10000000475E-02 0. -1.
</event>
<event>
 4   0  0.4958067E-02  0.9118800E+02  0.7818609E-02  0.1379984E+01
      -11   -1    0    0    0    0  0.00000000000E+00  0.00000000000E+00  0.35740347158E-01  0.35744000000E-01  0.51099999109E-03 0. -1.
       11   -1    0    0    0    0 -0.00000000000E+00 -0.00000000000E+00 -0.35740347158E-01  0.35744000000E-01  0.51099999109E-03 0.  1.
       22    1    1    2    0    0 -0.11097469138E-01  0.11627799472E-02  0.33950371226E-01  0.35737005818E-01  0.00000000000E+00 0. -1.
  9000001    1    1    2    0    0  0.11097469138E-01 -0.11627799472E-02 -0.33950371226E-01  0.35750994182E-01  0.10000000475E-02 0.  1.
</event>
<event>
 4   0  0.4958067E-02  0.9118800E+02  0.7818609E-02  0.1379984E+01
      -11   -1    0    0    0    0  0.00000000000E+00  0.00000000000E+00  0.35740347158E-01  0.35744000000E-01  0.51099999109E-03 0.  1.
       11   -1    0    0    0    0 -0.00000000000E+00 -0.00000000000E+00 -0.35740347158E-01  0.35744000000E-01  0.51099999109E-03 0. -1.
       22    1    1    2    0    0 -0.42263779066E-02 -0.98671530120E-02 -0.34086809855E-01  0.35737005818E-01  0.00000000000E+00 0. -1.
  9000001    1    1    2    0    0  0.42263779066E-02  0.98671530120E-02  0.34086809855E-01  0.35750994182E-01  0.10000000475E-02 0.  1.
</event>
<event>
 4   0  0.4958067E-02  0.9118800E+02  0.7818609E-02  0.1379984E+01
      -11   -1    0    0    0    0  0.00000000000E+00  0.00000000000E+00  0.35740347158E-01  0.35744000000E-01  0.51099999109E-03 0.  1.
       11   -1    0    0    0    0 -0.00000000000E+00 -0.00000000000E+00 -0.35740347158E-01  0.35744000000E-01  0.51099999109E-03 0. -1.
       22    1    1    2    0    0  0.87991719287E-02  0.34622456024E-01  0.99684356186E-03  0.35737005818E-01  0.00000000000E+00 0.  1.
  9000001    1    1    2    0    0 -0.87991719287E-02 -0.34622456024E-01 -0.99684356186E-03  0.35750994182E-01  0.10000000475E-02 0. -1.
</event>
<event>
 4   0  0.4958067E-02  0.9118800E+02  0.7818609E-02  0.1379984E+01
      -11   -1    0    0    0    0  0.00000000000E+00  0.00000000000E+00  0.35740347158E-01  0.35744000000E-01  0.51099999109E-03 0.  1.
       11   -1    0    0    0    0 -0.00000000000E+00 -0.00000000000E+00 -0.35740347158E-01  0.35744000000E-01  0.51099999109E-03 0. -1.
       22    1    1    2    0    0  0.10773282554E-01  0.22916532488E-01 -0.25217107420E-01  0.35737005818E-01  0.00000000000E+00 0. -1.
  9000001    1    1    2    0    0 -0.10773282554E-01 -0.22916532488E-01  0.25217107420E-01  0.35750994182E-01  0.10000000475E-02 0.  1.
</event>
<event>
 4   0  0.4958067E-02  0.9118800E+02  0.7818609E-02  0.1379984E+01
      -11   -1    0    0    0    0  0.00000000000E+00  0.00000000000E+00  0.35740347158E-01  0.35744000000E-01  0.51099999109E-03 0. -1.
       11   -1    0    0    0    0 -0.00000000000E+00 -0.00000000000E+00 -0.35740347158E-01  0.35744000000E-01  0.51099999109E-03 0.  1.
       22    1    1    2    0    0 -0.85123089415E-02  0.12834807171E-01 -0.32248130275E-01  0.35737005818E-01  0.00000000000E+00 0.  1.
  9000001    1    1    2    0    0  0.85123089415E-02 -0.12834807171E-01  0.32248130275E-01  0.35750994182E-01  0.10000000475E-02 0. -1.
</event>
<event>
 4   0  0.4958067E-02  0.9118800E+02  0.7818609E-02  0.1379984E+01
      -11   -1    0    0    0    0  0.00000000000E+00  0.00000000000E+00  0.35740347158E-01  0.35744000000E-01  0.51099999109E-03 0.  1.
       11   -1    0    0    0    0 -0.00000000000E+00 -0.00000000000E+00 -0.35740347158E-01  0.35744000000E-01  0.51099999109E-03 0. -1.
       22    1    1    2    0    0  0.68701042231E-02  0.35052494680E-02 -0.34894820232E-01  0.35737005818E-01  0.00000000000E+00 0. -1.
  9000001    1    1    2    0    0 -0.68701042231E-02 -0.35052494680E-02  0.34894820232E-01  0.35750994182E-01  0.10000000475E-02 0.  1.
</event>
<event>
 4   0  0.4958067E-02  0.9118800E+02  0.7818609E-02  0.1379984E+01
      -11   -1    0    0    0    0  0.00000000000E+00  0.00000000000E+00  0.35740347158E-01  0.35744000000E-01  0.51099999109E-03 0. -1.
       11   -1    0    0    0    0 -0.00000000000E+00 -0.00000000000E+00 -0.35740347158E-01  0.35744000000E-01  0.51099999109E-03 0.  1.
       22    1    1    2    0    0  0.68914333624E-02 -0.11561666928E-01 -0.33105431411E-01  0.35737005818E-01  0.00000000000E+00 0.  1.
  9000001    1    1    2    0    0 -0.68914333624E-02  0.11561666928E-01  0.33105431411E-01  0.35750994182E-01  0.10000000475E-02 0. -1.
</event>
<event>
 4   0  0.4958067E-02  0.9118800E+02  0.7818609E-02  0.1379984E+01
      -11   -1    0    0    0    0  0.00000000000E+00  0.00000000000E+00  0.35740347158E-01  0.35744000000E-01  0.51099999109E-03 0.  1.
       11   -1    0    0    0    0 -0.00000000000E+00 -0.00000000000E+00 -0.35740347158E-01  0.35744000000E-01  0.51099999109E-03 0. -1.
       22    1    1    2    0    0 -0.32350178480E-01 -0.22205056901E-02  0.15022279841E-01  0.35737005818E-01  0.00000000000E+00 0. -1.
  9000001    1    1    2    0    0  0.32350178480E-01  0.22205056901E-02 -0.15022279841E-01  0.35750994182E-01  0.10000000475E-02 0.  1.
</event>
<event>
 4   0  0.4958067E-02  0.9118800E+02  0.7818609E-02  0.1379984E+01
      -11   -1    0    0    0    0  0.00000000000E+00  0.00000000000E+00  0.35740347158E-01  0.35744000000E-01  0.51099999109E-03 0.  1.
       11   -1    0    0    0    0 -0.00000000000E+00 -0.00000000000E+00 -0.35740347158E-01  0.35744000000E-01  0.51099999109E-03 0. -1.
       22    1    1    2    0    0  0.10768400459E-02 -0.40833197461E-02 -0.35486624244E-01  0.35737005818E-01  0.00000000000E+00 0. -1.
  9000001    1    1    2    0    0 -0.10768400459E-02  0.40833197461E-02  0.35486624244E-01  0.35750994182E-01  0.10000000475E-02 0.  1.
</event>
<event>
 4   0  0.4958067E-02  0.9118800E+02  0.7818609E-02  0.1379984E+01
      -11   -1    0    0    0    0  0.00000000000E+00  0.00000000000E+00  0.35740347158E-01  0.35744000000E-01  0.51099999109E-03 0. -1.
       11   -1    0    0    0    0 -0.00000000000E+00 -0.00000000000E+00 -0.35740347158E-01  0.35744000000E-01  0.51099999109E-03 0.  1.
       22    1    1    2    0    0 -0.26209459111E-02 -0.12343938861E-01 -0.33434882994E-01  0.35737005818E-01  0.00000000000E+00 0.  1.
  9000001    1    1    2    0    0  0.26209459111E-02  0.12343938861E-01  0.33434882994E-01  0.35750994182E-01  0.10000000475E-02 0. -1.
</event>
<event>
 4   0  0.4958067E-02  0.9118800E+02  0.7818609E-02  0.1379984E+01
      -11   -1    0    0    0    0  0.00000000000E+00  0.00000000000E+00  0.35740347158E-01  0.35744000000E-01  0.51099999109E-03 0.  1.
       11   -1    0    0    0    0 -0.00000000000E+00 -0.00000000000E+00 -0.35740347158E-01  0.35744000000E-01  0.51099999109E-03 0. -1.
       22    1    1    2    0    0  0.10665655155E-01 -0.89960899416E-02  0.32900573714E-01  0.35737005818E-01  0.00000000000E+00 0.  1.
  9000001    1    1    2    0    0 -0.10665655155E-01  0.89960899416E-02 -0.32900573714E-01  0.35750994182E-01  0.10000000475E-02 0. -1.
</event>
<event>
 4   0  0.4958067E-02  0.9118800E+02  0.7818609E-02  0.1379984E+01
      -11   -1    0    0    0    0  0.00000000000E+00  0.00000000000E+00  0.35740347158E-01  0.35744000000E-01  0.51099999109E-03 0.  1.
       11   -1    0    0    0    0 -0.00000000000E+00 -0.00000000000E+00 -0.35740347158E-01  0.35744000000E-01  0.51099999109E-03 0. -1.
       22    1    1    2    0    0 -0.22019906240E-02 -0.26594708520E-01  0.23769861188E-01  0.35737005818E-01  0.00000000000E+00 0.  1.
  9000001    1    1    2    0    0  0.22019906240E-02  0.26594708520E-01 -0.23769861188E-01  0.35750994182E-01  0.10000000475E-02 0. -1.
</event>
<event>
 4   0  0.4958067E-02  0.9118800E+02  0.7818609E-02  0.1379984E+01
      -11   -1    0    0    0    0  0.00000000000E+00  0.00000000000E+00  0.35740347158E-01  0.35744000000E-01  0.51099999109E-03 0. -1.
       11   -1    0    0    0    0 -0.00000000000E+00 -0.00000000000E+00 -0.35740347158E-01  0.35744000000E-01  0.51099999109E-03 0.  1.
       22    1    1    2    0    0 -0.14558217604E-02 -0.85340070541E-02  0.34672538002E-01  0.35737005818E-01  0.00000000000E+00 0. -1.
  9000001    1    1    2    0    0  0.14558217604E-02  0.85340070541E-02 -0.34672538002E-01  0.35750994182E-01  0.10000000475E-02 0.  1.
</event>
<event>
 4   0  0.4958067E-02  0.9118800E+02  0.7818609E-02  0.1379984E+01
      -11   -1    0    0    0    0  0.00000000000E+00  0.00000000000E+00  0.35740347158E-01  0.35744000000E-01  0.51099999109E-03 0.  1.
       11   -1    0    0    0    0 -0.00000000000E+00 -0.00000000000E+00 -0.35740347158E-01  0.35744000000E-01  0.51099999109E-03 0. -1.
       22    1    1    2    0    0 -0.67420620382E-02 -0.14282730479E-01 -0.32057476420E-01  0.35737005818E-01  0.00000000000E+00 0. -1.
  9000001    1    1    2    0    0  0.67420620382E-02  0.14282730479E-01  0.32057476420E-01  0.35750994182E-01  0.10000000475E-02 0.  1.
</event>
<event>
 4   0  0.4958067E-02  0.9118800E+02  0.7818609E-02  0.1379984E+01
      -11   -1    0    0    0    0  0.00000000000E+00  0.00000000000E+00  0.35740347158E-01  0.35744000000E-01  0.51099999109E-03 0.  1.
       11   -1    0    0    0    0 -0.00000000000E+00 -0.00000000000E+00 -0.35740347158E-01  0.35744000000E-01  0.51099999109E-03 0. -1.
       22    1    1    2    0    0 -0.10054994979E-02 -0.92564881653E-02  0.34502753259E-01  0.35737005818E-01  0.00000000000E+00 0.  1.
  9000001    1    1    2    0    0  0.10054994979E-02  0.92564881653E-02 -0.34502753259E-01  0.35750994182E-01  0.10000000475E-02 0. -1.
</event>
<event>
 4   0  0.4958067E-02  0.9118800E+02  0.7818609E-02  0.1379984E+01
      -11   -1    0    0    0    0  0.00000000000E+00  0.00000000000E+00  0.35740347158E-01  0.35744000000E-01  0.51099999109E-03 0. -1.
       11   -1    0    0    0    0 -0.00000000000E+00 -0.00000000000E+00 -0.35740347158E-01  0.35744000000E-01  0.51099999109E-03 0.  1.
       22    1    1    2    0    0 -0.25257275165E-02 -0.14257797160E-01  0.32672151835E-01  0.35737005818E-01  0.00000000000E+00 0. -1.
  9000001    1    1    2    0    0  0.25257275165E-02  0.14257797160E-01 -0.32672151835E-01  0.35750994182E-01  0.10000000475E-02 0.  1.
</event>
<event>
 4   0  0.4958067E-02  0.9118800E+02  0.7818609E-02  0.1379984E+01
      -11   -1    0    0    0    0  0.00000000000E+00  0.00000000000E+00  0.35740347158E-01  0.35744000000E-01  0.51099999109E-03 0.  1.
       11   -1    0    0    0    0 -0.00000000000E+00 -0.00000000000E+00 -0.35740347158E-01  0.35744000000E-01  0.51099999109E-03 0. -1.
       22    1    1    2    0    0 -0.34089997427E-01 -0.20192159535E-02 -0.10532256512E-01  0.35737005818E-01  0.00000000000E+00 0. -1.
  9000001    1    1    2    0    0  0.34089997427E-01  0.20192159535E-02  0.10532256512E-01  0.35750994182E-01  0.10000000475E-02 0.  1.
</event>
<event>
 4   0  0.4958067E-02  0.9118800E+02  0.7818609E-02  0.1379984E+01
      -11   -1    0    0    0    0  0.00000000000E+00  0.00000000000E+00  0.35740347158E-01  0.35744000000E-01  0.51099999109E-03 0. -1.
       11   -1    0    0    0    0 -0.00000000000E+00 -0.00000000000E+00 -0.35740347158E-01  0.35744000000E-01  0.51099999109E-03 0.  1.
       22    1    1    2    0    0 -0.64472648936E-03  0.35619400345E-01  0.28242223198E-02  0.35737005818E-01  0.00000000000E+00 0.  1.
  9000001    1    1    2    0    0  0.64472648936E-03 -0.35619400345E-01 -0.28242223198E-02  0.35750994182E-01  0.10000000475E-02 0. -1.
</event>
<event>
 4   0  0.4958067E-02  0.9118800E+02  0.7818609E-02  0.1379984E+01
      -11   -1    0    0    0    0  0.00000000000E+00  0.00000000000E+00  0.35740347158E-01  0.35744000000E-01  0.51099999109E-03 0.  1.
       11   -1    0    0    0    0 -0.00000000000E+00 -0.00000000000E+00 -0.35740347158E-01  0.35744000000E-01  0.51099999109E-03 0. -1.
       22    1    1    2    0    0 -0.11205784657E-01  0.11641395883E-01 -0.31875411793E-01  0.35737005818E-01  0.00000000000E+00 0. -1.
  9000001    1    1    2    0    0  0.11205784657E-01 -0.11641395883E-01  0.31875411793E-01  0.35750994182E-01  0.10000000475E-02 0.  1.
</event>
<event>
 4   0  0.4958067E-02  0.9118800E+02  0.7818609E-02  0.1379984E+01
      -11   -1    0    0    0    0  0.00000000000E+00  0.00000000000E+00  0.35740347158E-01  0.35744000000E-01  0.51099999109E-03 0. -1.
       11   -1    0    0    0    0 -0.00000000000E+00 -0.00000000000E+00 -0.35740347158E-01  0.35744000000E-01  0.51099999109E-03 0.  1.
       22    1    1    2    0    0 -0.91222096801E-02 -0.48422674070E-02  0.34212151668E-01  0.35737005818E-01  0.00000000000E+00 0. -1.
  9000001    1    1    2    0    0  0.91222096801E-02  0.48422674070E-02 -0.34212151668E-01  0.35750994182E-01  0.10000000475E-02 0.  1.
</event>
<event>
 4   0  0.4958067E-02  0.9118800E+02  0.7818609E-02  0.1379984E+01
      -11   -1    0    0    0    0  0.00000000000E+00  0.00000000000E+00  0.35740347158E-01  0.35744000000E-01  0.51099999109E-03 0. -1.
       11   -1    0    0    0    0 -0.00000000000E+00 -0.00000000000E+00 -0.35740347158E-01  0.35744000000E-01  0.51099999109E-03 0.  1.
       22    1    1    2    0    0 -0.88560271380E-02 -0.16567441786E-01  0.30401056575E-01  0.35737005818E-01  0.00000000000E+00 0. -1.
  9000001    1    1    2    0    0  0.88560271380E-02  0.16567441786E-01 -0.30401056575E-01  0.35750994182E-01  0.10000000475E-02 0.  1.
</event>
<event>
 4   0  0.4958067E-02  0.9118800E+02  0.7818609E-02  0.1379984E+01
      -11   -1    0    0    0    0  0.00000000000E+00  0.00000000000E+00  0.35740347158E-01  0.35744000000E-01  0.51099999109E-03 0. -1.
       11   -1    0    0    0    0 -0.00000000000E+00 -0.00000000000E+00 -0.35740347158E-01  0.35744000000E-01  0.51099999109E-03 0.  1.
       22    1    1    2    0    0  0.62443569786E-02  0.27156389945E-03  0.35186188254E-01  0.35737005818E-01  0.00000000000E+00 0. -1.
  9000001    1    1    2    0    0 -0.62443569786E-02 -0.27156389945E-03 -0.35186188254E-01  0.35750994182E-01  0.10000000475E-02 0.  1.
</event>
<event>
 4   0  0.4958067E-02  0.9118800E+02  0.7818609E-02  0.1379984E+01
      -11   -1    0    0    0    0  0.00000000000E+00  0.00000000000E+00  0.35740347158E-01  0.35744000000E-01  0.51099999109E-03 0.  1.
       11   -1    0    0    0    0 -0.00000000000E+00 -0.00000000000E+00 -0.35740347158E-01  0.35744000000E-01  0.51099999109E-03 0. -1.
       22    1    1    2    0    0 -0.47472433934E-02  0.19484853699E-02 -0.35366660428E-01  0.35737005818E-01  0.00000000000E+00 0. -1.
  9000001    1    1    2    0    0  0.47472433934E-02 -0.19484853699E-02  0.35366660428E-01  0.35750994182E-01  0.10000000475E-02 0.  1.
</event>
<event>
 4   0  0.4958067E-02  0.9118800E+02  0.7818609E-02  0.1379984E+01
      -11   -1    0    0    0    0  0.00000000000E+00  0.00000000000E+00  0.35740347158E-01  0.35744000000E-01  0.51099999109E-03 0. -1.
       11   -1    0    0    0    0 -0.00000000000E+00 -0.00000000000E+00 -0.35740347158E-01  0.35744000000E-01  0.51099999109E-03 0.  1.
       22    1    1    2    0    0  0.75840791814E-02 -0.89352482235E-02  0.33760578594E-01  0.35737005818E-01  0.00000000000E+00 0. -1.
  9000001    1    1    2    0    0 -0.75840791814E-02  0.89352482235E-02 -0.33760578594E-01  0.35750994182E-01  0.10000000475E-02 0.  1.
</event>
<event>
 4   0  0.4958067E-02  0.9118800E+02  0.7818609E-02  0.1379984E+01
      -11   -1    0    0    0    0  0.00000000000E+00  0.00000000000E+00  0.35740347158E-01  0.35744000000E-01  0.51099999109E-03 0. -1.
       11   -1    0    0    0    0 -0.00000000000E+00 -0.00000000000E+00 -0.35740347158E-01  0.35744000000E-01  0.51099999109E-03 0.  1.
       22    1    1    2    0    0 -0.40327161665E-02 -0.28631011156E-01 -0.21003237498E-01  0.35737005818E-01  0.00000000000E+00 0.  1.
  9000001    1    1    2    0    0  0.40327161665E-02  0.28631011156E-01  0.21003237498E-01  0.35750994182E-01  0.10000000475E-02 0. -1.
</event>
<event>
 4   0  0.4958067E-02  0.9118800E+02  0.7818609E-02  0.1379984E+01
      -11   -1    0    0    0    0  0.00000000000E+00  0.00000000000E+00  0.35740347158E-01  0.35744000000E-01  0.51099999109E-03 0.  1.
       11   -1    0    0    0    0 -0.00000000000E+00 -0.00000000000E+00 -0.35740347158E-01  0.35744000000E-01  0.51099999109E-03 0. -1.
       22    1    1    2    0    0 -0.41846345617E-02 -0.35490769572E-01 -0.16641401106E-03  0.35737005818E-01  0.00000000000E+00 0. -1.
  9000001    1    1    2    0    0  0.41846345617E-02  0.35490769572E-01  0.16641401106E-03  0.35750994182E-01  0.10000000475E-02 0.  1.
</event>
<event>
 4   0  0.4958067E-02  0.9118800E+02  0.7818609E-02  0.1379984E+01
      -11   -1    0    0    0    0  0.00000000000E+00  0.00000000000E+00  0.35740347158E-01  0.35744000000E-01  0.51099999109E-03 0.  1.
       11   -1    0    0    0    0 -0.00000000000E+00 -0.00000000000E+00 -0.35740347158E-01  0.35744000000E-01  0.51099999109E-03 0. -1.
       22    1    1    2    0    0  0.12137914931E-01  0.10864233076E-01  0.31808380117E-01  0.35737005818E-01  0.00000000000E+00 0.  1.
  9000001    1    1    2    0    0 -0.12137914931E-01 -0.10864233076E-01 -0.31808380117E-01  0.35750994182E-01  0.10000000475E-02 0. -1.
</event>
<event>
 4   0  0.4958067E-02  0.9118800E+02  0.7818609E-02  0.1379984E+01
      -11   -1    0    0    0    0  0.00000000000E+00  0.00000000000E+00  0.35740347158E-01  0.35744000000E-01  0.51099999109E-03 0. -1.
       11   -1    0    0    0    0 -0.00000000000E+00 -0.00000000000E+00 -0.35740347158E-01  0.35744000000E-01  0.51099999109E-03 0.  1.
       22    1    1    2    0    0  0.58308862831E-02  0.61547335807E-02  0.34716762588E-01  0.35737005818E-01  0.00000000000E+00 0. -1.
  9000001    1    1    2    0    0 -0.58308862831E-02 -0.61547335807E-02 -0.34716762588E-01  0.35750994182E-01  0.10000000475E-02 0.  1.
</event>
<event>
 4   0  0.4958067E-02  0.9118800E+02  0.7818609E-02  0.1379984E+01
      -11   -1    0    0    0    0  0.00000000000E+00  0.00000000000E+00  0.35740347158E-01  0.35744000000E-01  0.51099999109E-03 0. -1.
       11   -1    0    0    0    0 -0.00000000000E+00 -0.00000000000E+00 -0.35740347158E-01  0.35744000000E-01  0.51099999109E-03 0.  1.
       22    1    1    2    0    0  0.24308057108E-02 -0.13117885515E-01  0.33153368578E-01  0.35737005818E-01  0.00000000000E+00 0. -1.
  9000001    1    1    2    0    0 -0.24308057108E-02  0.13117885515E-01 -0.33153368578E-01  0.35750994182E-01  0.10000000475E-02 0.  1.
</event>
<event>
 4   0  0.4958067E-02  0.9118800E+02  0.7818609E-02  0.1379984E+01
      -11   -1    0    0    0    0  0.00000000000E+00  0.00000000000E+00  0.35740347158E-01  0.35744000000E-01  0.51099999109E-03 0.  1.
       11   -1    0    0    0    0 -0.00000000000E+00 -0.00000000000E+00 -0.35740347158E-01  0.35744000000E-01  0.51099999109E-03 0. -1.
       22    1    1    2    0    0 -0.20695258421E-02  0.38004715568E-02  0.35474033653E-01  0.35737005818E-01  0.00000000000E+00 0.  1.
  9000001    1    1    2    0    0  0.20695258421E-02 -0.38004715568E-02 -0.35474033653E-01  0.35750994182E-01  0.10000000475E-02 0. -1.
</event>
<event>
 4   0  0.4958067E-02  0.9118800E+02  0.7818609E-02  0.1379984E+01
      -11   -1    0    0    0    0  0.00000000000E+00  0.00000000000E+00  0.35740347158E-01  0.35744000000E-01  0.51099999109E-03 0. -1.
       11   -1    0    0    0    0 -0.00000000000E+00 -0.00000000000E+00 -0.35740347158E-01  0.35744000000E-01  0.51099999109E-03 0.  1.
       22    1    1    2    0    0 -0.20310056457E-01  0.26865723922E-01 -0.11952743187E-01  0.35737005818E-01  0.00000000000E+00 0.  1.
  9000001    1    1    2    0    0  0.20310056457E-01 -0.26865723922E-01  0.11952743187E-01  0.35750994182E-01  0.10000000475E-02 0. -1.
</event>
<event>
 4   0  0.4958067E-02  0.9118800E+02  0.7818609E-02  0.1379984E+01
      -11   -1    0    0    0    0  0.00000000000E+00  0.00000000000E+00  0.35740347158E-01  0.35744000000E-01  0.51099999109E-03 0. -1.
       11   -1    0    0    0    0 -0.00000000000E+00 -0.00000000000E+00 -0.35740347158E-01  0.35744000000E-01  0.51099999109E-03 0.  1.
       22    1    1    2    0    0  0.22060153369E-03 -0.62140468633E-02  0.35191910170E-01  0.35737005818E-01  0.00000000000E+00 0. -1.
  9000001    1    1    2    0    0 -0.22060153369E-03  0.62140468633E-02 -0.35191910170E-01  0.35750994182E-01  0.10000000475E-02 0.  1.
</event>
<event>
 4   0  0.4958067E-02  0.9118800E+02  0.7818609E-02  0.1379984E+01
      -11   -1    0    0    0    0  0.00000000000E+00  0.00000000000E+00  0.35740347158E-01  0.35744000000E-01  0.51099999109E-03 0. -1.
       11   -1    0    0    0    0 -0.00000000000E+00 -0.00000000000E+00 -0.35740347158E-01  0.35744000000E-01  0.51099999109E-03 0.  1.
       22    1    1    2    0    0 -0.33364210632E-02 -0.55326953527E-02 -0.35148131693E-01  0.35737005818E-01  0.00000000000E+00 0.  1.
  9000001    1    1    2    0    0  0.33364210632E-02  0.55326953527E-02  0.35148131693E-01  0.35750994182E-01  0.10000000475E-02 0. -1.
</event>
<event>
 4   0  0.4958067E-02  0.9118800E+02  0.7818609E-02  0.1379984E+01
      -11   -1    0    0    0    0  0.00000000000E+00  0.00000000000E+00  0.35740347158E-01  0.35744000000E-01  0.51099999109E-03 0.  1.
       11   -1    0    0    0    0 -0.00000000000E+00 -0.00000000000E+00 -0.35740347158E-01  0.35744000000E-01  0.51099999109E-03 0. -1.
       22    1    1    2    0    0  0.29533713793E-02 -0.42152430535E-02  0.35364429988E-01  0.35737005818E-01  0.00000000000E+00 0.  1.
  9000001    1    1    2    0    0 -0.29533713793E-02  0.42152430535E-02 -0.35364429988E-01  0.35750994182E-01  0.10000000475E-02 0. -1.
</event>
<event>
 4   0  0.4958067E-02  0.9118800E+02  0.7818609E-02  0.1379984E+01
      -11   -1    0    0    0    0  0.00000000000E+00  0.00000000000E+00  0.35740347158E-01  0.35744000000E-01  0.51099999109E-03 0.  1.
       11   -1    0    0    0    0 -0.00000000000E+00 -0.00000000000E+00 -0.35740347158E-01  0.35744000000E-01  0.51099999109E-03 0. -1.
       22    1    1    2    0    0  0.34542515180E-02 -0.67977136006E-03 -0.35563178179E-01  0.35737005818E-01  0.00000000000E+00 0. -1.
  9000001    1    1    2    0    0 -0.34542515180E-02  0.67977136006E-03  0.35563178179E-01  0.35750994182E-01  0.10000000475E-02 0.  1.
</event>
<event>
 4   0  0.4958067E-02  0.9118800E+02  0.7818609E-02  0.1379984E+01
      -11   -1    0    0    0    0  0.00000000000E+00  0.00000000000E+00  0.35740347158E-01  0.35744000000E-01  0.51099999109E-03 0. -1.
       11   -1    0    0    0    0 -0.00000000000E+00 -0.00000000000E+00 -0.35740347158E-01  0.35744000000E-01  0.51099999109E-03 0.  1.
       22    1    1    2    0    0  0.74269703855E-02  0.13130663427E-01 -0.32396903768E-01  0.35737005818E-01  0.00000000000E+00 0.  1.
  9000001    1    1    2    0    0 -0.74269703855E-02 -0.13130663427E-01  0.32396903768E-01  0.35750994182E-01  0.10000000475E-02 0. -1.
</event>
<event>
 4   0  0.4958067E-02  0.9118800E+02  0.7818609E-02  0.1379984E+01
      -11   -1    0    0    0    0  0.00000000000E+00  0.00000000000E+00  0.35740347158E-01  0.35744000000E-01  0.51099999109E-03 0. -1.
       11   -1    0    0    0    0 -0.00000000000E+00 -0.00000000000E+00 -0.35740347158E-01  0.35744000000E-01  0.51099999109E-03 0.  1.
       22    1    1    2    0    0 -0.19279130879E-02 -0.26002251807E-02 -0.35590104875E-01  0.35737005818E-01  0.00000000000E+00 0.  1.
  9000001    1    1    2    0    0  0.19279130879E-02  0.26002251807E-02  0.35590104875E-01  0.35750994182E-01  0.10000000475E-02 0. -1.
</event>
<event>
 4   0  0.4958067E-02  0.9118800E+02  0.7818609E-02  0.1379984E+01
      -11   -1    0    0    0    0  0.00000000000E+00  0.00000000000E+00  0.35740347158E-01  0.35744000000E-01  0.51099999109E-03 0.  1.
       11   -1    0    0    0    0 -0.00000000000E+00 -0.00000000000E+00 -0.35740347158E-01  0.35744000000E-01  0.51099999109E-03 0. -1.
       22    1    1    2    0    0  0.26862290751E-03  0.31391505754E-02 -0.35597853310E-01  0.35737005818E-01  0.00000000000E+00 0. -1.
  9000001    1    1    2    0    0 -0.26862290751E-03 -0.31391505754E-02  0.35597853310E-01  0.35750994182E-01  0.10000000475E-02 0.  1.
</event>
<event>
 4   0  0.4958067E-02  0.9118800E+02  0.7818609E-02  0.1379984E+01
      -11   -1    0    0    0    0  0.00000000000E+00  0.00000000000E+00  0.35740347158E-01  0.35744000000E-01  0.51099999109E-03 0.  1.
       11   -1    0    0    0    0 -0.00000000000E+00 -0.00000000000E+00 -0.35740347158E-01  0.35744000000E-01  0.51099999109E-03 0. -1.
       22    1    1    2    0    0 -0.37155368590E-02  0.97165125307E-02  0.34189439231E-01  0.35737005818E-01  0.00000000000E+00 0.  1.
  9000001    1    1    2    0    0  0.37155368590E-02 -0.97165125307E-02 -0.34189439231E-01  0.35750994182E-01  0.10000000475E-02 0. -1.
</event>
<event>
 4   0  0.4958067E-02  0.9118800E+02  0.7818609E-02  0.1379984E+01
      -11   -1    0    0    0    0  0.00000000000E+00  0.00000000000E+00  0.35740347158E-01  0.35744000000E-01  0.51099999109E-03 0. -1.
       11   -1    0    0    0    0 -0.00000000000E+00 -0.00000000000E+00 -0.35740347158E-01  0.35744000000E-01  0.51099999109E-03 0.  1.
       22    1    1    2    0    0 -0.50872991634E-02  0.93242543776E-03  0.35360762929E-01  0.35737005818E-01  0.00000000000E+00 0. -1.
  9000001    1    1    2    0    0  0.50872991634E-02 -0.93242543776E-03 -0.35360762929E-01  0.35750994182E-01  0.10000000475E-02 0.  1.
</event>
<event>
 4   0  0.4958067E-02  0.9118800E+02  0.7818609E-02  0.1379984E+01
      -11   -1    0    0    0    0  0.00000000000E+00  0.00000000000E+00  0.35740347158E-01  0.35744000000E-01  0.51099999109E-03 0. -1.
       11   -1    0    0    0    0 -0.00000000000E+00 -0.00000000000E+00 -0.35740347158E-01  0.35744000000E-01  0.51099999109E-03 0.  1.
       22    1    1    2    0    0 -0.99913998684E-03  0.48989777327E-02 -0.35385524178E-01  0.35737005818E-01  0.00000000000E+00 0.  1.
  9000001    1    1    2    0    0  0.99913998684E-03 -0.48989777327E-02  0.35385524178E-01  0.35750994182E-01  0.10000000475E-02 0. -1.
</event>
<event>
 4   0  0.4958067E-02  0.9118800E+02  0.7818609E-02  0.1379984E+01
      -11   -1    0    0    0    0  0.00000000000E+00  0.00000000000E+00  0.35740347158E-01  0.35744000000E-01  0.51099999109E-03 0.  1.
       11   -1    0    0    0    0 -0.00000000000E+00 -0.00000000000E+00 -0.35740347158E-01  0.35744000000E-01  0.51099999109E-03 0. -1.
       22    1    1    2    0    0  0.15148452773E-01 -0.32374583464E-02  0.32205229807E-01  0.35737005818E-01  0.00000000000E+00 0.  1.
  9000001    1    1    2    0    0 -0.15148452773E-01  0.32374583464E-02 -0.32205229807E-01  0.35750994182E-01  0.10000000475E-02 0. -1.
</event>
<event>
 4   0  0.4958067E-02  0.9118800E+02  0.7818609E-02  0.1379984E+01
      -11   -1    0    0    0    0  0.00000000000E+00  0.00000000000E+00  0.35740347158E-01  0.35744000000E-01  0.51099999109E-03 0. -1.
       11   -1    0    0    0    0 -0.00000000000E+00 -0.00000000000E+00 -0.35740347158E-01  0.35744000000E-01  0.51099999109E-03 0.  1.
       22    1    1    2    0    0  0.34040283199E-01  0.23884255118E-02  0.10615466461E-01  0.35737005818E-01  0.00000000000E+00 0. -1.
  9000001    1    1    2    0    0 -0.34040283199E-01 -0.23884255118E-02 -0.10615466461E-01  0.35750994182E-01  0.10000000475E-02 0.  1.
</event>
<event>
 4   0  0.4958067E-02  0.9118800E+02  0.7818609E-02  0.1379984E+01
      -11   -1    0    0    0    0  0.00000000000E+00  0.00000000000E+00  0.35740347158E-01  0.35744000000E-01  0.51099999109E-03 0.  1.
       11   -1    0    0    0    0 -0.00000000000E+00 -0.00000000000E+00 -0.35740347158E-01  0.35744000000E-01  0.51099999109E-03 0. -1.
       22    1    1    2    0    0 -0.14698807272E-01  0.51361261471E-03  0.32570152774E-01  0.35737005818E-01  0.00000000000E+00 0.  1.
  9000001    1    1    2    0    0  0.14698807272E-01 -0.51361261471E-03 -0.32570152774E-01  0.35750994182E-01  0.10000000475E-02 0. -1.
</event>
<event>
 4   0  0.4958067E-02  0.9118800E+02  0.7818609E-02  0.1379984E+01
      -11   -1    0    0    0    0  0.00000000000E+00  0.00000000000E+00  0.35740347158E-01  0.35744000000E-01  0.51099999109E-03 0.  1.
       11   -1    0    0    0    0 -0.00000000000E+00 -0.00000000000E+00 -0.35740347158E-01  0.35744000000E-01  0.51099999109E-03 0. -1.
       22    1    1    2    0    0 -0.53756939057E-02  0.27013423229E-03 -0.35329343716E-01  0.35737005818E-01  0.00000000000E+00 0. -1.
  9000001    1    1    2    0    0  0.53756939057E-02 -0.27013423229E-03  0.35329343716E-01  0.35750994182E-01  0.10000000475E-02 0.  1.
</event>
<event>
 4   0  0.4958067E-02  0.9118800E+02  0.7818609E-02  0.1379984E+01
      -11   -1    0    0    0    0  0.00000000000E+00  0.00000000000E+00  0.35740347158E-01  0.35744000000E-01  0.51099999109E-03 0. -1.
       11   -1    0    0    0    0 -0.00000000000E+00 -0.00000000000E+00 -0.35740347158E-01  0.35744000000E-01  0.51099999109E-03 0.  1.
       22    1    1    2    0    0 -0.16264954656E-01 -0.89244827959E-03 -0.31808621017E-01  0.35737005818E-01  0.00000000000E+00 0.  1.
  9000001    1    1    2    0    0  0.16264954656E-01  0.89244827959E-03  0.31808621017E-01  0.35750994182E-01  0.10000000475E-02 0. -1.
</event>
<event>
 4   0  0.4958067E-02  0.9118800E+02  0.7818609E-02  0.1379984E+01
      -11   -1    0    0    0    0  0.00000000000E+00  0.00000000000E+00  0.35740347158E-01  0.35744000000E-01  0.51099999109E-03 0.  1.
       11   -1    0    0    0    0 -0.00000000000E+00 -0.00000000000E+00 -0.35740347158E-01  0.35744000000E-01  0.51099999109E-03 0. -1.
       22    1    1    2    0    0  0.20357377808E-01 -0.49961999120E-02 -0.28943889512E-01  0.35737005818E-01  0.00000000000E+00 0. -1.
  9000001    1    1    2    0    0 -0.20357377808E-01  0.49961999120E-02  0.28943889512E-01  0.35750994182E-01  0.10000000475E-02 0.  1.
</event>
<event>
 4   0  0.4958067E-02  0.9118800E+02  0.7818609E-02  0.1379984E+01
      -11   -1    0    0    0    0  0.00000000000E+00  0.00000000000E+00  0.35740347158E-01  0.35744000000E-01  0.51099999109E-03 0.  1.
       11   -1    0    0    0    0 -0.00000000000E+00 -0.00000000000E+00 -0.35740347158E-01  0.35744000000E-01  0.51099999109E-03 0. -1.
       22    1    1    2    0    0 -0.20506692748E-02  0.14534828925E-01 -0.32583233242E-01  0.35737005818E-01  0.00000000000E+00 0. -1.
  9000001    1    1    2    0    0  0.20506692748E-02 -0.14534828925E-01  0.32583233242E-01  0.35750994182E-01  0.10000000475E-02 0.  1.
</event>
<event>
 4   0  0.4958067E-02  0.9118800E+02  0.7818609E-02  0.1379984E+01
      -11   -1    0    0    0    0  0.00000000000E+00  0.00000000000E+00  0.35740347158E-01  0.35744000000E-01  0.51099999109E-03 0.  1.
       11   -1    0    0    0    0 -0.00000000000E+00 -0.00000000000E+00 -0.35740347158E-01  0.35744000000E-01  0.51099999109E-03 0. -1.
       22    1    1    2    0    0  0.39772315486E-02  0.55860883361E-02 -0.35072935879E-01  0.35737005818E-01  0.00000000000E+00 0. -1.
  9000001    1    1    2    0    0 -0.39772315486E-02 -0.55860883361E-02  0.35072935879E-01  0.35750994182E-01  0.10000000475E-02 0.  1.
</event>
<event>
 4   0  0.4958067E-02  0.9118800E+02  0.7818609E-02  0.1379984E+01
      -11   -1    0    0    0    0  0.00000000000E+00  0.00000000000E+00  0.35740347158E-01  0.35744000000E-01  0.51099999109E-03 0.  1.
       11   -1    0    0    0    0 -0.00000000000E+00 -0.00000000000E+00 -0.35740347158E-01  0.35744000000E-01  0.51099999109E-03 0. -1.
       22    1    1    2    0    0  0.29464174261E-02 -0.62480721701E-02 -0.35062997638E-01  0.35737005818E-01  0.00000000000E+00 0. -1.
  9000001    1    1    2    0    0 -0.29464174261E-02  0.62480721701E-02  0.35062997638E-01  0.35750994182E-01  0.10000000475E-02 0.  1.
</event>
<event>
 4   0  0.4958067E-02  0.9118800E+02  0.7818609E-02  0.1379984E+01
      -11   -1    0    0    0    0  0.00000000000E+00  0.00000000000E+00  0.35740347158E-01  0.35744000000E-01  0.51099999109E-03 0. -1.
       11   -1    0    0    0    0 -0.00000000000E+00 -0.00000000000E+00 -0.35740347158E-01  0.35744000000E-01  0.51099999109E-03 0.  1.
       22    1    1    2    0    0  0.17176051070E-01 -0.10646380598E-01 -0.29474928917E-01  0.35737005818E-01  0.00000000000E+00 0.  1.
  9000001    1    1    2    0    0 -0.17176051070E-01  0.10646380598E-01  0.29474928917E-01  0.35750994182E-01  0.10000000475E-02 0. -1.
</event>
<event>
 4   0  0.4958067E-02  0.9118800E+02  0.7818609E-02  0.1379984E+01
      -11   -1    0    0    0    0  0.00000000000E+00  0.00000000000E+00  0.35740347158E-01  0.35744000000E-01  0.51099999109E-03 0. -1.
       11   -1    0    0    0    0 -0.00000000000E+00 -0.00000000000E+00 -0.35740347158E-01  0.35744000000E-01  0.51099999109E-03 0.  1.
       22    1    1    2    0    0  0.81415373503E-02  0.17228054880E-02 -0.34754580931E-01  0.35737005818E-01  0.00000000000E+00 0.  1.
  9000001    1    1    2    0    0 -0.81415373503E-02 -0.17228054880E-02  0.34754580931E-01  0.35750994182E-01  0.10000000475E-02 0. -1.
</event>
<event>
 4   0  0.4958067E-02  0.9118800E+02  0.7818609E-02  0.1379984E+01
      -11   -1    0    0    0    0  0.00000000000E+00  0.00000000000E+00  0.35740347158E-01  0.35744000000E-01  0.51099999109E-03 0. -1.
       11   -1    0    0    0    0 -0.00000000000E+00 -0.00000000000E+00 -0.35740347158E-01  0.35744000000E-01  0.51099999109E-03 0.  1.
       22    1    1    2    0    0 -0.27304740930E-01 -0.15502259090E-01  0.17066477982E-01  0.35737005818E-01  0.00000000000E+00 0. -1.
  9000001    1    1    2    0    0  0.27304740930E-01  0.15502259090E-01 -0.17066477982E-01  0.35750994182E-01  0.10000000475E-02 0.  1.
</event>
<event>
 4   0  0.4958067E-02  0.9118800E+02  0.7818609E-02  0.1379984E+01
      -11   -1    0    0    0    0  0.00000000000E+00  0.00000000000E+00  0.35740347158E-01  0.35744000000E-01  0.51099999109E-03 0.  1.
       11   -1    0    0    0    0 -0.00000000000E+00 -0.00000000000E+00 -0.35740347158E-01  0.35744000000E-01  0.51099999109E-03 0. -1.
       22    1    1    2    0    0  0.36510456289E-02  0.34135203840E-03  0.35548374498E-01  0.35737005818E-01  0.00000000000E+00 0.  1.
  9000001    1    1    2    0    0 -0.36510456289E-02 -0.34135203840E-03 -0.35548374498E-01  0.35750994182E-01  0.10000000475E-02 0. -1.
</event>
<event>
 4   0  0.4958067E-02  0.9118800E+02  0.7818609E-02  0.1379984E+01
      -11   -1    0    0    0    0  0.00000000000E+00  0.00000000000E+00  0.35740347158E-01  0.35744000000E-01  0.51099999109E-03 0.  1.
       11   -1    0    0    0    0 -0.00000000000E+00 -0.00000000000E+00 -0.35740347158E-01  0.35744000000E-01  0.51099999109E-03 0. -1.
       22    1    1    2    0    0  0.60052303531E-02  0.20279279440E-01 -0.28806624562E-01  0.35737005818E-01  0.00000000000E+00 0. -1.
  9000001    1    1    2    0    0 -0.60052303531E-02 -0.20279279440E-01  0.28806624562E-01  0.35750994182E-01  0.10000000475E-02 0.  1.
</event>
<event>
 4   0  0.4958067E-02  0.9118800E+02  0.7818609E-02  0.1379984E+01
      -11   -1    0    0    0    0  0.00000000000E+00  0.00000000000E+00  0.35740347158E-01  0.35744000000E-01  0.51099999109E-03 0. -1.
       11   -1    0    0    0    0 -0.00000000000E+00 -0.00000000000E+00 -0.35740347158E-01  0.35744000000E-01  0.51099999109E-03 0.  1.
       22    1    1    2    0    0 -0.15366373705E-01  0.19165734727E-01  0.25955399369E-01  0.35737005818E-01  0.00000000000E+00 0. -1.
  9000001    1    1    2    0    0  0.15366373705E-01 -0.19165734727E-01 -0.25955399369E-01  0.35750994182E-01  0.10000000475E-02 0.  1.
</event>
<event>
 4   0  0.4958067E-02  0.9118800E+02  0.7818609E-02  0.1379984E+01
      -11   -1    0    0    0    0  0.00000000000E+00  0.00000000000E+00  0.35740347158E-01  0.35744000000E-01  0.51099999109E-03 0.  1.
       11   -1    0    0    0    0 -0.00000000000E+00 -0.00000000000E+00 -0.35740347158E-01  0.35744000000E-01  0.51099999109E-03 0. -1.
       22    1    1    2    0    0 -0.25101014250E-02  0.33592471657E-02 -0.35490117416E-01  0.35737005818E-01  0.00000000000E+00 0. -1.
  9000001    1    1    2    0    0  0.25101014250E-02 -0.33592471657E-02  0.35490117416E-01  0.35750994182E-01  0.10000000475E-02 0.  1.
</event>
<event>
 4   0  0.4958067E-02  0.9118800E+02  0.7818609E-02  0.1379984E+01
      -11   -1    0    0    0    0  0.00000000000E+00  0.00000000000E+00  0.35740347158E-01  0.35744000000E-01  0.51099999109E-03 0.  1.
       11   -1    0    0    0    0 -0.00000000000E+00 -0.00000000000E+00 -0.35740347158E-01  0.35744000000E-01  0.51099999109E-03 0. -1.
       22    1    1    2    0    0  0.17875926612E-01 -0.64385309970E-02  0.30267641983E-01  0.35737005818E-01  0.00000000000E+00 0.  1.
  9000001    1    1    2    0    0 -0.17875926612E-01  0.64385309970E-02 -0.30267641983E-01  0.35750994182E-01  0.10000000475E-02 0. -1.
</event>
<event>
 4   0  0.4958067E-02  0.9118800E+02  0.7818609E-02  0.1379984E+01
      -11   -1    0    0    0    0  0.00000000000E+00  0.00000000000E+00  0.35740347158E-01  0.35744000000E-01  0.51099999109E-03 0. -1.
       11   -1    0    0    0    0 -0.00000000000E+00 -0.00000000000E+00 -0.35740347158E-01  0.35744000000E-01  0.51099999109E-03 0.  1.
       22    1    1    2    0    0 -0.13119916002E-02  0.33174432546E-01  0.13223815189E-01  0.35737005818E-01  0.00000000000E+00 0.  1.
  9000001    1    1    2    0    0  0.13119916002E-02 -0.33174432546E-01 -0.13223815189E-01  0.35750994182E-01  0.10000000475E-02 0. -1.
</event>
<event>
 4   0  0.4958067E-02  0.9118800E+02  0.7818609E-02  0.1379984E+01
      -11   -1    0    0    0    0  0.00000000000E+00  0.00000000000E+00  0.35740347158E-01  0.35744000000E-01  0.51099999109E-03 0. -1.
       11   -1    0    0    0    0 -0.00000000000E+00 -0.00000000000E+00 -0.35740347158E-01  0.35744000000E-01  0.51099999109E-03 0.  1.
       22    1    1    2    0    0 -0.67105630301E-02 -0.40606902643E-02  0.34865638145E-01  0.35737005818E-01  0.00000000000E+00 0. -1.
  9000001    1    1    2    0    0  0.67105630301E-02  0.40606902643E-02 -0.34865638145E-01  0.35750994182E-01  0.10000000475E-02 0.  1.
</event>
<event>
 4   0  0.4958067E-02  0.9118800E+02  0.7818609E-02  0.1379984E+01
      -11   -1    0    0    0    0  0.00000000000E+00  0.00000000000E+00  0.35740347158E-01  0.35744000000E-01  0.51099999109E-03 0.  1.
       11   -1    0    0    0    0 -0.00000000000E+00 -0.00000000000E+00 -0.35740347158E-01  0.35744000000E-01  0.51099999109E-03 0. -1.
       22    1    1    2    0    0  0.22267162790E-01 -0.32329755720E-02  0.27764274079E-01  0.35737005818E-01  0.00000000000E+00 0.  1.
  9000001    1    1    2    0    0 -0.22267162790E-01  0.32329755720E-02 -0.27764274079E-01  0.35750994182E-01  0.10000000475E-02 0. -1.
</event>
<event>
 4   0  0.4958067E-02  0.9118800E+02  0.7818609E-02  0.1379984E+01
      -11   -1    0    0    0    0  0.00000000000E+00  0.00000000000E+00  0.35740347158E-01  0.35744000000E-01  0.51099999109E-03 0.  1.
       11   -1    0    0    0    0 -0.00000000000E+00 -0.00000000000E+00 -0.35740347158E-01  0.35744000000E-01  0.51099999109E-03 0. -1.
       22    1    1    2    0    0 -0.39387962236E-02  0.32255140318E-02 -0.35372525050E-01  0.35737005818E-01  0.00000000000E+00 0. -1.
  9000001    1    1    2    0    0  0.39387962236E-02 -0.32255140318E-02  0.35372525050E-01  0.35750994182E-01  0.10000000475E-02 0.  1.
</event>
<event>
 4   0  0.4958067E-02  0.9118800E+02  0.7818609E-02  0.1379984E+01
      -11   -1    0    0    0    0  0.00000000000E+00  0.00000000000E+00  0.35740347158E-01  0.35744000000E-01  0.51099999109E-03 0.  1.
       11   -1    0    0    0    0 -0.00000000000E+00 -0.00000000000E+00 -0.35740347158E-01  0.35744000000E-01  0.51099999109E-03 0. -1.
       22    1    1    2    0    0  0.15792456525E-01 -0.32669984732E-02 -0.31891356552E-01  0.35737005818E-01  0.00000000000E+00 0. -1.
  9000001    1    1    2    0    0 -0.15792456525E-01  0.32669984732E-02  0.31891356552E-01  0.35750994182E-01  0.10000000475E-02 0.  1.
</event>
<event>
 4   0  0.4958067E-02  0.9118800E+02  0.7818609E-02  0.1379984E+01
      -11   -1    0    0    0    0  0.00000000000E+00  0.00000000000E+00  0.35740347158E-01  0.35744000000E-01  0.51099999109E-03 0.  1.
       11   -1    0    0    0    0 -0.00000000000E+00 -0.00000000000E+00 -0.35740347158E-01  0.35744000000E-01  0.51099999109E-03 0. -1.
       22    1    1    2    0    0  0.15092388347E-01 -0.28215384704E-01 -0.15913687972E-01  0.35737005818E-01  0.00000000000E+00 0. -1.
  9000001    1    1    2    0    0 -0.15092388347E-01  0.28215384704E-01  0.15913687972E-01  0.35750994182E-01  0.10000000475E-02 0.  1.
</event>
<event>
 4   0  0.4958067E-02  0.9118800E+02  0.7818609E-02  0.1379984E+01
      -11   -1    0    0    0    0  0.00000000000E+00  0.00000000000E+00  0.35740347158E-01  0.35744000000E-01  0.51099999109E-03 0. -1.
       11   -1    0    0    0    0 -0.00000000000E+00 -0.00000000000E+00 -0.35740347158E-01  0.35744000000E-01  0.51099999109E-03 0.  1.
       22    1    1    2    0    0 -0.29038719394E-02 -0.61416214032E-02 -0.35085347357E-01  0.35737005818E-01  0.00000000000E+00 0.  1.
  9000001    1    1    2    0    0  0.29038719394E-02  0.61416214032E-02  0.35085347357E-01  0.35750994182E-01  0.10000000475E-02 0. -1.
</event>
<event>
 4   0  0.4958067E-02  0.9118800E+02  0.7818609E-02  0.1379984E+01
      -11   -1    0    0    0    0  0.00000000000E+00  0.00000000000E+00  0.35740347158E-01  0.35744000000E-01  0.51099999109E-03 0. -1.
       11   -1    0    0    0    0 -0.00000000000E+00 -0.00000000000E+00 -0.35740347158E-01  0.35744000000E-01  0.51099999109E-03 0.  1.
       22    1    1    2    0    0  0.39636631385E-02  0.43990183988E-02  0.35243036142E-01  0.35737005818E-01  0.00000000000E+00 0. -1.
  9000001    1    1    2    0    0 -0.39636631385E-02 -0.43990183988E-02 -0.35243036142E-01  0.35750994182E-01  0.10000000475E-02 0.  1.
</event>
<event>
 4   0  0.4958067E-02  0.9118800E+02  0.7818609E-02  0.1379984E+01
      -11   -1    0    0    0    0  0.00000000000E+00  0.00000000000E+00  0.35740347158E-01  0.35744000000E-01  0.51099999109E-03 0. -1.
       11   -1    0    0    0    0 -0.00000000000E+00 -0.00000000000E+00 -0.35740347158E-01  0.35744000000E-01  0.51099999109E-03 0.  1.
       22    1    1    2    0    0 -0.26237395130E-01  0.16481733466E-02  0.24207771609E-01  0.35737005818E-01  0.00000000000E+00 0. -1.
  9000001    1    1    2    0    0  0.26237395130E-01 -0.16481733466E-02 -0.24207771609E-01  0.35750994182E-01  0.10000000475E-02 0.  1.
</event>
<event>
 4   0  0.4958067E-02  0.9118800E+02  0.7818609E-02  0.1379984E+01
      -11   -1    0    0    0    0  0.00000000000E+00  0.00000000000E+00  0.35740347158E-01  0.35744000000E-01  0.51099999109E-03 0. -1.
       11   -1    0    0    0    0 -0.00000000000E+00 -0.00000000000E+00 -0.35740347158E-01  0.35744000000E-01  0.51099999109E-03 0.  1.
       22    1    1    2    0    0 -0.26771690926E-01  0.12974617749E-01 -0.19800743524E-01  0.35737005818E-01  0.00000000000E+00 0.  1.
  9000001    1    1    2    0    0  0.26771690926E-01 -0.12974617749E-01  0.19800743524E-01  0.35750994182E-01  0.10000000475E-02 0. -1.
</event>
<event>
 4   0  0.4958067E-02  0.9118800E+02  0.7818609E-02  0.1379984E+01
      -11   -1    0    0    0    0  0.00000000000E+00  0.00000000000E+00  0.35740347158E-01  0.35744000000E-01  0.51099999109E-03 0. -1.
       11   -1    0    0    0    0 -0.00000000000E+00 -0.00000000000E+00 -0.35740347158E-01  0.35744000000E-01  0.51099999109E-03 0.  1.
       22    1    1    2    0    0 -0.19972666306E-02 -0.27005127715E-02 -0.35578810290E-01  0.35737005818E-01  0.00000000000E+00 0.  1.
  9000001    1    1    2    0    0  0.19972666306E-02  0.27005127715E-02  0.35578810290E-01  0.35750994182E-01  0.10000000475E-02 0. -1.
</event>
<event>
 4   0  0.4958067E-02  0.9118800E+02  0.7818609E-02  0.1379984E+01
      -11   -1    0    0    0    0  0.00000000000E+00  0.00000000000E+00  0.35740347158E-01  0.35744000000E-01  0.51099999109E-03 0. -1.
       11   -1    0    0    0    0 -0.00000000000E+00 -0.00000000000E+00 -0.35740347158E-01  0.35744000000E-01  0.51099999109E-03 0.  1.
       22    1    1    2    0    0  0.30386690070E-02  0.18797637048E-01  0.30241509832E-01  0.35737005818E-01  0.00000000000E+00 0. -1.
  9000001    1    1    2    0    0 -0.30386690070E-02 -0.18797637048E-01 -0.30241509832E-01  0.35750994182E-01  0.10000000475E-02 0.  1.
</event>
<event>
 4   0  0.4958067E-02  0.9118800E+02  0.7818609E-02  0.1379984E+01
      -11   -1    0    0    0    0  0.00000000000E+00  0.00000000000E+00  0.35740347158E-01  0.35744000000E-01  0.51099999109E-03 0.  1.
       11   -1    0    0    0    0 -0.00000000000E+00 -0.00000000000E+00 -0.35740347158E-01  0.35744000000E-01  0.51099999109E-03 0. -1.
       22    1    1    2    0    0 -0.16161354684E-01  0.18247383745E-01  0.26133832212E-01  0.35737005818E-01  0.00000000000E+00 0.  1.
  9000001    1    1    2    0    0  0.16161354684E-01 -0.18247383745E-01 -0.26133832212E-01  0.35750994182E-01  0.10000000475E-02 0. -1.
</event>
<event>
 4   0  0.4958067E-02  0.9118800E+02  0.7818609E-02  0.1379984E+01
      -11   -1    0    0    0    0  0.00000000000E+00  0.00000000000E+00  0.35740347158E-01  0.35744000000E-01  0.51099999109E-03 0.  1.
       11   -1    0    0    0    0 -0.00000000000E+00 -0.00000000000E+00 -0.35740347158E-01  0.35744000000E-01  0.51099999109E-03 0. -1.
       22    1    1    2    0    0  0.59962519330E-02  0.40331318819E-02  0.34998748475E-01  0.35737005818E-01  0.00000000000E+00 0.  1.
  9000001    1    1    2    0    0 -0.59962519330E-02 -0.40331318819E-02 -0.34998748475E-01  0.35750994182E-01  0.10000000475E-02 0. -1.
</event>
<event>
 4   0  0.4958067E-02  0.9118800E+02  0.7818609E-02  0.1379984E+01
      -11   -1    0    0    0    0  0.00000000000E+00  0.00000000000E+00  0.35740347158E-01  0.35744000000E-01  0.51099999109E-03 0. -1.
       11   -1    0    0    0    0 -0.00000000000E+00 -0.00000000000E+00 -0.35740347158E-01  0.35744000000E-01  0.51099999109E-03 0.  1.
       22    1    1    2    0    0  0.22765713242E-01  0.17859278858E-01  0.20973841902E-01  0.35737005818E-01  0.00000000000E+00 0. -1.
  9000001    1    1    2    0    0 -0.22765713242E-01 -0.17859278858E-01 -0.20973841902E-01  0.35750994182E-01  0.10000000475E-02 0.  1.
</event>
<event>
 4   0  0.4958067E-02  0.9118800E+02  0.7818609E-02  0.1379984E+01
      -11   -1    0    0    0    0  0.00000000000E+00  0.00000000000E+00  0.35740347158E-01  0.35744000000E-01  0.51099999109E-03 0.  1.
       11   -1    0    0    0    0 -0.00000000000E+00 -0.00000000000E+00 -0.35740347158E-01  0.35744000000E-01  0.51099999109E-03 0. -1.
       22    1    1    2    0    0  0.22209629617E-02 -0.44957126257E-02  0.35383463318E-01  0.35737005818E-01  0.00000000000E+00 0.  1.
  9000001    1    1    2    0    0 -0.22209629617E-02  0.44957126257E-02 -0.35383463318E-01  0.35750994182E-01  0.10000000475E-02 0. -1.
</event>
<event>
 4   0  0.4958067E-02  0.9118800E+02  0.7818609E-02  0.1379984E+01
      -11   -1    0    0    0    0  0.00000000000E+00  0.00000000000E+00  0.35740347158E-01  0.35744000000E-01  0.51099999109E-03 0.  1.
       11   -1    0    0    0    0 -0.00000000000E+00 -0.00000000000E+00 -0.35740347158E-01  0.35744000000E-01  0.51099999109E-03 0. -1.
       22    1    1    2    0    0 -0.75711739913E-02  0.79476671225E-03 -0.34916747488E-01  0.35737005818E-01  0.00000000000E+00 0. -1.
  9000001    1    1    2    0    0  0.75711739913E-02 -0.79476671225E-03  0.34916747488E-01  0.35750994182E-01  0.10000000475E-02 0.  1.
</event>
<event>
 4   0  0.4958067E-02  0.9118800E+02  0.7818609E-02  0.1379984E+01
      -11   -1    0    0    0    0  0.00000000000E+00  0.00000000000E+00  0.35740347158E-01  0.35744000000E-01  0.51099999109E-03 0.  1.
       11   -1    0    0    0    0 -0.00000000000E+00 -0.00000000000E+00 -0.35740347158E-01  0.35744000000E-01  0.51099999109E-03 0. -1.
       22    1    1    2    0    0  0.60069926839E-02 -0.28221781559E-01 -0.21085081679E-01  0.35737005818E-01  0.00000000000E+00 0. -1.
  9000001    1    1    2    0    0 -0.60069926839E-02  0.28221781559E-01  0.21085081679E-01  0.35750994182E-01  0.10000000475E-02 0.  1.
</event>
<event>
 4   0  0.4958067E-02  0.9118800E+02  0.7818609E-02  0.1379984E+01
      -11   -1    0    0    0    0  0.00000000000E+00  0.00000000000E+00  0.35740347158E-01  0.35744000000E-01  0.51099999109E-03 0.  1.
       11   -1    0    0    0    0 -0.00000000000E+00 -0.00000000000E+00 -0.35740347158E-01  0.35744000000E-01  0.51099999109E-03 0. -1.
       22    1    1    2    0    0 -0.29894863402E-02  0.56561355735E-02 -0.35159702596E-01  0.35737005818E-01  0.00000000000E+00 0. -1.
  9000001    1    1    2    0    0  0.29894863402E-02 -0.56561355735E-02  0.35159702596E-01  0.35750994182E-01  0.10000000475E-02 0.  1.
</event>
<event>
 4   0  0.4958067E-02  0.9118800E+02  0.7818609E-02  0.1379984E+01
      -11   -1    0    0    0    0  0.00000000000E+00  0.00000000000E+00  0.35740347158E-01  0.35744000000E-01  0.51099999109E-03 0.  1.
       11   -1    0    0    0    0 -0.00000000000E+00 -0.00000000000E+00 -0.35740347158E-01  0.35744000000E-01  0.51099999109E-03 0. -1.
       22    1    1    2    0    0  0.25078582855E-02 -0.26277885728E-02 -0.35551919201E-01  0.35737005818E-01  0.00000000000E+00 0. -1.
  9000001    1    1    2    0    0 -0.25078582855E-02  0.26277885728E-02  0.35551919201E-01  0.35750994182E-01  0.10000000475E-02 0.  1.
</event>
<event>
 4   0  0.4958067E-02  0.9118800E+02  0.7818609E-02  0.1379984E+01
      -11   -1    0    0    0    0  0.00000000000E+00  0.00000000000E+00  0.35740347158E-01  0.35744000000E-01  0.51099999109E-03 0. -1.
       11   -1    0    0    0    0 -0.00000000000E+00 -0.00000000000E+00 -0.35740347158E-01  0.35744000000E-01  0.51099999109E-03 0.  1.
       22    1    1    2    0    0 -0.74850540605E-03  0.63489674653E-02 -0.35160545170E-01  0.35737005818E-01  0.00000000000E+00 0.  1.
  9000001    1    1    2    0    0  0.74850540605E-03 -0.63489674653E-02  0.35160545170E-01  0.35750994182E-01  0.10000000475E-02 0. -1.
</event>
<event>
 4   0  0.4958067E-02  0.9118800E+02  0.7818609E-02  0.1379984E+01
      -11   -1    0    0    0    0  0.00000000000E+00  0.00000000000E+00  0.35740347158E-01  0.35744000000E-01  0.51099999109E-03 0. -1.
       11   -1    0    0    0    0 -0.00000000000E+00 -0.00000000000E+00 -0.35740347158E-01  0.35744000000E-01  0.51099999109E-03 0.  1.
       22    1    1    2    0    0 -0.37661507957E-02  0.33869300324E-02 -0.35376240586E-01  0.35737005818E-01  0.00000000000E+00 0.  1.
  9000001    1    1    2    0    0  0.37661507957E-02 -0.33869300324E-02  0.35376240586E-01  0.35750994182E-01  0.10000000475E-02 0. -1.
</event>
<event>
 4   0  0.4958067E-02  0.9118800E+02  0.7818609E-02  0.1379984E+01
      -11   -1    0    0    0    0  0.00000000000E+00  0.00000000000E+00  0.35740347158E-01  0.35744000000E-01  0.51099999109E-03 0. -1.
       11   -1    0    0    0    0 -0.00000000000E+00 -0.00000000000E+00 -0.35740347158E-01  0.35744000000E-01  0.51099999109E-03 0.  1.
       22    1    1    2    0    0 -0.19882101134E-01 -0.12660124017E-01  0.26861811169E-01  0.35737005818E-01  0.00000000000E+00 0. -1.
  9000001    1    1    2    0    0  0.19882101134E-01  0.12660124017E-01 -0.26861811169E-01  0.35750994182E-01  0.10000000475E-02 0.  1.
</event>
<event>
 4   0  0.4958067E-02  0.9118800E+02  0.7818609E-02  0.1379984E+01
      -11   -1    0    0    0    0  0.00000000000E+00  0.00000000000E+00  0.35740347158E-01  0.35744000000E-01  0.51099999109E-03 0.  1.
       11   -1    0    0    0    0 -0.00000000000E+00 -0.00000000000E+00 -0.35740347158E-01  0.35744000000E-01  0.51099999109E-03 0. -1.
       22    1    1    2    0    0 -0.24299350870E-02 -0.33415126028E-02 -0.35497370239E-01  0.35737005818E-01  0.00000000000E+00 0. -1.
  9000001    1    1    2    0    0  0.24299350870E-02  0.33415126028E-02  0.35497370239E-01  0.35750994182E-01  0.10000000475E-02 0.  1.
</event>
<event>
 4   0  0.4958067E-02  0.9118800E+02  0.7818609E-02  0.1379984E+01
      -11   -1    0    0    0    0  0.00000000000E+00  0.00000000000E+00  0.35740347158E-01  0.35744000000E-01  0.51099999109E-03 0.  1.
       11   -1    0    0    0    0 -0.00000000000E+00 -0.00000000000E+00 -0.35740347158E-01  0.35744000000E-01  0.51099999109E-03 0. -1.
       22    1    1    2    0    0  0.51238810844E-03 -0.42844906157E-02  0.35475543455E-01  0.35737005818E-01  0.00000000000E+00 0.  1.
  9000001    1    1    2    0    0 -0.51238810844E-03  0.42844906157E-02 -0.35475543455E-01  0.35750994182E-01  0.10000000475E-02 0. -1.
</event>
<event>
 4   0  0.4958067E-02  0.9118800E+02  0.7818609E-02  0.1379984E+01
      -11   -1    0    0    0    0  0.00000000000E+00  0.00000000000E+00  0.35740347158E-01  0.35744000000E-01  0.51099999109E-03 0.  1.
       11   -1    0    0    0    0 -0.00000000000E+00 -0.00000000000E+00 -0.35740347158E-01  0.35744000000E-01  0.51099999109E-03 0. -1.
       22    1    1    2    0    0 -0.18436104724E-02  0.53321874084E-02  0.35288843318E-01  0.35737005818E-01  0.00000000000E+00 0.  1.
  9000001    1    1    2    0    0  0.18436104724E-02 -0.53321874084E-02 -0.35288843318E-01  0.35750994182E-01  0.10000000475E-02 0. -1.
</event>
<event>
 4   0  0.4958067E-02  0.9118800E+02  0.7818609E-02  0.1379984E+01
      -11   -1    0    0    0    0  0.00000000000E+00  0.00000000000E+00  0.35740347158E-01  0.35744000000E-01  0.51099999109E-03 0. -1.
       11   -1    0    0    0    0 -0.00000000000E+00 -0.00000000000E+00 -0.35740347158E-01  0.35744000000E-01  0.51099999109E-03 0.  1.
       22    1    1    2    0    0  0.14180878645E-01 -0.26040124360E-01  0.19948638777E-01  0.35737005818E-01  0.00000000000E+00 0. -1.
  9000001    1    1    2    0    0 -0.14180878645E-01  0.26040124360E-01 -0.19948638777E-01  0.35750994182E-01  0.10000000475E-02 0.  1.
</event>
<event>
 4   0  0.4958067E-02  0.9118800E+02  0.7818609E-02  0.1379984E+01
      -11   -1    0    0    0    0  0.00000000000E+00  0.00000000000E+00  0.35740347158E-01  0.35744000000E-01  0.51099999109E-03 0.  1.
       11   -1    0    0    0    0 -0.00000000000E+00 -0.00000000000E+00 -0.35740347158E-01  0.35744000000E-01  0.51099999109E-03 0. -1.
       22    1    1    2    0    0  0.27345993285E-01  0.22443030666E-01  0.50636558601E-02  0.35737005818E-01  0.00000000000E+00 0.  1.
  9000001    1    1    2    0    0 -0.27345993285E-01 -0.22443030666E-01 -0.50636558601E-02  0.35750994182E-01  0.10000000475E-02 0. -1.
</event>
<event>
 4   0  0.4958067E-02  0.9118800E+02  0.7818609E-02  0.1379984E+01
      -11   -1    0    0    0    0  0.00000000000E+00  0.00000000000E+00  0.35740347158E-01  0.35744000000E-01  0.51099999109E-03 0.  1.
       11   -1    0    0    0    0 -0.00000000000E+00 -0.00000000000E+00 -0.35740347158E-01  0.35744000000E-01  0.51099999109E-03 0. -1.
       22    1    1    2    0    0 -0.18918526978E-01  0.49393194319E-02  0.29913643132E-01  0.35737005818E-01  0.00000000000E+00 0.  1.
  9000001    1    1    2    0    0  0.18918526978E-01 -0.49393194319E-02 -0.29913643132E-01  0.35750994182E-01  0.10000000475E-02 0. -1.
</event>
<event>
 4   0  0.4958067E-02  0.9118800E+02  0.7818609E-02  0.1379984E+01
      -11   -1    0    0    0    0  0.00000000000E+00  0.00000000000E+00  0.35740347158E-01  0.35744000000E-01  0.51099999109E-03 0. -1.
       11   -1    0    0    0    0 -0.00000000000E+00 -0.00000000000E+00 -0.35740347158E-01  0.35744000000E-01  0.51099999109E-03 0.  1.
       22    1    1    2    0    0  0.11006575894E-01  0.21185583422E-01 -0.26592478768E-01  0.35737005818E-01  0.00000000000E+00 0.  1.
  9000001    1    1    2    0    0 -0.11006575894E-01 -0.21185583422E-01  0.26592478768E-01  0.35750994182E-01  0.10000000475E-02 0. -1.
</event>
<event>
 4   0  0.4958067E-02  0.9118800E+02  0.7818609E-02  0.1379984E+01
      -11   -1    0    0    0    0  0.00000000000E+00  0.00000000000E+00  0.35740347158E-01  0.35744000000E-01  0.51099999109E-03 0. -1.
       11   -1    0    0    0    0 -0.00000000000E+00 -0.00000000000E+00 -0.35740347158E-01  0.35744000000E-01  0.51099999109E-03 0.  1.
       22    1    1    2    0    0  0.13029554790E-01  0.33288937074E-03  0.33275418427E-01  0.35737005818E-01  0.00000000000E+00 0. -1.
  9000001    1    1    2    0    0 -0.13029554790E-01 -0.33288937074E-03 -0.33275418427E-01  0.35750994182E-01  0.10000000475E-02 0.  1.
</event>
<event>
 4   0  0.4958067E-02  0.9118800E+02  0.7818609E-02  0.1379984E+01
      -11   -1    0    0    0    0  0.00000000000E+00  0.00000000000E+00  0.35740347158E-01  0.35744000000E-01  0.51099999109E-03 0.  1.
       11   -1    0    0    0    0 -0.00000000000E+00 -0.00000000000E+00 -0.35740347158E-01  0.35744000000E-01  0.51099999109E-03 0. -1.
       22    1    1    2    0    0 -0.20337450129E-01 -0.16528886128E-01 -0.24296453044E-01  0.35737005818E-01  0.00000000000E+00 0. -1.
  9000001    1    1    2    0    0  0.20337450129E-01  0.16528886128E-01  0.24296453044E-01  0.35750994182E-01  0.10000000475E-02 0.  1.
</event>
<event>
 4   0  0.4958067E-02  0.9118800E+02  0.7818609E-02  0.1379984E+01
      -11   -1    0    0    0    0  0.00000000000E+00  0.00000000000E+00  0.35740347158E-01  0.35744000000E-01  0.51099999109E-03 0.  1.
       11   -1    0    0    0    0 -0.00000000000E+00 -0.00000000000E+00 -0.35740347158E-01  0.35744000000E-01  0.51099999109E-03 0. -1.
       22    1    1    2    0    0  0.31266892736E-02 -0.14195720438E-01  0.32647188551E-01  0.35737005818E-01  0.00000000000E+00 0.  1.
  9000001    1    1    2    0    0 -0.31266892736E-02  0.14195720438E-01 -0.32647188551E-01  0.35750994182E-01  0.10000000475E-02 0. -1.
</event>
<event>
 4   0  0.4958067E-02  0.9118800E+02  0.7818609E-02  0.1379984E+01
      -11   -1    0    0    0    0  0.00000000000E+00  0.00000000000E+00  0.35740347158E-01  0.35744000000E-01  0.51099999109E-03 0.  1.
       11   -1    0    0    0    0 -0.00000000000E+00 -0.00000000000E+00 -0.35740347158E-01  0.35744000000E-01  0.51099999109E-03 0. -1.
       22    1    1    2    0    0  0.28213945753E-02  0.14612421015E-02  0.35595478492E-01  0.35737005818E-01  0.00000000000E+00 0.  1.
  9000001    1    1    2    0    0 -0.28213945753E-02 -0.14612421015E-02 -0.35595478492E-01  0.35750994182E-01  0.10000000475E-02 0. -1.
</event>
<event>
 4   0  0.4958067E-02  0.9118800E+02  0.7818609E-02  0.1379984E+01
      -11   -1    0    0    0    0  0.00000000000E+00  0.00000000000E+00  0.35740347158E-01  0.35744000000E-01  0.51099999109E-03 0. -1.
       11   -1    0    0    0    0 -0.00000000000E+00 -0.00000000000E+00 -0.35740347158E-01  0.35744000000E-01  0.51099999109E-03 0.  1.
       22    1    1    2    0    0  0.11378051097E-01 -0.24964052583E-02  0.33785226045E-01  0.35737005818E-01  0.00000000000E+00 0. -1.
  9000001    1    1    2    0    0 -0.11378051097E-01  0.24964052583E-02 -0.33785226045E-01  0.35750994182E-01  0.10000000475E-02 0.  1.
</event>
<event>
 4   0  0.4958067E-02  0.9118800E+02  0.7818609E-02  0.1379984E+01
      -11   -1    0    0    0    0  0.00000000000E+00  0.00000000000E+00  0.35740347158E-01  0.35744000000E-01  0.51099999109E-03 0. -1.
       11   -1    0    0    0    0 -0.00000000000E+00 -0.00000000000E+00 -0.35740347158E-01  0.35744000000E-01  0.51099999109E-03 0.  1.
       22    1    1    2    0    0  0.11782388117E-01  0.12661686666E-01 -0.31272841347E-01  0.35737005818E-01  0.00000000000E+00 0.  1.
  9000001    1    1    2    0    0 -0.11782388117E-01 -0.12661686666E-01  0.31272841347E-01  0.35750994182E-01  0.10000000475E-02 0. -1.
</event>
<event>
 4   0  0.4958067E-02  0.9118800E+02  0.7818609E-02  0.1379984E+01
      -11   -1    0    0    0    0  0.00000000000E+00  0.00000000000E+00  0.35740347158E-01  0.35744000000E-01  0.51099999109E-03 0. -1.
       11   -1    0    0    0    0 -0.00000000000E+00 -0.00000000000E+00 -0.35740347158E-01  0.35744000000E-01  0.51099999109E-03 0.  1.
       22    1    1    2    0    0  0.33739485940E-02  0.14397187631E-02  0.35548238573E-01  0.35737005818E-01  0.00000000000E+00 0. -1.
  9000001    1    1    2    0    0 -0.33739485940E-02 -0.14397187631E-02 -0.35548238573E-01  0.35750994182E-01  0.10000000475E-02 0.  1.
</event>
<event>
 4   0  0.4958067E-02  0.9118800E+02  0.7818609E-02  0.1379984E+01
      -11   -1    0    0    0    0  0.00000000000E+00  0.00000000000E+00  0.35740347158E-01  0.35744000000E-01  0.51099999109E-03 0. -1.
       11   -1    0    0    0    0 -0.00000000000E+00 -0.00000000000E+00 -0.35740347158E-01  0.35744000000E-01  0.51099999109E-03 0.  1.
       22    1    1    2    0    0 -0.10065048277E-01  0.14573756685E-02  0.34259370167E-01  0.35737005818E-01  0.00000000000E+00 0. -1.
  9000001    1    1    2    0    0  0.10065048277E-01 -0.14573756685E-02 -0.34259370167E-01  0.35750994182E-01  0.10000000475E-02 0.  1.
</event>
<event>
 4   0  0.4958067E-02  0.9118800E+02  0.7818609E-02  0.1379984E+01
      -11   -1    0    0    0    0  0.00000000000E+00  0.00000000000E+00  0.35740347158E-01  0.35744000000E-01  0.51099999109E-03 0. -1.
       11   -1    0    0    0    0 -0.00000000000E+00 -0.00000000000E+00 -0.35740347158E-01  0.35744000000E-01  0.51099999109E-03 0.  1.
       22    1    1    2    0    0  0.11673805520E-01 -0.18120984591E-01  0.28504135963E-01  0.35737005818E-01  0.00000000000E+00 0. -1.
  9000001    1    1    2    0    0 -0.11673805520E-01  0.18120984591E-01 -0.28504135963E-01  0.35750994182E-01  0.10000000475E-02 0.  1.
</event>
<event>
 4   0  0.4958067E-02  0.9118800E+02  0.7818609E-02  0.1379984E+01
      -11   -1    0    0    0    0  0.00000000000E+00  0.00000000000E+00  0.35740347158E-01  0.35744000000E-01  0.51099999109E-03 0. -1.
       11   -1    0    0    0    0 -0.00000000000E+00 -0.00000000000E+00 -0.35740347158E-01  0.35744000000E-01  0.51099999109E-03 0.  1.
       22    1    1    2    0    0 -0.87343598899E-02  0.37837944941E-02  0.34446007627E-01  0.35737005818E-01  0.00000000000E+00 0. -1.
  9000001    1    1    2    0    0  0.87343598899E-02 -0.37837944941E-02 -0.34446007627E-01  0.35750994182E-01  0.10000000475E-02 0.  1.
</event>
<event>
 4   0  0.4958067E-02  0.9118800E+02  0.7818609E-02  0.1379984E+01
      -11   -1    0    0    0    0  0.00000000000E+00  0.00000000000E+00  0.35740347158E-01  0.35744000000E-01  0.51099999109E-03 0. -1.
       11   -1    0    0    0    0 -0.00000000000E+00 -0.00000000000E+00 -0.35740347158E-01  0.35744000000E-01  0.51099999109E-03 0. -1.
       22    1    1    2    0    0  0.40880696641E-02 -0.14640313089E-02 -0.35472212838E-01  0.35737005818E-01  0.00000000000E+00 0. -1.
  9000001    1    1    2    0    0 -0.40880696641E-02  0.14640313089E-02  0.35472212838E-01  0.35750994182E-01  0.10000000475E-02 0. -1.
</event>
<event>
 4   0  0.4958067E-02  0.9118800E+02  0.7818609E-02  0.1379984E+01
      -11   -1    0    0    0    0  0.00000000000E+00  0.00000000000E+00  0.35740347158E-01  0.35744000000E-01  0.51099999109E-03 0.  1.
       11   -1    0    0    0    0 -0.00000000000E+00 -0.00000000000E+00 -0.35740347158E-01  0.35744000000E-01  0.51099999109E-03 0. -1.
       22    1    1    2    0    0 -0.94501424898E-02  0.15354200843E-03 -0.34464544341E-01  0.35737005818E-01  0.00000000000E+00 0. -1.
  9000001    1    1    2    0    0  0.94501424898E-02 -0.15354200843E-03  0.34464544341E-01  0.35750994182E-01  0.10000000475E-02 0.  1.
</event>
<event>
 4   0  0.4958067E-02  0.9118800E+02  0.7818609E-02  0.1379984E+01
      -11   -1    0    0    0    0  0.00000000000E+00  0.00000000000E+00  0.35740347158E-01  0.35744000000E-01  0.51099999109E-03 0.  1.
       11   -1    0    0    0    0 -0.00000000000E+00 -0.00000000000E+00 -0.35740347158E-01  0.35744000000E-01  0.51099999109E-03 0. -1.
       22    1    1    2    0    0 -0.17467938010E-02 -0.32612482991E-02  0.35544993400E-01  0.35737005818E-01  0.00000000000E+00 0.  1.
  9000001    1    1    2    0    0  0.17467938010E-02  0.32612482991E-02 -0.35544993400E-01  0.35750994182E-01  0.10000000475E-02 0. -1.
</event>
<event>
 4   0  0.4958067E-02  0.9118800E+02  0.7818609E-02  0.1379984E+01
      -11   -1    0    0    0    0  0.00000000000E+00  0.00000000000E+00  0.35740347158E-01  0.35744000000E-01  0.51099999109E-03 0. -1.
       11   -1    0    0    0    0 -0.00000000000E+00 -0.00000000000E+00 -0.35740347158E-01  0.35744000000E-01  0.51099999109E-03 0.  1.
       22    1    1    2    0    0 -0.37746382829E-03  0.49260044726E-02  0.35393863675E-01  0.35737005818E-01  0.00000000000E+00 0. -1.
  9000001    1    1    2    0    0  0.37746382829E-03 -0.49260044726E-02 -0.35393863675E-01  0.35750994182E-01  0.10000000475E-02 0.  1.
</event>
<event>
 4   0  0.4958067E-02  0.9118800E+02  0.7818609E-02  0.1379984E+01
      -11   -1    0    0    0    0  0.00000000000E+00  0.00000000000E+00  0.35740347158E-01  0.35744000000E-01  0.51099999109E-03 0. -1.
       11   -1    0    0    0    0 -0.00000000000E+00 -0.00000000000E+00 -0.35740347158E-01  0.35744000000E-01  0.51099999109E-03 0.  1.
       22    1    1    2    0    0 -0.87119778846E-02  0.21026919287E-02  0.34594995489E-01  0.35737005818E-01  0.00000000000E+00 0. -1.
  9000001    1    1    2    0    0  0.87119778846E-02 -0.21026919287E-02 -0.34594995489E-01  0.35750994182E-01  0.10000000475E-02 0.  1.
</event>
<event>
 4   0  0.4958067E-02  0.9118800E+02  0.7818609E-02  0.1379984E+01
      -11   -1    0    0    0    0  0.00000000000E+00  0.00000000000E+00  0.35740347158E-01  0.35744000000E-01  0.51099999109E-03 0.  1.
       11   -1    0    0    0    0 -0.00000000000E+00 -0.00000000000E+00 -0.35740347158E-01  0.35744000000E-01  0.51099999109E-03 0. -1.
       22    1    1    2    0    0  0.21856124857E-02 -0.32894004078E-01 -0.13796419051E-01  0.35737005818E-01  0.00000000000E+00 0.  1.
  9000001    1    1    2    0    0 -0.21856124857E-02  0.32894004078E-01  0.13796419051E-01  0.35750994182E-01  0.10000000475E-02 0. -1.
</event>
<event>
 4   0  0.4958067E-02  0.9118800E+02  0.7818609E-02  0.1379984E+01
      -11   -1    0    0    0    0  0.00000000000E+00  0.00000000000E+00  0.35740347158E-01  0.35744000000E-01  0.51099999109E-03 0. -1.
       11   -1    0    0    0    0 -0.00000000000E+00 -0.00000000000E+00 -0.35740347158E-01  0.35744000000E-01  0.51099999109E-03 0.  1.
       22    1    1    2    0    0 -0.20505023493E-01  0.28452990154E-01 -0.68633044332E-02  0.35737005818E-01  0.00000000000E+00 0.  1.
  9000001    1    1    2    0    0  0.20505023493E-01 -0.28452990154E-01  0.68633044332E-02  0.35750994182E-01  0.10000000475E-02 0. -1.
</event>
<event>
 4   0  0.4958067E-02  0.9118800E+02  0.7818609E-02  0.1379984E+01
      -11   -1    0    0    0    0  0.00000000000E+00  0.00000000000E+00  0.35740347158E-01  0.35744000000E-01  0.51099999109E-03 0.  1.
       11   -1    0    0    0    0 -0.00000000000E+00 -0.00000000000E+00 -0.35740347158E-01  0.35744000000E-01  0.51099999109E-03 0. -1.
       22    1    1    2    0    0 -0.20011857300E-01 -0.40161493313E-03  0.29605706506E-01  0.35737005818E-01  0.00000000000E+00 0.  1.
  9000001    1    1    2    0    0  0.20011857300E-01  0.40161493313E-03 -0.29605706506E-01  0.35750994182E-01  0.10000000475E-02 0. -1.
</event>
<event>
 4   0  0.4958067E-02  0.9118800E+02  0.7818609E-02  0.1379984E+01
      -11   -1    0    0    0    0  0.00000000000E+00  0.00000000000E+00  0.35740347158E-01  0.35744000000E-01  0.51099999109E-03 0.  1.
       11   -1    0    0    0    0 -0.00000000000E+00 -0.00000000000E+00 -0.35740347158E-01  0.35744000000E-01  0.51099999109E-03 0. -1.
       22    1    1    2    0    0 -0.65332919174E-03  0.12349036239E-01 -0.33529211888E-01  0.35737005818E-01  0.00000000000E+00 0. -1.
  9000001    1    1    2    0    0  0.65332919174E-03 -0.12349036239E-01  0.33529211888E-01  0.35750994182E-01  0.10000000475E-02 0.  1.
</event>
<event>
 4   0  0.4958067E-02  0.9118800E+02  0.7818609E-02  0.1379984E+01
      -11   -1    0    0    0    0  0.00000000000E+00  0.00000000000E+00  0.35740347158E-01  0.35744000000E-01  0.51099999109E-03 0. -1.
       11   -1    0    0    0    0 -0.00000000000E+00 -0.00000000000E+00 -0.35740347158E-01  0.35744000000E-01  0.51099999109E-03 0.  1.
       22    1    1    2    0    0  0.23142819081E-01 -0.11260874112E-01  0.24793874729E-01  0.35737005818E-01  0.00000000000E+00 0. -1.
  9000001    1    1    2    0    0 -0.23142819081E-01  0.11260874112E-01 -0.24793874729E-01  0.35750994182E-01  0.10000000475E-02 0.  1.
</event>
<event>
 4   0  0.4958067E-02  0.9118800E+02  0.7818609E-02  0.1379984E+01
      -11   -1    0    0    0    0  0.00000000000E+00  0.00000000000E+00  0.35740347158E-01  0.35744000000E-01  0.51099999109E-03 0. -1.
       11   -1    0    0    0    0 -0.00000000000E+00 -0.00000000000E+00 -0.35740347158E-01  0.35744000000E-01  0.51099999109E-03 0.  1.
       22    1    1    2    0    0  0.43214150751E-02 -0.45587761477E-04  0.35474735776E-01  0.35737005818E-01  0.00000000000E+00 0. -1.
  9000001    1    1    2    0    0 -0.43214150751E-02  0.45587761477E-04 -0.35474735776E-01  0.35750994182E-01  0.10000000475E-02 0.  1.
</event>
<event>
 4   0  0.4958067E-02  0.9118800E+02  0.7818609E-02  0.1379984E+01
      -11   -1    0    0    0    0  0.00000000000E+00  0.00000000000E+00  0.35740347158E-01  0.35744000000E-01  0.51099999109E-03 0.  1.
       11   -1    0    0    0    0 -0.00000000000E+00 -0.00000000000E+00 -0.35740347158E-01  0.35744000000E-01  0.51099999109E-03 0. -1.
       22    1    1    2    0    0  0.36347875955E-02  0.17451399821E-02  0.35508821305E-01  0.35737005818E-01  0.00000000000E+00 0.  1.
  9000001    1    1    2    0    0 -0.36347875955E-02 -0.17451399821E-02 -0.35508821305E-01  0.35750994182E-01  0.10000000475E-02 0. -1.
</event>
<event>
 4   0  0.4958067E-02  0.9118800E+02  0.7818609E-02  0.1379984E+01
      -11   -1    0    0    0    0  0.00000000000E+00  0.00000000000E+00  0.35740347158E-01  0.35744000000E-01  0.51099999109E-03 0. -1.
       11   -1    0    0    0    0 -0.00000000000E+00 -0.00000000000E+00 -0.35740347158E-01  0.35744000000E-01  0.51099999109E-03 0.  1.
       22    1    1    2    0    0  0.33896571104E-02 -0.55028892680E-02  0.35147717127E-01  0.35737005818E-01  0.00000000000E+00 0. -1.
  9000001    1    1    2    0    0 -0.33896571104E-02  0.55028892680E-02 -0.35147717127E-01  0.35750994182E-01  0.10000000475E-02 0.  1.
</event>
<event>
 4   0  0.4958067E-02  0.9118800E+02  0.7818609E-02  0.1379984E+01
      -11   -1    0    0    0    0  0.00000000000E+00  0.00000000000E+00  0.35740347158E-01  0.35744000000E-01  0.51099999109E-03 0. -1.
       11   -1    0    0    0    0 -0.00000000000E+00 -0.00000000000E+00 -0.35740347158E-01  0.35744000000E-01  0.51099999109E-03 0.  1.
       22    1    1    2    0    0  0.78665468678E-02  0.23552724729E-01 -0.25700587213E-01  0.35737005818E-01  0.00000000000E+00 0.  1.
  9000001    1    1    2    0    0 -0.78665468678E-02 -0.23552724729E-01  0.25700587213E-01  0.35750994182E-01  0.10000000475E-02 0. -1.
</event>
<event>
 4   0  0.4958067E-02  0.9118800E+02  0.7818609E-02  0.1379984E+01
      -11   -1    0    0    0    0  0.00000000000E+00  0.00000000000E+00  0.35740347158E-01  0.35744000000E-01  0.51099999109E-03 0. -1.
       11   -1    0    0    0    0 -0.00000000000E+00 -0.00000000000E+00 -0.35740347158E-01  0.35744000000E-01  0.51099999109E-03 0.  1.
       22    1    1    2    0    0 -0.36378977030E-02 -0.47861619945E-02 -0.35227715488E-01  0.35737005818E-01  0.00000000000E+00 0.  1.
  9000001    1    1    2    0    0  0.36378977030E-02  0.47861619945E-02  0.35227715488E-01  0.35750994182E-01  0.10000000475E-02 0. -1.
</event>
<event>
 4   0  0.4958067E-02  0.9118800E+02  0.7818609E-02  0.1379984E+01
      -11   -1    0    0    0    0  0.00000000000E+00  0.00000000000E+00  0.35740347158E-01  0.35744000000E-01  0.51099999109E-03 0. -1.
       11   -1    0    0    0    0 -0.00000000000E+00 -0.00000000000E+00 -0.35740347158E-01  0.35744000000E-01  0.51099999109E-03 0.  1.
       22    1    1    2    0    0  0.28389927441E-01  0.21208207500E-01  0.46214217958E-02  0.35737005818E-01  0.00000000000E+00 0. -1.
  9000001    1    1    2    0    0 -0.28389927441E-01 -0.21208207500E-01 -0.46214217958E-02  0.35750994182E-01  0.10000000475E-02 0.  1.
</event>
<event>
 4   0  0.4958067E-02  0.9118800E+02  0.7818609E-02  0.1379984E+01
      -11   -1    0    0    0    0  0.00000000000E+00  0.00000000000E+00  0.35740347158E-01  0.35744000000E-01  0.51099999109E-03 0. -1.
       11   -1    0    0    0    0 -0.00000000000E+00 -0.00000000000E+00 -0.35740347158E-01  0.35744000000E-01  0.51099999109E-03 0. -1.
       22    1    1    2    0    0  0.49640615370E-02  0.16311601363E-03 -0.35390183259E-01  0.35737005818E-01  0.00000000000E+00 0. -1.
  9000001    1    1    2    0    0 -0.49640615370E-02 -0.16311601363E-03  0.35390183259E-01  0.35750994182E-01  0.10000000475E-02 0. -1.
</event>
<event>
 4   0  0.4958067E-02  0.9118800E+02  0.7818609E-02  0.1379984E+01
      -11   -1    0    0    0    0  0.00000000000E+00  0.00000000000E+00  0.35740347158E-01  0.35744000000E-01  0.51099999109E-03 0.  1.
       11   -1    0    0    0    0 -0.00000000000E+00 -0.00000000000E+00 -0.35740347158E-01  0.35744000000E-01  0.51099999109E-03 0. -1.
       22    1    1    2    0    0 -0.17415605427E-01  0.19345362639E-01 -0.24486470077E-01  0.35737005818E-01  0.00000000000E+00 0. -1.
  9000001    1    1    2    0    0  0.17415605427E-01 -0.19345362639E-01  0.24486470077E-01  0.35750994182E-01  0.10000000475E-02 0.  1.
</event>
<event>
 4   0  0.4958067E-02  0.9118800E+02  0.7818609E-02  0.1379984E+01
      -11   -1    0    0    0    0  0.00000000000E+00  0.00000000000E+00  0.35740347158E-01  0.35744000000E-01  0.51099999109E-03 0.  1.
       11   -1    0    0    0    0 -0.00000000000E+00 -0.00000000000E+00 -0.35740347158E-01  0.35744000000E-01  0.51099999109E-03 0. -1.
       22    1    1    2    0    0  0.12768067203E-01 -0.12559447035E-01  0.30925237832E-01  0.35737005818E-01  0.00000000000E+00 0.  1.
  9000001    1    1    2    0    0 -0.12768067203E-01  0.12559447035E-01 -0.30925237832E-01  0.35750994182E-01  0.10000000475E-02 0. -1.
</event>
<event>
 4   0  0.4958067E-02  0.9118800E+02  0.7818609E-02  0.1379984E+01
      -11   -1    0    0    0    0  0.00000000000E+00  0.00000000000E+00  0.35740347158E-01  0.35744000000E-01  0.51099999109E-03 0. -1.
       11   -1    0    0    0    0 -0.00000000000E+00 -0.00000000000E+00 -0.35740347158E-01  0.35744000000E-01  0.51099999109E-03 0.  1.
       22    1    1    2    0    0 -0.65418150752E-02 -0.25512748100E-02  0.35040394365E-01  0.35737005818E-01  0.00000000000E+00 0. -1.
  9000001    1    1    2    0    0  0.65418150752E-02  0.25512748100E-02 -0.35040394365E-01  0.35750994182E-01  0.10000000475E-02 0.  1.
</event>
<event>
 4   0  0.4958067E-02  0.9118800E+02  0.7818609E-02  0.1379984E+01
      -11   -1    0    0    0    0  0.00000000000E+00  0.00000000000E+00  0.35740347158E-01  0.35744000000E-01  0.51099999109E-03 0. -1.
       11   -1    0    0    0    0 -0.00000000000E+00 -0.00000000000E+00 -0.35740347158E-01  0.35744000000E-01  0.51099999109E-03 0.  1.
       22    1    1    2    0    0  0.82664291433E-02  0.72541621041E-02 -0.34002600875E-01  0.35737005818E-01  0.00000000000E+00 0.  1.
  9000001    1    1    2    0    0 -0.82664291433E-02 -0.72541621041E-02  0.34002600875E-01  0.35750994182E-01  0.10000000475E-02 0. -1.
</event>
<event>
 4   0  0.4958067E-02  0.9118800E+02  0.7818609E-02  0.1379984E+01
      -11   -1    0    0    0    0  0.00000000000E+00  0.00000000000E+00  0.35740347158E-01  0.35744000000E-01  0.51099999109E-03 0.  1.
       11   -1    0    0    0    0 -0.00000000000E+00 -0.00000000000E+00 -0.35740347158E-01  0.35744000000E-01  0.51099999109E-03 0. -1.
       22    1    1    2    0    0 -0.38265626735E-02 -0.39797718126E-02  0.35307965380E-01  0.35737005818E-01  0.00000000000E+00 0.  1.
  9000001    1    1    2    0    0  0.38265626735E-02  0.39797718126E-02 -0.35307965380E-01  0.35750994182E-01  0.10000000475E-02 0. -1.
</event>
<event>
 4   0  0.4958067E-02  0.9118800E+02  0.7818609E-02  0.1379984E+01
      -11   -1    0    0    0    0  0.00000000000E+00  0.00000000000E+00  0.35740347158E-01  0.35744000000E-01  0.51099999109E-03 0. -1.
       11   -1    0    0    0    0 -0.00000000000E+00 -0.00000000000E+00 -0.35740347158E-01  0.35744000000E-01  0.51099999109E-03 0.  1.
       22    1    1    2    0    0 -0.32977560250E-01  0.10945219730E-01 -0.83556130772E-02  0.35737005818E-01  0.00000000000E+00 0. -1.
  9000001    1    1    2    0    0  0.32977560250E-01 -0.10945219730E-01  0.83556130772E-02  0.35750994182E-01  0.10000000475E-02 0.  1.
</event>
<event>
 4   0  0.4958067E-02  0.9118800E+02  0.7818609E-02  0.1379984E+01
      -11   -1    0    0    0    0  0.00000000000E+00  0.00000000000E+00  0.35740347158E-01  0.35744000000E-01  0.51099999109E-03 0.  1.
       11   -1    0    0    0    0 -0.00000000000E+00 -0.00000000000E+00 -0.35740347158E-01  0.35744000000E-01  0.51099999109E-03 0. -1.
       22    1    1    2    0    0  0.28969961458E-01 -0.11841958884E-01 -0.17252331082E-01  0.35737005818E-01  0.00000000000E+00 0. -1.
  9000001    1    1    2    0    0 -0.28969961458E-01  0.11841958884E-01  0.17252331082E-01  0.35750994182E-01  0.10000000475E-02 0.  1.
</event>
<event>
 4   0  0.4958067E-02  0.9118800E+02  0.7818609E-02  0.1379984E+01
      -11   -1    0    0    0    0  0.00000000000E+00  0.00000000000E+00  0.35740347158E-01  0.35744000000E-01  0.51099999109E-03 0.  1.
       11   -1    0    0    0    0 -0.00000000000E+00 -0.00000000000E+00 -0.35740347158E-01  0.35744000000E-01  0.51099999109E-03 0. -1.
       22    1    1    2    0    0  0.53538542396E-02  0.31065831610E-02  0.35196860239E-01  0.35737005818E-01  0.00000000000E+00 0.  1.
  9000001    1    1    2    0    0 -0.53538542396E-02 -0.31065831610E-02 -0.35196860239E-01  0.35750994182E-01  0.10000000475E-02 0. -1.
</event>
<event>
 4   0  0.4958067E-02  0.9118800E+02  0.7818609E-02  0.1379984E+01
      -11   -1    0    0    0    0  0.00000000000E+00  0.00000000000E+00  0.35740347158E-01  0.35744000000E-01  0.51099999109E-03 0. -1.
       11   -1    0    0    0    0 -0.00000000000E+00 -0.00000000000E+00 -0.35740347158E-01  0.35744000000E-01  0.51099999109E-03 0.  1.
       22    1    1    2    0    0  0.28789691312E-01 -0.14148987022E-02  0.21125466165E-01  0.35737005818E-01  0.00000000000E+00 0. -1.
  9000001    1    1    2    0    0 -0.28789691312E-01  0.14148987022E-02 -0.21125466165E-01  0.35750994182E-01  0.10000000475E-02 0.  1.
</event>
<event>
 4   0  0.4958067E-02  0.9118800E+02  0.7818609E-02  0.1379984E+01
      -11   -1    0    0    0    0  0.00000000000E+00  0.00000000000E+00  0.35740347158E-01  0.35744000000E-01  0.51099999109E-03 0.  1.
       11   -1    0    0    0    0 -0.00000000000E+00 -0.00000000000E+00 -0.35740347158E-01  0.35744000000E-01  0.51099999109E-03 0. -1.
       22    1    1    2    0    0  0.90278638455E-02 -0.23599280688E-01  0.25272617796E-01  0.35737005818E-01  0.00000000000E+00 0.  1.
  9000001    1    1    2    0    0 -0.90278638455E-02  0.23599280688E-01 -0.25272617796E-01  0.35750994182E-01  0.10000000475E-02 0. -1.
</event>
<event>
 4   0  0.4958067E-02  0.9118800E+02  0.7818609E-02  0.1379984E+01
      -11   -1    0    0    0    0  0.00000000000E+00  0.00000000000E+00  0.35740347158E-01  0.35744000000E-01  0.51099999109E-03 0. -1.
       11   -1    0    0    0    0 -0.00000000000E+00 -0.00000000000E+00 -0.35740347158E-01  0.35744000000E-01  0.51099999109E-03 0.  1.
       22    1    1    2    0    0  0.50845051884E-02  0.26674697192E-02 -0.35272737307E-01  0.35737005818E-01  0.00000000000E+00 0.  1.
  9000001    1    1    2    0    0 -0.50845051884E-02 -0.26674697192E-02  0.35272737307E-01  0.35750994182E-01  0.10000000475E-02 0. -1.
</event>
<event>
 4   0  0.4958067E-02  0.9118800E+02  0.7818609E-02  0.1379984E+01
      -11   -1    0    0    0    0  0.00000000000E+00  0.00000000000E+00  0.35740347158E-01  0.35744000000E-01  0.51099999109E-03 0. -1.
       11   -1    0    0    0    0 -0.00000000000E+00 -0.00000000000E+00 -0.35740347158E-01  0.35744000000E-01  0.51099999109E-03 0.  1.
       22    1    1    2    0    0 -0.14939823220E-01 -0.44061770084E-02 -0.32163968524E-01  0.35737005818E-01  0.00000000000E+00 0.  1.
  9000001    1    1    2    0    0  0.14939823220E-01  0.44061770084E-02  0.32163968524E-01  0.35750994182E-01  0.10000000475E-02 0. -1.
</event>
<event>
 4   0  0.4958067E-02  0.9118800E+02  0.7818609E-02  0.1379984E+01
      -11   -1    0    0    0    0  0.00000000000E+00  0.00000000000E+00  0.35740347158E-01  0.35744000000E-01  0.51099999109E-03 0.  1.
       11   -1    0    0    0    0 -0.00000000000E+00 -0.00000000000E+00 -0.35740347158E-01  0.35744000000E-01  0.51099999109E-03 0. -1.
       22    1    1    2    0    0  0.72633486025E-02 -0.33486212529E-01 -0.10151400021E-01  0.35737005818E-01  0.00000000000E+00 0.  1.
  9000001    1    1    2    0    0 -0.72633486025E-02  0.33486212529E-01  0.10151400021E-01  0.35750994182E-01  0.10000000475E-02 0. -1.
</event>
<event>
 4   0  0.4958067E-02  0.9118800E+02  0.7818609E-02  0.1379984E+01
      -11   -1    0    0    0    0  0.00000000000E+00  0.00000000000E+00  0.35740347158E-01  0.35744000000E-01  0.51099999109E-03 0. -1.
       11   -1    0    0    0    0 -0.00000000000E+00 -0.00000000000E+00 -0.35740347158E-01  0.35744000000E-01  0.51099999109E-03 0.  1.
       22    1    1    2    0    0 -0.57526963824E-02  0.31940168281E-02  0.35126034870E-01  0.35737005818E-01  0.00000000000E+00 0. -1.
  9000001    1    1    2    0    0  0.57526963824E-02 -0.31940168281E-02 -0.35126034870E-01  0.35750994182E-01  0.10000000475E-02 0.  1.
</event>
<event>
 4   0  0.4958067E-02  0.9118800E+02  0.7818609E-02  0.1379984E+01
      -11   -1    0    0    0    0  0.00000000000E+00  0.00000000000E+00  0.35740347158E-01  0.35744000000E-01  0.51099999109E-03 0.  1.
       11   -1    0    0    0    0 -0.00000000000E+00 -0.00000000000E+00 -0.35740347158E-01  0.35744000000E-01  0.51099999109E-03 0. -1.
       22    1    1    2    0    0 -0.14954822763E-01 -0.12268788938E-03  0.32457230453E-01  0.35737005818E-01  0.00000000000E+00 0.  1.
  9000001    1    1    2    0    0  0.14954822763E-01  0.12268788938E-03 -0.32457230453E-01  0.35750994182E-01  0.10000000475E-02 0. -1.
</event>
<event>
 4   0  0.4958067E-02  0.9118800E+02  0.7818609E-02  0.1379984E+01
      -11   -1    0    0    0    0  0.00000000000E+00  0.00000000000E+00  0.35740347158E-01  0.35744000000E-01  0.51099999109E-03 0.  1.
       11   -1    0    0    0    0 -0.00000000000E+00 -0.00000000000E+00 -0.35740347158E-01  0.35744000000E-01  0.51099999109E-03 0. -1.
       22    1    1    2    0    0 -0.15607565065E-02 -0.54731527101E-02  0.35280904515E-01  0.35737005818E-01  0.00000000000E+00 0.  1.
  9000001    1    1    2    0    0  0.15607565065E-02  0.54731527101E-02 -0.35280904515E-01  0.35750994182E-01  0.10000000475E-02 0. -1.
</event>
<event>
 4   0  0.4958067E-02  0.9118800E+02  0.7818609E-02  0.1379984E+01
      -11   -1    0    0    0    0  0.00000000000E+00  0.00000000000E+00  0.35740347158E-01  0.35744000000E-01  0.51099999109E-03 0. -1.
       11   -1    0    0    0    0 -0.00000000000E+00 -0.00000000000E+00 -0.35740347158E-01  0.35744000000E-01  0.51099999109E-03 0.  1.
       22    1    1    2    0    0 -0.58789764265E-03 -0.69848186078E-02  0.35042834792E-01  0.35737005818E-01  0.00000000000E+00 0. -1.
  9000001    1    1    2    0    0  0.58789764265E-03  0.69848186078E-02 -0.35042834792E-01  0.35750994182E-01  0.10000000475E-02 0.  1.
</event>
<event>
 4   0  0.4958067E-02  0.9118800E+02  0.7818609E-02  0.1379984E+01
      -11   -1    0    0    0    0  0.00000000000E+00  0.00000000000E+00  0.35740347158E-01  0.35744000000E-01  0.51099999109E-03 0. -1.
       11   -1    0    0    0    0 -0.00000000000E+00 -0.00000000000E+00 -0.35740347158E-01  0.35744000000E-01  0.51099999109E-03 0.  1.
       22    1    1    2    0    0 -0.12396131276E-01 -0.34053648646E-02 -0.33344759774E-01  0.35737005818E-01  0.00000000000E+00 0.  1.
  9000001    1    1    2    0    0  0.12396131276E-01  0.34053648646E-02  0.33344759774E-01  0.35750994182E-01  0.10000000475E-02 0. -1.
</event>
<event>
 4   0  0.4958067E-02  0.9118800E+02  0.7818609E-02  0.1379984E+01
      -11   -1    0    0    0    0  0.00000000000E+00  0.00000000000E+00  0.35740347158E-01  0.35744000000E-01  0.51099999109E-03 0.  1.
       11   -1    0    0    0    0 -0.00000000000E+00 -0.00000000000E+00 -0.35740347158E-01  0.35744000000E-01  0.51099999109E-03 0. -1.
       22    1    1    2    0    0 -0.19236825637E-01 -0.30540417591E-02 -0.29962492440E-01  0.35737005818E-01  0.00000000000E+00 0. -1.
  9000001    1    1    2    0    0  0.19236825637E-01  0.30540417591E-02  0.29962492440E-01  0.35750994182E-01  0.10000000475E-02 0.  1.
</event>
<event>
 4   0  0.4958067E-02  0.9118800E+02  0.7818609E-02  0.1379984E+01
      -11   -1    0    0    0    0  0.00000000000E+00  0.00000000000E+00  0.35740347158E-01  0.35744000000E-01  0.51099999109E-03 0. -1.
       11   -1    0    0    0    0 -0.00000000000E+00 -0.00000000000E+00 -0.35740347158E-01  0.35744000000E-01  0.51099999109E-03 0.  1.
       22    1    1    2    0    0 -0.84997953987E-02 -0.24803607193E-01  0.24283083273E-01  0.35737005818E-01  0.00000000000E+00 0. -1.
  9000001    1    1    2    0    0  0.84997953987E-02  0.24803607193E-01 -0.24283083273E-01  0.35750994182E-01  0.10000000475E-02 0.  1.
</event>
<event>
 4   0  0.4958067E-02  0.9118800E+02  0.7818609E-02  0.1379984E+01
      -11   -1    0    0    0    0  0.00000000000E+00  0.00000000000E+00  0.35740347158E-01  0.35744000000E-01  0.51099999109E-03 0. -1.
       11   -1    0    0    0    0 -0.00000000000E+00 -0.00000000000E+00 -0.35740347158E-01  0.35744000000E-01  0.51099999109E-03 0.  1.
       22    1    1    2    0    0  0.26544788092E-02 -0.21166015392E-02 -0.35575375262E-01  0.35737005818E-01  0.00000000000E+00 0.  1.
  9000001    1    1    2    0    0 -0.26544788092E-02  0.21166015392E-02  0.35575375262E-01  0.35750994182E-01  0.10000000475E-02 0. -1.
</event>
<event>
 4   0  0.4958067E-02  0.9118800E+02  0.7818609E-02  0.1379984E+01
      -11   -1    0    0    0    0  0.00000000000E+00  0.00000000000E+00  0.35740347158E-01  0.35744000000E-01  0.51099999109E-03 0. -1.
       11   -1    0    0    0    0 -0.00000000000E+00 -0.00000000000E+00 -0.35740347158E-01  0.35744000000E-01  0.51099999109E-03 0.  1.
       22    1    1    2    0    0  0.85860711854E-02 -0.27919761115E-01 -0.20588829635E-01  0.35737005818E-01  0.00000000000E+00 0.  1.
  9000001    1    1    2    0    0 -0.85860711854E-02  0.27919761115E-01  0.20588829635E-01  0.35750994182E-01  0.10000000475E-02 0. -1.
</event>
<event>
 4   0  0.4958067E-02  0.9118800E+02  0.7818609E-02  0.1379984E+01
      -11   -1    0    0    0    0  0.00000000000E+00  0.00000000000E+00  0.35740347158E-01  0.35744000000E-01  0.51099999109E-03 0.  1.
       11   -1    0    0    0    0 -0.00000000000E+00 -0.00000000000E+00 -0.35740347158E-01  0.35744000000E-01  0.51099999109E-03 0. -1.
       22    1    1    2    0    0 -0.17587333912E-01  0.22656943130E-01 -0.21318588104E-01  0.35737005818E-01  0.00000000000E+00 0. -1.
  9000001    1    1    2    0    0  0.17587333912E-01 -0.22656943130E-01  0.21318588104E-01  0.35750994182E-01  0.10000000475E-02 0.  1.
</event>
<event>
 4   0  0.4958067E-02  0.9118800E+02  0.7818609E-02  0.1379984E+01
      -11   -1    0    0    0    0  0.00000000000E+00  0.00000000000E+00  0.35740347158E-01  0.35744000000E-01  0.51099999109E-03 0.  1.
       11   -1    0    0    0    0 -0.00000000000E+00 -0.00000000000E+00 -0.35740347158E-01  0.35744000000E-01  0.51099999109E-03 0. -1.
       22    1    1    2    0    0  0.11091799774E-01  0.13177904299E-01 -0.31312112687E-01  0.35737005818E-01  0.00000000000E+00 0. -1.
  9000001    1    1    2    0    0 -0.11091799774E-01 -0.13177904299E-01  0.31312112687E-01  0.35750994182E-01  0.10000000475E-02 0.  1.
</event>
<event>
 4   0  0.4958067E-02  0.9118800E+02  0.7818609E-02  0.1379984E+01
      -11   -1    0    0    0    0  0.00000000000E+00  0.00000000000E+00  0.35740347158E-01  0.35744000000E-01  0.51099999109E-03 0.  1.
       11   -1    0    0    0    0 -0.00000000000E+00 -0.00000000000E+00 -0.35740347158E-01  0.35744000000E-01  0.51099999109E-03 0. -1.
       22    1    1    2    0    0  0.13107539162E-01  0.12928844697E-01 -0.30629576830E-01  0.35737005818E-01  0.00000000000E+00 0. -1.
  9000001    1    1    2    0    0 -0.13107539162E-01 -0.12928844697E-01  0.30629576830E-01  0.35750994182E-01  0.10000000475E-02 0.  1.
</event>
<event>
 4   0  0.4958067E-02  0.9118800E+02  0.7818609E-02  0.1379984E+01
      -11   -1    0    0    0    0  0.00000000000E+00  0.00000000000E+00  0.35740347158E-01  0.35744000000E-01  0.51099999109E-03 0. -1.
       11   -1    0    0    0    0 -0.00000000000E+00 -0.00000000000E+00 -0.35740347158E-01  0.35744000000E-01  0.51099999109E-03 0.  1.
       22    1    1    2    0    0  0.26807725796E-03  0.54753385449E-02  0.35314053679E-01  0.35737005818E-01  0.00000000000E+00 0. -1.
  9000001    1    1    2    0    0 -0.26807725796E-03 -0.54753385449E-02 -0.35314053679E-01  0.35750994182E-01  0.10000000475E-02 0.  1.
</event>
<event>
 4   0  0.4958067E-02  0.9118800E+02  0.7818609E-02  0.1379984E+01
      -11   -1    0    0    0    0  0.00000000000E+00  0.00000000000E+00  0.35740347158E-01  0.35744000000E-01  0.51099999109E-03 0.  1.
       11   -1    0    0    0    0 -0.00000000000E+00 -0.00000000000E+00 -0.35740347158E-01  0.35744000000E-01  0.51099999109E-03 0. -1.
       22    1    1    2    0    0  0.27635073650E-01  0.75861066443E-02  0.21351516930E-01  0.35737005818E-01  0.00000000000E+00 0.  1.
  9000001    1    1    2    0    0 -0.27635073650E-01 -0.75861066443E-02 -0.21351516930E-01  0.35750994182E-01  0.10000000475E-02 0. -1.
</event>
<event>
 4   0  0.4958067E-02  0.9118800E+02  0.7818609E-02  0.1379984E+01
      -11   -1    0    0    0    0  0.00000000000E+00  0.00000000000E+00  0.35740347158E-01  0.35744000000E-01  0.51099999109E-03 0.  1.
       11   -1    0    0    0    0 -0.00000000000E+00 -0.00000000000E+00 -0.35740347158E-01  0.35744000000E-01  0.51099999109E-03 0. -1.
       22    1    1    2    0    0 -0.42541623405E-02 -0.23184268393E-02  0.35407069699E-01  0.35737005818E-01  0.00000000000E+00 0.  1.
  9000001    1    1    2    0    0  0.42541623405E-02  0.23184268393E-02 -0.35407069699E-01  0.35750994182E-01  0.10000000475E-02 0. -1.
</event>
<event>
 4   0  0.4958067E-02  0.9118800E+02  0.7818609E-02  0.1379984E+01
      -11   -1    0    0    0    0  0.00000000000E+00  0.00000000000E+00  0.35740347158E-01  0.35744000000E-01  0.51099999109E-03 0.  1.
       11   -1    0    0    0    0 -0.00000000000E+00 -0.00000000000E+00 -0.35740347158E-01  0.35744000000E-01  0.51099999109E-03 0. -1.
       22    1    1    2    0    0  0.12143026340E-01 -0.26983399716E-01  0.20039377134E-01  0.35737005818E-01  0.00000000000E+00 0. -1.
  9000001    1    1    2    0    0 -0.12143026340E-01  0.26983399716E-01 -0.20039377134E-01  0.35750994182E-01  0.10000000475E-02 0.  1.
</event>
<event>
 4   0  0.4958067E-02  0.9118800E+02  0.7818609E-02  0.1379984E+01
      -11   -1    0    0    0    0  0.00000000000E+00  0.00000000000E+00  0.35740347158E-01  0.35744000000E-01  0.51099999109E-03 0. -1.
       11   -1    0    0    0    0 -0.00000000000E+00 -0.00000000000E+00 -0.35740347158E-01  0.35744000000E-01  0.51099999109E-03 0.  1.
       22    1    1    2    0    0  0.74887960366E-02  0.38120392829E-02  0.34734994966E-01  0.35737005818E-01  0.00000000000E+00 0. -1.
  9000001    1    1    2    0    0 -0.74887960366E-02 -0.38120392829E-02 -0.34734994966E-01  0.35750994182E-01  0.10000000475E-02 0.  1.
</event>
<event>
 4   0  0.4958067E-02  0.9118800E+02  0.7818609E-02  0.1379984E+01
      -11   -1    0    0    0    0  0.00000000000E+00  0.00000000000E+00  0.35740347158E-01  0.35744000000E-01  0.51099999109E-03 0.  1.
       11   -1    0    0    0    0 -0.00000000000E+00 -0.00000000000E+00 -0.35740347158E-01  0.35744000000E-01  0.51099999109E-03 0. -1.
       22    1    1    2    0    0  0.13391956395E-02  0.32561544298E-02  0.35563149442E-01  0.35737005818E-01  0.00000000000E+00 0.  1.
  9000001    1    1    2    0    0 -0.13391956395E-02 -0.32561544298E-02 -0.35563149442E-01  0.35750994182E-01  0.10000000475E-02 0. -1.
</event>
<event>
 4   0  0.4958067E-02  0.9118800E+02  0.7818609E-02  0.1379984E+01
      -11   -1    0    0    0    0  0.00000000000E+00  0.00000000000E+00  0.35740347158E-01  0.35744000000E-01  0.51099999109E-03 0.  1.
       11   -1    0    0    0    0 -0.00000000000E+00 -0.00000000000E+00 -0.35740347158E-01  0.35744000000E-01  0.51099999109E-03 0. -1.
       22    1    1    2    0    0 -0.17542828337E-02 -0.43156113141E-02 -0.35432069875E-01  0.35737005818E-01  0.00000000000E+00 0. -1.
  9000001    1    1    2    0    0  0.17542828337E-02  0.43156113141E-02  0.35432069875E-01  0.35750994182E-01  0.10000000475E-02 0.  1.
</event>
<event>
 4   0  0.4958067E-02  0.9118800E+02  0.7818609E-02  0.1379984E+01
      -11   -1    0    0    0    0  0.00000000000E+00  0.00000000000E+00  0.35740347158E-01  0.35744000000E-01  0.51099999109E-03 0. -1.
       11   -1    0    0    0    0 -0.00000000000E+00 -0.00000000000E+00 -0.35740347158E-01  0.35744000000E-01  0.51099999109E-03 0.  1.
       22    1    1    2    0    0  0.24010162308E-01  0.11377538842E-01  0.23899734323E-01  0.35737005818E-01  0.00000000000E+00 0. -1.
  9000001    1    1    2    0    0 -0.24010162308E-01 -0.11377538842E-01 -0.23899734323E-01  0.35750994182E-01  0.10000000475E-02 0.  1.
</event>
<event>
 4   0  0.4958067E-02  0.9118800E+02  0.7818609E-02  0.1379984E+01
      -11   -1    0    0    0    0  0.00000000000E+00  0.00000000000E+00  0.35740347158E-01  0.35744000000E-01  0.51099999109E-03 0. -1.
       11   -1    0    0    0    0 -0.00000000000E+00 -0.00000000000E+00 -0.35740347158E-01  0.35744000000E-01  0.51099999109E-03 0.  1.
       22    1    1    2    0    0 -0.82107086697E-02 -0.34292674536E-01 -0.58077810880E-02  0.35737005818E-01  0.00000000000E+00 0. -1.
  9000001    1    1    2    0    0  0.82107086697E-02  0.34292674536E-01  0.58077810880E-02  0.35750994182E-01  0.10000000475E-02 0.  1.
</event>
<event>
 4   0  0.4958067E-02  0.9118800E+02  0.7818609E-02  0.1379984E+01
      -11   -1    0    0    0    0  0.00000000000E+00  0.00000000000E+00  0.35740347158E-01  0.35744000000E-01  0.51099999109E-03 0. -1.
       11   -1    0    0    0    0 -0.00000000000E+00 -0.00000000000E+00 -0.35740347158E-01  0.35744000000E-01  0.51099999109E-03 0.  1.
       22    1    1    2    0    0  0.36043012787E-02 -0.16061641272E-02 -0.35518485806E-01  0.35737005818E-01  0.00000000000E+00 0.  1.
  9000001    1    1    2    0    0 -0.36043012787E-02  0.16061641272E-02  0.35518485806E-01  0.35750994182E-01  0.10000000475E-02 0. -1.
</event>
<event>
 4   0  0.4958067E-02  0.9118800E+02  0.7818609E-02  0.1379984E+01
      -11   -1    0    0    0    0  0.00000000000E+00  0.00000000000E+00  0.35740347158E-01  0.35744000000E-01  0.51099999109E-03 0.  1.
       11   -1    0    0    0    0 -0.00000000000E+00 -0.00000000000E+00 -0.35740347158E-01  0.35744000000E-01  0.51099999109E-03 0. -1.
       22    1    1    2    0    0 -0.37427936931E-02 -0.85845661712E-03  0.35530101780E-01  0.35737005818E-01  0.00000000000E+00 0.  1.
  9000001    1    1    2    0    0  0.37427936931E-02  0.85845661712E-03 -0.35530101780E-01  0.35750994182E-01  0.10000000475E-02 0. -1.
</event>
<event>
 4   0  0.4958067E-02  0.9118800E+02  0.7818609E-02  0.1379984E+01
      -11   -1    0    0    0    0  0.00000000000E+00  0.00000000000E+00  0.35740347158E-01  0.35744000000E-01  0.51099999109E-03 0. -1.
       11   -1    0    0    0    0 -0.00000000000E+00 -0.00000000000E+00 -0.35740347158E-01  0.35744000000E-01  0.51099999109E-03 0.  1.
       22    1    1    2    0    0  0.52093124874E-02  0.31626641443E-02  0.35213551423E-01  0.35737005818E-01  0.00000000000E+00 0. -1.
  9000001    1    1    2    0    0 -0.52093124874E-02 -0.31626641443E-02 -0.35213551423E-01  0.35750994182E-01  0.10000000475E-02 0.  1.
</event>
<event>
 4   0  0.4958067E-02  0.9118800E+02  0.7818609E-02  0.1379984E+01
      -11   -1    0    0    0    0  0.00000000000E+00  0.00000000000E+00  0.35740347158E-01  0.35744000000E-01  0.51099999109E-03 0. -1.
       11   -1    0    0    0    0 -0.00000000000E+00 -0.00000000000E+00 -0.35740347158E-01  0.35744000000E-01  0.51099999109E-03 0.  1.
       22    1    1    2    0    0  0.25865399199E-01 -0.22445077346E-01 -0.10214363028E-01  0.35737005818E-01  0.00000000000E+00 0.  1.
  9000001    1    1    2    0    0 -0.25865399199E-01  0.22445077346E-01  0.10214363028E-01  0.35750994182E-01  0.10000000475E-02 0. -1.
</event>
<event>
 4   0  0.4958067E-02  0.9118800E+02  0.7818609E-02  0.1379984E+01
      -11   -1    0    0    0    0  0.00000000000E+00  0.00000000000E+00  0.35740347158E-01  0.35744000000E-01  0.51099999109E-03 0.  1.
       11   -1    0    0    0    0 -0.00000000000E+00 -0.00000000000E+00 -0.35740347158E-01  0.35744000000E-01  0.51099999109E-03 0. -1.
       22    1    1    2    0    0  0.68627066442E-02 -0.71985774727E-02  0.34325170426E-01  0.35737005818E-01  0.00000000000E+00 0.  1.
  9000001    1    1    2    0    0 -0.68627066442E-02  0.71985774727E-02 -0.34325170426E-01  0.35750994182E-01  0.10000000475E-02 0. -1.
</event>
<event>
 4   0  0.4958067E-02  0.9118800E+02  0.7818609E-02  0.1379984E+01
      -11   -1    0    0    0    0  0.00000000000E+00  0.00000000000E+00  0.35740347158E-01  0.35744000000E-01  0.51099999109E-03 0.  1.
       11   -1    0    0    0    0 -0.00000000000E+00 -0.00000000000E+00 -0.35740347158E-01  0.35744000000E-01  0.51099999109E-03 0. -1.
       22    1    1    2    0    0 -0.25751701145E-02 -0.13493452991E-01 -0.32991344473E-01  0.35737005818E-01  0.00000000000E+00 0. -1.
  9000001    1    1    2    0    0  0.25751701145E-02  0.13493452991E-01  0.32991344473E-01  0.35750994182E-01  0.10000000475E-02 0.  1.
</event>
<event>
 4   0  0.4958067E-02  0.9118800E+02  0.7818609E-02  0.1379984E+01
      -11   -1    0    0    0    0  0.00000000000E+00  0.00000000000E+00  0.35740347158E-01  0.35744000000E-01  0.51099999109E-03 0.  1.
       11   -1    0    0    0    0 -0.00000000000E+00 -0.00000000000E+00 -0.35740347158E-01  0.35744000000E-01  0.51099999109E-03 0. -1.
       22    1    1    2    0    0 -0.24197747066E-01  0.22483047223E-01  0.13642404825E-01  0.35737005818E-01  0.00000000000E+00 0.  1.
  9000001    1    1    2    0    0  0.24197747066E-01 -0.22483047223E-01 -0.13642404825E-01  0.35750994182E-01  0.10000000475E-02 0. -1.
</event>
<event>
 4   0  0.4958067E-02  0.9118800E+02  0.7818609E-02  0.1379984E+01
      -11   -1    0    0    0    0  0.00000000000E+00  0.00000000000E+00  0.35740347158E-01  0.35744000000E-01  0.51099999109E-03 0. -1.
       11   -1    0    0    0    0 -0.00000000000E+00 -0.00000000000E+00 -0.35740347158E-01  0.35744000000E-01  0.51099999109E-03 0.  1.
       22    1    1    2    0    0 -0.11948652946E-01  0.62457715747E-02 -0.33096126889E-01  0.35737005818E-01  0.00000000000E+00 0.  1.
  9000001    1    1    2    0    0  0.11948652946E-01 -0.62457715747E-02  0.33096126889E-01  0.35750994182E-01  0.10000000475E-02 0. -1.
</event>
<event>
 4   0  0.4958067E-02  0.9118800E+02  0.7818609E-02  0.1379984E+01
      -11   -1    0    0    0    0  0.00000000000E+00  0.00000000000E+00  0.35740347158E-01  0.35744000000E-01  0.51099999109E-03 0. -1.
       11   -1    0    0    0    0 -0.00000000000E+00 -0.00000000000E+00 -0.35740347158E-01  0.35744000000E-01  0.51099999109E-03 0.  1.
       22    1    1    2    0    0  0.78029008535E-02  0.19602268760E-01 -0.28844399502E-01  0.35737005818E-01  0.00000000000E+00 0.  1.
  9000001    1    1    2    0    0 -0.78029008535E-02 -0.19602268760E-01  0.28844399502E-01  0.35750994182E-01  0.10000000475E-02 0. -1.
</event>
<event>
 4   0  0.4958067E-02  0.9118800E+02  0.7818609E-02  0.1379984E+01
      -11   -1    0    0    0    0  0.00000000000E+00  0.00000000000E+00  0.35740347158E-01  0.35744000000E-01  0.51099999109E-03 0. -1.
       11   -1    0    0    0    0 -0.00000000000E+00 -0.00000000000E+00 -0.35740347158E-01  0.35744000000E-01  0.51099999109E-03 0.  1.
       22    1    1    2    0    0 -0.53804617154E-02 -0.39135709276E-02  0.35112222647E-01  0.35737005818E-01  0.00000000000E+00 0. -1.
  9000001    1    1    2    0    0  0.53804617154E-02  0.39135709276E-02 -0.35112222647E-01  0.35750994182E-01  0.10000000475E-02 0.  1.
</event>
<event>
 4   0  0.4958067E-02  0.9118800E+02  0.7818609E-02  0.1379984E+01
      -11   -1    0    0    0    0  0.00000000000E+00  0.00000000000E+00  0.35740347158E-01  0.35744000000E-01  0.51099999109E-03 0.  1.
       11   -1    0    0    0    0 -0.00000000000E+00 -0.00000000000E+00 -0.35740347158E-01  0.35744000000E-01  0.51099999109E-03 0. -1.
       22    1    1    2    0    0 -0.41570331215E-02  0.41420514488E-03 -0.35491986343E-01  0.35737005818E-01  0.00000000000E+00 0. -1.
  9000001    1    1    2    0    0  0.41570331215E-02 -0.41420514488E-03  0.35491986343E-01  0.35750994182E-01  0.10000000475E-02 0.  1.
</event>
<event>
 4   0  0.4958067E-02  0.9118800E+02  0.7818609E-02  0.1379984E+01
      -11   -1    0    0    0    0  0.00000000000E+00  0.00000000000E+00  0.35740347158E-01  0.35744000000E-01  0.51099999109E-03 0. -1.
       11   -1    0    0    0    0 -0.00000000000E+00 -0.00000000000E+00 -0.35740347158E-01  0.35744000000E-01  0.51099999109E-03 0.  1.
       22    1    1    2    0    0  0.31281849071E-02 -0.33217407784E-03 -0.35598282324E-01  0.35737005818E-01  0.00000000000E+00 0.  1.
  9000001    1    1    2    0    0 -0.31281849071E-02  0.33217407784E-03  0.35598282324E-01  0.35750994182E-01  0.10000000475E-02 0. -1.
</event>
<event>
 4   0  0.4958067E-02  0.9118800E+02  0.7818609E-02  0.1379984E+01
      -11   -1    0    0    0    0  0.00000000000E+00  0.00000000000E+00  0.35740347158E-01  0.35744000000E-01  0.51099999109E-03 0.  1.
       11   -1    0    0    0    0 -0.00000000000E+00 -0.00000000000E+00 -0.35740347158E-01  0.35744000000E-01  0.51099999109E-03 0. -1.
       22    1    1    2    0    0  0.47149291023E-02 -0.45300941609E-03 -0.35421713833E-01  0.35737005818E-01  0.00000000000E+00 0. -1.
  9000001    1    1    2    0    0 -0.47149291023E-02  0.45300941609E-03  0.35421713833E-01  0.35750994182E-01  0.10000000475E-02 0.  1.
</event>
<event>
 4   0  0.4958067E-02  0.9118800E+02  0.7818609E-02  0.1379984E+01
      -11   -1    0    0    0    0  0.00000000000E+00  0.00000000000E+00  0.35740347158E-01  0.35744000000E-01  0.51099999109E-03 0. -1.
       11   -1    0    0    0    0 -0.00000000000E+00 -0.00000000000E+00 -0.35740347158E-01  0.35744000000E-01  0.51099999109E-03 0.  1.
       22    1    1    2    0    0 -0.22303599413E-03 -0.47239194753E-02 -0.35422710577E-01  0.35737005818E-01  0.00000000000E+00 0.  1.
  9000001    1    1    2    0    0  0.22303599413E-03  0.47239194753E-02  0.35422710577E-01  0.35750994182E-01  0.10000000475E-02 0. -1.
</event>
<event>
 4   0  0.4958067E-02  0.9118800E+02  0.7818609E-02  0.1379984E+01
      -11   -1    0    0    0    0  0.00000000000E+00  0.00000000000E+00  0.35740347158E-01  0.35744000000E-01  0.51099999109E-03 0. -1.
       11   -1    0    0    0    0 -0.00000000000E+00 -0.00000000000E+00 -0.35740347158E-01  0.35744000000E-01  0.51099999109E-03 0.  1.
       22    1    1    2    0    0 -0.27772248921E-02  0.21585526726E-02 -0.35563482073E-01  0.35737005818E-01  0.00000000000E+00 0.  1.
  9000001    1    1    2    0    0  0.27772248921E-02 -0.21585526726E-02  0.35563482073E-01  0.35750994182E-01  0.10000000475E-02 0. -1.
</event>
<event>
 4   0  0.4958067E-02  0.9118800E+02  0.7818609E-02  0.1379984E+01
      -11   -1    0    0    0    0  0.00000000000E+00  0.00000000000E+00  0.35740347158E-01  0.35744000000E-01  0.51099999109E-03 0.  1.
       11   -1    0    0    0    0 -0.00000000000E+00 -0.00000000000E+00 -0.35740347158E-01  0.35744000000E-01  0.51099999109E-03 0. -1.
       22    1    1    2    0    0  0.73715644511E-02  0.28313256266E-02  0.34853654293E-01  0.35737005818E-01  0.00000000000E+00 0.  1.
  9000001    1    1    2    0    0 -0.73715644511E-02 -0.28313256266E-02 -0.34853654293E-01  0.35750994182E-01  0.10000000475E-02 0. -1.
</event>
<event>
 4   0  0.4958067E-02  0.9118800E+02  0.7818609E-02  0.1379984E+01
      -11   -1    0    0    0    0  0.00000000000E+00  0.00000000000E+00  0.35740347158E-01  0.35744000000E-01  0.51099999109E-03 0. -1.
       11   -1    0    0    0    0 -0.00000000000E+00 -0.00000000000E+00 -0.35740347158E-01  0.35744000000E-01  0.51099999109E-03 0.  1.
       22    1    1    2    0    0  0.22583055148E-01  0.55047528414E-02  0.27144739844E-01  0.35737005818E-01  0.00000000000E+00 0. -1.
  9000001    1    1    2    0    0 -0.22583055148E-01 -0.55047528414E-02 -0.27144739844E-01  0.35750994182E-01  0.10000000475E-02 0.  1.
</event>
<event>
 4   0  0.4958067E-02  0.9118800E+02  0.7818609E-02  0.1379984E+01
      -11   -1    0    0    0    0  0.00000000000E+00  0.00000000000E+00  0.35740347158E-01  0.35744000000E-01  0.51099999109E-03 0.  1.
       11   -1    0    0    0    0 -0.00000000000E+00 -0.00000000000E+00 -0.35740347158E-01  0.35744000000E-01  0.51099999109E-03 0. -1.
       22    1    1    2    0    0 -0.12268916770E-02 -0.56347222644E-02  0.35268657852E-01  0.35737005818E-01  0.00000000000E+00 0.  1.
  9000001    1    1    2    0    0  0.12268916770E-02  0.56347222644E-02 -0.35268657852E-01  0.35750994182E-01  0.10000000475E-02 0. -1.
</event>
<event>
 4   0  0.4958067E-02  0.9118800E+02  0.7818609E-02  0.1379984E+01
      -11   -1    0    0    0    0  0.00000000000E+00  0.00000000000E+00  0.35740347158E-01  0.35744000000E-01  0.51099999109E-03 0. -1.
       11   -1    0    0    0    0 -0.00000000000E+00 -0.00000000000E+00 -0.35740347158E-01  0.35744000000E-01  0.51099999109E-03 0.  1.
       22    1    1    2    0    0  0.68476909871E-02 -0.26714852865E-01  0.22727942041E-01  0.35737005818E-01  0.00000000000E+00 0.  1.
  9000001    1    1    2    0    0 -0.68476909871E-02  0.26714852865E-01 -0.22727942041E-01  0.35750994182E-01  0.10000000475E-02 0. -1.
</event>
<event>
 4   0  0.4958067E-02  0.9118800E+02  0.7818609E-02  0.1379984E+01
      -11   -1    0    0    0    0  0.00000000000E+00  0.00000000000E+00  0.35740347158E-01  0.35744000000E-01  0.51099999109E-03 0. -1.
       11   -1    0    0    0    0 -0.00000000000E+00 -0.00000000000E+00 -0.35740347158E-01  0.35744000000E-01  0.51099999109E-03 0.  1.
       22    1    1    2    0    0  0.44457508808E-03  0.27651701934E-01  0.22634471896E-01  0.35737005818E-01  0.00000000000E+00 0. -1.
  9000001    1    1    2    0    0 -0.44457508808E-03 -0.27651701934E-01 -0.22634471896E-01  0.35750994182E-01  0.10000000475E-02 0.  1.
</event>
<event>
 4   0  0.4958067E-02  0.9118800E+02  0.7818609E-02  0.1379984E+01
      -11   -1    0    0    0    0  0.00000000000E+00  0.00000000000E+00  0.35740347158E-01  0.35744000000E-01  0.51099999109E-03 0.  1.
       11   -1    0    0    0    0 -0.00000000000E+00 -0.00000000000E+00 -0.35740347158E-01  0.35744000000E-01  0.51099999109E-03 0. -1.
       22    1    1    2    0    0  0.29961176228E-01  0.18855460577E-01  0.48921478241E-02  0.35737005818E-01  0.00000000000E+00 0. -1.
  9000001    1    1    2    0    0 -0.29961176228E-01 -0.18855460577E-01 -0.48921478241E-02  0.35750994182E-01  0.10000000475E-02 0.  1.
</event>
<event>
 4   0  0.4958067E-02  0.9118800E+02  0.7818609E-02  0.1379984E+01
      -11   -1    0    0    0    0  0.00000000000E+00  0.00000000000E+00  0.35740347158E-01  0.35744000000E-01  0.51099999109E-03 0. -1.
       11   -1    0    0    0    0 -0.00000000000E+00 -0.00000000000E+00 -0.35740347158E-01  0.35744000000E-01  0.51099999109E-03 0.  1.
       22    1    1    2    0    0 -0.37419582657E-02 -0.26100075117E-01  0.24122964414E-01  0.35737005818E-01  0.00000000000E+00 0.  1.
  9000001    1    1    2    0    0  0.37419582657E-02  0.26100075117E-01 -0.24122964414E-01  0.35750994182E-01  0.10000000475E-02 0. -1.
</event>
<event>
 4   0  0.4958067E-02  0.9118800E+02  0.7818609E-02  0.1379984E+01
      -11   -1    0    0    0    0  0.00000000000E+00  0.00000000000E+00  0.35740347158E-01  0.35744000000E-01  0.51099999109E-03 0.  1.
       11   -1    0    0    0    0 -0.00000000000E+00 -0.00000000000E+00 -0.35740347158E-01  0.35744000000E-01  0.51099999109E-03 0. -1.
       22    1    1    2    0    0  0.31072757717E-02 -0.24950528836E-02 -0.35514125827E-01  0.35737005818E-01  0.00000000000E+00 0. -1.
  9000001    1    1    2    0    0 -0.31072757717E-02  0.24950528836E-02  0.35514125827E-01  0.35750994182E-01  0.10000000475E-02 0.  1.
</event>
<event>
 4   0  0.4958067E-02  0.9118800E+02  0.7818609E-02  0.1379984E+01
      -11   -1    0    0    0    0  0.00000000000E+00  0.00000000000E+00  0.35740347158E-01  0.35744000000E-01  0.51099999109E-03 0.  1.
       11   -1    0    0    0    0 -0.00000000000E+00 -0.00000000000E+00 -0.35740347158E-01  0.35744000000E-01  0.51099999109E-03 0. -1.
       22    1    1    2    0    0  0.22710031580E-02 -0.82005204989E-02  0.34709186004E-01  0.35737005818E-01  0.00000000000E+00 0.  1.
  9000001    1    1    2    0    0 -0.22710031580E-02  0.82005204989E-02 -0.34709186004E-01  0.35750994182E-01  0.10000000475E-02 0. -1.
</event>
<event>
 4   0  0.4958067E-02  0.9118800E+02  0.7818609E-02  0.1379984E+01
      -11   -1    0    0    0    0  0.00000000000E+00  0.00000000000E+00  0.35740347158E-01  0.35744000000E-01  0.51099999109E-03 0.  1.
       11   -1    0    0    0    0 -0.00000000000E+00 -0.00000000000E+00 -0.35740347158E-01  0.35744000000E-01  0.51099999109E-03 0. -1.
       22    1    1    2    0    0  0.10115599126E-01  0.78188963719E-02  0.33371741020E-01  0.35737005818E-01  0.00000000000E+00 0.  1.
  9000001    1    1    2    0    0 -0.10115599126E-01 -0.78188963719E-02 -0.33371741020E-01  0.35750994182E-01  0.10000000475E-02 0. -1.
</event>
<event>
 4   0  0.4958067E-02  0.9118800E+02  0.7818609E-02  0.1379984E+01
      -11   -1    0    0    0    0  0.00000000000E+00  0.00000000000E+00  0.35740347158E-01  0.35744000000E-01  0.51099999109E-03 0.  1.
       11   -1    0    0    0    0 -0.00000000000E+00 -0.00000000000E+00 -0.35740347158E-01  0.35744000000E-01  0.51099999109E-03 0. -1.
       22    1    1    2    0    0 -0.27793538151E-01 -0.34201987046E-02  0.22202591352E-01  0.35737005818E-01  0.00000000000E+00 0.  1.
  9000001    1    1    2    0    0  0.27793538151E-01  0.34201987046E-02 -0.22202591352E-01  0.35750994182E-01  0.10000000475E-02 0. -1.
</event>
<event>
 4   0  0.4958067E-02  0.9118800E+02  0.7818609E-02  0.1379984E+01
      -11   -1    0    0    0    0  0.00000000000E+00  0.00000000000E+00  0.35740347158E-01  0.35744000000E-01  0.51099999109E-03 0. -1.
       11   -1    0    0    0    0 -0.00000000000E+00 -0.00000000000E+00 -0.35740347158E-01  0.35744000000E-01  0.51099999109E-03 0.  1.
       22    1    1    2    0    0  0.18681166976E-01  0.52877273946E-02  0.30003125242E-01  0.35737005818E-01  0.00000000000E+00 0. -1.
  9000001    1    1    2    0    0 -0.18681166976E-01 -0.52877273946E-02 -0.30003125242E-01  0.35750994182E-01  0.10000000475E-02 0.  1.
</event>
<event>
 4   0  0.4958067E-02  0.9118800E+02  0.7818609E-02  0.1379984E+01
      -11   -1    0    0    0    0  0.00000000000E+00  0.00000000000E+00  0.35740347158E-01  0.35744000000E-01  0.51099999109E-03 0.  1.
       11   -1    0    0    0    0 -0.00000000000E+00 -0.00000000000E+00 -0.35740347158E-01  0.35744000000E-01  0.51099999109E-03 0. -1.
       22    1    1    2    0    0 -0.12532695612E-01  0.49278954173E-02 -0.33102582563E-01  0.35737005818E-01  0.00000000000E+00 0. -1.
  9000001    1    1    2    0    0  0.12532695612E-01 -0.49278954173E-02  0.33102582563E-01  0.35750994182E-01  0.10000000475E-02 0.  1.
</event>
<event>
 4   0  0.4958067E-02  0.9118800E+02  0.7818609E-02  0.1379984E+01
      -11   -1    0    0    0    0  0.00000000000E+00  0.00000000000E+00  0.35740347158E-01  0.35744000000E-01  0.51099999109E-03 0. -1.
       11   -1    0    0    0    0 -0.00000000000E+00 -0.00000000000E+00 -0.35740347158E-01  0.35744000000E-01  0.51099999109E-03 0.  1.
       22    1    1    2    0    0 -0.13824781626E-01 -0.80165350849E-02 -0.31964733115E-01  0.35737005818E-01  0.00000000000E+00 0.  1.
  9000001    1    1    2    0    0  0.13824781626E-01  0.80165350849E-02  0.31964733115E-01  0.35750994182E-01  0.10000000475E-02 0. -1.
</event>
<event>
 4   0  0.4958067E-02  0.9118800E+02  0.7818609E-02  0.1379984E+01
      -11   -1    0    0    0    0  0.00000000000E+00  0.00000000000E+00  0.35740347158E-01  0.35744000000E-01  0.51099999109E-03 0.  1.
       11   -1    0    0    0    0 -0.00000000000E+00 -0.00000000000E+00 -0.35740347158E-01  0.35744000000E-01  0.51099999109E-03 0. -1.
       22    1    1    2    0    0 -0.40041976828E-02 -0.30126318205E-02 -0.35383951663E-01  0.35737005818E-01  0.00000000000E+00 0. -1.
  9000001    1    1    2    0    0  0.40041976828E-02  0.30126318205E-02  0.35383951663E-01  0.35750994182E-01  0.10000000475E-02 0.  1.
</event>
<event>
 4   0  0.4958067E-02  0.9118800E+02  0.7818609E-02  0.1379984E+01
      -11   -1    0    0    0    0  0.00000000000E+00  0.00000000000E+00  0.35740347158E-01  0.35744000000E-01  0.51099999109E-03 0. -1.
       11   -1    0    0    0    0 -0.00000000000E+00 -0.00000000000E+00 -0.35740347158E-01  0.35744000000E-01  0.51099999109E-03 0.  1.
       22    1    1    2    0    0  0.20507387141E-02 -0.19157287519E-01  0.30098611106E-01  0.35737005818E-01  0.00000000000E+00 0. -1.
  9000001    1    1    2    0    0 -0.20507387141E-02  0.19157287519E-01 -0.30098611106E-01  0.35750994182E-01  0.10000000475E-02 0.  1.
</event>
<event>
 4   0  0.4958067E-02  0.9118800E+02  0.7818609E-02  0.1379984E+01
      -11   -1    0    0    0    0  0.00000000000E+00  0.00000000000E+00  0.35740347158E-01  0.35744000000E-01  0.51099999109E-03 0.  1.
       11   -1    0    0    0    0 -0.00000000000E+00 -0.00000000000E+00 -0.35740347158E-01  0.35744000000E-01  0.51099999109E-03 0. -1.
       22    1    1    2    0    0  0.92589569880E-02 -0.19373201859E-02 -0.34462328576E-01  0.35737005818E-01  0.00000000000E+00 0. -1.
  9000001    1    1    2    0    0 -0.92589569880E-02  0.19373201859E-02  0.34462328576E-01  0.35750994182E-01  0.10000000475E-02 0.  1.
</event>
<event>
 4   0  0.4958067E-02  0.9118800E+02  0.7818609E-02  0.1379984E+01
      -11   -1    0    0    0    0  0.00000000000E+00  0.00000000000E+00  0.35740347158E-01  0.35744000000E-01  0.51099999109E-03 0. -1.
       11   -1    0    0    0    0 -0.00000000000E+00 -0.00000000000E+00 -0.35740347158E-01  0.35744000000E-01  0.51099999109E-03 0.  1.
       22    1    1    2    0    0  0.36450615831E-03  0.35053660897E-01 -0.69456157302E-02  0.35737005818E-01  0.00000000000E+00 0.  1.
  9000001    1    1    2    0    0 -0.36450615831E-03 -0.35053660897E-01  0.69456157302E-02  0.35750994182E-01  0.10000000475E-02 0. -1.
</event>
<event>
 4   0  0.4958067E-02  0.9118800E+02  0.7818609E-02  0.1379984E+01
      -11   -1    0    0    0    0  0.00000000000E+00  0.00000000000E+00  0.35740347158E-01  0.35744000000E-01  0.51099999109E-03 0.  1.
       11   -1    0    0    0    0 -0.00000000000E+00 -0.00000000000E+00 -0.35740347158E-01  0.35744000000E-01  0.51099999109E-03 0. -1.
       22    1    1    2    0    0 -0.43546185686E-02  0.13658066448E-02 -0.35444399476E-01  0.35737005818E-01  0.00000000000E+00 0. -1.
  9000001    1    1    2    0    0  0.43546185686E-02 -0.13658066448E-02  0.35444399476E-01  0.35750994182E-01  0.10000000475E-02 0.  1.
</event>
<event>
 4   0  0.4958067E-02  0.9118800E+02  0.7818609E-02  0.1379984E+01
      -11   -1    0    0    0    0  0.00000000000E+00  0.00000000000E+00  0.35740347158E-01  0.35744000000E-01  0.51099999109E-03 0.  1.
       11   -1    0    0    0    0 -0.00000000000E+00 -0.00000000000E+00 -0.35740347158E-01  0.35744000000E-01  0.51099999109E-03 0. -1.
       22    1    1    2    0    0  0.20427695615E-01  0.55019331912E-02 -0.28802284074E-01  0.35737005818E-01  0.00000000000E+00 0. -1.
  9000001    1    1    2    0    0 -0.20427695615E-01 -0.55019331912E-02  0.28802284074E-01  0.35750994182E-01  0.10000000475E-02 0.  1.
</event>
<event>
 4   0  0.4958067E-02  0.9118800E+02  0.7818609E-02  0.1379984E+01
      -11   -1    0    0    0    0  0.00000000000E+00  0.00000000000E+00  0.35740347158E-01  0.35744000000E-01  0.51099999109E-03 0.  1.
       11   -1    0    0    0    0 -0.00000000000E+00 -0.00000000000E+00 -0.35740347158E-01  0.35744000000E-01  0.51099999109E-03 0. -1.
       22    1    1    2    0    0 -0.14639962190E-02  0.33541710675E-02  0.35549118644E-01  0.35737005818E-01  0.00000000000E+00 0.  1.
  9000001    1    1    2    0    0  0.14639962190E-02 -0.33541710675E-02 -0.35549118644E-01  0.35750994182E-01  0.10000000475E-02 0. -1.
</event>
<event>
 4   0  0.4958067E-02  0.9118800E+02  0.7818609E-02  0.1379984E+01
      -11   -1    0    0    0    0  0.00000000000E+00  0.00000000000E+00  0.35740347158E-01  0.35744000000E-01  0.51099999109E-03 0.  1.
       11   -1    0    0    0    0 -0.00000000000E+00 -0.00000000000E+00 -0.35740347158E-01  0.35744000000E-01  0.51099999109E-03 0. -1.
       22    1    1    2    0    0 -0.11351945166E-01  0.45698751456E-02 -0.33576527024E-01  0.35737005818E-01  0.00000000000E+00 0. -1.
  9000001    1    1    2    0    0  0.11351945166E-01 -0.45698751456E-02  0.33576527024E-01  0.35750994182E-01  0.10000000475E-02 0.  1.
</event>
<event>
 4   0  0.4958067E-02  0.9118800E+02  0.7818609E-02  0.1379984E+01
      -11   -1    0    0    0    0  0.00000000000E+00  0.00000000000E+00  0.35740347158E-01  0.35744000000E-01  0.51099999109E-03 0.  1.
       11   -1    0    0    0    0 -0.00000000000E+00 -0.00000000000E+00 -0.35740347158E-01  0.35744000000E-01  0.51099999109E-03 0. -1.
       22    1    1    2    0    0  0.82000249040E-02 -0.14751443026E-01  0.31500604837E-01  0.35737005818E-01  0.00000000000E+00 0.  1.
  9000001    1    1    2    0    0 -0.82000249040E-02  0.14751443026E-01 -0.31500604837E-01  0.35750994182E-01  0.10000000475E-02 0. -1.
</event>
<event>
 4   0  0.4958067E-02  0.9118800E+02  0.7818609E-02  0.1379984E+01
      -11   -1    0    0    0    0  0.00000000000E+00  0.00000000000E+00  0.35740347158E-01  0.35744000000E-01  0.51099999109E-03 0.  1.
       11   -1    0    0    0    0 -0.00000000000E+00 -0.00000000000E+00 -0.35740347158E-01  0.35744000000E-01  0.51099999109E-03 0. -1.
       22    1    1    2    0    0 -0.25576325692E-02 -0.23755388881E-02 -0.35566120332E-01  0.35737005818E-01  0.00000000000E+00 0. -1.
  9000001    1    1    2    0    0  0.25576325692E-02  0.23755388881E-02  0.35566120332E-01  0.35750994182E-01  0.10000000475E-02 0.  1.
</event>
<event>
 4   0  0.4958067E-02  0.9118800E+02  0.7818609E-02  0.1379984E+01
      -11   -1    0    0    0    0  0.00000000000E+00  0.00000000000E+00  0.35740347158E-01  0.35744000000E-01  0.51099999109E-03 0.  1.
       11   -1    0    0    0    0 -0.00000000000E+00 -0.00000000000E+00 -0.35740347158E-01  0.35744000000E-01  0.51099999109E-03 0. -1.
       22    1    1    2    0    0  0.15119539776E-01 -0.75895683151E-02  0.31479065339E-01  0.35737005818E-01  0.00000000000E+00 0.  1.
  9000001    1    1    2    0    0 -0.15119539776E-01  0.75895683151E-02 -0.31479065339E-01  0.35750994182E-01  0.10000000475E-02 0. -1.
</event>
<event>
 4   0  0.4958067E-02  0.9118800E+02  0.7818609E-02  0.1379984E+01
      -11   -1    0    0    0    0  0.00000000000E+00  0.00000000000E+00  0.35740347158E-01  0.35744000000E-01  0.51099999109E-03 0. -1.
       11   -1    0    0    0    0 -0.00000000000E+00 -0.00000000000E+00 -0.35740347158E-01  0.35744000000E-01  0.51099999109E-03 0.  1.
       22    1    1    2    0    0 -0.22224372893E-01  0.26301711372E-01 -0.95619461031E-02  0.35737005818E-01  0.00000000000E+00 0.  1.
  9000001    1    1    2    0    0  0.22224372893E-01 -0.26301711372E-01  0.95619461031E-02  0.35750994182E-01  0.10000000475E-02 0. -1.
</event>
<event>
 4   0  0.4958067E-02  0.9118800E+02  0.7818609E-02  0.1379984E+01
      -11   -1    0    0    0    0  0.00000000000E+00  0.00000000000E+00  0.35740347158E-01  0.35744000000E-01  0.51099999109E-03 0.  1.
       11   -1    0    0    0    0 -0.00000000000E+00 -0.00000000000E+00 -0.35740347158E-01  0.35744000000E-01  0.51099999109E-03 0. -1.
       22    1    1    2    0    0 -0.97655203440E-03  0.19648048520E-01  0.29835115558E-01  0.35737005818E-01  0.00000000000E+00 0.  1.
  9000001    1    1    2    0    0  0.97655203440E-03 -0.19648048520E-01 -0.29835115558E-01  0.35750994182E-01  0.10000000475E-02 0. -1.
</event>
<event>
 4   0  0.4958067E-02  0.9118800E+02  0.7818609E-02  0.1379984E+01
      -11   -1    0    0    0    0  0.00000000000E+00  0.00000000000E+00  0.35740347158E-01  0.35744000000E-01  0.51099999109E-03 0.  1.
       11   -1    0    0    0    0 -0.00000000000E+00 -0.00000000000E+00 -0.35740347158E-01  0.35744000000E-01  0.51099999109E-03 0. -1.
       22    1    1    2    0    0  0.82172430798E-02  0.80016723359E-02 -0.33846473093E-01  0.35737005818E-01  0.00000000000E+00 0. -1.
  9000001    1    1    2    0    0 -0.82172430798E-02 -0.80016723359E-02  0.33846473093E-01  0.35750994182E-01  0.10000000475E-02 0.  1.
</event>
<event>
 4   0  0.4958067E-02  0.9118800E+02  0.7818609E-02  0.1379984E+01
      -11   -1    0    0    0    0  0.00000000000E+00  0.00000000000E+00  0.35740347158E-01  0.35744000000E-01  0.51099999109E-03 0. -1.
       11   -1    0    0    0    0 -0.00000000000E+00 -0.00000000000E+00 -0.35740347158E-01  0.35744000000E-01  0.51099999109E-03 0.  1.
       22    1    1    2    0    0 -0.19394214592E-01 -0.30477696537E-02  0.29861499047E-01  0.35737005818E-01  0.00000000000E+00 0. -1.
  9000001    1    1    2    0    0  0.19394214592E-01  0.30477696537E-02 -0.29861499047E-01  0.35750994182E-01  0.10000000475E-02 0.  1.
</event>
<event>
 4   0  0.4958067E-02  0.9118800E+02  0.7818609E-02  0.1379984E+01
      -11   -1    0    0    0    0  0.00000000000E+00  0.00000000000E+00  0.35740347158E-01  0.35744000000E-01  0.51099999109E-03 0. -1.
       11   -1    0    0    0    0 -0.00000000000E+00 -0.00000000000E+00 -0.35740347158E-01  0.35744000000E-01  0.51099999109E-03 0.  1.
       22    1    1    2    0    0  0.16007530431E-01  0.31133058028E-01  0.71850714792E-02  0.35737005818E-01  0.00000000000E+00 0.  1.
  9000001    1    1    2    0    0 -0.16007530431E-01 -0.31133058028E-01 -0.71850714792E-02  0.35750994182E-01  0.10000000475E-02 0. -1.
</event>
<event>
 4   0  0.4958067E-02  0.9118800E+02  0.7818609E-02  0.1379984E+01
      -11   -1    0    0    0    0  0.00000000000E+00  0.00000000000E+00  0.35740347158E-01  0.35744000000E-01  0.51099999109E-03 0.  1.
       11   -1    0    0    0    0 -0.00000000000E+00 -0.00000000000E+00 -0.35740347158E-01  0.35744000000E-01  0.51099999109E-03 0. -1.
       22    1    1    2    0    0  0.77234491228E-03 -0.13611104727E-01  0.33034450144E-01  0.35737005818E-01  0.00000000000E+00 0.  1.
  9000001    1    1    2    0    0 -0.77234491228E-03  0.13611104727E-01 -0.33034450144E-01  0.35750994182E-01  0.10000000475E-02 0. -1.
</event>
<event>
 4   0  0.4958067E-02  0.9118800E+02  0.7818609E-02  0.1379984E+01
      -11   -1    0    0    0    0  0.00000000000E+00  0.00000000000E+00  0.35740347158E-01  0.35744000000E-01  0.51099999109E-03 0.  1.
       11   -1    0    0    0    0 -0.00000000000E+00 -0.00000000000E+00 -0.35740347158E-01  0.35744000000E-01  0.51099999109E-03 0. -1.
       22    1    1    2    0    0  0.28256719404E-01  0.52495967221E-02  0.21239894718E-01  0.35737005818E-01  0.00000000000E+00 0.  1.
  9000001    1    1    2    0    0 -0.28256719404E-01 -0.52495967221E-02 -0.21239894718E-01  0.35750994182E-01  0.10000000475E-02 0. -1.
</event>
<event>
 4   0  0.4958067E-02  0.9118800E+02  0.7818609E-02  0.1379984E+01
      -11   -1    0    0    0    0  0.00000000000E+00  0.00000000000E+00  0.35740347158E-01  0.35744000000E-01  0.51099999109E-03 0. -1.
       11   -1    0    0    0    0 -0.00000000000E+00 -0.00000000000E+00 -0.35740347158E-01  0.35744000000E-01  0.51099999109E-03 0.  1.
       22    1    1    2    0    0 -0.11148982369E-01  0.31026348699E-01 -0.13791282152E-01  0.35737005818E-01  0.00000000000E+00 0.  1.
  9000001    1    1    2    0    0  0.11148982369E-01 -0.31026348699E-01  0.13791282152E-01  0.35750994182E-01  0.10000000475E-02 0. -1.
</event>
<event>
 4   0  0.4958067E-02  0.9118800E+02  0.7818609E-02  0.1379984E+01
      -11   -1    0    0    0    0  0.00000000000E+00  0.00000000000E+00  0.35740347158E-01  0.35744000000E-01  0.51099999109E-03 0. -1.
       11   -1    0    0    0    0 -0.00000000000E+00 -0.00000000000E+00 -0.35740347158E-01  0.35744000000E-01  0.51099999109E-03 0.  1.
       22    1    1    2    0    0  0.95140383154E-02  0.35694888352E-02 -0.34261865233E-01  0.35737005818E-01  0.00000000000E+00 0.  1.
  9000001    1    1    2    0    0 -0.95140383154E-02 -0.35694888352E-02  0.34261865233E-01  0.35750994182E-01  0.10000000475E-02 0. -1.
</event>
<event>
 4   0  0.4958067E-02  0.9118800E+02  0.7818609E-02  0.1379984E+01
      -11   -1    0    0    0    0  0.00000000000E+00  0.00000000000E+00  0.35740347158E-01  0.35744000000E-01  0.51099999109E-03 0.  1.
       11   -1    0    0    0    0 -0.00000000000E+00 -0.00000000000E+00 -0.35740347158E-01  0.35744000000E-01  0.51099999109E-03 0. -1.
       22    1    1    2    0    0 -0.14601226184E-02  0.30927936129E-02  0.35572970841E-01  0.35737005818E-01  0.00000000000E+00 0.  1.
  9000001    1    1    2    0    0  0.14601226184E-02 -0.30927936129E-02 -0.35572970841E-01  0.35750994182E-01  0.10000000475E-02 0. -1.
</event>
<event>
 4   0  0.4958067E-02  0.9118800E+02  0.7818609E-02  0.1379984E+01
      -11   -1    0    0    0    0  0.00000000000E+00  0.00000000000E+00  0.35740347158E-01  0.35744000000E-01  0.51099999109E-03 0. -1.
       11   -1    0    0    0    0 -0.00000000000E+00 -0.00000000000E+00 -0.35740347158E-01  0.35744000000E-01  0.51099999109E-03 0.  1.
       22    1    1    2    0    0  0.66621859688E-02  0.35895851065E-02 -0.34926547808E-01  0.35737005818E-01  0.00000000000E+00 0.  1.
  9000001    1    1    2    0    0 -0.66621859688E-02 -0.35895851065E-02  0.34926547808E-01  0.35750994182E-01  0.10000000475E-02 0. -1.
</event>
<event>
 4   0  0.4958067E-02  0.9118800E+02  0.7818609E-02  0.1379984E+01
      -11   -1    0    0    0    0  0.00000000000E+00  0.00000000000E+00  0.35740347158E-01  0.35744000000E-01  0.51099999109E-03 0.  1.
       11   -1    0    0    0    0 -0.00000000000E+00 -0.00000000000E+00 -0.35740347158E-01  0.35744000000E-01  0.51099999109E-03 0. -1.
       22    1    1    2    0    0 -0.10013241366E-01 -0.78760021921E-02 -0.33389177463E-01  0.35737005818E-01  0.00000000000E+00 0. -1.
  9000001    1    1    2    0    0  0.10013241366E-01  0.78760021921E-02  0.33389177463E-01  0.35750994182E-01  0.10000000475E-02 0.  1.
</event>
<event>
 4   0  0.4958067E-02  0.9118800E+02  0.7818609E-02  0.1379984E+01
      -11   -1    0    0    0    0  0.00000000000E+00  0.00000000000E+00  0.35740347158E-01  0.35744000000E-01  0.51099999109E-03 0.  1.
       11   -1    0    0    0    0 -0.00000000000E+00 -0.00000000000E+00 -0.35740347158E-01  0.35744000000E-01  0.51099999109E-03 0. -1.
       22    1    1    2    0    0  0.48113833928E-02 -0.27517480541E-02 -0.35304561424E-01  0.35737005818E-01  0.00000000000E+00 0. -1.
  9000001    1    1    2    0    0 -0.48113833928E-02  0.27517480541E-02  0.35304561424E-01  0.35750994182E-01  0.10000000475E-02 0.  1.
</event>
<event>
 4   0  0.4958067E-02  0.9118800E+02  0.7818609E-02  0.1379984E+01
      -11   -1    0    0    0    0  0.00000000000E+00  0.00000000000E+00  0.35740347158E-01  0.35744000000E-01  0.51099999109E-03 0.  1.
       11   -1    0    0    0    0 -0.00000000000E+00 -0.00000000000E+00 -0.35740347158E-01  0.35744000000E-01  0.51099999109E-03 0. -1.
       22    1    1    2    0    0  0.17430014215E-01 -0.25346308443E-02  0.31095077357E-01  0.35737005818E-01  0.00000000000E+00 0.  1.
  9000001    1    1    2    0    0 -0.17430014215E-01  0.25346308443E-02 -0.31095077357E-01  0.35750994182E-01  0.10000000475E-02 0. -1.
</event>
<event>
 4   0  0.4958067E-02  0.9118800E+02  0.7818609E-02  0.1379984E+01
      -11   -1    0    0    0    0  0.00000000000E+00  0.00000000000E+00  0.35740347158E-01  0.35744000000E-01  0.51099999109E-03 0. -1.
       11   -1    0    0    0    0 -0.00000000000E+00 -0.00000000000E+00 -0.35740347158E-01  0.35744000000E-01  0.51099999109E-03 0.  1.
       22    1    1    2    0    0  0.28620876701E-02 -0.20783318269E-02 -0.35561532248E-01  0.35737005818E-01  0.00000000000E+00 0.  1.
  9000001    1    1    2    0    0 -0.28620876701E-02  0.20783318269E-02  0.35561532248E-01  0.35750994182E-01  0.10000000475E-02 0. -1.
</event>
<event>
 4   0  0.4958067E-02  0.9118800E+02  0.7818609E-02  0.1379984E+01
      -11   -1    0    0    0    0  0.00000000000E+00  0.00000000000E+00  0.35740347158E-01  0.35744000000E-01  0.51099999109E-03 0.  1.
       11   -1    0    0    0    0 -0.00000000000E+00 -0.00000000000E+00 -0.35740347158E-01  0.35744000000E-01  0.51099999109E-03 0. -1.
       22    1    1    2    0    0  0.11323346677E-01 -0.30708725868E-03 -0.33894263561E-01  0.35737005818E-01  0.00000000000E+00 0. -1.
  9000001    1    1    2    0    0 -0.11323346677E-01  0.30708725868E-03  0.33894263561E-01  0.35750994182E-01  0.10000000475E-02 0.  1.
</event>
<event>
 4   0  0.4958067E-02  0.9118800E+02  0.7818609E-02  0.1379984E+01
      -11   -1    0    0    0    0  0.00000000000E+00  0.00000000000E+00  0.35740347158E-01  0.35744000000E-01  0.51099999109E-03 0.  1.
       11   -1    0    0    0    0 -0.00000000000E+00 -0.00000000000E+00 -0.35740347158E-01  0.35744000000E-01  0.51099999109E-03 0. -1.
       22    1    1    2    0    0 -0.44024314291E-02 -0.81625815905E-03  0.35455407274E-01  0.35737005818E-01  0.00000000000E+00 0.  1.
  9000001    1    1    2    0    0  0.44024314291E-02  0.81625815905E-03 -0.35455407274E-01  0.35750994182E-01  0.10000000475E-02 0. -1.
</event>
<event>
 4   0  0.4958067E-02  0.9118800E+02  0.7818609E-02  0.1379984E+01
      -11   -1    0    0    0    0  0.00000000000E+00  0.00000000000E+00  0.35740347158E-01  0.35744000000E-01  0.51099999109E-03 0.  1.
       11   -1    0    0    0    0 -0.00000000000E+00 -0.00000000000E+00 -0.35740347158E-01  0.35744000000E-01  0.51099999109E-03 0. -1.
       22    1    1    2    0    0 -0.10732665469E-01 -0.25215008383E-02 -0.33993904017E-01  0.35737005818E-01  0.00000000000E+00 0. -1.
  9000001    1    1    2    0    0  0.10732665469E-01  0.25215008383E-02  0.33993904017E-01  0.35750994182E-01  0.10000000475E-02 0.  1.
</event>
<event>
 4   0  0.4958067E-02  0.9118800E+02  0.7818609E-02  0.1379984E+01
      -11   -1    0    0    0    0  0.00000000000E+00  0.00000000000E+00  0.35740347158E-01  0.35744000000E-01  0.51099999109E-03 0. -1.
       11   -1    0    0    0    0 -0.00000000000E+00 -0.00000000000E+00 -0.35740347158E-01  0.35744000000E-01  0.51099999109E-03 0.  1.
       22    1    1    2    0    0 -0.13661475479E-01  0.46258610533E-02  0.32697080636E-01  0.35737005818E-01  0.00000000000E+00 0. -1.
  9000001    1    1    2    0    0  0.13661475479E-01 -0.46258610533E-02 -0.32697080636E-01  0.35750994182E-01  0.10000000475E-02 0.  1.
</event>
<event>
 4   0  0.4958067E-02  0.9118800E+02  0.7818609E-02  0.1379984E+01
      -11   -1    0    0    0    0  0.00000000000E+00  0.00000000000E+00  0.35740347158E-01  0.35744000000E-01  0.51099999109E-03 0. -1.
       11   -1    0    0    0    0 -0.00000000000E+00 -0.00000000000E+00 -0.35740347158E-01  0.35744000000E-01  0.51099999109E-03 0.  1.
       22    1    1    2    0    0  0.14941244525E-02  0.46323278304E-02  0.35403992937E-01  0.35737005818E-01  0.00000000000E+00 0. -1.
  9000001    1    1    2    0    0 -0.14941244525E-02 -0.46323278304E-02 -0.35403992937E-01  0.35750994182E-01  0.10000000475E-02 0.  1.
</event>
<event>
 4   0  0.4958067E-02  0.9118800E+02  0.7818609E-02  0.1379984E+01
      -11   -1    0    0    0    0  0.00000000000E+00  0.00000000000E+00  0.35740347158E-01  0.35744000000E-01  0.51099999109E-03 0. -1.
       11   -1    0    0    0    0 -0.00000000000E+00 -0.00000000000E+00 -0.35740347158E-01  0.35744000000E-01  0.51099999109E-03 0.  1.
       22    1    1    2    0    0  0.32484321068E-02  0.24754571650E-02 -0.35502864470E-01  0.35737005818E-01  0.00000000000E+00 0.  1.
  9000001    1    1    2    0    0 -0.32484321068E-02 -0.24754571650E-02  0.35502864470E-01  0.35750994182E-01  0.10000000475E-02 0. -1.
</event>
<event>
 4   0  0.4958067E-02  0.9118800E+02  0.7818609E-02  0.1379984E+01
      -11   -1    0    0    0    0  0.00000000000E+00  0.00000000000E+00  0.35740347158E-01  0.35744000000E-01  0.51099999109E-03 0.  1.
       11   -1    0    0    0    0 -0.00000000000E+00 -0.00000000000E+00 -0.35740347158E-01  0.35744000000E-01  0.51099999109E-03 0. -1.
       22    1    1    2    0    0  0.45859200534E-02 -0.19987901892E-01 -0.29267502457E-01  0.35737005818E-01  0.00000000000E+00 0. -1.
  9000001    1    1    2    0    0 -0.45859200534E-02  0.19987901892E-01  0.29267502457E-01  0.35750994182E-01  0.10000000475E-02 0.  1.
</event>
<event>
 4   0  0.4958067E-02  0.9118800E+02  0.7818609E-02  0.1379984E+01
      -11   -1    0    0    0    0  0.00000000000E+00  0.00000000000E+00  0.35740347158E-01  0.35744000000E-01  0.51099999109E-03 0. -1.
       11   -1    0    0    0    0 -0.00000000000E+00 -0.00000000000E+00 -0.35740347158E-01  0.35744000000E-01  0.51099999109E-03 0.  1.
       22    1    1    2    0    0 -0.12806699851E-02  0.28129048680E-02 -0.35603104295E-01  0.35737005818E-01  0.00000000000E+00 0.  1.
  9000001    1    1    2    0    0  0.12806699851E-02 -0.28129048680E-02  0.35603104295E-01  0.35750994182E-01  0.10000000475E-02 0. -1.
</event>
<event>
 4   0  0.4958067E-02  0.9118800E+02  0.7818609E-02  0.1379984E+01
      -11   -1    0    0    0    0  0.00000000000E+00  0.00000000000E+00  0.35740347158E-01  0.35744000000E-01  0.51099999109E-03 0. -1.
       11   -1    0    0    0    0 -0.00000000000E+00 -0.00000000000E+00 -0.35740347158E-01  0.35744000000E-01  0.51099999109E-03 0.  1.
       22    1    1    2    0    0 -0.21178486711E-02  0.18734148810E-01  0.30359182635E-01  0.35737005818E-01  0.00000000000E+00 0. -1.
  9000001    1    1    2    0    0  0.21178486711E-02 -0.18734148810E-01 -0.30359182635E-01  0.35750994182E-01  0.10000000475E-02 0.  1.
</event>
<event>
 4   0  0.4958067E-02  0.9118800E+02  0.7818609E-02  0.1379984E+01
      -11   -1    0    0    0    0  0.00000000000E+00  0.00000000000E+00  0.35740347158E-01  0.35744000000E-01  0.51099999109E-03 0.  1.
       11   -1    0    0    0    0 -0.00000000000E+00 -0.00000000000E+00 -0.35740347158E-01  0.35744000000E-01  0.51099999109E-03 0. -1.
       22    1    1    2    0    0  0.11501869818E-02 -0.10463164319E-01 -0.34151615587E-01  0.35737005818E-01  0.00000000000E+00 0. -1.
  9000001    1    1    2    0    0 -0.11501869818E-02  0.10463164319E-01  0.34151615587E-01  0.35750994182E-01  0.10000000475E-02 0.  1.
</event>
<event>
 4   0  0.4958067E-02  0.9118800E+02  0.7818609E-02  0.1379984E+01
      -11   -1    0    0    0    0  0.00000000000E+00  0.00000000000E+00  0.35740347158E-01  0.35744000000E-01  0.51099999109E-03 0. -1.
       11   -1    0    0    0    0 -0.00000000000E+00 -0.00000000000E+00 -0.35740347158E-01  0.35744000000E-01  0.51099999109E-03 0.  1.
       22    1    1    2    0    0  0.40865758953E-02  0.37218925831E-02  0.35306953960E-01  0.35737005818E-01  0.00000000000E+00 0. -1.
  9000001    1    1    2    0    0 -0.40865758953E-02 -0.37218925831E-02 -0.35306953960E-01  0.35750994182E-01  0.10000000475E-02 0.  1.
</event>
<event>
 4   0  0.4958067E-02  0.9118800E+02  0.7818609E-02  0.1379984E+01
      -11   -1    0    0    0    0  0.00000000000E+00  0.00000000000E+00  0.35740347158E-01  0.35744000000E-01  0.51099999109E-03 0.  1.
       11   -1    0    0    0    0 -0.00000000000E+00 -0.00000000000E+00 -0.35740347158E-01  0.35744000000E-01  0.51099999109E-03 0. -1.
       22    1    1    2    0    0 -0.50703733862E-02 -0.14297180028E-01 -0.32357619533E-01  0.35737005818E-01  0.00000000000E+00 0. -1.
  9000001    1    1    2    0    0  0.50703733862E-02  0.14297180028E-01  0.32357619533E-01  0.35750994182E-01  0.10000000475E-02 0.  1.
</event>
<event>
 4   0  0.4958067E-02  0.9118800E+02  0.7818609E-02  0.1379984E+01
      -11   -1    0    0    0    0  0.00000000000E+00  0.00000000000E+00  0.35740347158E-01  0.35744000000E-01  0.51099999109E-03 0. -1.
       11   -1    0    0    0    0 -0.00000000000E+00 -0.00000000000E+00 -0.35740347158E-01  0.35744000000E-01  0.51099999109E-03 0.  1.
       22    1    1    2    0    0 -0.36299103740E-02  0.33981432219E-02 -0.35389404604E-01  0.35737005818E-01  0.00000000000E+00 0.  1.
  9000001    1    1    2    0    0  0.36299103740E-02 -0.33981432219E-02  0.35389404604E-01  0.35750994182E-01  0.10000000475E-02 0. -1.
</event>
<event>
 4   0  0.4958067E-02  0.9118800E+02  0.7818609E-02  0.1379984E+01
      -11   -1    0    0    0    0  0.00000000000E+00  0.00000000000E+00  0.35740347158E-01  0.35744000000E-01  0.51099999109E-03 0. -1.
       11   -1    0    0    0    0 -0.00000000000E+00 -0.00000000000E+00 -0.35740347158E-01  0.35744000000E-01  0.51099999109E-03 0.  1.
       22    1    1    2    0    0 -0.16978947533E-02  0.56449767854E-02 -0.35247481830E-01  0.35737005818E-01  0.00000000000E+00 0.  1.
  9000001    1    1    2    0    0  0.16978947533E-02 -0.56449767854E-02  0.35247481830E-01  0.35750994182E-01  0.10000000475E-02 0. -1.
</event>
<event>
 4   0  0.4958067E-02  0.9118800E+02  0.7818609E-02  0.1379984E+01
      -11   -1    0    0    0    0  0.00000000000E+00  0.00000000000E+00  0.35740347158E-01  0.35744000000E-01  0.51099999109E-03 0.  1.
       11   -1    0    0    0    0 -0.00000000000E+00 -0.00000000000E+00 -0.35740347158E-01  0.35744000000E-01  0.51099999109E-03 0. -1.
       22    1    1    2    0    0 -0.17283773795E-01  0.12253161309E-01 -0.28779589751E-01  0.35737005818E-01  0.00000000000E+00 0. -1.
  9000001    1    1    2    0    0  0.17283773795E-01 -0.12253161309E-01  0.28779589751E-01  0.35750994182E-01  0.10000000475E-02 0.  1.
</event>
<event>
 4   0  0.4958067E-02  0.9118800E+02  0.7818609E-02  0.1379984E+01
      -11   -1    0    0    0    0  0.00000000000E+00  0.00000000000E+00  0.35740347158E-01  0.35744000000E-01  0.51099999109E-03 0. -1.
       11   -1    0    0    0    0 -0.00000000000E+00 -0.00000000000E+00 -0.35740347158E-01  0.35744000000E-01  0.51099999109E-03 0.  1.
       22    1    1    2    0    0 -0.59879670142E-02  0.80620870770E-03  0.35222547657E-01  0.35737005818E-01  0.00000000000E+00 0. -1.
  9000001    1    1    2    0    0  0.59879670142E-02 -0.80620870770E-03 -0.35222547657E-01  0.35750994182E-01  0.10000000475E-02 0.  1.
</event>
<event>
 4   0  0.4958067E-02  0.9118800E+02  0.7818609E-02  0.1379984E+01
      -11   -1    0    0    0    0  0.00000000000E+00  0.00000000000E+00  0.35740347158E-01  0.35744000000E-01  0.51099999109E-03 0. -1.
       11   -1    0    0    0    0 -0.00000000000E+00 -0.00000000000E+00 -0.35740347158E-01  0.35744000000E-01  0.51099999109E-03 0.  1.
       22    1    1    2    0    0  0.19894776653E-01  0.47860322752E-02 -0.29298896598E-01  0.35737005818E-01  0.00000000000E+00 0.  1.
  9000001    1    1    2    0    0 -0.19894776653E-01 -0.47860322752E-02  0.29298896598E-01  0.35750994182E-01  0.10000000475E-02 0. -1.
</event>
<event>
 4   0  0.4958067E-02  0.9118800E+02  0.7818609E-02  0.1379984E+01
      -11   -1    0    0    0    0  0.00000000000E+00  0.00000000000E+00  0.35740347158E-01  0.35744000000E-01  0.51099999109E-03 0.  1.
       11   -1    0    0    0    0 -0.00000000000E+00 -0.00000000000E+00 -0.35740347158E-01  0.35744000000E-01  0.51099999109E-03 0. -1.
       22    1    1    2    0    0  0.26249561063E-02  0.18997388549E-01  0.30155304983E-01  0.35737005818E-01  0.00000000000E+00 0.  1.
  9000001    1    1    2    0    0 -0.26249561063E-02 -0.18997388549E-01 -0.30155304983E-01  0.35750994182E-01  0.10000000475E-02 0. -1.
</event>
<event>
 4   0  0.4958067E-02  0.9118800E+02  0.7818609E-02  0.1379984E+01
      -11   -1    0    0    0    0  0.00000000000E+00  0.00000000000E+00  0.35740347158E-01  0.35744000000E-01  0.51099999109E-03 0. -1.
       11   -1    0    0    0    0 -0.00000000000E+00 -0.00000000000E+00 -0.35740347158E-01  0.35744000000E-01  0.51099999109E-03 0.  1.
       22    1    1    2    0    0 -0.11474632071E-02 -0.23628503442E-01 -0.26786390913E-01  0.35737005818E-01  0.00000000000E+00 0.  1.
  9000001    1    1    2    0    0  0.11474632071E-02  0.23628503442E-01  0.26786390913E-01  0.35750994182E-01  0.10000000475E-02 0. -1.
</event>
<event>
 4   0  0.4958067E-02  0.9118800E+02  0.7818609E-02  0.1379984E+01
      -11   -1    0    0    0    0  0.00000000000E+00  0.00000000000E+00  0.35740347158E-01  0.35744000000E-01  0.51099999109E-03 0. -1.
       11   -1    0    0    0    0 -0.00000000000E+00 -0.00000000000E+00 -0.35740347158E-01  0.35744000000E-01  0.51099999109E-03 0.  1.
       22    1    1    2    0    0 -0.44739422957E-06 -0.80038096880E-02  0.34829191997E-01  0.35737005818E-01  0.00000000000E+00 0. -1.
  9000001    1    1    2    0    0  0.44739422957E-06  0.80038096880E-02 -0.34829191997E-01  0.35750994182E-01  0.10000000475E-02 0.  1.
</event>
<event>
 4   0  0.4958067E-02  0.9118800E+02  0.7818609E-02  0.1379984E+01
      -11   -1    0    0    0    0  0.00000000000E+00  0.00000000000E+00  0.35740347158E-01  0.35744000000E-01  0.51099999109E-03 0. -1.
       11   -1    0    0    0    0 -0.00000000000E+00 -0.00000000000E+00 -0.35740347158E-01  0.35744000000E-01  0.51099999109E-03 0.  1.
       22    1    1    2    0    0 -0.19840017758E-02 -0.25132856254E-02 -0.35593267863E-01  0.35737005818E-01  0.00000000000E+00 0.  1.
  9000001    1    1    2    0    0  0.19840017758E-02  0.25132856254E-02  0.35593267863E-01  0.35750994182E-01  0.10000000475E-02 0. -1.
</event>
<event>
 4   0  0.4958067E-02  0.9118800E+02  0.7818609E-02  0.1379984E+01
      -11   -1    0    0    0    0  0.00000000000E+00  0.00000000000E+00  0.35740347158E-01  0.35744000000E-01  0.51099999109E-03 0. -1.
       11   -1    0    0    0    0 -0.00000000000E+00 -0.00000000000E+00 -0.35740347158E-01  0.35744000000E-01  0.51099999109E-03 0.  1.
       22    1    1    2    0    0  0.13331272773E-01  0.13183040379E-01 -0.30423974058E-01  0.35737005818E-01  0.00000000000E+00 0.  1.
  9000001    1    1    2    0    0 -0.13331272773E-01 -0.13183040379E-01  0.30423974058E-01  0.35750994182E-01  0.10000000475E-02 0. -1.
</event>
<event>
 4   0  0.4958067E-02  0.9118800E+02  0.7818609E-02  0.1379984E+01
      -11   -1    0    0    0    0  0.00000000000E+00  0.00000000000E+00  0.35740347158E-01  0.35744000000E-01  0.51099999109E-03 0.  1.
       11   -1    0    0    0    0 -0.00000000000E+00 -0.00000000000E+00 -0.35740347158E-01  0.35744000000E-01  0.51099999109E-03 0. -1.
       22    1    1    2    0    0 -0.14175937933E-01 -0.15286317717E-01 -0.29025934253E-01  0.35737005818E-01  0.00000000000E+00 0. -1.
  9000001    1    1    2    0    0  0.14175937933E-01  0.15286317717E-01  0.29025934253E-01  0.35750994182E-01  0.10000000475E-02 0.  1.
</event>
<event>
 4   0  0.4958067E-02  0.9118800E+02  0.7818609E-02  0.1379984E+01
      -11   -1    0    0    0    0  0.00000000000E+00  0.00000000000E+00  0.35740347158E-01  0.35744000000E-01  0.51099999109E-03 0.  1.
       11   -1    0    0    0    0 -0.00000000000E+00 -0.00000000000E+00 -0.35740347158E-01  0.35744000000E-01  0.51099999109E-03 0. -1.
       22    1    1    2    0    0  0.24210989636E-01  0.14073000225E-01 -0.22201626751E-01  0.35737005818E-01  0.00000000000E+00 0. -1.
  9000001    1    1    2    0    0 -0.24210989636E-01 -0.14073000225E-01  0.22201626751E-01  0.35750994182E-01  0.10000000475E-02 0.  1.
</event>
<event>
 4   0  0.4958067E-02  0.9118800E+02  0.7818609E-02  0.1379984E+01
      -11   -1    0    0    0    0  0.00000000000E+00  0.00000000000E+00  0.35740347158E-01  0.35744000000E-01  0.51099999109E-03 0.  1.
       11   -1    0    0    0    0 -0.00000000000E+00 -0.00000000000E+00 -0.35740347158E-01  0.35744000000E-01  0.51099999109E-03 0. -1.
       22    1    1    2    0    0 -0.73397439669E-02 -0.10895347067E-01 -0.33234818424E-01  0.35737005818E-01  0.00000000000E+00 0. -1.
  9000001    1    1    2    0    0  0.73397439669E-02  0.10895347067E-01  0.33234818424E-01  0.35750994182E-01  0.10000000475E-02 0.  1.
</event>
<event>
 4   0  0.4958067E-02  0.9118800E+02  0.7818609E-02  0.1379984E+01
      -11   -1    0    0    0    0  0.00000000000E+00  0.00000000000E+00  0.35740347158E-01  0.35744000000E-01  0.51099999109E-03 0. -1.
       11   -1    0    0    0    0 -0.00000000000E+00 -0.00000000000E+00 -0.35740347158E-01  0.35744000000E-01  0.51099999109E-03 0.  1.
       22    1    1    2    0    0 -0.70874500330E-02  0.10433259023E-01 -0.33437235877E-01  0.35737005818E-01  0.00000000000E+00 0.  1.
  9000001    1    1    2    0    0  0.70874500330E-02 -0.10433259023E-01  0.33437235877E-01  0.35750994182E-01  0.10000000475E-02 0. -1.
</event>
<event>
 4   0  0.4958067E-02  0.9118800E+02  0.7818609E-02  0.1379984E+01
      -11   -1    0    0    0    0  0.00000000000E+00  0.00000000000E+00  0.35740347158E-01  0.35744000000E-01  0.51099999109E-03 0. -1.
       11   -1    0    0    0    0 -0.00000000000E+00 -0.00000000000E+00 -0.35740347158E-01  0.35744000000E-01  0.51099999109E-03 0.  1.
       22    1    1    2    0    0 -0.44105209249E-02  0.20348084916E-02 -0.35405373101E-01  0.35737005818E-01  0.00000000000E+00 0.  1.
  9000001    1    1    2    0    0  0.44105209249E-02 -0.20348084916E-02  0.35405373101E-01  0.35750994182E-01  0.10000000475E-02 0. -1.
</event>
<event>
 4   0  0.4958067E-02  0.9118800E+02  0.7818609E-02  0.1379984E+01
      -11   -1    0    0    0    0  0.00000000000E+00  0.00000000000E+00  0.35740347158E-01  0.35744000000E-01  0.51099999109E-03 0. -1.
       11   -1    0    0    0    0 -0.00000000000E+00 -0.00000000000E+00 -0.35740347158E-01  0.35744000000E-01  0.51099999109E-03 0.  1.
       22    1    1    2    0    0  0.23975725128E-01 -0.18962975994E-02 -0.26432976466E-01  0.35737005818E-01  0.00000000000E+00 0.  1.
  9000001    1    1    2    0    0 -0.23975725128E-01  0.18962975994E-02  0.26432976466E-01  0.35750994182E-01  0.10000000475E-02 0. -1.
</event>
<event>
 4   0  0.4958067E-02  0.9118800E+02  0.7818609E-02  0.1379984E+01
      -11   -1    0    0    0    0  0.00000000000E+00  0.00000000000E+00  0.35740347158E-01  0.35744000000E-01  0.51099999109E-03 0.  1.
       11   -1    0    0    0    0 -0.00000000000E+00 -0.00000000000E+00 -0.35740347158E-01  0.35744000000E-01  0.51099999109E-03 0. -1.
       22    1    1    2    0    0 -0.12731551667E-01  0.23183897514E-01 -0.24032229881E-01  0.35737005818E-01  0.00000000000E+00 0. -1.
  9000001    1    1    2    0    0  0.12731551667E-01 -0.23183897514E-01  0.24032229881E-01  0.35750994182E-01  0.10000000475E-02 0.  1.
</event>
<event>
 4   0  0.4958067E-02  0.9118800E+02  0.7818609E-02  0.1379984E+01
      -11   -1    0    0    0    0  0.00000000000E+00  0.00000000000E+00  0.35740347158E-01  0.35744000000E-01  0.51099999109E-03 0.  1.
       11   -1    0    0    0    0 -0.00000000000E+00 -0.00000000000E+00 -0.35740347158E-01  0.35744000000E-01  0.51099999109E-03 0. -1.
       22    1    1    2    0    0  0.67648123875E-02  0.19376337501E-01  0.29256254772E-01  0.35737005818E-01  0.00000000000E+00 0.  1.
  9000001    1    1    2    0    0 -0.67648123875E-02 -0.19376337501E-01 -0.29256254772E-01  0.35750994182E-01  0.10000000475E-02 0. -1.
</event>
<event>
 4   0  0.4958067E-02  0.9118800E+02  0.7818609E-02  0.1379984E+01
      -11   -1    0    0    0    0  0.00000000000E+00  0.00000000000E+00  0.35740347158E-01  0.35744000000E-01  0.51099999109E-03 0. -1.
       11   -1    0    0    0    0 -0.00000000000E+00 -0.00000000000E+00 -0.35740347158E-01  0.35744000000E-01  0.51099999109E-03 0.  1.
       22    1    1    2    0    0  0.54876473853E-02  0.28985197334E-01 -0.20171208357E-01  0.35737005818E-01  0.00000000000E+00 0.  1.
  9000001    1    1    2    0    0 -0.54876473853E-02 -0.28985197334E-01  0.20171208357E-01  0.35750994182E-01  0.10000000475E-02 0. -1.
</event>
<event>
 4   0  0.4958067E-02  0.9118800E+02  0.7818609E-02  0.1379984E+01
      -11   -1    0    0    0    0  0.00000000000E+00  0.00000000000E+00  0.35740347158E-01  0.35744000000E-01  0.51099999109E-03 0.  1.
       11   -1    0    0    0    0 -0.00000000000E+00 -0.00000000000E+00 -0.35740347158E-01  0.35744000000E-01  0.51099999109E-03 0. -1.
       22    1    1    2    0    0 -0.29605848988E-03 -0.33721765761E-02 -0.35576317395E-01  0.35737005818E-01  0.00000000000E+00 0. -1.
  9000001    1    1    2    0    0  0.29605848988E-03  0.33721765761E-02  0.35576317395E-01  0.35750994182E-01  0.10000000475E-02 0.  1.
</event>
<event>
 4   0  0.4958067E-02  0.9118800E+02  0.7818609E-02  0.1379984E+01
      -11   -1    0    0    0    0  0.00000000000E+00  0.00000000000E+00  0.35740347158E-01  0.35744000000E-01  0.51099999109E-03 0. -1.
       11   -1    0    0    0    0 -0.00000000000E+00 -0.00000000000E+00 -0.35740347158E-01  0.35744000000E-01  0.51099999109E-03 0.  1.
       22    1    1    2    0    0 -0.43788157383E-02 -0.43415784385E-03 -0.35465068230E-01  0.35737005818E-01  0.00000000000E+00 0.  1.
  9000001    1    1    2    0    0  0.43788157383E-02  0.43415784385E-03  0.35465068230E-01  0.35750994182E-01  0.10000000475E-02 0. -1.
</event>
<event>
 4   0  0.4958067E-02  0.9118800E+02  0.7818609E-02  0.1379984E+01
      -11   -1    0    0    0    0  0.00000000000E+00  0.00000000000E+00  0.35740347158E-01  0.35744000000E-01  0.51099999109E-03 0. -1.
       11   -1    0    0    0    0 -0.00000000000E+00 -0.00000000000E+00 -0.35740347158E-01  0.35744000000E-01  0.51099999109E-03 0.  1.
       22    1    1    2    0    0 -0.39468118038E-02 -0.25583619750E-01 -0.24638073422E-01  0.35737005818E-01  0.00000000000E+00 0.  1.
  9000001    1    1    2    0    0  0.39468118038E-02  0.25583619750E-01  0.24638073422E-01  0.35750994182E-01  0.10000000475E-02 0. -1.
</event>
<event>
 4   0  0.4958067E-02  0.9118800E+02  0.7818609E-02  0.1379984E+01
      -11   -1    0    0    0    0  0.00000000000E+00  0.00000000000E+00  0.35740347158E-01  0.35744000000E-01  0.51099999109E-03 0. -1.
       11   -1    0    0    0    0 -0.00000000000E+00 -0.00000000000E+00 -0.35740347158E-01  0.35744000000E-01  0.51099999109E-03 0.  1.
       22    1    1    2    0    0 -0.66033113368E-04  0.31938068469E-02  0.35593943619E-01  0.35737005818E-01  0.00000000000E+00 0. -1.
  9000001    1    1    2    0    0  0.66033113368E-04 -0.31938068469E-02 -0.35593943619E-01  0.35750994182E-01  0.10000000475E-02 0.  1.
</event>
<event>
 4   0  0.4958067E-02  0.9118800E+02  0.7818609E-02  0.1379984E+01
      -11   -1    0    0    0    0  0.00000000000E+00  0.00000000000E+00  0.35740347158E-01  0.35744000000E-01  0.51099999109E-03 0.  1.
       11   -1    0    0    0    0 -0.00000000000E+00 -0.00000000000E+00 -0.35740347158E-01  0.35744000000E-01  0.51099999109E-03 0. -1.
       22    1    1    2    0    0 -0.11193967634E-01  0.40286632493E-02 -0.33698643087E-01  0.35737005818E-01  0.00000000000E+00 0. -1.
  9000001    1    1    2    0    0  0.11193967634E-01 -0.40286632493E-02  0.33698643087E-01  0.35750994182E-01  0.10000000475E-02 0.  1.
</event>
<event>
 4   0  0.4958067E-02  0.9118800E+02  0.7818609E-02  0.1379984E+01
      -11   -1    0    0    0    0  0.00000000000E+00  0.00000000000E+00  0.35740347158E-01  0.35744000000E-01  0.51099999109E-03 0.  1.
       11   -1    0    0    0    0 -0.00000000000E+00 -0.00000000000E+00 -0.35740347158E-01  0.35744000000E-01  0.51099999109E-03 0. -1.
       22    1    1    2    0    0 -0.19618255525E-01 -0.23088601439E-01 -0.18951889579E-01  0.35737005818E-01  0.00000000000E+00 0. -1.
  9000001    1    1    2    0    0  0.19618255525E-01  0.23088601439E-01  0.18951889579E-01  0.35750994182E-01  0.10000000475E-02 0.  1.
</event>
<event>
 4   0  0.4958067E-02  0.9118800E+02  0.7818609E-02  0.1379984E+01
      -11   -1    0    0    0    0  0.00000000000E+00  0.00000000000E+00  0.35740347158E-01  0.35744000000E-01  0.51099999109E-03 0.  1.
       11   -1    0    0    0    0 -0.00000000000E+00 -0.00000000000E+00 -0.35740347158E-01  0.35744000000E-01  0.51099999109E-03 0. -1.
       22    1    1    2    0    0  0.10006207562E-01  0.87771913708E-03 -0.34296340974E-01  0.35737005818E-01  0.00000000000E+00 0. -1.
  9000001    1    1    2    0    0 -0.10006207562E-01 -0.87771913708E-03  0.34296340974E-01  0.35750994182E-01  0.10000000475E-02 0.  1.
</event>
<event>
 4   0  0.4958067E-02  0.9118800E+02  0.7818609E-02  0.1379984E+01
      -11   -1    0    0    0    0  0.00000000000E+00  0.00000000000E+00  0.35740347158E-01  0.35744000000E-01  0.51099999109E-03 0. -1.
       11   -1    0    0    0    0 -0.00000000000E+00 -0.00000000000E+00 -0.35740347158E-01  0.35744000000E-01  0.51099999109E-03 0.  1.
       22    1    1    2    0    0  0.28789233074E-02 -0.32860873264E-01 -0.13748032360E-01  0.35737005818E-01  0.00000000000E+00 0.  1.
  9000001    1    1    2    0    0 -0.28789233074E-02  0.32860873264E-01  0.13748032360E-01  0.35750994182E-01  0.10000000475E-02 0. -1.
</event>
<event>
 4   0  0.4958067E-02  0.9118800E+02  0.7818609E-02  0.1379984E+01
      -11   -1    0    0    0    0  0.00000000000E+00  0.00000000000E+00  0.35740347158E-01  0.35744000000E-01  0.51099999109E-03 0.  1.
       11   -1    0    0    0    0 -0.00000000000E+00 -0.00000000000E+00 -0.35740347158E-01  0.35744000000E-01  0.51099999109E-03 0. -1.
       22    1    1    2    0    0 -0.59366141429E-02  0.18841134331E-01 -0.29780897477E-01  0.35737005818E-01  0.00000000000E+00 0. -1.
  9000001    1    1    2    0    0  0.59366141429E-02 -0.18841134331E-01  0.29780897477E-01  0.35750994182E-01  0.10000000475E-02 0.  1.
</event>
<event>
 4   0  0.4958067E-02  0.9118800E+02  0.7818609E-02  0.1379984E+01
      -11   -1    0    0    0    0  0.00000000000E+00  0.00000000000E+00  0.35740347158E-01  0.35744000000E-01  0.51099999109E-03 0.  1.
       11   -1    0    0    0    0 -0.00000000000E+00 -0.00000000000E+00 -0.35740347158E-01  0.35744000000E-01  0.51099999109E-03 0. -1.
       22    1    1    2    0    0  0.68904589182E-02 -0.87112407220E-02  0.33967181894E-01  0.35737005818E-01  0.00000000000E+00 0.  1.
  9000001    1    1    2    0    0 -0.68904589182E-02  0.87112407220E-02 -0.33967181894E-01  0.35750994182E-01  0.10000000475E-02 0. -1.
</event>
<event>
 4   0  0.4958067E-02  0.9118800E+02  0.7818609E-02  0.1379984E+01
      -11   -1    0    0    0    0  0.00000000000E+00  0.00000000000E+00  0.35740347158E-01  0.35744000000E-01  0.51099999109E-03 0. -1.
       11   -1    0    0    0    0 -0.00000000000E+00 -0.00000000000E+00 -0.35740347158E-01  0.35744000000E-01  0.51099999109E-03 0.  1.
       22    1    1    2    0    0 -0.14092421246E-02  0.32174964472E-02  0.35563961226E-01  0.35737005818E-01  0.00000000000E+00 0. -1.
  9000001    1    1    2    0    0  0.14092421246E-02 -0.32174964472E-02 -0.35563961226E-01  0.35750994182E-01  0.10000000475E-02 0.  1.
</event>
<event>
 4   0  0.4958067E-02  0.9118800E+02  0.7818609E-02  0.1379984E+01
      -11   -1    0    0    0    0  0.00000000000E+00  0.00000000000E+00  0.35740347158E-01  0.35744000000E-01  0.51099999109E-03 0.  1.
       11   -1    0    0    0    0 -0.00000000000E+00 -0.00000000000E+00 -0.35740347158E-01  0.35744000000E-01  0.51099999109E-03 0. -1.
       22    1    1    2    0    0 -0.10694606840E-01  0.19174842424E-01  0.28197240777E-01  0.35737005818E-01  0.00000000000E+00 0.  1.
  9000001    1    1    2    0    0  0.10694606840E-01 -0.19174842424E-01 -0.28197240777E-01  0.35750994182E-01  0.10000000475E-02 0. -1.
</event>
<event>
 4   0  0.4958067E-02  0.9118800E+02  0.7818609E-02  0.1379984E+01
      -11   -1    0    0    0    0  0.00000000000E+00  0.00000000000E+00  0.35740347158E-01  0.35744000000E-01  0.51099999109E-03 0.  1.
       11   -1    0    0    0    0 -0.00000000000E+00 -0.00000000000E+00 -0.35740347158E-01  0.35744000000E-01  0.51099999109E-03 0. -1.
       22    1    1    2    0    0  0.14391885062E-01 -0.58886395404E-02  0.32176562178E-01  0.35737005818E-01  0.00000000000E+00 0.  1.
  9000001    1    1    2    0    0 -0.14391885062E-01  0.58886395404E-02 -0.32176562178E-01  0.35750994182E-01  0.10000000475E-02 0. -1.
</event>
<event>
 4   0  0.4958067E-02  0.9118800E+02  0.7818609E-02  0.1379984E+01
      -11   -1    0    0    0    0  0.00000000000E+00  0.00000000000E+00  0.35740347158E-01  0.35744000000E-01  0.51099999109E-03 0.  1.
       11   -1    0    0    0    0 -0.00000000000E+00 -0.00000000000E+00 -0.35740347158E-01  0.35744000000E-01  0.51099999109E-03 0. -1.
       22    1    1    2    0    0 -0.78512638158E-02 -0.90864143790E-02  0.33659000507E-01  0.35737005818E-01  0.00000000000E+00 0.  1.
  9000001    1    1    2    0    0  0.78512638158E-02  0.90864143790E-02 -0.33659000507E-01  0.35750994182E-01  0.10000000475E-02 0. -1.
</event>
<event>
 4   0  0.4958067E-02  0.9118800E+02  0.7818609E-02  0.1379984E+01
      -11   -1    0    0    0    0  0.00000000000E+00  0.00000000000E+00  0.35740347158E-01  0.35744000000E-01  0.51099999109E-03 0.  1.
       11   -1    0    0    0    0 -0.00000000000E+00 -0.00000000000E+00 -0.35740347158E-01  0.35744000000E-01  0.51099999109E-03 0. -1.
       22    1    1    2    0    0  0.29300331040E-02 -0.74434072740E-03 -0.35608909668E-01  0.35737005818E-01  0.00000000000E+00 0. -1.
  9000001    1    1    2    0    0 -0.29300331040E-02  0.74434072740E-03  0.35608909668E-01  0.35750994182E-01  0.10000000475E-02 0.  1.
</event>
<event>
 4   0  0.4958067E-02  0.9118800E+02  0.7818609E-02  0.1379984E+01
      -11   -1    0    0    0    0  0.00000000000E+00  0.00000000000E+00  0.35740347158E-01  0.35744000000E-01  0.51099999109E-03 0. -1.
       11   -1    0    0    0    0 -0.00000000000E+00 -0.00000000000E+00 -0.35740347158E-01  0.35744000000E-01  0.51099999109E-03 0.  1.
       22    1    1    2    0    0 -0.20520569560E-01  0.19684840828E-02  0.29191863254E-01  0.35737005818E-01  0.00000000000E+00 0. -1.
  9000001    1    1    2    0    0  0.20520569560E-01 -0.19684840828E-02 -0.29191863254E-01  0.35750994182E-01  0.10000000475E-02 0.  1.
</event>
<event>
 4   0  0.4958067E-02  0.9118800E+02  0.7818609E-02  0.1379984E+01
      -11   -1    0    0    0    0  0.00000000000E+00  0.00000000000E+00  0.35740347158E-01  0.35744000000E-01  0.51099999109E-03 0.  1.
       11   -1    0    0    0    0 -0.00000000000E+00 -0.00000000000E+00 -0.35740347158E-01  0.35744000000E-01  0.51099999109E-03 0. -1.
       22    1    1    2    0    0 -0.14233968796E-02 -0.27838885321E-02 -0.35599964759E-01  0.35737005818E-01  0.00000000000E+00 0. -1.
  9000001    1    1    2    0    0  0.14233968796E-02  0.27838885321E-02  0.35599964759E-01  0.35750994182E-01  0.10000000475E-02 0.  1.
</event>
<event>
 4   0  0.4958067E-02  0.9118800E+02  0.7818609E-02  0.1379984E+01
      -11   -1    0    0    0    0  0.00000000000E+00  0.00000000000E+00  0.35740347158E-01  0.35744000000E-01  0.51099999109E-03 0.  1.
       11   -1    0    0    0    0 -0.00000000000E+00 -0.00000000000E+00 -0.35740347158E-01  0.35744000000E-01  0.51099999109E-03 0. -1.
       22    1    1    2    0    0 -0.27214487920E-02  0.26994247199E-02 -0.35530837417E-01  0.35737005818E-01  0.00000000000E+00 0. -1.
  9000001    1    1    2    0    0  0.27214487920E-02 -0.26994247199E-02  0.35530837417E-01  0.35750994182E-01  0.10000000475E-02 0.  1.
</event>
<event>
 4   0  0.4958067E-02  0.9118800E+02  0.7818609E-02  0.1379984E+01
      -11   -1    0    0    0    0  0.00000000000E+00  0.00000000000E+00  0.35740347158E-01  0.35744000000E-01  0.51099999109E-03 0.  1.
       11   -1    0    0    0    0 -0.00000000000E+00 -0.00000000000E+00 -0.35740347158E-01  0.35744000000E-01  0.51099999109E-03 0. -1.
       22    1    1    2    0    0  0.20445666914E-02  0.49284789438E-02 -0.35336432010E-01  0.35737005818E-01  0.00000000000E+00 0. -1.
  9000001    1    1    2    0    0 -0.20445666914E-02 -0.49284789438E-02  0.35336432010E-01  0.35750994182E-01  0.10000000475E-02 0.  1.
</event>
<event>
 4   0  0.4958067E-02  0.9118800E+02  0.7818609E-02  0.1379984E+01
      -11   -1    0    0    0    0  0.00000000000E+00  0.00000000000E+00  0.35740347158E-01  0.35744000000E-01  0.51099999109E-03 0. -1.
       11   -1    0    0    0    0 -0.00000000000E+00 -0.00000000000E+00 -0.35740347158E-01  0.35744000000E-01  0.51099999109E-03 0.  1.
       22    1    1    2    0    0  0.17161873985E-01  0.14933214738E-03  0.31346153928E-01  0.35737005818E-01  0.00000000000E+00 0. -1.
  9000001    1    1    2    0    0 -0.17161873985E-01 -0.14933214738E-03 -0.31346153928E-01  0.35750994182E-01  0.10000000475E-02 0.  1.
</event>
<event>
 4   0  0.4958067E-02  0.9118800E+02  0.7818609E-02  0.1379984E+01
      -11   -1    0    0    0    0  0.00000000000E+00  0.00000000000E+00  0.35740347158E-01  0.35744000000E-01  0.51099999109E-03 0.  1.
       11   -1    0    0    0    0 -0.00000000000E+00 -0.00000000000E+00 -0.35740347158E-01  0.35744000000E-01  0.51099999109E-03 0. -1.
       22    1    1    2    0    0 -0.20679564068E-01  0.10262343864E-01 -0.27279543861E-01  0.35737005818E-01  0.00000000000E+00 0. -1.
  9000001    1    1    2    0    0  0.20679564068E-01 -0.10262343864E-01  0.27279543861E-01  0.35750994182E-01  0.10000000475E-02 0.  1.
</event>
<event>
 4   0  0.4958067E-02  0.9118800E+02  0.7818609E-02  0.1379984E+01
      -11   -1    0    0    0    0  0.00000000000E+00  0.00000000000E+00  0.35740347158E-01  0.35744000000E-01  0.51099999109E-03 0.  1.
       11   -1    0    0    0    0 -0.00000000000E+00 -0.00000000000E+00 -0.35740347158E-01  0.35744000000E-01  0.51099999109E-03 0. -1.
       22    1    1    2    0    0  0.12987681985E-01  0.91423257869E-02  0.32013615552E-01  0.35737005818E-01  0.00000000000E+00 0.  1.
  9000001    1    1    2    0    0 -0.12987681985E-01 -0.91423257869E-02 -0.32013615552E-01  0.35750994182E-01  0.10000000475E-02 0. -1.
</event>
<event>
 4   0  0.4958067E-02  0.9118800E+02  0.7818609E-02  0.1379984E+01
      -11   -1    0    0    0    0  0.00000000000E+00  0.00000000000E+00  0.35740347158E-01  0.35744000000E-01  0.51099999109E-03 0. -1.
       11   -1    0    0    0    0 -0.00000000000E+00 -0.00000000000E+00 -0.35740347158E-01  0.35744000000E-01  0.51099999109E-03 0.  1.
       22    1    1    2    0    0 -0.63858615489E-02 -0.20901615802E-01 -0.28275021026E-01  0.35737005818E-01  0.00000000000E+00 0.  1.
  9000001    1    1    2    0    0  0.63858615489E-02  0.20901615802E-01  0.28275021026E-01  0.35750994182E-01  0.10000000475E-02 0. -1.
</event>
<event>
 4   0  0.4958067E-02  0.9118800E+02  0.7818609E-02  0.1379984E+01
      -11   -1    0    0    0    0  0.00000000000E+00  0.00000000000E+00  0.35740347158E-01  0.35744000000E-01  0.51099999109E-03 0. -1.
       11   -1    0    0    0    0 -0.00000000000E+00 -0.00000000000E+00 -0.35740347158E-01  0.35744000000E-01  0.51099999109E-03 0.  1.
       22    1    1    2    0    0 -0.15556588137E-01  0.46581794955E-02 -0.31834376297E-01  0.35737005818E-01  0.00000000000E+00 0.  1.
  9000001    1    1    2    0    0  0.15556588137E-01 -0.46581794955E-02  0.31834376297E-01  0.35750994182E-01  0.10000000475E-02 0. -1.
</event>
<event>
 4   0  0.4958067E-02  0.9118800E+02  0.7818609E-02  0.1379984E+01
      -11   -1    0    0    0    0  0.00000000000E+00  0.00000000000E+00  0.35740347158E-01  0.35744000000E-01  0.51099999109E-03 0. -1.
       11   -1    0    0    0    0 -0.00000000000E+00 -0.00000000000E+00 -0.35740347158E-01  0.35744000000E-01  0.51099999109E-03 0.  1.
       22    1    1    2    0    0  0.55522936687E-02 -0.32479119587E-02  0.35153331105E-01  0.35737005818E-01  0.00000000000E+00 0. -1.
  9000001    1    1    2    0    0 -0.55522936687E-02  0.32479119587E-02 -0.35153331105E-01  0.35750994182E-01  0.10000000475E-02 0.  1.
</event>
<event>
 4   0  0.4958067E-02  0.9118800E+02  0.7818609E-02  0.1379984E+01
      -11   -1    0    0    0    0  0.00000000000E+00  0.00000000000E+00  0.35740347158E-01  0.35744000000E-01  0.51099999109E-03 0. -1.
       11   -1    0    0    0    0 -0.00000000000E+00 -0.00000000000E+00 -0.35740347158E-01  0.35744000000E-01  0.51099999109E-03 0.  1.
       22    1    1    2    0    0 -0.27525788228E-02 -0.28116874256E-02 -0.35519731256E-01  0.35737005818E-01  0.00000000000E+00 0.  1.
  9000001    1    1    2    0    0  0.27525788228E-02  0.28116874256E-02  0.35519731256E-01  0.35750994182E-01  0.10000000475E-02 0. -1.
</event>
<event>
 4   0  0.4958067E-02  0.9118800E+02  0.7818609E-02  0.1379984E+01
      -11   -1    0    0    0    0  0.00000000000E+00  0.00000000000E+00  0.35740347158E-01  0.35744000000E-01  0.51099999109E-03 0.  1.
       11   -1    0    0    0    0 -0.00000000000E+00 -0.00000000000E+00 -0.35740347158E-01  0.35744000000E-01  0.51099999109E-03 0. -1.
       22    1    1    2    0    0  0.11256865407E-01  0.25288417856E-02  0.33823387254E-01  0.35737005818E-01  0.00000000000E+00 0.  1.
  9000001    1    1    2    0    0 -0.11256865407E-01 -0.25288417856E-02 -0.33823387254E-01  0.35750994182E-01  0.10000000475E-02 0. -1.
</event>
<event>
 4   0  0.4958067E-02  0.9118800E+02  0.7818609E-02  0.1379984E+01
      -11   -1    0    0    0    0  0.00000000000E+00  0.00000000000E+00  0.35740347158E-01  0.35744000000E-01  0.51099999109E-03 0.  1.
       11   -1    0    0    0    0 -0.00000000000E+00 -0.00000000000E+00 -0.35740347158E-01  0.35744000000E-01  0.51099999109E-03 0. -1.
       22    1    1    2    0    0  0.21308254402E-01  0.11686138053E-01  0.26201642250E-01  0.35737005818E-01  0.00000000000E+00 0.  1.
  9000001    1    1    2    0    0 -0.21308254402E-01 -0.11686138053E-01 -0.26201642250E-01  0.35750994182E-01  0.10000000475E-02 0. -1.
</event>
<event>
 4   0  0.4958067E-02  0.9118800E+02  0.7818609E-02  0.1379984E+01
      -11   -1    0    0    0    0  0.00000000000E+00  0.00000000000E+00  0.35740347158E-01  0.35744000000E-01  0.51099999109E-03 0.  1.
       11   -1    0    0    0    0 -0.00000000000E+00 -0.00000000000E+00 -0.35740347158E-01  0.35744000000E-01  0.51099999109E-03 0. -1.
       22    1    1    2    0    0  0.19509241493E-01  0.13297740728E-01 -0.26827097732E-01  0.35737005818E-01  0.00000000000E+00 0. -1.
  9000001    1    1    2    0    0 -0.19509241493E-01 -0.13297740728E-01  0.26827097732E-01  0.35750994182E-01  0.10000000475E-02 0.  1.
</event>
<event>
 4   0  0.4958067E-02  0.9118800E+02  0.7818609E-02  0.1379984E+01
      -11   -1    0    0    0    0  0.00000000000E+00  0.00000000000E+00  0.35740347158E-01  0.35744000000E-01  0.51099999109E-03 0.  1.
       11   -1    0    0    0    0 -0.00000000000E+00 -0.00000000000E+00 -0.35740347158E-01  0.35744000000E-01  0.51099999109E-03 0. -1.
       22    1    1    2    0    0 -0.10788886207E-01  0.89425806359E-02  0.32874971800E-01  0.35737005818E-01  0.00000000000E+00 0.  1.
  9000001    1    1    2    0    0  0.10788886207E-01 -0.89425806359E-02 -0.32874971800E-01  0.35750994182E-01  0.10000000475E-02 0. -1.
</event>
<event>
 4   0  0.4958067E-02  0.9118800E+02  0.7818609E-02  0.1379984E+01
      -11   -1    0    0    0    0  0.00000000000E+00  0.00000000000E+00  0.35740347158E-01  0.35744000000E-01  0.51099999109E-03 0.  1.
       11   -1    0    0    0    0 -0.00000000000E+00 -0.00000000000E+00 -0.35740347158E-01  0.35744000000E-01  0.51099999109E-03 0. -1.
       22    1    1    2    0    0 -0.11380802020E-02  0.66828780412E-02 -0.35088139013E-01  0.35737005818E-01  0.00000000000E+00 0. -1.
  9000001    1    1    2    0    0  0.11380802020E-02 -0.66828780412E-02  0.35088139013E-01  0.35750994182E-01  0.10000000475E-02 0.  1.
</event>
<event>
 4   0  0.4958067E-02  0.9118800E+02  0.7818609E-02  0.1379984E+01
      -11   -1    0    0    0    0  0.00000000000E+00  0.00000000000E+00  0.35740347158E-01  0.35744000000E-01  0.51099999109E-03 0.  1.
       11   -1    0    0    0    0 -0.00000000000E+00 -0.00000000000E+00 -0.35740347158E-01  0.35744000000E-01  0.51099999109E-03 0. -1.
       22    1    1    2    0    0  0.14430846423E-01 -0.14317604690E-01  0.29392013410E-01  0.35737005818E-01  0.00000000000E+00 0.  1.
  9000001    1    1    2    0    0 -0.14430846423E-01  0.14317604690E-01 -0.29392013410E-01  0.35750994182E-01  0.10000000475E-02 0. -1.
</event>
<event>
 4   0  0.4958067E-02  0.9118800E+02  0.7818609E-02  0.1379984E+01
      -11   -1    0    0    0    0  0.00000000000E+00  0.00000000000E+00  0.35740347158E-01  0.35744000000E-01  0.51099999109E-03 0. -1.
       11   -1    0    0    0    0 -0.00000000000E+00 -0.00000000000E+00 -0.35740347158E-01  0.35744000000E-01  0.51099999109E-03 0.  1.
       22    1    1    2    0    0  0.81897724236E-02 -0.89724899332E-02  0.33608862476E-01  0.35737005818E-01  0.00000000000E+00 0. -1.
  9000001    1    1    2    0    0 -0.81897724236E-02  0.89724899332E-02 -0.33608862476E-01  0.35750994182E-01  0.10000000475E-02 0.  1.
</event>
<event>
 4   0  0.4958067E-02  0.9118800E+02  0.7818609E-02  0.1379984E+01
      -11   -1    0    0    0    0  0.00000000000E+00  0.00000000000E+00  0.35740347158E-01  0.35744000000E-01  0.51099999109E-03 0.  1.
       11   -1    0    0    0    0 -0.00000000000E+00 -0.00000000000E+00 -0.35740347158E-01  0.35744000000E-01  0.51099999109E-03 0. -1.
       22    1    1    2    0    0  0.13187010736E-01 -0.26438681696E-02 -0.33109610294E-01  0.35737005818E-01  0.00000000000E+00 0. -1.
  9000001    1    1    2    0    0 -0.13187010736E-01  0.26438681696E-02  0.33109610294E-01  0.35750994182E-01  0.10000000475E-02 0.  1.
</event>
<event>
 4   0  0.4958067E-02  0.9118800E+02  0.7818609E-02  0.1379984E+01
      -11   -1    0    0    0    0  0.00000000000E+00  0.00000000000E+00  0.35740347158E-01  0.35744000000E-01  0.51099999109E-03 0.  1.
       11   -1    0    0    0    0 -0.00000000000E+00 -0.00000000000E+00 -0.35740347158E-01  0.35744000000E-01  0.51099999109E-03 0. -1.
       22    1    1    2    0    0  0.48020576852E-02 -0.23286065089E-02 -0.35336262091E-01  0.35737005818E-01  0.00000000000E+00 0. -1.
  9000001    1    1    2    0    0 -0.48020576852E-02  0.23286065089E-02  0.35336262091E-01  0.35750994182E-01  0.10000000475E-02 0.  1.
</event>
<event>
 4   0  0.4958067E-02  0.9118800E+02  0.7818609E-02  0.1379984E+01
      -11   -1    0    0    0    0  0.00000000000E+00  0.00000000000E+00  0.35740347158E-01  0.35744000000E-01  0.51099999109E-03 0.  1.
       11   -1    0    0    0    0 -0.00000000000E+00 -0.00000000000E+00 -0.35740347158E-01  0.35744000000E-01  0.51099999109E-03 0. -1.
       22    1    1    2    0    0  0.10854183828E-01  0.12959618424E-01  0.31486005917E-01  0.35737005818E-01  0.00000000000E+00 0.  1.
  9000001    1    1    2    0    0 -0.10854183828E-01 -0.12959618424E-01 -0.31486005917E-01  0.35750994182E-01  0.10000000475E-02 0. -1.
</event>
<event>
 4   0  0.4958067E-02  0.9118800E+02  0.7818609E-02  0.1379984E+01
      -11   -1    0    0    0    0  0.00000000000E+00  0.00000000000E+00  0.35740347158E-01  0.35744000000E-01  0.51099999109E-03 0. -1.
       11   -1    0    0    0    0 -0.00000000000E+00 -0.00000000000E+00 -0.35740347158E-01  0.35744000000E-01  0.51099999109E-03 0.  1.
       22    1    1    2    0    0  0.57802030100E-02 -0.16441640245E-01 -0.31199283711E-01  0.35737005818E-01  0.00000000000E+00 0.  1.
  9000001    1    1    2    0    0 -0.57802030100E-02  0.16441640245E-01  0.31199283711E-01  0.35750994182E-01  0.10000000475E-02 0. -1.
</event>
<event>
 4   0  0.4958067E-02  0.9118800E+02  0.7818609E-02  0.1379984E+01
      -11   -1    0    0    0    0  0.00000000000E+00  0.00000000000E+00  0.35740347158E-01  0.35744000000E-01  0.51099999109E-03 0.  1.
       11   -1    0    0    0    0 -0.00000000000E+00 -0.00000000000E+00 -0.35740347158E-01  0.35744000000E-01  0.51099999109E-03 0. -1.
       22    1    1    2    0    0 -0.78697551414E-02  0.27605168086E-01 -0.21287443102E-01  0.35737005818E-01  0.00000000000E+00 0. -1.
  9000001    1    1    2    0    0  0.78697551414E-02 -0.27605168086E-01  0.21287443102E-01  0.35750994182E-01  0.10000000475E-02 0.  1.
</event>
<event>
 4   0  0.4958067E-02  0.9118800E+02  0.7818609E-02  0.1379984E+01
      -11   -1    0    0    0    0  0.00000000000E+00  0.00000000000E+00  0.35740347158E-01  0.35744000000E-01  0.51099999109E-03 0. -1.
       11   -1    0    0    0    0 -0.00000000000E+00 -0.00000000000E+00 -0.35740347158E-01  0.35744000000E-01  0.51099999109E-03 0.  1.
       22    1    1    2    0    0 -0.67111267896E-03  0.53512859033E-02 -0.35327707707E-01  0.35737005818E-01  0.00000000000E+00 0.  1.
  9000001    1    1    2    0    0  0.67111267896E-03 -0.53512859033E-02  0.35327707707E-01  0.35750994182E-01  0.10000000475E-02 0. -1.
</event>
<event>
 4   0  0.4958067E-02  0.9118800E+02  0.7818609E-02  0.1379984E+01
      -11   -1    0    0    0    0  0.00000000000E+00  0.00000000000E+00  0.35740347158E-01  0.35744000000E-01  0.51099999109E-03 0. -1.
       11   -1    0    0    0    0 -0.00000000000E+00 -0.00000000000E+00 -0.35740347158E-01  0.35744000000E-01  0.51099999109E-03 0.  1.
       22    1    1    2    0    0  0.20539862775E-01  0.44780808657E-02  0.28899730342E-01  0.35737005818E-01  0.00000000000E+00 0. -1.
  9000001    1    1    2    0    0 -0.20539862775E-01 -0.44780808657E-02 -0.28899730342E-01  0.35750994182E-01  0.10000000475E-02 0.  1.
</event>
<event>
 4   0  0.4958067E-02  0.9118800E+02  0.7818609E-02  0.1379984E+01
      -11   -1    0    0    0    0  0.00000000000E+00  0.00000000000E+00  0.35740347158E-01  0.35744000000E-01  0.51099999109E-03 0.  1.
       11   -1    0    0    0    0 -0.00000000000E+00 -0.00000000000E+00 -0.35740347158E-01  0.35744000000E-01  0.51099999109E-03 0. -1.
       22    1    1    2    0    0  0.35146715386E-01  0.62770715220E-03 -0.64380094881E-02  0.35737005818E-01  0.00000000000E+00 0. -1.
  9000001    1    1    2    0    0 -0.35146715386E-01 -0.62770715220E-03  0.64380094881E-02  0.35750994182E-01  0.10000000475E-02 0.  1.
</event>
<event>
 4   0  0.4958067E-02  0.9118800E+02  0.7818609E-02  0.1379984E+01
      -11   -1    0    0    0    0  0.00000000000E+00  0.00000000000E+00  0.35740347158E-01  0.35744000000E-01  0.51099999109E-03 0. -1.
       11   -1    0    0    0    0 -0.00000000000E+00 -0.00000000000E+00 -0.35740347158E-01  0.35744000000E-01  0.51099999109E-03 0.  1.
       22    1    1    2    0    0 -0.31777818633E-02  0.34059189616E-02  0.35432118245E-01  0.35737005818E-01  0.00000000000E+00 0. -1.
  9000001    1    1    2    0    0  0.31777818633E-02 -0.34059189616E-02 -0.35432118245E-01  0.35750994182E-01  0.10000000475E-02 0.  1.
</event>
<event>
 4   0  0.4958067E-02  0.9118800E+02  0.7818609E-02  0.1379984E+01
      -11   -1    0    0    0    0  0.00000000000E+00  0.00000000000E+00  0.35740347158E-01  0.35744000000E-01  0.51099999109E-03 0. -1.
       11   -1    0    0    0    0 -0.00000000000E+00 -0.00000000000E+00 -0.35740347158E-01  0.35744000000E-01  0.51099999109E-03 0.  1.
       22    1    1    2    0    0 -0.15590540744E-01  0.16633215514E-02 -0.32113890851E-01  0.35737005818E-01  0.00000000000E+00 0.  1.
  9000001    1    1    2    0    0  0.15590540744E-01 -0.16633215514E-02  0.32113890851E-01  0.35750994182E-01  0.10000000475E-02 0. -1.
</event>
<event>
 4   0  0.4958067E-02  0.9118800E+02  0.7818609E-02  0.1379984E+01
      -11   -1    0    0    0    0  0.00000000000E+00  0.00000000000E+00  0.35740347158E-01  0.35744000000E-01  0.51099999109E-03 0.  1.
       11   -1    0    0    0    0 -0.00000000000E+00 -0.00000000000E+00 -0.35740347158E-01  0.35744000000E-01  0.51099999109E-03 0. -1.
       22    1    1    2    0    0  0.70739557689E-02  0.13766304452E-01 -0.32211513413E-01  0.35737005818E-01  0.00000000000E+00 0. -1.
  9000001    1    1    2    0    0 -0.70739557689E-02 -0.13766304452E-01  0.32211513413E-01  0.35750994182E-01  0.10000000475E-02 0.  1.
</event>
<event>
 4   0  0.4958067E-02  0.9118800E+02  0.7818609E-02  0.1379984E+01
      -11   -1    0    0    0    0  0.00000000000E+00  0.00000000000E+00  0.35740347158E-01  0.35744000000E-01  0.51099999109E-03 0. -1.
       11   -1    0    0    0    0 -0.00000000000E+00 -0.00000000000E+00 -0.35740347158E-01  0.35744000000E-01  0.51099999109E-03 0.  1.
       22    1    1    2    0    0  0.72603022394E-02 -0.22393516479E-02 -0.34920007166E-01  0.35737005818E-01  0.00000000000E+00 0.  1.
  9000001    1    1    2    0    0 -0.72603022394E-02  0.22393516479E-02  0.34920007166E-01  0.35750994182E-01  0.10000000475E-02 0. -1.
</event>
<event>
 4   0  0.4958067E-02  0.9118800E+02  0.7818609E-02  0.1379984E+01
      -11   -1    0    0    0    0  0.00000000000E+00  0.00000000000E+00  0.35740347158E-01  0.35744000000E-01  0.51099999109E-03 0. -1.
       11   -1    0    0    0    0 -0.00000000000E+00 -0.00000000000E+00 -0.35740347158E-01  0.35744000000E-01  0.51099999109E-03 0.  1.
       22    1    1    2    0    0  0.31501811267E-01  0.14187430445E-01 -0.91370831851E-02  0.35737005818E-01  0.00000000000E+00 0.  1.
  9000001    1    1    2    0    0 -0.31501811267E-01 -0.14187430445E-01  0.91370831851E-02  0.35750994182E-01  0.10000000475E-02 0. -1.
</event>
<event>
 4   0  0.4958067E-02  0.9118800E+02  0.7818609E-02  0.1379984E+01
      -11   -1    0    0    0    0  0.00000000000E+00  0.00000000000E+00  0.35740347158E-01  0.35744000000E-01  0.51099999109E-03 0.  1.
       11   -1    0    0    0    0 -0.00000000000E+00 -0.00000000000E+00 -0.35740347158E-01  0.35744000000E-01  0.51099999109E-03 0. -1.
       22    1    1    2    0    0  0.66982443056E-02  0.55738742215E-02  0.34658318399E-01  0.35737005818E-01  0.00000000000E+00 0.  1.
  9000001    1    1    2    0    0 -0.66982443056E-02 -0.55738742215E-02 -0.34658318399E-01  0.35750994182E-01  0.10000000475E-02 0. -1.
</event>
<event>
 4   0  0.4958067E-02  0.9118800E+02  0.7818609E-02  0.1379984E+01
      -11   -1    0    0    0    0  0.00000000000E+00  0.00000000000E+00  0.35740347158E-01  0.35744000000E-01  0.51099999109E-03 0.  1.
       11   -1    0    0    0    0 -0.00000000000E+00 -0.00000000000E+00 -0.35740347158E-01  0.35744000000E-01  0.51099999109E-03 0. -1.
       22    1    1    2    0    0  0.22121829725E-02 -0.29440157570E-02 -0.35546766415E-01  0.35737005818E-01  0.00000000000E+00 0. -1.
  9000001    1    1    2    0    0 -0.22121829725E-02  0.29440157570E-02  0.35546766415E-01  0.35750994182E-01  0.10000000475E-02 0.  1.
</event>
<event>
 4   0  0.4958067E-02  0.9118800E+02  0.7818609E-02  0.1379984E+01
      -11   -1    0    0    0    0  0.00000000000E+00  0.00000000000E+00  0.35740347158E-01  0.35744000000E-01  0.51099999109E-03 0. -1.
       11   -1    0    0    0    0 -0.00000000000E+00 -0.00000000000E+00 -0.35740347158E-01  0.35744000000E-01  0.51099999109E-03 0.  1.
       22    1    1    2    0    0  0.24244528635E-01  0.11294842911E-01  0.23701538764E-01  0.35737005818E-01  0.00000000000E+00 0. -1.
  9000001    1    1    2    0    0 -0.24244528635E-01 -0.11294842911E-01 -0.23701538764E-01  0.35750994182E-01  0.10000000475E-02 0.  1.
</event>
<event>
 4   0  0.4958067E-02  0.9118800E+02  0.7818609E-02  0.1379984E+01
      -11   -1    0    0    0    0  0.00000000000E+00  0.00000000000E+00  0.35740347158E-01  0.35744000000E-01  0.51099999109E-03 0.  1.
       11   -1    0    0    0    0 -0.00000000000E+00 -0.00000000000E+00 -0.35740347158E-01  0.35744000000E-01  0.51099999109E-03 0. -1.
       22    1    1    2    0    0  0.76252653244E-03 -0.29755199258E-02 -0.35604752763E-01  0.35737005818E-01  0.00000000000E+00 0. -1.
  9000001    1    1    2    0    0 -0.76252653244E-03  0.29755199258E-02  0.35604752763E-01  0.35750994182E-01  0.10000000475E-02 0.  1.
</event>
<event>
 4   0  0.4958067E-02  0.9118800E+02  0.7818609E-02  0.1379984E+01
      -11   -1    0    0    0    0  0.00000000000E+00  0.00000000000E+00  0.35740347158E-01  0.35744000000E-01  0.51099999109E-03 0.  1.
       11   -1    0    0    0    0 -0.00000000000E+00 -0.00000000000E+00 -0.35740347158E-01  0.35744000000E-01  0.51099999109E-03 0. -1.
       22    1    1    2    0    0  0.26852241398E-01 -0.92451147191E-02 -0.21693744965E-01  0.35737005818E-01  0.00000000000E+00 0.  1.
  9000001    1    1    2    0    0 -0.26852241398E-01  0.92451147191E-02  0.21693744965E-01  0.35750994182E-01  0.10000000475E-02 0. -1.
</event>
<event>
 4   0  0.4958067E-02  0.9118800E+02  0.7818609E-02  0.1379984E+01
      -11   -1    0    0    0    0  0.00000000000E+00  0.00000000000E+00  0.35740347158E-01  0.35744000000E-01  0.51099999109E-03 0. -1.
       11   -1    0    0    0    0 -0.00000000000E+00 -0.00000000000E+00 -0.35740347158E-01  0.35744000000E-01  0.51099999109E-03 0.  1.
       22    1    1    2    0    0 -0.26601370737E-02 -0.43265730117E-02 -0.35374256481E-01  0.35737005818E-01  0.00000000000E+00 0.  1.
  9000001    1    1    2    0    0  0.26601370737E-02  0.43265730117E-02  0.35374256481E-01  0.35750994182E-01  0.10000000475E-02 0. -1.
</event>
<event>
 4   0  0.4958067E-02  0.9118800E+02  0.7818609E-02  0.1379984E+01
      -11   -1    0    0    0    0  0.00000000000E+00  0.00000000000E+00  0.35740347158E-01  0.35744000000E-01  0.51099999109E-03 0.  1.
       11   -1    0    0    0    0 -0.00000000000E+00 -0.00000000000E+00 -0.35740347158E-01  0.35744000000E-01  0.51099999109E-03 0. -1.
       22    1    1    2    0    0 -0.22650992094E-01 -0.93084940869E-02 -0.26027256480E-01  0.35737005818E-01  0.00000000000E+00 0. -1.
  9000001    1    1    2    0    0  0.22650992094E-01  0.93084940869E-02  0.26027256480E-01  0.35750994182E-01  0.10000000475E-02 0.  1.
</event>
<event>
 4   0  0.4958067E-02  0.9118800E+02  0.7818609E-02  0.1379984E+01
      -11   -1    0    0    0    0  0.00000000000E+00  0.00000000000E+00  0.35740347158E-01  0.35744000000E-01  0.51099999109E-03 0. -1.
       11   -1    0    0    0    0 -0.00000000000E+00 -0.00000000000E+00 -0.35740347158E-01  0.35744000000E-01  0.51099999109E-03 0.  1.
       22    1    1    2    0    0 -0.56724419604E-02  0.14053112864E-01  0.32364594945E-01  0.35737005818E-01  0.00000000000E+00 0. -1.
  9000001    1    1    2    0    0  0.56724419604E-02 -0.14053112864E-01 -0.32364594945E-01  0.35750994182E-01  0.10000000475E-02 0.  1.
</event>
<event>
 4   0  0.4958067E-02  0.9118800E+02  0.7818609E-02  0.1379984E+01
      -11   -1    0    0    0    0  0.00000000000E+00  0.00000000000E+00  0.35740347158E-01  0.35744000000E-01  0.51099999109E-03 0.  1.
       11   -1    0    0    0    0 -0.00000000000E+00 -0.00000000000E+00 -0.35740347158E-01  0.35744000000E-01  0.51099999109E-03 0. -1.
       22    1    1    2    0    0 -0.14661895298E-02 -0.35121397561E-02 -0.35533769114E-01  0.35737005818E-01  0.00000000000E+00 0. -1.
  9000001    1    1    2    0    0  0.14661895298E-02  0.35121397561E-02  0.35533769114E-01  0.35750994182E-01  0.10000000475E-02 0.  1.
</event>
<event>
 4   0  0.4958067E-02  0.9118800E+02  0.7818609E-02  0.1379984E+01
      -11   -1    0    0    0    0  0.00000000000E+00  0.00000000000E+00  0.35740347158E-01  0.35744000000E-01  0.51099999109E-03 0. -1.
       11   -1    0    0    0    0 -0.00000000000E+00 -0.00000000000E+00 -0.35740347158E-01  0.35744000000E-01  0.51099999109E-03 0.  1.
       22    1    1    2    0    0  0.20434047739E-01 -0.25945687435E-01 -0.13653006312E-01  0.35737005818E-01  0.00000000000E+00 0.  1.
  9000001    1    1    2    0    0 -0.20434047739E-01  0.25945687435E-01  0.13653006312E-01  0.35750994182E-01  0.10000000475E-02 0. -1.
</event>
<event>
 4   0  0.4958067E-02  0.9118800E+02  0.7818609E-02  0.1379984E+01
      -11   -1    0    0    0    0  0.00000000000E+00  0.00000000000E+00  0.35740347158E-01  0.35744000000E-01  0.51099999109E-03 0.  1.
       11   -1    0    0    0    0 -0.00000000000E+00 -0.00000000000E+00 -0.35740347158E-01  0.35744000000E-01  0.51099999109E-03 0. -1.
       22    1    1    2    0    0 -0.29125187371E-01  0.55447209479E-02 -0.19952772115E-01  0.35737005818E-01  0.00000000000E+00 0. -1.
  9000001    1    1    2    0    0  0.29125187371E-01 -0.55447209479E-02  0.19952772115E-01  0.35750994182E-01  0.10000000475E-02 0.  1.
</event>
<event>
 4   0  0.4958067E-02  0.9118800E+02  0.7818609E-02  0.1379984E+01
      -11   -1    0    0    0    0  0.00000000000E+00  0.00000000000E+00  0.35740347158E-01  0.35744000000E-01  0.51099999109E-03 0.  1.
       11   -1    0    0    0    0 -0.00000000000E+00 -0.00000000000E+00 -0.35740347158E-01  0.35744000000E-01  0.51099999109E-03 0. -1.
       22    1    1    2    0    0  0.30062632658E-01 -0.18178141805E-01 -0.65518595113E-02  0.35737005818E-01  0.00000000000E+00 0. -1.
  9000001    1    1    2    0    0 -0.30062632658E-01  0.18178141805E-01  0.65518595113E-02  0.35750994182E-01  0.10000000475E-02 0.  1.
</event>
<event>
 4   0  0.4958067E-02  0.9118800E+02  0.7818609E-02  0.1379984E+01
      -11   -1    0    0    0    0  0.00000000000E+00  0.00000000000E+00  0.35740347158E-01  0.35744000000E-01  0.51099999109E-03 0. -1.
       11   -1    0    0    0    0 -0.00000000000E+00 -0.00000000000E+00 -0.35740347158E-01  0.35744000000E-01  0.51099999109E-03 0.  1.
       22    1    1    2    0    0 -0.15001265780E-02  0.13767630076E-01  0.32944431505E-01  0.35737005818E-01  0.00000000000E+00 0. -1.
  9000001    1    1    2    0    0  0.15001265780E-02 -0.13767630076E-01 -0.32944431505E-01  0.35750994182E-01  0.10000000475E-02 0.  1.
</event>
<event>
 4   0  0.4958067E-02  0.9118800E+02  0.7818609E-02  0.1379984E+01
      -11   -1    0    0    0    0  0.00000000000E+00  0.00000000000E+00  0.35740347158E-01  0.35744000000E-01  0.51099999109E-03 0.  1.
       11   -1    0    0    0    0 -0.00000000000E+00 -0.00000000000E+00 -0.35740347158E-01  0.35744000000E-01  0.51099999109E-03 0. -1.
       22    1    1    2    0    0 -0.41199384095E-02 -0.20870934633E-02 -0.35437321192E-01  0.35737005818E-01  0.00000000000E+00 0. -1.
  9000001    1    1    2    0    0  0.41199384095E-02  0.20870934633E-02  0.35437321192E-01  0.35750994182E-01  0.10000000475E-02 0.  1.
</event>
<event>
 4   0  0.4958067E-02  0.9118800E+02  0.7818609E-02  0.1379984E+01
      -11   -1    0    0    0    0  0.00000000000E+00  0.00000000000E+00  0.35740347158E-01  0.35744000000E-01  0.51099999109E-03 0.  1.
       11   -1    0    0    0    0 -0.00000000000E+00 -0.00000000000E+00 -0.35740347158E-01  0.35744000000E-01  0.51099999109E-03 0. -1.
       22    1    1    2    0    0  0.45370275593E-03  0.10811833949E-01 -0.34059242290E-01  0.35737005818E-01  0.00000000000E+00 0. -1.
  9000001    1    1    2    0    0 -0.45370275593E-03 -0.10811833949E-01  0.34059242290E-01  0.35750994182E-01  0.10000000475E-02 0.  1.
</event>
<event>
 4   0  0.4958067E-02  0.9118800E+02  0.7818609E-02  0.1379984E+01
      -11   -1    0    0    0    0  0.00000000000E+00  0.00000000000E+00  0.35740347158E-01  0.35744000000E-01  0.51099999109E-03 0.  1.
       11   -1    0    0    0    0 -0.00000000000E+00 -0.00000000000E+00 -0.35740347158E-01  0.35744000000E-01  0.51099999109E-03 0. -1.
       22    1    1    2    0    0  0.73402550060E-02 -0.51579161186E-02 -0.34592631334E-01  0.35737005818E-01  0.00000000000E+00 0. -1.
  9000001    1    1    2    0    0 -0.73402550060E-02  0.51579161186E-02  0.34592631334E-01  0.35750994182E-01  0.10000000475E-02 0.  1.
</event>
<event>
 4   0  0.4958067E-02  0.9118800E+02  0.7818609E-02  0.1379984E+01
      -11   -1    0    0    0    0  0.00000000000E+00  0.00000000000E+00  0.35740347158E-01  0.35744000000E-01  0.51099999109E-03 0. -1.
       11   -1    0    0    0    0 -0.00000000000E+00 -0.00000000000E+00 -0.35740347158E-01  0.35744000000E-01  0.51099999109E-03 0.  1.
       22    1    1    2    0    0  0.46427403631E-02 -0.23984710000E-02  0.35352876597E-01  0.35737005818E-01  0.00000000000E+00 0. -1.
  9000001    1    1    2    0    0 -0.46427403631E-02  0.23984710000E-02 -0.35352876597E-01  0.35750994182E-01  0.10000000475E-02 0.  1.
</event>
<event>
 4   0  0.4958067E-02  0.9118800E+02  0.7818609E-02  0.1379984E+01
      -11   -1    0    0    0    0  0.00000000000E+00  0.00000000000E+00  0.35740347158E-01  0.35744000000E-01  0.51099999109E-03 0.  1.
       11   -1    0    0    0    0 -0.00000000000E+00 -0.00000000000E+00 -0.35740347158E-01  0.35744000000E-01  0.51099999109E-03 0. -1.
       22    1    1    2    0    0  0.19414990006E-01 -0.15791578634E-01 -0.25511130751E-01  0.35737005818E-01  0.00000000000E+00 0. -1.
  9000001    1    1    2    0    0 -0.19414990006E-01  0.15791578634E-01  0.25511130751E-01  0.35750994182E-01  0.10000000475E-02 0.  1.
</event>
<event>
 4   0  0.4958067E-02  0.9118800E+02  0.7818609E-02  0.1379984E+01
      -11   -1    0    0    0    0  0.00000000000E+00  0.00000000000E+00  0.35740347158E-01  0.35744000000E-01  0.51099999109E-03 0. -1.
       11   -1    0    0    0    0 -0.00000000000E+00 -0.00000000000E+00 -0.35740347158E-01  0.35744000000E-01  0.51099999109E-03 0.  1.
       22    1    1    2    0    0  0.70324026675E-02  0.68084271220E-02  0.34370397404E-01  0.35737005818E-01  0.00000000000E+00 0. -1.
  9000001    1    1    2    0    0 -0.70324026675E-02 -0.68084271220E-02 -0.34370397404E-01  0.35750994182E-01  0.10000000475E-02 0.  1.
</event>
<event>
 4   0  0.4958067E-02  0.9118800E+02  0.7818609E-02  0.1379984E+01
      -11   -1    0    0    0    0  0.00000000000E+00  0.00000000000E+00  0.35740347158E-01  0.35744000000E-01  0.51099999109E-03 0.  1.
       11   -1    0    0    0    0 -0.00000000000E+00 -0.00000000000E+00 -0.35740347158E-01  0.35744000000E-01  0.51099999109E-03 0. -1.
       22    1    1    2    0    0 -0.20633229466E-01  0.10084399877E-01  0.27380801774E-01  0.35737005818E-01  0.00000000000E+00 0.  1.
  9000001    1    1    2    0    0  0.20633229466E-01 -0.10084399877E-01 -0.27380801774E-01  0.35750994182E-01  0.10000000475E-02 0. -1.
</event>
<event>
 4   0  0.4958067E-02  0.9118800E+02  0.7818609E-02  0.1379984E+01
      -11   -1    0    0    0    0  0.00000000000E+00  0.00000000000E+00  0.35740347158E-01  0.35744000000E-01  0.51099999109E-03 0.  1.
       11   -1    0    0    0    0 -0.00000000000E+00 -0.00000000000E+00 -0.35740347158E-01  0.35744000000E-01  0.51099999109E-03 0. -1.
       22    1    1    2    0    0 -0.13421321358E-01 -0.10111426571E-01  0.31539828322E-01  0.35737005818E-01  0.00000000000E+00 0.  1.
  9000001    1    1    2    0    0  0.13421321358E-01  0.10111426571E-01 -0.31539828322E-01  0.35750994182E-01  0.10000000475E-02 0. -1.
</event>
<event>
 4   0  0.4958067E-02  0.9118800E+02  0.7818609E-02  0.1379984E+01
      -11   -1    0    0    0    0  0.00000000000E+00  0.00000000000E+00  0.35740347158E-01  0.35744000000E-01  0.51099999109E-03 0. -1.
       11   -1    0    0    0    0 -0.00000000000E+00 -0.00000000000E+00 -0.35740347158E-01  0.35744000000E-01  0.51099999109E-03 0.  1.
       22    1    1    2    0    0  0.85381623636E-02  0.55307687736E-02  0.34258487490E-01  0.35737005818E-01  0.00000000000E+00 0. -1.
  9000001    1    1    2    0    0 -0.85381623636E-02 -0.55307687736E-02 -0.34258487490E-01  0.35750994182E-01  0.10000000475E-02 0.  1.
</event>
<event>
 4   0  0.4958067E-02  0.9118800E+02  0.7818609E-02  0.1379984E+01
      -11   -1    0    0    0    0  0.00000000000E+00  0.00000000000E+00  0.35740347158E-01  0.35744000000E-01  0.51099999109E-03 0. -1.
       11   -1    0    0    0    0 -0.00000000000E+00 -0.00000000000E+00 -0.35740347158E-01  0.35744000000E-01  0.51099999109E-03 0.  1.
       22    1    1    2    0    0 -0.85685230851E-02  0.34385839096E-01  0.46182319837E-02  0.35737005818E-01  0.00000000000E+00 0. -1.
  9000001    1    1    2    0    0  0.85685230851E-02 -0.34385839096E-01 -0.46182319837E-02  0.35750994182E-01  0.10000000475E-02 0.  1.
</event>
<event>
 4   0  0.4958067E-02  0.9118800E+02  0.7818609E-02  0.1379984E+01
      -11   -1    0    0    0    0  0.00000000000E+00  0.00000000000E+00  0.35740347158E-01  0.35744000000E-01  0.51099999109E-03 0. -1.
       11   -1    0    0    0    0 -0.00000000000E+00 -0.00000000000E+00 -0.35740347158E-01  0.35744000000E-01  0.51099999109E-03 0.  1.
       22    1    1    2    0    0  0.55861990256E-02  0.19781625210E-01 -0.29233803539E-01  0.35737005818E-01  0.00000000000E+00 0.  1.
  9000001    1    1    2    0    0 -0.55861990256E-02 -0.19781625210E-01  0.29233803539E-01  0.35750994182E-01  0.10000000475E-02 0. -1.
</event>
<event>
 4   0  0.4958067E-02  0.9118800E+02  0.7818609E-02  0.1379984E+01
      -11   -1    0    0    0    0  0.00000000000E+00  0.00000000000E+00  0.35740347158E-01  0.35744000000E-01  0.51099999109E-03 0.  1.
       11   -1    0    0    0    0 -0.00000000000E+00 -0.00000000000E+00 -0.35740347158E-01  0.35744000000E-01  0.51099999109E-03 0. -1.
       22    1    1    2    0    0 -0.17872527885E-01 -0.94164637985E-02  0.29479425731E-01  0.35737005818E-01  0.00000000000E+00 0.  1.
  9000001    1    1    2    0    0  0.17872527885E-01  0.94164637985E-02 -0.29479425731E-01  0.35750994182E-01  0.10000000475E-02 0. -1.
</event>
<event>
 4   0  0.4958067E-02  0.9118800E+02  0.7818609E-02  0.1379984E+01
      -11   -1    0    0    0    0  0.00000000000E+00  0.00000000000E+00  0.35740347158E-01  0.35744000000E-01  0.51099999109E-03 0.  1.
       11   -1    0    0    0    0 -0.00000000000E+00 -0.00000000000E+00 -0.35740347158E-01  0.35744000000E-01  0.51099999109E-03 0. -1.
       22    1    1    2    0    0 -0.39580204148E-02 -0.17063666628E-02 -0.35476132428E-01  0.35737005818E-01  0.00000000000E+00 0. -1.
  9000001    1    1    2    0    0  0.39580204148E-02  0.17063666628E-02  0.35476132428E-01  0.35750994182E-01  0.10000000475E-02 0.  1.
</event>
<event>
 4   0  0.4958067E-02  0.9118800E+02  0.7818609E-02  0.1379984E+01
      -11   -1    0    0    0    0  0.00000000000E+00  0.00000000000E+00  0.35740347158E-01  0.35744000000E-01  0.51099999109E-03 0. -1.
       11   -1    0    0    0    0 -0.00000000000E+00 -0.00000000000E+00 -0.35740347158E-01  0.35744000000E-01  0.51099999109E-03 0.  1.
       22    1    1    2    0    0 -0.43105192879E-02 -0.17565095683E-02 -0.35432579393E-01  0.35737005818E-01  0.00000000000E+00 0.  1.
  9000001    1    1    2    0    0  0.43105192879E-02  0.17565095683E-02  0.35432579393E-01  0.35750994182E-01  0.10000000475E-02 0. -1.
</event>
<event>
 4   0  0.4958067E-02  0.9118800E+02  0.7818609E-02  0.1379984E+01
      -11   -1    0    0    0    0  0.00000000000E+00  0.00000000000E+00  0.35740347158E-01  0.35744000000E-01  0.51099999109E-03 0.  1.
       11   -1    0    0    0    0 -0.00000000000E+00 -0.00000000000E+00 -0.35740347158E-01  0.35744000000E-01  0.51099999109E-03 0. -1.
       22    1    1    2    0    0  0.29309784807E-02  0.71973552690E-02  0.34881815136E-01  0.35737005818E-01  0.00000000000E+00 0.  1.
  9000001    1    1    2    0    0 -0.29309784807E-02 -0.71973552690E-02 -0.34881815136E-01  0.35750994182E-01  0.10000000475E-02 0. -1.
</event>
<event>
 4   0  0.4958067E-02  0.9118800E+02  0.7818609E-02  0.1379984E+01
      -11   -1    0    0    0    0  0.00000000000E+00  0.00000000000E+00  0.35740347158E-01  0.35744000000E-01  0.51099999109E-03 0. -1.
       11   -1    0    0    0    0 -0.00000000000E+00 -0.00000000000E+00 -0.35740347158E-01  0.35744000000E-01  0.51099999109E-03 0.  1.
       22    1    1    2    0    0 -0.32718309036E-01  0.97634438286E-02  0.10550876898E-01  0.35737005818E-01  0.00000000000E+00 0. -1.
  9000001    1    1    2    0    0  0.32718309036E-01 -0.97634438286E-02 -0.10550876898E-01  0.35750994182E-01  0.10000000475E-02 0.  1.
</event>
<event>
 4   0  0.4958067E-02  0.9118800E+02  0.7818609E-02  0.1379984E+01
      -11   -1    0    0    0    0  0.00000000000E+00  0.00000000000E+00  0.35740347158E-01  0.35744000000E-01  0.51099999109E-03 0. -1.
       11   -1    0    0    0    0 -0.00000000000E+00 -0.00000000000E+00 -0.35740347158E-01  0.35744000000E-01  0.51099999109E-03 0.  1.
       22    1    1    2    0    0 -0.78557126477E-02 -0.45298251370E-03  0.34859950811E-01  0.35737005818E-01  0.00000000000E+00 0. -1.
  9000001    1    1    2    0    0  0.78557126477E-02  0.45298251370E-03 -0.34859950811E-01  0.35750994182E-01  0.10000000475E-02 0.  1.
</event>
<event>
 4   0  0.4958067E-02  0.9118800E+02  0.7818609E-02  0.1379984E+01
      -11   -1    0    0    0    0  0.00000000000E+00  0.00000000000E+00  0.35740347158E-01  0.35744000000E-01  0.51099999109E-03 0.  1.
       11   -1    0    0    0    0 -0.00000000000E+00 -0.00000000000E+00 -0.35740347158E-01  0.35744000000E-01  0.51099999109E-03 0. -1.
       22    1    1    2    0    0 -0.19757355056E-01 -0.15144788835E-02 -0.29740323801E-01  0.35737005818E-01  0.00000000000E+00 0. -1.
  9000001    1    1    2    0    0  0.19757355056E-01  0.15144788835E-02  0.29740323801E-01  0.35750994182E-01  0.10000000475E-02 0.  1.
</event>
<event>
 4   0  0.4958067E-02  0.9118800E+02  0.7818609E-02  0.1379984E+01
      -11   -1    0    0    0    0  0.00000000000E+00  0.00000000000E+00  0.35740347158E-01  0.35744000000E-01  0.51099999109E-03 0.  1.
       11   -1    0    0    0    0 -0.00000000000E+00 -0.00000000000E+00 -0.35740347158E-01  0.35744000000E-01  0.51099999109E-03 0. -1.
       22    1    1    2    0    0 -0.11183400672E-01 -0.12989961186E-01  0.31358029955E-01  0.35737005818E-01  0.00000000000E+00 0.  1.
  9000001    1    1    2    0    0  0.11183400672E-01  0.12989961186E-01 -0.31358029955E-01  0.35750994182E-01  0.10000000475E-02 0. -1.
</event>
<event>
 4   0  0.4958067E-02  0.9118800E+02  0.7818609E-02  0.1379984E+01
      -11   -1    0    0    0    0  0.00000000000E+00  0.00000000000E+00  0.35740347158E-01  0.35744000000E-01  0.51099999109E-03 0.  1.
       11   -1    0    0    0    0 -0.00000000000E+00 -0.00000000000E+00 -0.35740347158E-01  0.35744000000E-01  0.51099999109E-03 0. -1.
       22    1    1    2    0    0  0.28409576761E-02  0.24583612228E-01  0.25781942405E-01  0.35737005818E-01  0.00000000000E+00 0.  1.
  9000001    1    1    2    0    0 -0.28409576761E-02 -0.24583612228E-01 -0.25781942405E-01  0.35750994182E-01  0.10000000475E-02 0. -1.
</event>
<event>
 4   0  0.4958067E-02  0.9118800E+02  0.7818609E-02  0.1379984E+01
      -11   -1    0    0    0    0  0.00000000000E+00  0.00000000000E+00  0.35740347158E-01  0.35744000000E-01  0.51099999109E-03 0.  1.
       11   -1    0    0    0    0 -0.00000000000E+00 -0.00000000000E+00 -0.35740347158E-01  0.35744000000E-01  0.51099999109E-03 0. -1.
       22    1    1    2    0    0 -0.88617084044E-02 -0.77353527240E-02  0.33745637159E-01  0.35737005818E-01  0.00000000000E+00 0.  1.
  9000001    1    1    2    0    0  0.88617084044E-02  0.77353527240E-02 -0.33745637159E-01  0.35750994182E-01  0.10000000475E-02 0. -1.
</event>
<event>
 4   0  0.4958067E-02  0.9118800E+02  0.7818609E-02  0.1379984E+01
      -11   -1    0    0    0    0  0.00000000000E+00  0.00000000000E+00  0.35740347158E-01  0.35744000000E-01  0.51099999109E-03 0. -1.
       11   -1    0    0    0    0 -0.00000000000E+00 -0.00000000000E+00 -0.35740347158E-01  0.35744000000E-01  0.51099999109E-03 0.  1.
       22    1    1    2    0    0  0.88053934526E-02 -0.46454397653E-03  0.34632106923E-01  0.35737005818E-01  0.00000000000E+00 0. -1.
  9000001    1    1    2    0    0 -0.88053934526E-02  0.46454397653E-03 -0.34632106923E-01  0.35750994182E-01  0.10000000475E-02 0.  1.
</event>
<event>
 4   0  0.4958067E-02  0.9118800E+02  0.7818609E-02  0.1379984E+01
      -11   -1    0    0    0    0  0.00000000000E+00  0.00000000000E+00  0.35740347158E-01  0.35744000000E-01  0.51099999109E-03 0. -1.
       11   -1    0    0    0    0 -0.00000000000E+00 -0.00000000000E+00 -0.35740347158E-01  0.35744000000E-01  0.51099999109E-03 0.  1.
       22    1    1    2    0    0  0.76982747327E-02 -0.12496450465E-01  0.32583874490E-01  0.35737005818E-01  0.00000000000E+00 0. -1.
  9000001    1    1    2    0    0 -0.76982747327E-02  0.12496450465E-01 -0.32583874490E-01  0.35750994182E-01  0.10000000475E-02 0.  1.
</event>
<event>
 4   0  0.4958067E-02  0.9118800E+02  0.7818609E-02  0.1379984E+01
      -11   -1    0    0    0    0  0.00000000000E+00  0.00000000000E+00  0.35740347158E-01  0.35744000000E-01  0.51099999109E-03 0. -1.
       11   -1    0    0    0    0 -0.00000000000E+00 -0.00000000000E+00 -0.35740347158E-01  0.35744000000E-01  0.51099999109E-03 0.  1.
       22    1    1    2    0    0 -0.12371799367E-01 -0.80622488615E-02 -0.32543391166E-01  0.35737005818E-01  0.00000000000E+00 0.  1.
  9000001    1    1    2    0    0  0.12371799367E-01  0.80622488615E-02  0.32543391166E-01  0.35750994182E-01  0.10000000475E-02 0. -1.
</event>
<event>
 4   0  0.4958067E-02  0.9118800E+02  0.7818609E-02  0.1379984E+01
      -11   -1    0    0    0    0  0.00000000000E+00  0.00000000000E+00  0.35740347158E-01  0.35744000000E-01  0.51099999109E-03 0. -1.
       11   -1    0    0    0    0 -0.00000000000E+00 -0.00000000000E+00 -0.35740347158E-01  0.35744000000E-01  0.51099999109E-03 0.  1.
       22    1    1    2    0    0  0.65425286737E-02 -0.68576388819E-02 -0.34457244411E-01  0.35737005818E-01  0.00000000000E+00 0.  1.
  9000001    1    1    2    0    0 -0.65425286737E-02  0.68576388819E-02  0.34457244411E-01  0.35750994182E-01  0.10000000475E-02 0. -1.
</event>
<event>
 4   0  0.4958067E-02  0.9118800E+02  0.7818609E-02  0.1379984E+01
      -11   -1    0    0    0    0  0.00000000000E+00  0.00000000000E+00  0.35740347158E-01  0.35744000000E-01  0.51099999109E-03 0. -1.
       11   -1    0    0    0    0 -0.00000000000E+00 -0.00000000000E+00 -0.35740347158E-01  0.35744000000E-01  0.51099999109E-03 0.  1.
       22    1    1    2    0    0  0.16849543112E-02  0.57113517233E-02 -0.35237408749E-01  0.35737005818E-01  0.00000000000E+00 0.  1.
  9000001    1    1    2    0    0 -0.16849543112E-02 -0.57113517233E-02  0.35237408749E-01  0.35750994182E-01  0.10000000475E-02 0. -1.
</event>
<event>
 4   0  0.4958067E-02  0.9118800E+02  0.7818609E-02  0.1379984E+01
      -11   -1    0    0    0    0  0.00000000000E+00  0.00000000000E+00  0.35740347158E-01  0.35744000000E-01  0.51099999109E-03 0. -1.
       11   -1    0    0    0    0 -0.00000000000E+00 -0.00000000000E+00 -0.35740347158E-01  0.35744000000E-01  0.51099999109E-03 0.  1.
       22    1    1    2    0    0 -0.14872582360E-02 -0.56331626847E-02  0.35258887191E-01  0.35737005818E-01  0.00000000000E+00 0. -1.
  9000001    1    1    2    0    0  0.14872582360E-02  0.56331626847E-02 -0.35258887191E-01  0.35750994182E-01  0.10000000475E-02 0.  1.
</event>
<event>
 4   0  0.4958067E-02  0.9118800E+02  0.7818609E-02  0.1379984E+01
      -11   -1    0    0    0    0  0.00000000000E+00  0.00000000000E+00  0.35740347158E-01  0.35744000000E-01  0.51099999109E-03 0.  1.
       11   -1    0    0    0    0 -0.00000000000E+00 -0.00000000000E+00 -0.35740347158E-01  0.35744000000E-01  0.51099999109E-03 0. -1.
       22    1    1    2    0    0  0.17956684520E-01  0.26284082104E-01  0.16243093730E-01  0.35737005818E-01  0.00000000000E+00 0.  1.
  9000001    1    1    2    0    0 -0.17956684520E-01 -0.26284082104E-01 -0.16243093730E-01  0.35750994182E-01  0.10000000475E-02 0. -1.
</event>
<event>
 4   0  0.4958067E-02  0.9118800E+02  0.7818609E-02  0.1379984E+01
      -11   -1    0    0    0    0  0.00000000000E+00  0.00000000000E+00  0.35740347158E-01  0.35744000000E-01  0.51099999109E-03 0. -1.
       11   -1    0    0    0    0 -0.00000000000E+00 -0.00000000000E+00 -0.35740347158E-01  0.35744000000E-01  0.51099999109E-03 0.  1.
       22    1    1    2    0    0  0.59743040005E-02  0.32679714313E-02 -0.35082212577E-01  0.35737005818E-01  0.00000000000E+00 0.  1.
  9000001    1    1    2    0    0 -0.59743040005E-02 -0.32679714313E-02  0.35082212577E-01  0.35750994182E-01  0.10000000475E-02 0. -1.
</event>
<event>
 4   0  0.4958067E-02  0.9118800E+02  0.7818609E-02  0.1379984E+01
      -11   -1    0    0    0    0  0.00000000000E+00  0.00000000000E+00  0.35740347158E-01  0.35744000000E-01  0.51099999109E-03 0. -1.
       11   -1    0    0    0    0 -0.00000000000E+00 -0.00000000000E+00 -0.35740347158E-01  0.35744000000E-01  0.51099999109E-03 0.  1.
       22    1    1    2    0    0 -0.14119211132E-01  0.49325918007E-03  0.32825876337E-01  0.35737005818E-01  0.00000000000E+00 0. -1.
  9000001    1    1    2    0    0  0.14119211132E-01 -0.49325918007E-03 -0.32825876337E-01  0.35750994182E-01  0.10000000475E-02 0.  1.
</event>
<event>
 4   0  0.4958067E-02  0.9118800E+02  0.7818609E-02  0.1379984E+01
      -11   -1    0    0    0    0  0.00000000000E+00  0.00000000000E+00  0.35740347158E-01  0.35744000000E-01  0.51099999109E-03 0. -1.
       11   -1    0    0    0    0 -0.00000000000E+00 -0.00000000000E+00 -0.35740347158E-01  0.35744000000E-01  0.51099999109E-03 0.  1.
       22    1    1    2    0    0 -0.48420919536E-02  0.21541392877E-02  0.35341864896E-01  0.35737005818E-01  0.00000000000E+00 0. -1.
  9000001    1    1    2    0    0  0.48420919536E-02 -0.21541392877E-02 -0.35341864896E-01  0.35750994182E-01  0.10000000475E-02 0.  1.
</event>
<event>
 4   0  0.4958067E-02  0.9118800E+02  0.7818609E-02  0.1379984E+01
      -11   -1    0    0    0    0  0.00000000000E+00  0.00000000000E+00  0.35740347158E-01  0.35744000000E-01  0.51099999109E-03 0. -1.
       11   -1    0    0    0    0 -0.00000000000E+00 -0.00000000000E+00 -0.35740347158E-01  0.35744000000E-01  0.51099999109E-03 0.  1.
       22    1    1    2    0    0  0.49987769498E-02 -0.37969407239E-02 -0.35181373694E-01  0.35737005818E-01  0.00000000000E+00 0.  1.
  9000001    1    1    2    0    0 -0.49987769498E-02  0.37969407239E-02  0.35181373694E-01  0.35750994182E-01  0.10000000475E-02 0. -1.
</event>
<event>
 4   0  0.4958067E-02  0.9118800E+02  0.7818609E-02  0.1379984E+01
      -11   -1    0    0    0    0  0.00000000000E+00  0.00000000000E+00  0.35740347158E-01  0.35744000000E-01  0.51099999109E-03 0.  1.
       11   -1    0    0    0    0 -0.00000000000E+00 -0.00000000000E+00 -0.35740347158E-01  0.35744000000E-01  0.51099999109E-03 0. -1.
       22    1    1    2    0    0  0.71219171787E-02  0.43303402894E-02 -0.34751403332E-01  0.35737005818E-01  0.00000000000E+00 0. -1.
  9000001    1    1    2    0    0 -0.71219171787E-02 -0.43303402894E-02  0.34751403332E-01  0.35750994182E-01  0.10000000475E-02 0.  1.
</event>
<event>
 4   0  0.4958067E-02  0.9118800E+02  0.7818609E-02  0.1379984E+01
      -11   -1    0    0    0    0  0.00000000000E+00  0.00000000000E+00  0.35740347158E-01  0.35744000000E-01  0.51099999109E-03 0.  1.
       11   -1    0    0    0    0 -0.00000000000E+00 -0.00000000000E+00 -0.35740347158E-01  0.35744000000E-01  0.51099999109E-03 0. -1.
       22    1    1    2    0    0 -0.42706150398E-02 -0.36978752841E-02  0.35287691203E-01  0.35737005818E-01  0.00000000000E+00 0.  1.
  9000001    1    1    2    0    0  0.42706150398E-02  0.36978752841E-02 -0.35287691203E-01  0.35750994182E-01  0.10000000475E-02 0. -1.
</event>
<event>
 4   0  0.4958067E-02  0.9118800E+02  0.7818609E-02  0.1379984E+01
      -11   -1    0    0    0    0  0.00000000000E+00  0.00000000000E+00  0.35740347158E-01  0.35744000000E-01  0.51099999109E-03 0. -1.
       11   -1    0    0    0    0 -0.00000000000E+00 -0.00000000000E+00 -0.35740347158E-01  0.35744000000E-01  0.51099999109E-03 0.  1.
       22    1    1    2    0    0 -0.55921866299E-02  0.39283495523E-03 -0.35294570606E-01  0.35737005818E-01  0.00000000000E+00 0.  1.
  9000001    1    1    2    0    0  0.55921866299E-02 -0.39283495523E-03  0.35294570606E-01  0.35750994182E-01  0.10000000475E-02 0. -1.
</event>
<event>
 4   0  0.4958067E-02  0.9118800E+02  0.7818609E-02  0.1379984E+01
      -11   -1    0    0    0    0  0.00000000000E+00  0.00000000000E+00  0.35740347158E-01  0.35744000000E-01  0.51099999109E-03 0. -1.
       11   -1    0    0    0    0 -0.00000000000E+00 -0.00000000000E+00 -0.35740347158E-01  0.35744000000E-01  0.51099999109E-03 0.  1.
       22    1    1    2    0    0  0.76587703713E-02  0.14048625300E-01  0.31954857979E-01  0.35737005818E-01  0.00000000000E+00 0. -1.
  9000001    1    1    2    0    0 -0.76587703713E-02 -0.14048625300E-01 -0.31954857979E-01  0.35750994182E-01  0.10000000475E-02 0.  1.
</event>
<event>
 4   0  0.4958067E-02  0.9118800E+02  0.7818609E-02  0.1379984E+01
      -11   -1    0    0    0    0  0.00000000000E+00  0.00000000000E+00  0.35740347158E-01  0.35744000000E-01  0.51099999109E-03 0.  1.
       11   -1    0    0    0    0 -0.00000000000E+00 -0.00000000000E+00 -0.35740347158E-01  0.35744000000E-01  0.51099999109E-03 0. -1.
       22    1    1    2    0    0 -0.41136891877E-02 -0.84248296541E-02  0.34485263395E-01  0.35737005818E-01  0.00000000000E+00 0.  1.
  9000001    1    1    2    0    0  0.41136891877E-02  0.84248296541E-02 -0.34485263395E-01  0.35750994182E-01  0.10000000475E-02 0. -1.
</event>
<event>
 4   0  0.4958067E-02  0.9118800E+02  0.7818609E-02  0.1379984E+01
      -11   -1    0    0    0    0  0.00000000000E+00  0.00000000000E+00  0.35740347158E-01  0.35744000000E-01  0.51099999109E-03 0.  1.
       11   -1    0    0    0    0 -0.00000000000E+00 -0.00000000000E+00 -0.35740347158E-01  0.35744000000E-01  0.51099999109E-03 0. -1.
       22    1    1    2    0    0 -0.38801639005E-02 -0.12139788892E-01  0.33387174763E-01  0.35737005818E-01  0.00000000000E+00 0.  1.
  9000001    1    1    2    0    0  0.38801639005E-02  0.12139788892E-01 -0.33387174763E-01  0.35750994182E-01  0.10000000475E-02 0. -1.
</event>
<event>
 4   0  0.4958067E-02  0.9118800E+02  0.7818609E-02  0.1379984E+01
      -11   -1    0    0    0    0  0.00000000000E+00  0.00000000000E+00  0.35740347158E-01  0.35744000000E-01  0.51099999109E-03 0.  1.
       11   -1    0    0    0    0 -0.00000000000E+00 -0.00000000000E+00 -0.35740347158E-01  0.35744000000E-01  0.51099999109E-03 0. -1.
       22    1    1    2    0    0  0.92531811499E-02  0.69764201003E-03 -0.34511237577E-01  0.35737005818E-01  0.00000000000E+00 0. -1.
  9000001    1    1    2    0    0 -0.92531811499E-02 -0.69764201003E-03  0.34511237577E-01  0.35750994182E-01  0.10000000475E-02 0.  1.
</event>
<event>
 4   0  0.4958067E-02  0.9118800E+02  0.7818609E-02  0.1379984E+01
      -11   -1    0    0    0    0  0.00000000000E+00  0.00000000000E+00  0.35740347158E-01  0.35744000000E-01  0.51099999109E-03 0.  1.
       11   -1    0    0    0    0 -0.00000000000E+00 -0.00000000000E+00 -0.35740347158E-01  0.35744000000E-01  0.51099999109E-03 0. -1.
       22    1    1    2    0    0  0.82382688281E-03  0.32879995584E-02 -0.35575890053E-01  0.35737005818E-01  0.00000000000E+00 0. -1.
  9000001    1    1    2    0    0 -0.82382688281E-03 -0.32879995584E-02  0.35575890053E-01  0.35750994182E-01  0.10000000475E-02 0.  1.
</event>
<event>
 4   0  0.4958067E-02  0.9118800E+02  0.7818609E-02  0.1379984E+01
      -11   -1    0    0    0    0  0.00000000000E+00  0.00000000000E+00  0.35740347158E-01  0.35744000000E-01  0.51099999109E-03 0. -1.
       11   -1    0    0    0    0 -0.00000000000E+00 -0.00000000000E+00 -0.35740347158E-01  0.35744000000E-01  0.51099999109E-03 0.  1.
       22    1    1    2    0    0  0.29037540006E-01  0.14871833983E-01  0.14587097356E-01  0.35737005818E-01  0.00000000000E+00 0. -1.
  9000001    1    1    2    0    0 -0.29037540006E-01 -0.14871833983E-01 -0.14587097356E-01  0.35750994182E-01  0.10000000475E-02 0.  1.
</event>
<event>
 4   0  0.4958067E-02  0.9118800E+02  0.7818609E-02  0.1379984E+01
      -11   -1    0    0    0    0  0.00000000000E+00  0.00000000000E+00  0.35740347158E-01  0.35744000000E-01  0.51099999109E-03 0. -1.
       11   -1    0    0    0    0 -0.00000000000E+00 -0.00000000000E+00 -0.35740347158E-01  0.35744000000E-01  0.51099999109E-03 0.  1.
       22    1    1    2    0    0 -0.46758338439E-02  0.25433969112E-02  0.35338382743E-01  0.35737005818E-01  0.00000000000E+00 0. -1.
  9000001    1    1    2    0    0  0.46758338439E-02 -0.25433969112E-02 -0.35338382743E-01  0.35750994182E-01  0.10000000475E-02 0.  1.
</event>
<event>
 4   0  0.4958067E-02  0.9118800E+02  0.7818609E-02  0.1379984E+01
      -11   -1    0    0    0    0  0.00000000000E+00  0.00000000000E+00  0.35740347158E-01  0.35744000000E-01  0.51099999109E-03 0.  1.
       11   -1    0    0    0    0 -0.00000000000E+00 -0.00000000000E+00 -0.35740347158E-01  0.35744000000E-01  0.51099999109E-03 0. -1.
       22    1    1    2    0    0 -0.59805287210E-03 -0.26982254557E-01 -0.23425068979E-01  0.35737005818E-01  0.00000000000E+00 0. -1.
  9000001    1    1    2    0    0  0.59805287210E-03  0.26982254557E-01  0.23425068979E-01  0.35750994182E-01  0.10000000475E-02 0.  1.
</event>
<event>
 4   0  0.4958067E-02  0.9118800E+02  0.7818609E-02  0.1379984E+01
      -11   -1    0    0    0    0  0.00000000000E+00  0.00000000000E+00  0.35740347158E-01  0.35744000000E-01  0.51099999109E-03 0. -1.
       11   -1    0    0    0    0 -0.00000000000E+00 -0.00000000000E+00 -0.35740347158E-01  0.35744000000E-01  0.51099999109E-03 0.  1.
       22    1    1    2    0    0 -0.12451875889E-01 -0.16107037974E-01 -0.29370864805E-01  0.35737005818E-01  0.00000000000E+00 0.  1.
  9000001    1    1    2    0    0  0.12451875889E-01  0.16107037974E-01  0.29370864805E-01  0.35750994182E-01  0.10000000475E-02 0. -1.
</event>
<event>
 4   0  0.4958067E-02  0.9118800E+02  0.7818609E-02  0.1379984E+01
      -11   -1    0    0    0    0  0.00000000000E+00  0.00000000000E+00  0.35740347158E-01  0.35744000000E-01  0.51099999109E-03 0.  1.
       11   -1    0    0    0    0 -0.00000000000E+00 -0.00000000000E+00 -0.35740347158E-01  0.35744000000E-01  0.51099999109E-03 0. -1.
       22    1    1    2    0    0  0.30705413977E-02 -0.15148717268E-02  0.35572609182E-01  0.35737005818E-01  0.00000000000E+00 0.  1.
  9000001    1    1    2    0    0 -0.30705413977E-02  0.15148717268E-02 -0.35572609182E-01  0.35750994182E-01  0.10000000475E-02 0. -1.
</event>
<event>
 4   0  0.4958067E-02  0.9118800E+02  0.7818609E-02  0.1379984E+01
      -11   -1    0    0    0    0  0.00000000000E+00  0.00000000000E+00  0.35740347158E-01  0.35744000000E-01  0.51099999109E-03 0.  1.
       11   -1    0    0    0    0 -0.00000000000E+00 -0.00000000000E+00 -0.35740347158E-01  0.35744000000E-01  0.51099999109E-03 0. -1.
       22    1    1    2    0    0 -0.30731338835E-01  0.16112467640E-01  0.85502505706E-02  0.35737005818E-01  0.00000000000E+00 0.  1.
  9000001    1    1    2    0    0  0.30731338835E-01 -0.16112467640E-01 -0.85502505706E-02  0.35750994182E-01  0.10000000475E-02 0. -1.
</event>
<event>
 4   0  0.4958067E-02  0.9118800E+02  0.7818609E-02  0.1379984E+01
      -11   -1    0    0    0    0  0.00000000000E+00  0.00000000000E+00  0.35740347158E-01  0.35744000000E-01  0.51099999109E-03 0.  1.
       11   -1    0    0    0    0 -0.00000000000E+00 -0.00000000000E+00 -0.35740347158E-01  0.35744000000E-01  0.51099999109E-03 0. -1.
       22    1    1    2    0    0  0.58955822124E-02  0.12342348938E-01  0.33015785890E-01  0.35737005818E-01  0.00000000000E+00 0.  1.
  9000001    1    1    2    0    0 -0.58955822124E-02 -0.12342348938E-01 -0.33015785890E-01  0.35750994182E-01  0.10000000475E-02 0. -1.
</event>
<event>
 4   0  0.4958067E-02  0.9118800E+02  0.7818609E-02  0.1379984E+01
      -11   -1    0    0    0    0  0.00000000000E+00  0.00000000000E+00  0.35740347158E-01  0.35744000000E-01  0.51099999109E-03 0. -1.
       11   -1    0    0    0    0 -0.00000000000E+00 -0.00000000000E+00 -0.35740347158E-01  0.35744000000E-01  0.51099999109E-03 0.  1.
       22    1    1    2    0    0  0.73203109767E-04  0.35079436772E-02 -0.35564343904E-01  0.35737005818E-01  0.00000000000E+00 0.  1.
  9000001    1    1    2    0    0 -0.73203109767E-04 -0.35079436772E-02  0.35564343904E-01  0.35750994182E-01  0.10000000475E-02 0. -1.
</event>
<event>
 4   0  0.4958067E-02  0.9118800E+02  0.7818609E-02  0.1379984E+01
      -11   -1    0    0    0    0  0.00000000000E+00  0.00000000000E+00  0.35740347158E-01  0.35744000000E-01  0.51099999109E-03 0.  1.
       11   -1    0    0    0    0 -0.00000000000E+00 -0.00000000000E+00 -0.35740347158E-01  0.35744000000E-01  0.51099999109E-03 0. -1.
       22    1    1    2    0    0 -0.61373971248E-03  0.35416159855E-02 -0.35555785249E-01  0.35737005818E-01  0.00000000000E+00 0. -1.
  9000001    1    1    2    0    0  0.61373971248E-03 -0.35416159855E-02  0.35555785249E-01  0.35750994182E-01  0.10000000475E-02 0.  1.
</event>
<event>
 4   0  0.4958067E-02  0.9118800E+02  0.7818609E-02  0.1379984E+01
      -11   -1    0    0    0    0  0.00000000000E+00  0.00000000000E+00  0.35740347158E-01  0.35744000000E-01  0.51099999109E-03 0. -1.
       11   -1    0    0    0    0 -0.00000000000E+00 -0.00000000000E+00 -0.35740347158E-01  0.35744000000E-01  0.51099999109E-03 0.  1.
       22    1    1    2    0    0  0.18285490828E-02  0.30019314433E-02  0.35563723100E-01  0.35737005818E-01  0.00000000000E+00 0. -1.
  9000001    1    1    2    0    0 -0.18285490828E-02 -0.30019314433E-02 -0.35563723100E-01  0.35750994182E-01  0.10000000475E-02 0.  1.
</event>
<event>
 4   0  0.4958067E-02  0.9118800E+02  0.7818609E-02  0.1379984E+01
      -11   -1    0    0    0    0  0.00000000000E+00  0.00000000000E+00  0.35740347158E-01  0.35744000000E-01  0.51099999109E-03 0. -1.
       11   -1    0    0    0    0 -0.00000000000E+00 -0.00000000000E+00 -0.35740347158E-01  0.35744000000E-01  0.51099999109E-03 0.  1.
       22    1    1    2    0    0  0.17926434251E-01 -0.14711620463E-01 -0.27190894860E-01  0.35737005818E-01  0.00000000000E+00 0.  1.
  9000001    1    1    2    0    0 -0.17926434251E-01  0.14711620463E-01  0.27190894860E-01  0.35750994182E-01  0.10000000475E-02 0. -1.
</event>
<event>
 4   0  0.4958067E-02  0.9118800E+02  0.7818609E-02  0.1379984E+01
      -11   -1    0    0    0    0  0.00000000000E+00  0.00000000000E+00  0.35740347158E-01  0.35744000000E-01  0.51099999109E-03 0. -1.
       11   -1    0    0    0    0 -0.00000000000E+00 -0.00000000000E+00 -0.35740347158E-01  0.35744000000E-01  0.51099999109E-03 0.  1.
       22    1    1    2    0    0  0.45203048065E-02  0.22373782562E-01  0.27497532311E-01  0.35737005818E-01  0.00000000000E+00 0. -1.
  9000001    1    1    2    0    0 -0.45203048065E-02 -0.22373782562E-01 -0.27497532311E-01  0.35750994182E-01  0.10000000475E-02 0.  1.
</event>
<event>
 4   0  0.4958067E-02  0.9118800E+02  0.7818609E-02  0.1379984E+01
      -11   -1    0    0    0    0  0.00000000000E+00  0.00000000000E+00  0.35740347158E-01  0.35744000000E-01  0.51099999109E-03 0. -1.
       11   -1    0    0    0    0 -0.00000000000E+00 -0.00000000000E+00 -0.35740347158E-01  0.35744000000E-01  0.51099999109E-03 0.  1.
       22    1    1    2    0    0 -0.17290839273E-03  0.32927286108E-02  0.35584570053E-01  0.35737005818E-01  0.00000000000E+00 0. -1.
  9000001    1    1    2    0    0  0.17290839273E-03 -0.32927286108E-02 -0.35584570053E-01  0.35750994182E-01  0.10000000475E-02 0.  1.
</event>
<event>
 4   0  0.4958067E-02  0.9118800E+02  0.7818609E-02  0.1379984E+01
      -11   -1    0    0    0    0  0.00000000000E+00  0.00000000000E+00  0.35740347158E-01  0.35744000000E-01  0.51099999109E-03 0. -1.
       11   -1    0    0    0    0 -0.00000000000E+00 -0.00000000000E+00 -0.35740347158E-01  0.35744000000E-01  0.51099999109E-03 0.  1.
       22    1    1    2    0    0 -0.10725643680E-01 -0.85988232644E-02  0.32987185254E-01  0.35737005818E-01  0.00000000000E+00 0. -1.
  9000001    1    1    2    0    0  0.10725643680E-01  0.85988232644E-02 -0.32987185254E-01  0.35750994182E-01  0.10000000475E-02 0.  1.
</event>
<event>
 4   0  0.4958067E-02  0.9118800E+02  0.7818609E-02  0.1379984E+01
      -11   -1    0    0    0    0  0.00000000000E+00  0.00000000000E+00  0.35740347158E-01  0.35744000000E-01  0.51099999109E-03 0.  1.
       11   -1    0    0    0    0 -0.00000000000E+00 -0.00000000000E+00 -0.35740347158E-01  0.35744000000E-01  0.51099999109E-03 0. -1.
       22    1    1    2    0    0 -0.49261392259E-02 -0.44986883035E-02 -0.35108810016E-01  0.35737005818E-01  0.00000000000E+00 0. -1.
  9000001    1    1    2    0    0  0.49261392259E-02  0.44986883035E-02  0.35108810016E-01  0.35750994182E-01  0.10000000475E-02 0.  1.
</event>
<event>
 4   0  0.4958067E-02  0.9118800E+02  0.7818609E-02  0.1379984E+01
      -11   -1    0    0    0    0  0.00000000000E+00  0.00000000000E+00  0.35740347158E-01  0.35744000000E-01  0.51099999109E-03 0. -1.
       11   -1    0    0    0    0 -0.00000000000E+00 -0.00000000000E+00 -0.35740347158E-01  0.35744000000E-01  0.51099999109E-03 0.  1.
       22    1    1    2    0    0 -0.29248559742E-02  0.35162600217E-02  0.35443119471E-01  0.35737005818E-01  0.00000000000E+00 0. -1.
  9000001    1    1    2    0    0  0.29248559742E-02 -0.35162600217E-02 -0.35443119471E-01  0.35750994182E-01  0.10000000475E-02 0.  1.
</event>
<event>
 4   0  0.4958067E-02  0.9118800E+02  0.7818609E-02  0.1379984E+01
      -11   -1    0    0    0    0  0.00000000000E+00  0.00000000000E+00  0.35740347158E-01  0.35744000000E-01  0.51099999109E-03 0. -1.
       11   -1    0    0    0    0 -0.00000000000E+00 -0.00000000000E+00 -0.35740347158E-01  0.35744000000E-01  0.51099999109E-03 0.  1.
       22    1    1    2    0    0  0.24541280036E-02 -0.29548053529E-02 -0.35529986855E-01  0.35737005818E-01  0.00000000000E+00 0.  1.
  9000001    1    1    2    0    0 -0.24541280036E-02  0.29548053529E-02  0.35529986855E-01  0.35750994182E-01  0.10000000475E-02 0. -1.
</event>
<event>
 4   0  0.4958067E-02  0.9118800E+02  0.7818609E-02  0.1379984E+01
      -11   -1    0    0    0    0  0.00000000000E+00  0.00000000000E+00  0.35740347158E-01  0.35744000000E-01  0.51099999109E-03 0. -1.
       11   -1    0    0    0    0 -0.00000000000E+00 -0.00000000000E+00 -0.35740347158E-01  0.35744000000E-01  0.51099999109E-03 0.  1.
       22    1    1    2    0    0 -0.13550784775E-01 -0.34102689271E-03 -0.33066501441E-01  0.35737005818E-01  0.00000000000E+00 0.  1.
  9000001    1    1    2    0    0  0.13550784775E-01  0.34102689271E-03  0.33066501441E-01  0.35750994182E-01  0.10000000475E-02 0. -1.
</event>
<event>
 4   0  0.4958067E-02  0.9118800E+02  0.7818609E-02  0.1379984E+01
      -11   -1    0    0    0    0  0.00000000000E+00  0.00000000000E+00  0.35740347158E-01  0.35744000000E-01  0.51099999109E-03 0.  1.
       11   -1    0    0    0    0 -0.00000000000E+00 -0.00000000000E+00 -0.35740347158E-01  0.35744000000E-01  0.51099999109E-03 0. -1.
       22    1    1    2    0    0  0.85644131880E-02 -0.72708748348E-02  0.33925194041E-01  0.35737005818E-01  0.00000000000E+00 0.  1.
  9000001    1    1    2    0    0 -0.85644131880E-02  0.72708748348E-02 -0.33925194041E-01  0.35750994182E-01  0.10000000475E-02 0. -1.
</event>
<event>
 4   0  0.4958067E-02  0.9118800E+02  0.7818609E-02  0.1379984E+01
      -11   -1    0    0    0    0  0.00000000000E+00  0.00000000000E+00  0.35740347158E-01  0.35744000000E-01  0.51099999109E-03 0. -1.
       11   -1    0    0    0    0 -0.00000000000E+00 -0.00000000000E+00 -0.35740347158E-01  0.35744000000E-01  0.51099999109E-03 0.  1.
       22    1    1    2    0    0 -0.48258576350E-02  0.26776627075E-02 -0.35308282391E-01  0.35737005818E-01  0.00000000000E+00 0.  1.
  9000001    1    1    2    0    0  0.48258576350E-02 -0.26776627075E-02  0.35308282391E-01  0.35750994182E-01  0.10000000475E-02 0. -1.
</event>
<event>
 4   0  0.4958067E-02  0.9118800E+02  0.7818609E-02  0.1379984E+01
      -11   -1    0    0    0    0  0.00000000000E+00  0.00000000000E+00  0.35740347158E-01  0.35744000000E-01  0.51099999109E-03 0.  1.
       11   -1    0    0    0    0 -0.00000000000E+00 -0.00000000000E+00 -0.35740347158E-01  0.35744000000E-01  0.51099999109E-03 0. -1.
       22    1    1    2    0    0 -0.40301234904E-02 -0.18926220931E-02 -0.35458562734E-01  0.35737005818E-01  0.00000000000E+00 0. -1.
  9000001    1    1    2    0    0  0.40301234904E-02  0.18926220931E-02  0.35458562734E-01  0.35750994182E-01  0.10000000475E-02 0.  1.
</event>
<event>
 4   0  0.4958067E-02  0.9118800E+02  0.7818609E-02  0.1379984E+01
      -11   -1    0    0    0    0  0.00000000000E+00  0.00000000000E+00  0.35740347158E-01  0.35744000000E-01  0.51099999109E-03 0. -1.
       11   -1    0    0    0    0 -0.00000000000E+00 -0.00000000000E+00 -0.35740347158E-01  0.35744000000E-01  0.51099999109E-03 0.  1.
       22    1    1    2    0    0 -0.13525326010E-02  0.44458442878E-02 -0.35433581656E-01  0.35737005818E-01  0.00000000000E+00 0.  1.
  9000001    1    1    2    0    0  0.13525326010E-02 -0.44458442878E-02  0.35433581656E-01  0.35750994182E-01  0.10000000475E-02 0. -1.
</event>
<event>
 4   0  0.4958067E-02  0.9118800E+02  0.7818609E-02  0.1379984E+01
      -11   -1    0    0    0    0  0.00000000000E+00  0.00000000000E+00  0.35740347158E-01  0.35744000000E-01  0.51099999109E-03 0.  1.
       11   -1    0    0    0    0 -0.00000000000E+00 -0.00000000000E+00 -0.35740347158E-01  0.35744000000E-01  0.51099999109E-03 0. -1.
       22    1    1    2    0    0 -0.16502464359E-03 -0.31449679124E-02 -0.35597970849E-01  0.35737005818E-01  0.00000000000E+00 0. -1.
  9000001    1    1    2    0    0  0.16502464359E-03  0.31449679124E-02  0.35597970849E-01  0.35750994182E-01  0.10000000475E-02 0.  1.
</event>
<event>
 4   0  0.4958067E-02  0.9118800E+02  0.7818609E-02  0.1379984E+01
      -11   -1    0    0    0    0  0.00000000000E+00  0.00000000000E+00  0.35740347158E-01  0.35744000000E-01  0.51099999109E-03 0.  1.
       11   -1    0    0    0    0 -0.00000000000E+00 -0.00000000000E+00 -0.35740347158E-01  0.35744000000E-01  0.51099999109E-03 0. -1.
       22    1    1    2    0    0  0.33872892141E-03 -0.17152154921E-01 -0.31349998870E-01  0.35737005818E-01  0.00000000000E+00 0. -1.
  9000001    1    1    2    0    0 -0.33872892141E-03  0.17152154921E-01  0.31349998870E-01  0.35750994182E-01  0.10000000475E-02 0.  1.
</event>
<event>
 4   0  0.4958067E-02  0.9118800E+02  0.7818609E-02  0.1379984E+01
      -11   -1    0    0    0    0  0.00000000000E+00  0.00000000000E+00  0.35740347158E-01  0.35744000000E-01  0.51099999109E-03 0.  1.
       11   -1    0    0    0    0 -0.00000000000E+00 -0.00000000000E+00 -0.35740347158E-01  0.35744000000E-01  0.51099999109E-03 0. -1.
       22    1    1    2    0    0  0.53308646216E-02 -0.20185818352E-03  0.35336591807E-01  0.35737005818E-01  0.00000000000E+00 0.  1.
  9000001    1    1    2    0    0 -0.53308646216E-02  0.20185818352E-03 -0.35336591807E-01  0.35750994182E-01  0.10000000475E-02 0. -1.
</event>
<event>
 4   0  0.4958067E-02  0.9118800E+02  0.7818609E-02  0.1379984E+01
      -11   -1    0    0    0    0  0.00000000000E+00  0.00000000000E+00  0.35740347158E-01  0.35744000000E-01  0.51099999109E-03 0.  1.
       11   -1    0    0    0    0 -0.00000000000E+00 -0.00000000000E+00 -0.35740347158E-01  0.35744000000E-01  0.51099999109E-03 0. -1.
       22    1    1    2    0    0 -0.33389847733E-02  0.42994451425E-02  0.35319959471E-01  0.35737005818E-01  0.00000000000E+00 0.  1.
  9000001    1    1    2    0    0  0.33389847733E-02 -0.42994451425E-02 -0.35319959471E-01  0.35750994182E-01  0.10000000475E-02 0. -1.
</event>
<event>
 4   0  0.4958067E-02  0.9118800E+02  0.7818609E-02  0.1379984E+01
      -11   -1    0    0    0    0  0.00000000000E+00  0.00000000000E+00  0.35740347158E-01  0.35744000000E-01  0.51099999109E-03 0.  1.
       11   -1    0    0    0    0 -0.00000000000E+00 -0.00000000000E+00 -0.35740347158E-01  0.35744000000E-01  0.51099999109E-03 0. -1.
       22    1    1    2    0    0  0.14540137321E-01 -0.25057927214E-01 -0.20924107515E-01  0.35737005818E-01  0.00000000000E+00 0. -1.
  9000001    1    1    2    0    0 -0.14540137321E-01  0.25057927214E-01  0.20924107515E-01  0.35750994182E-01  0.10000000475E-02 0.  1.
</event>
<event>
 4   0  0.4958067E-02  0.9118800E+02  0.7818609E-02  0.1379984E+01
      -11   -1    0    0    0    0  0.00000000000E+00  0.00000000000E+00  0.35740347158E-01  0.35744000000E-01  0.51099999109E-03 0.  1.
       11   -1    0    0    0    0 -0.00000000000E+00 -0.00000000000E+00 -0.35740347158E-01  0.35744000000E-01  0.51099999109E-03 0. -1.
       22    1    1    2    0    0  0.14183170126E-01  0.52147704502E-02 -0.32384833475E-01  0.35737005818E-01  0.00000000000E+00 0. -1.
  9000001    1    1    2    0    0 -0.14183170126E-01 -0.52147704502E-02  0.32384833475E-01  0.35750994182E-01  0.10000000475E-02 0.  1.
</event>
<event>
 4   0  0.4958067E-02  0.9118800E+02  0.7818609E-02  0.1379984E+01
      -11   -1    0    0    0    0  0.00000000000E+00  0.00000000000E+00  0.35740347158E-01  0.35744000000E-01  0.51099999109E-03 0. -1.
       11   -1    0    0    0    0 -0.00000000000E+00 -0.00000000000E+00 -0.35740347158E-01  0.35744000000E-01  0.51099999109E-03 0.  1.
       22    1    1    2    0    0  0.87454456471E-03 -0.34955604845E-01  0.73806806325E-02  0.35737005818E-01  0.00000000000E+00 0.  1.
  9000001    1    1    2    0    0 -0.87454456471E-03  0.34955604845E-01 -0.73806806325E-02  0.35750994182E-01  0.10000000475E-02 0. -1.
</event>
<event>
 4   0  0.4958067E-02  0.9118800E+02  0.7818609E-02  0.1379984E+01
      -11   -1    0    0    0    0  0.00000000000E+00  0.00000000000E+00  0.35740347158E-01  0.35744000000E-01  0.51099999109E-03 0. -1.
       11   -1    0    0    0    0 -0.00000000000E+00 -0.00000000000E+00 -0.35740347158E-01  0.35744000000E-01  0.51099999109E-03 0.  1.
       22    1    1    2    0    0  0.11075679221E-01 -0.69842006856E-02 -0.33251824844E-01  0.35737005818E-01  0.00000000000E+00 0.  1.
  9000001    1    1    2    0    0 -0.11075679221E-01  0.69842006856E-02  0.33251824844E-01  0.35750994182E-01  0.10000000475E-02 0. -1.
</event>
<event>
 4   0  0.4958067E-02  0.9118800E+02  0.7818609E-02  0.1379984E+01
      -11   -1    0    0    0    0  0.00000000000E+00  0.00000000000E+00  0.35740347158E-01  0.35744000000E-01  0.51099999109E-03 0. -1.
       11   -1    0    0    0    0 -0.00000000000E+00 -0.00000000000E+00 -0.35740347158E-01  0.35744000000E-01  0.51099999109E-03 0.  1.
       22    1    1    2    0    0  0.42439779374E-02  0.32262628422E-02  0.35337140012E-01  0.35737005818E-01  0.00000000000E+00 0. -1.
  9000001    1    1    2    0    0 -0.42439779374E-02 -0.32262628422E-02 -0.35337140012E-01  0.35750994182E-01  0.10000000475E-02 0.  1.
</event>
<event>
 4   0  0.4958067E-02  0.9118800E+02  0.7818609E-02  0.1379984E+01
      -11   -1    0    0    0    0  0.00000000000E+00  0.00000000000E+00  0.35740347158E-01  0.35744000000E-01  0.51099999109E-03 0. -1.
       11   -1    0    0    0    0 -0.00000000000E+00 -0.00000000000E+00 -0.35740347158E-01  0.35744000000E-01  0.51099999109E-03 0.  1.
       22    1    1    2    0    0  0.11549441499E-01  0.43752261514E-02 -0.33535076890E-01  0.35737005818E-01  0.00000000000E+00 0.  1.
  9000001    1    1    2    0    0 -0.11549441499E-01 -0.43752261514E-02  0.33535076890E-01  0.35750994182E-01  0.10000000475E-02 0. -1.
</event>
<event>
 4   0  0.4958067E-02  0.9118800E+02  0.7818609E-02  0.1379984E+01
      -11   -1    0    0    0    0  0.00000000000E+00  0.00000000000E+00  0.35740347158E-01  0.35744000000E-01  0.51099999109E-03 0.  1.
       11   -1    0    0    0    0 -0.00000000000E+00 -0.00000000000E+00 -0.35740347158E-01  0.35744000000E-01  0.51099999109E-03 0. -1.
       22    1    1    2    0    0  0.23570307598E-02  0.36886630482E-02  0.35467897538E-01  0.35737005818E-01  0.00000000000E+00 0.  1.
  9000001    1    1    2    0    0 -0.23570307598E-02 -0.36886630482E-02 -0.35467897538E-01  0.35750994182E-01  0.10000000475E-02 0. -1.
</event>
<event>
 4   0  0.4958067E-02  0.9118800E+02  0.7818609E-02  0.1379984E+01
      -11   -1    0    0    0    0  0.00000000000E+00  0.00000000000E+00  0.35740347158E-01  0.35744000000E-01  0.51099999109E-03 0. -1.
       11   -1    0    0    0    0 -0.00000000000E+00 -0.00000000000E+00 -0.35740347158E-01  0.35744000000E-01  0.51099999109E-03 0.  1.
       22    1    1    2    0    0  0.56083417602E-02 -0.23636185866E-01 -0.26210890967E-01  0.35737005818E-01  0.00000000000E+00 0.  1.
  9000001    1    1    2    0    0 -0.56083417602E-02  0.23636185866E-01  0.26210890967E-01  0.35750994182E-01  0.10000000475E-02 0. -1.
</event>
<event>
 4   0  0.4958067E-02  0.9118800E+02  0.7818609E-02  0.1379984E+01
      -11   -1    0    0    0    0  0.00000000000E+00  0.00000000000E+00  0.35740347158E-01  0.35744000000E-01  0.51099999109E-03 0.  1.
       11   -1    0    0    0    0 -0.00000000000E+00 -0.00000000000E+00 -0.35740347158E-01  0.35744000000E-01  0.51099999109E-03 0. -1.
       22    1    1    2    0    0 -0.13412337444E-01  0.32024835631E-01  0.84647913139E-02  0.35737005818E-01  0.00000000000E+00 0.  1.
  9000001    1    1    2    0    0  0.13412337444E-01 -0.32024835631E-01 -0.84647913139E-02  0.35750994182E-01  0.10000000475E-02 0. -1.
</event>
<event>
 4   0  0.4958067E-02  0.9118800E+02  0.7818609E-02  0.1379984E+01
      -11   -1    0    0    0    0  0.00000000000E+00  0.00000000000E+00  0.35740347158E-01  0.35744000000E-01  0.51099999109E-03 0.  1.
       11   -1    0    0    0    0 -0.00000000000E+00 -0.00000000000E+00 -0.35740347158E-01  0.35744000000E-01  0.51099999109E-03 0. -1.
       22    1    1    2    0    0 -0.36606433498E-02  0.11173862224E-02  0.35531461033E-01  0.35737005818E-01  0.00000000000E+00 0.  1.
  9000001    1    1    2    0    0  0.36606433498E-02 -0.11173862224E-02 -0.35531461033E-01  0.35750994182E-01  0.10000000475E-02 0. -1.
</event>
<event>
 4   0  0.4958067E-02  0.9118800E+02  0.7818609E-02  0.1379984E+01
      -11   -1    0    0    0    0  0.00000000000E+00  0.00000000000E+00  0.35740347158E-01  0.35744000000E-01  0.51099999109E-03 0. -1.
       11   -1    0    0    0    0 -0.00000000000E+00 -0.00000000000E+00 -0.35740347158E-01  0.35744000000E-01  0.51099999109E-03 0.  1.
       22    1    1    2    0    0 -0.10078915958E-01  0.34074415165E-01 -0.38056890538E-02  0.35737005818E-01  0.00000000000E+00 0.  1.
  9000001    1    1    2    0    0  0.10078915958E-01 -0.34074415165E-01  0.38056890538E-02  0.35750994182E-01  0.10000000475E-02 0. -1.
</event>
<event>
 4   0  0.4958067E-02  0.9118800E+02  0.7818609E-02  0.1379984E+01
      -11   -1    0    0    0    0  0.00000000000E+00  0.00000000000E+00  0.35740347158E-01  0.35744000000E-01  0.51099999109E-03 0.  1.
       11   -1    0    0    0    0 -0.00000000000E+00 -0.00000000000E+00 -0.35740347158E-01  0.35744000000E-01  0.51099999109E-03 0. -1.
       22    1    1    2    0    0 -0.56295821322E-02  0.52432227835E-02 -0.34899140458E-01  0.35737005818E-01  0.00000000000E+00 0. -1.
  9000001    1    1    2    0    0  0.56295821322E-02 -0.52432227835E-02  0.34899140458E-01  0.35750994182E-01  0.10000000475E-02 0.  1.
</event>
<event>
 4   0  0.4958067E-02  0.9118800E+02  0.7818609E-02  0.1379984E+01
      -11   -1    0    0    0    0  0.00000000000E+00  0.00000000000E+00  0.35740347158E-01  0.35744000000E-01  0.51099999109E-03 0.  1.
       11   -1    0    0    0    0 -0.00000000000E+00 -0.00000000000E+00 -0.35740347158E-01  0.35744000000E-01  0.51099999109E-03 0. -1.
       22    1    1    2    0    0 -0.65014065795E-02  0.40823524262E-02 -0.34902717602E-01  0.35737005818E-01  0.00000000000E+00 0. -1.
  9000001    1    1    2    0    0  0.65014065795E-02 -0.40823524262E-02  0.34902717602E-01  0.35750994182E-01  0.10000000475E-02 0.  1.
</event>
<event>
 4   0  0.4958067E-02  0.9118800E+02  0.7818609E-02  0.1379984E+01
      -11   -1    0    0    0    0  0.00000000000E+00  0.00000000000E+00  0.35740347158E-01  0.35744000000E-01  0.51099999109E-03 0.  1.
       11   -1    0    0    0    0 -0.00000000000E+00 -0.00000000000E+00 -0.35740347158E-01  0.35744000000E-01  0.51099999109E-03 0. -1.
       22    1    1    2    0    0 -0.14311434527E-01  0.23702797277E-01 -0.22594110469E-01  0.35737005818E-01  0.00000000000E+00 0. -1.
  9000001    1    1    2    0    0  0.14311434527E-01 -0.23702797277E-01  0.22594110469E-01  0.35750994182E-01  0.10000000475E-02 0.  1.
</event>
<event>
 4   0  0.4958067E-02  0.9118800E+02  0.7818609E-02  0.1379984E+01
      -11   -1    0    0    0    0  0.00000000000E+00  0.00000000000E+00  0.35740347158E-01  0.35744000000E-01  0.51099999109E-03 0.  1.
       11   -1    0    0    0    0 -0.00000000000E+00 -0.00000000000E+00 -0.35740347158E-01  0.35744000000E-01  0.51099999109E-03 0. -1.
       22    1    1    2    0    0  0.44176116716E-03 -0.21419550558E-01 -0.28603169157E-01  0.35737005818E-01  0.00000000000E+00 0. -1.
  9000001    1    1    2    0    0 -0.44176116716E-03  0.21419550558E-01  0.28603169157E-01  0.35750994182E-01  0.10000000475E-02 0.  1.
</event>
<event>
 4   0  0.4958067E-02  0.9118800E+02  0.7818609E-02  0.1379984E+01
      -11   -1    0    0    0    0  0.00000000000E+00  0.00000000000E+00  0.35740347158E-01  0.35744000000E-01  0.51099999109E-03 0.  1.
       11   -1    0    0    0    0 -0.00000000000E+00 -0.00000000000E+00 -0.35740347158E-01  0.35744000000E-01  0.51099999109E-03 0. -1.
       22    1    1    2    0    0  0.79675757932E-03 -0.18088462067E-01 -0.30810814697E-01  0.35737005818E-01  0.00000000000E+00 0. -1.
  9000001    1    1    2    0    0 -0.79675757932E-03  0.18088462067E-01  0.30810814697E-01  0.35750994182E-01  0.10000000475E-02 0.  1.
</event>
<event>
 4   0  0.4958067E-02  0.9118800E+02  0.7818609E-02  0.1379984E+01
      -11   -1    0    0    0    0  0.00000000000E+00  0.00000000000E+00  0.35740347158E-01  0.35744000000E-01  0.51099999109E-03 0.  1.
       11   -1    0    0    0    0 -0.00000000000E+00 -0.00000000000E+00 -0.35740347158E-01  0.35744000000E-01  0.51099999109E-03 0. -1.
       22    1    1    2    0    0  0.16433130783E-03  0.49303949635E-02 -0.35394883608E-01  0.35737005818E-01  0.00000000000E+00 0. -1.
  9000001    1    1    2    0    0 -0.16433130783E-03 -0.49303949635E-02  0.35394883608E-01  0.35750994182E-01  0.10000000475E-02 0.  1.
</event>
<event>
 4   0  0.4958067E-02  0.9118800E+02  0.7818609E-02  0.1379984E+01
      -11   -1    0    0    0    0  0.00000000000E+00  0.00000000000E+00  0.35740347158E-01  0.35744000000E-01  0.51099999109E-03 0.  1.
       11   -1    0    0    0    0 -0.00000000000E+00 -0.00000000000E+00 -0.35740347158E-01  0.35744000000E-01  0.51099999109E-03 0. -1.
       22    1    1    2    0    0  0.55476016301E-02  0.15570492311E-02 -0.35269438594E-01  0.35737005818E-01  0.00000000000E+00 0. -1.
  9000001    1    1    2    0    0 -0.55476016301E-02 -0.15570492311E-02  0.35269438594E-01  0.35750994182E-01  0.10000000475E-02 0.  1.
</event>
<event>
 4   0  0.4958067E-02  0.9118800E+02  0.7818609E-02  0.1379984E+01
      -11   -1    0    0    0    0  0.00000000000E+00  0.00000000000E+00  0.35740347158E-01  0.35744000000E-01  0.51099999109E-03 0.  1.
       11   -1    0    0    0    0 -0.00000000000E+00 -0.00000000000E+00 -0.35740347158E-01  0.35744000000E-01  0.51099999109E-03 0. -1.
       22    1    1    2    0    0 -0.53000354290E-02 -0.89548388715E-02  0.34188507866E-01  0.35737005818E-01  0.00000000000E+00 0.  1.
  9000001    1    1    2    0    0  0.53000354290E-02  0.89548388715E-02 -0.34188507866E-01  0.35750994182E-01  0.10000000475E-02 0. -1.
</event>
<event>
 4   0  0.4958067E-02  0.9118800E+02  0.7818609E-02  0.1379984E+01
      -11   -1    0    0    0    0  0.00000000000E+00  0.00000000000E+00  0.35740347158E-01  0.35744000000E-01  0.51099999109E-03 0.  1.
       11   -1    0    0    0    0 -0.00000000000E+00 -0.00000000000E+00 -0.35740347158E-01  0.35744000000E-01  0.51099999109E-03 0. -1.
       22    1    1    2    0    0  0.11861239094E-01 -0.85373287401E-02  0.32612246320E-01  0.35737005818E-01  0.00000000000E+00 0.  1.
  9000001    1    1    2    0    0 -0.11861239094E-01  0.85373287401E-02 -0.32612246320E-01  0.35750994182E-01  0.10000000475E-02 0. -1.
</event>
<event>
 4   0  0.4958067E-02  0.9118800E+02  0.7818609E-02  0.1379984E+01
      -11   -1    0    0    0    0  0.00000000000E+00  0.00000000000E+00  0.35740347158E-01  0.35744000000E-01  0.51099999109E-03 0. -1.
       11   -1    0    0    0    0 -0.00000000000E+00 -0.00000000000E+00 -0.35740347158E-01  0.35744000000E-01  0.51099999109E-03 0.  1.
       22    1    1    2    0    0 -0.15233111615E-01  0.91942958163E-02  0.30992754312E-01  0.35737005818E-01  0.00000000000E+00 0. -1.
  9000001    1    1    2    0    0  0.15233111615E-01 -0.91942958163E-02 -0.30992754312E-01  0.35750994182E-01  0.10000000475E-02 0.  1.
</event>
<event>
 4   0  0.4958067E-02  0.9118800E+02  0.7818609E-02  0.1379984E+01
      -11   -1    0    0    0    0  0.00000000000E+00  0.00000000000E+00  0.35740347158E-01  0.35744000000E-01  0.51099999109E-03 0.  1.
       11   -1    0    0    0    0 -0.00000000000E+00 -0.00000000000E+00 -0.35740347158E-01  0.35744000000E-01  0.51099999109E-03 0. -1.
       22    1    1    2    0    0  0.22983560016E-01  0.20076691392E-01  0.18596129076E-01  0.35737005818E-01  0.00000000000E+00 0.  1.
  9000001    1    1    2    0    0 -0.22983560016E-01 -0.20076691392E-01 -0.18596129076E-01  0.35750994182E-01  0.10000000475E-02 0. -1.
</event>
<event>
 4   0  0.4958067E-02  0.9118800E+02  0.7818609E-02  0.1379984E+01
      -11   -1    0    0    0    0  0.00000000000E+00  0.00000000000E+00  0.35740347158E-01  0.35744000000E-01  0.51099999109E-03 0. -1.
       11   -1    0    0    0    0 -0.00000000000E+00 -0.00000000000E+00 -0.35740347158E-01  0.35744000000E-01  0.51099999109E-03 0.  1.
       22    1    1    2    0    0  0.32763006107E-03 -0.16633724513E-01 -0.31628238210E-01  0.35737005818E-01  0.00000000000E+00 0.  1.
  9000001    1    1    2    0    0 -0.32763006107E-03  0.16633724513E-01  0.31628238210E-01  0.35750994182E-01  0.10000000475E-02 0. -1.
</event>
<event>
 4   0  0.4958067E-02  0.9118800E+02  0.7818609E-02  0.1379984E+01
      -11   -1    0    0    0    0  0.00000000000E+00  0.00000000000E+00  0.35740347158E-01  0.35744000000E-01  0.51099999109E-03 0. -1.
       11   -1    0    0    0    0 -0.00000000000E+00 -0.00000000000E+00 -0.35740347158E-01  0.35744000000E-01  0.51099999109E-03 0.  1.
       22    1    1    2    0    0  0.37578890458E-02 -0.20955023564E-02  0.35477045039E-01  0.35737005818E-01  0.00000000000E+00 0. -1.
  9000001    1    1    2    0    0 -0.37578890458E-02  0.20955023564E-02 -0.35477045039E-01  0.35750994182E-01  0.10000000475E-02 0.  1.
</event>
<event>
 4   0  0.4958067E-02  0.9118800E+02  0.7818609E-02  0.1379984E+01
      -11   -1    0    0    0    0  0.00000000000E+00  0.00000000000E+00  0.35740347158E-01  0.35744000000E-01  0.51099999109E-03 0. -1.
       11   -1    0    0    0    0 -0.00000000000E+00 -0.00000000000E+00 -0.35740347158E-01  0.35744000000E-01  0.51099999109E-03 0.  1.
       22    1    1    2    0    0  0.65205750007E-02  0.45573005908E-02 -0.34840302781E-01  0.35737005818E-01  0.00000000000E+00 0.  1.
  9000001    1    1    2    0    0 -0.65205750007E-02 -0.45573005908E-02  0.34840302781E-01  0.35750994182E-01  0.10000000475E-02 0. -1.
</event>
<event>
 4   0  0.4958067E-02  0.9118800E+02  0.7818609E-02  0.1379984E+01
      -11   -1    0    0    0    0  0.00000000000E+00  0.00000000000E+00  0.35740347158E-01  0.35744000000E-01  0.51099999109E-03 0. -1.
       11   -1    0    0    0    0 -0.00000000000E+00 -0.00000000000E+00 -0.35740347158E-01  0.35744000000E-01  0.51099999109E-03 0.  1.
       22    1    1    2    0    0  0.32440079387E-01 -0.10438778237E-01 -0.10761354150E-01  0.35737005818E-01  0.00000000000E+00 0.  1.
  9000001    1    1    2    0    0 -0.32440079387E-01  0.10438778237E-01  0.10761354150E-01  0.35750994182E-01  0.10000000475E-02 0. -1.
</event>
<event>
 4   0  0.4958067E-02  0.9118800E+02  0.7818609E-02  0.1379984E+01
      -11   -1    0    0    0    0  0.00000000000E+00  0.00000000000E+00  0.35740347158E-01  0.35744000000E-01  0.51099999109E-03 0.  1.
       11   -1    0    0    0    0 -0.00000000000E+00 -0.00000000000E+00 -0.35740347158E-01  0.35744000000E-01  0.51099999109E-03 0. -1.
       22    1    1    2    0    0 -0.26713351515E-01  0.20961328437E-01  0.11142403055E-01  0.35737005818E-01  0.00000000000E+00 0.  1.
  9000001    1    1    2    0    0  0.26713351515E-01 -0.20961328437E-01 -0.11142403055E-01  0.35750994182E-01  0.10000000475E-02 0. -1.
</event>
<event>
 4   0  0.4958067E-02  0.9118800E+02  0.7818609E-02  0.1379984E+01
      -11   -1    0    0    0    0  0.00000000000E+00  0.00000000000E+00  0.35740347158E-01  0.35744000000E-01  0.51099999109E-03 0.  1.
       11   -1    0    0    0    0 -0.00000000000E+00 -0.00000000000E+00 -0.35740347158E-01  0.35744000000E-01  0.51099999109E-03 0. -1.
       22    1    1    2    0    0  0.21349795223E-01  0.23552455491E-01  0.16327941364E-01  0.35737005818E-01  0.00000000000E+00 0.  1.
  9000001    1    1    2    0    0 -0.21349795223E-01 -0.23552455491E-01 -0.16327941364E-01  0.35750994182E-01  0.10000000475E-02 0. -1.
</event>
<event>
 4   0  0.4958067E-02  0.9118800E+02  0.7818609E-02  0.1379984E+01
      -11   -1    0    0    0    0  0.00000000000E+00  0.00000000000E+00  0.35740347158E-01  0.35744000000E-01  0.51099999109E-03 0. -1.
       11   -1    0    0    0    0 -0.00000000000E+00 -0.00000000000E+00 -0.35740347158E-01  0.35744000000E-01  0.51099999109E-03 0.  1.
       22    1    1    2    0    0  0.73698089883E-02 -0.48705970965E-03 -0.34965443987E-01  0.35737005818E-01  0.00000000000E+00 0.  1.
  9000001    1    1    2    0    0 -0.73698089883E-02  0.48705970965E-03  0.34965443987E-01  0.35750994182E-01  0.10000000475E-02 0. -1.
</event>
<event>
 4   0  0.4958067E-02  0.9118800E+02  0.7818609E-02  0.1379984E+01
      -11   -1    0    0    0    0  0.00000000000E+00  0.00000000000E+00  0.35740347158E-01  0.35744000000E-01  0.51099999109E-03 0.  1.
       11   -1    0    0    0    0 -0.00000000000E+00 -0.00000000000E+00 -0.35740347158E-01  0.35744000000E-01  0.51099999109E-03 0. -1.
       22    1    1    2    0    0 -0.22374408168E-01  0.35764744063E-02 -0.27635634149E-01  0.35737005818E-01  0.00000000000E+00 0. -1.
  9000001    1    1    2    0    0  0.22374408168E-01 -0.35764744063E-02  0.27635634149E-01  0.35750994182E-01  0.10000000475E-02 0.  1.
</event>
<event>
 4   0  0.4958067E-02  0.9118800E+02  0.7818609E-02  0.1379984E+01
      -11   -1    0    0    0    0  0.00000000000E+00  0.00000000000E+00  0.35740347158E-01  0.35744000000E-01  0.51099999109E-03 0. -1.
       11   -1    0    0    0    0 -0.00000000000E+00 -0.00000000000E+00 -0.35740347158E-01  0.35744000000E-01  0.51099999109E-03 0.  1.
       22    1    1    2    0    0  0.12174916267E-01  0.24752822633E-02 -0.33507879319E-01  0.35737005818E-01  0.00000000000E+00 0.  1.
  9000001    1    1    2    0    0 -0.12174916267E-01 -0.24752822633E-02  0.33507879319E-01  0.35750994182E-01  0.10000000475E-02 0. -1.
</event>
<event>
 4   0  0.4958067E-02  0.9118800E+02  0.7818609E-02  0.1379984E+01
      -11   -1    0    0    0    0  0.00000000000E+00  0.00000000000E+00  0.35740347158E-01  0.35744000000E-01  0.51099999109E-03 0. -1.
       11   -1    0    0    0    0 -0.00000000000E+00 -0.00000000000E+00 -0.35740347158E-01  0.35744000000E-01  0.51099999109E-03 0.  1.
       22    1    1    2    0    0  0.10429651875E-01  0.18493608321E-02 -0.34131156018E-01  0.35737005818E-01  0.00000000000E+00 0.  1.
  9000001    1    1    2    0    0 -0.10429651875E-01 -0.18493608321E-02  0.34131156018E-01  0.35750994182E-01  0.10000000475E-02 0. -1.
</event>
<event>
 4   0  0.4958067E-02  0.9118800E+02  0.7818609E-02  0.1379984E+01
      -11   -1    0    0    0    0  0.00000000000E+00  0.00000000000E+00  0.35740347158E-01  0.35744000000E-01  0.51099999109E-03 0.  1.
       11   -1    0    0    0    0 -0.00000000000E+00 -0.00000000000E+00 -0.35740347158E-01  0.35744000000E-01  0.51099999109E-03 0. -1.
       22    1    1    2    0    0  0.50743406764E-02  0.10986997947E-01  0.33625444647E-01  0.35737005818E-01  0.00000000000E+00 0.  1.
  9000001    1    1    2    0    0 -0.50743406764E-02 -0.10986997947E-01 -0.33625444647E-01  0.35750994182E-01  0.10000000475E-02 0. -1.
</event>
<event>
 4   0  0.4958067E-02  0.9118800E+02  0.7818609E-02  0.1379984E+01
      -11   -1    0    0    0    0  0.00000000000E+00  0.00000000000E+00  0.35740347158E-01  0.35744000000E-01  0.51099999109E-03 0. -1.
       11   -1    0    0    0    0 -0.00000000000E+00 -0.00000000000E+00 -0.35740347158E-01  0.35744000000E-01  0.51099999109E-03 0.  1.
       22    1    1    2    0    0 -0.82951705311E-02  0.60930518366E-02  0.34222776773E-01  0.35737005818E-01  0.00000000000E+00 0. -1.
  9000001    1    1    2    0    0  0.82951705311E-02 -0.60930518366E-02 -0.34222776773E-01  0.35750994182E-01  0.10000000475E-02 0.  1.
</event>
<event>
 4   0  0.4958067E-02  0.9118800E+02  0.7818609E-02  0.1379984E+01
      -11   -1    0    0    0    0  0.00000000000E+00  0.00000000000E+00  0.35740347158E-01  0.35744000000E-01  0.51099999109E-03 0.  1.
       11   -1    0    0    0    0 -0.00000000000E+00 -0.00000000000E+00 -0.35740347158E-01  0.35744000000E-01  0.51099999109E-03 0. -1.
       22    1    1    2    0    0 -0.31873184870E-02 -0.17453965865E-02  0.35551767558E-01  0.35737005818E-01  0.00000000000E+00 0.  1.
  9000001    1    1    2    0    0  0.31873184870E-02  0.17453965865E-02 -0.35551767558E-01  0.35750994182E-01  0.10000000475E-02 0. -1.
</event>
<event>
 4   0  0.4958067E-02  0.9118800E+02  0.7818609E-02  0.1379984E+01
      -11   -1    0    0    0    0  0.00000000000E+00  0.00000000000E+00  0.35740347158E-01  0.35744000000E-01  0.51099999109E-03 0.  1.
       11   -1    0    0    0    0 -0.00000000000E+00 -0.00000000000E+00 -0.35740347158E-01  0.35744000000E-01  0.51099999109E-03 0. -1.
       22    1    1    2    0    0 -0.63570698591E-03 -0.63144741173E-02  0.35168976074E-01  0.35737005818E-01  0.00000000000E+00 0.  1.
  9000001    1    1    2    0    0  0.63570698591E-03  0.63144741173E-02 -0.35168976074E-01  0.35750994182E-01  0.10000000475E-02 0. -1.
</event>
<event>
 4   0  0.4958067E-02  0.9118800E+02  0.7818609E-02  0.1379984E+01
      -11   -1    0    0    0    0  0.00000000000E+00  0.00000000000E+00  0.35740347158E-01  0.35744000000E-01  0.51099999109E-03 0.  1.
       11   -1    0    0    0    0 -0.00000000000E+00 -0.00000000000E+00 -0.35740347158E-01  0.35744000000E-01  0.51099999109E-03 0. -1.
       22    1    1    2    0    0 -0.14061700550E-01 -0.10932093125E-01 -0.30982115848E-01  0.35737005818E-01  0.00000000000E+00 0. -1.
  9000001    1    1    2    0    0  0.14061700550E-01  0.10932093125E-01  0.30982115848E-01  0.35750994182E-01  0.10000000475E-02 0.  1.
</event>
<event>
 4   0  0.4958067E-02  0.9118800E+02  0.7818609E-02  0.1379984E+01
      -11   -1    0    0    0    0  0.00000000000E+00  0.00000000000E+00  0.35740347158E-01  0.35744000000E-01  0.51099999109E-03 0. -1.
       11   -1    0    0    0    0 -0.00000000000E+00 -0.00000000000E+00 -0.35740347158E-01  0.35744000000E-01  0.51099999109E-03 0.  1.
       22    1    1    2    0    0 -0.13270253357E-01 -0.42734252443E-02  0.32905497981E-01  0.35737005818E-01  0.00000000000E+00 0. -1.
  9000001    1    1    2    0    0  0.13270253357E-01  0.42734252443E-02 -0.32905497981E-01  0.35750994182E-01  0.10000000475E-02 0.  1.
</event>
<event>
 4   0  0.4958067E-02  0.9118800E+02  0.7818609E-02  0.1379984E+01
      -11   -1    0    0    0    0  0.00000000000E+00  0.00000000000E+00  0.35740347158E-01  0.35744000000E-01  0.51099999109E-03 0.  1.
       11   -1    0    0    0    0 -0.00000000000E+00 -0.00000000000E+00 -0.35740347158E-01  0.35744000000E-01  0.51099999109E-03 0. -1.
       22    1    1    2    0    0  0.91679879617E-03 -0.34460998168E-02  0.35558648187E-01  0.35737005818E-01  0.00000000000E+00 0.  1.
  9000001    1    1    2    0    0 -0.91679879617E-03  0.34460998168E-02 -0.35558648187E-01  0.35750994182E-01  0.10000000475E-02 0. -1.
</event>
<event>
 4   0  0.4958067E-02  0.9118800E+02  0.7818609E-02  0.1379984E+01
      -11   -1    0    0    0    0  0.00000000000E+00  0.00000000000E+00  0.35740347158E-01  0.35744000000E-01  0.51099999109E-03 0. -1.
       11   -1    0    0    0    0 -0.00000000000E+00 -0.00000000000E+00 -0.35740347158E-01  0.35744000000E-01  0.51099999109E-03 0.  1.
       22    1    1    2    0    0  0.30956407491E-01 -0.11363943240E-01  0.13772988570E-01  0.35737005818E-01  0.00000000000E+00 0. -1.
  9000001    1    1    2    0    0 -0.30956407491E-01  0.11363943240E-01 -0.13772988570E-01  0.35750994182E-01  0.10000000475E-02 0.  1.
</event>
<event>
 4   0  0.4958067E-02  0.9118800E+02  0.7818609E-02  0.1379984E+01
      -11   -1    0    0    0    0  0.00000000000E+00  0.00000000000E+00  0.35740347158E-01  0.35744000000E-01  0.51099999109E-03 0.  1.
       11   -1    0    0    0    0 -0.00000000000E+00 -0.00000000000E+00 -0.35740347158E-01  0.35744000000E-01  0.51099999109E-03 0. -1.
       22    1    1    2    0    0 -0.54663453953E-02 -0.28534759451E-02 -0.35200998962E-01  0.35737005818E-01  0.00000000000E+00 0. -1.
  9000001    1    1    2    0    0  0.54663453953E-02  0.28534759451E-02  0.35200998962E-01  0.35750994182E-01  0.10000000475E-02 0.  1.
</event>
<event>
 4   0  0.4958067E-02  0.9118800E+02  0.7818609E-02  0.1379984E+01
      -11   -1    0    0    0    0  0.00000000000E+00  0.00000000000E+00  0.35740347158E-01  0.35744000000E-01  0.51099999109E-03 0. -1.
       11   -1    0    0    0    0 -0.00000000000E+00 -0.00000000000E+00 -0.35740347158E-01  0.35744000000E-01  0.51099999109E-03 0.  1.
       22    1    1    2    0    0  0.53542858900E-02  0.10961081156E-01 -0.33590473462E-01  0.35737005818E-01  0.00000000000E+00 0.  1.
  9000001    1    1    2    0    0 -0.53542858900E-02 -0.10961081156E-01  0.33590473462E-01  0.35750994182E-01  0.10000000475E-02 0. -1.
</event>
<event>
 4   0  0.4958067E-02  0.9118800E+02  0.7818609E-02  0.1379984E+01
      -11   -1    0    0    0    0  0.00000000000E+00  0.00000000000E+00  0.35740347158E-01  0.35744000000E-01  0.51099999109E-03 0.  1.
       11   -1    0    0    0    0 -0.00000000000E+00 -0.00000000000E+00 -0.35740347158E-01  0.35744000000E-01  0.51099999109E-03 0. -1.
       22    1    1    2    0    0 -0.34790956180E-02  0.79248268052E-03 -0.35558423049E-01  0.35737005818E-01  0.00000000000E+00 0. -1.
  9000001    1    1    2    0    0  0.34790956180E-02 -0.79248268052E-03  0.35558423049E-01  0.35750994182E-01  0.10000000475E-02 0.  1.
</event>
<event>
 4   0  0.4958067E-02  0.9118800E+02  0.7818609E-02  0.1379984E+01
      -11   -1    0    0    0    0  0.00000000000E+00  0.00000000000E+00  0.35740347158E-01  0.35744000000E-01  0.51099999109E-03 0. -1.
       11   -1    0    0    0    0 -0.00000000000E+00 -0.00000000000E+00 -0.35740347158E-01  0.35744000000E-01  0.51099999109E-03 0.  1.
       22    1    1    2    0    0  0.40173131066E-02 -0.10072038255E-02 -0.35496201497E-01  0.35737005818E-01  0.00000000000E+00 0.  1.
  9000001    1    1    2    0    0 -0.40173131066E-02  0.10072038255E-02  0.35496201497E-01  0.35750994182E-01  0.10000000475E-02 0. -1.
</event>
<event>
 4   0  0.4958067E-02  0.9118800E+02  0.7818609E-02  0.1379984E+01
      -11   -1    0    0    0    0  0.00000000000E+00  0.00000000000E+00  0.35740347158E-01  0.35744000000E-01  0.51099999109E-03 0. -1.
       11   -1    0    0    0    0 -0.00000000000E+00 -0.00000000000E+00 -0.35740347158E-01  0.35744000000E-01  0.51099999109E-03 0.  1.
       22    1    1    2    0    0 -0.30239613174E-01 -0.18688683791E-01  0.36650345318E-02  0.35737005818E-01  0.00000000000E+00 0. -1.
  9000001    1    1    2    0    0  0.30239613174E-01  0.18688683791E-01 -0.36650345318E-02  0.35750994182E-01  0.10000000475E-02 0.  1.
</event>
<event>
 4   0  0.4958067E-02  0.9118800E+02  0.7818609E-02  0.1379984E+01
      -11   -1    0    0    0    0  0.00000000000E+00  0.00000000000E+00  0.35740347158E-01  0.35744000000E-01  0.51099999109E-03 0. -1.
       11   -1    0    0    0    0 -0.00000000000E+00 -0.00000000000E+00 -0.35740347158E-01  0.35744000000E-01  0.51099999109E-03 0.  1.
       22    1    1    2    0    0 -0.25713400293E-02  0.55592586637E-02 -0.35208187094E-01  0.35737005818E-01  0.00000000000E+00 0.  1.
  9000001    1    1    2    0    0  0.25713400293E-02 -0.55592586637E-02  0.35208187094E-01  0.35750994182E-01  0.10000000475E-02 0. -1.
</event>
<event>
 4   0  0.4958067E-02  0.9118800E+02  0.7818609E-02  0.1379984E+01
      -11   -1    0    0    0    0  0.00000000000E+00  0.00000000000E+00  0.35740347158E-01  0.35744000000E-01  0.51099999109E-03 0.  1.
       11   -1    0    0    0    0 -0.00000000000E+00 -0.00000000000E+00 -0.35740347158E-01  0.35744000000E-01  0.51099999109E-03 0. -1.
       22    1    1    2    0    0  0.18492070244E-01  0.13731235984E-01  0.27324532591E-01  0.35737005818E-01  0.00000000000E+00 0.  1.
  9000001    1    1    2    0    0 -0.18492070244E-01 -0.13731235984E-01 -0.27324532591E-01  0.35750994182E-01  0.10000000475E-02 0. -1.
</event>
<event>
 4   0  0.4958067E-02  0.9118800E+02  0.7818609E-02  0.1379984E+01
      -11   -1    0    0    0    0  0.00000000000E+00  0.00000000000E+00  0.35740347158E-01  0.35744000000E-01  0.51099999109E-03 0.  1.
       11   -1    0    0    0    0 -0.00000000000E+00 -0.00000000000E+00 -0.35740347158E-01  0.35744000000E-01  0.51099999109E-03 0. -1.
       22    1    1    2    0    0  0.30943016449E-02 -0.74365564591E-02 -0.34817474208E-01  0.35737005818E-01  0.00000000000E+00 0. -1.
  9000001    1    1    2    0    0 -0.30943016449E-02  0.74365564591E-02  0.34817474208E-01  0.35750994182E-01  0.10000000475E-02 0.  1.
</event>
<event>
 4   0  0.4958067E-02  0.9118800E+02  0.7818609E-02  0.1379984E+01
      -11   -1    0    0    0    0  0.00000000000E+00  0.00000000000E+00  0.35740347158E-01  0.35744000000E-01  0.51099999109E-03 0.  1.
       11   -1    0    0    0    0 -0.00000000000E+00 -0.00000000000E+00 -0.35740347158E-01  0.35744000000E-01  0.51099999109E-03 0. -1.
       22    1    1    2    0    0 -0.51044531519E-03  0.29898496018E-02 -0.35608058495E-01  0.35737005818E-01  0.00000000000E+00 0. -1.
  9000001    1    1    2    0    0  0.51044531519E-03 -0.29898496018E-02  0.35608058495E-01  0.35750994182E-01  0.10000000475E-02 0.  1.
</event>
<event>
 4   0  0.4958067E-02  0.9118800E+02  0.7818609E-02  0.1379984E+01
      -11   -1    0    0    0    0  0.00000000000E+00  0.00000000000E+00  0.35740347158E-01  0.35744000000E-01  0.51099999109E-03 0. -1.
       11   -1    0    0    0    0 -0.00000000000E+00 -0.00000000000E+00 -0.35740347158E-01  0.35744000000E-01  0.51099999109E-03 0.  1.
       22    1    1    2    0    0 -0.15119022611E-02  0.26756608145E-02  0.35604614527E-01  0.35737005818E-01  0.00000000000E+00 0. -1.
  9000001    1    1    2    0    0  0.15119022611E-02 -0.26756608145E-02 -0.35604614527E-01  0.35750994182E-01  0.10000000475E-02 0.  1.
</event>
<event>
 4   0  0.4958067E-02  0.9118800E+02  0.7818609E-02  0.1379984E+01
      -11   -1    0    0    0    0  0.00000000000E+00  0.00000000000E+00  0.35740347158E-01  0.35744000000E-01  0.51099999109E-03 0. -1.
       11   -1    0    0    0    0 -0.00000000000E+00 -0.00000000000E+00 -0.35740347158E-01  0.35744000000E-01  0.51099999109E-03 0.  1.
       22    1    1    2    0    0 -0.10013912397E-01  0.21457819702E-01 -0.26765969383E-01  0.35737005818E-01  0.00000000000E+00 0.  1.
  9000001    1    1    2    0    0  0.10013912397E-01 -0.21457819702E-01  0.26765969383E-01  0.35750994182E-01  0.10000000475E-02 0. -1.
</event>
<event>
 4   0  0.4958067E-02  0.9118800E+02  0.7818609E-02  0.1379984E+01
      -11   -1    0    0    0    0  0.00000000000E+00  0.00000000000E+00  0.35740347158E-01  0.35744000000E-01  0.51099999109E-03 0. -1.
       11   -1    0    0    0    0 -0.00000000000E+00 -0.00000000000E+00 -0.35740347158E-01  0.35744000000E-01  0.51099999109E-03 0.  1.
       22    1    1    2    0    0  0.93320307664E-02 -0.59536111941E-02 -0.33979424663E-01  0.35737005818E-01  0.00000000000E+00 0.  1.
  9000001    1    1    2    0    0 -0.93320307664E-02  0.59536111941E-02  0.33979424663E-01  0.35750994182E-01  0.10000000475E-02 0. -1.
</event>
<event>
 4   0  0.4958067E-02  0.9118800E+02  0.7818609E-02  0.1379984E+01
      -11   -1    0    0    0    0  0.00000000000E+00  0.00000000000E+00  0.35740347158E-01  0.35744000000E-01  0.51099999109E-03 0. -1.
       11   -1    0    0    0    0 -0.00000000000E+00 -0.00000000000E+00 -0.35740347158E-01  0.35744000000E-01  0.51099999109E-03 0.  1.
       22    1    1    2    0    0  0.19691752931E-01  0.92259368882E-02  0.28359311344E-01  0.35737005818E-01  0.00000000000E+00 0. -1.
  9000001    1    1    2    0    0 -0.19691752931E-01 -0.92259368882E-02 -0.28359311344E-01  0.35750994182E-01  0.10000000475E-02 0.  1.
</event>
<event>
 4   0  0.4958067E-02  0.9118800E+02  0.7818609E-02  0.1379984E+01
      -11   -1    0    0    0    0  0.00000000000E+00  0.00000000000E+00  0.35740347158E-01  0.35744000000E-01  0.51099999109E-03 0. -1.
       11   -1    0    0    0    0 -0.00000000000E+00 -0.00000000000E+00 -0.35740347158E-01  0.35744000000E-01  0.51099999109E-03 0.  1.
       22    1    1    2    0    0 -0.27911752233E-01  0.14867630199E-01 -0.16643955192E-01  0.35737005818E-01  0.00000000000E+00 0.  1.
  9000001    1    1    2    0    0  0.27911752233E-01 -0.14867630199E-01  0.16643955192E-01  0.35750994182E-01  0.10000000475E-02 0. -1.
</event>
<event>
 4   0  0.4958067E-02  0.9118800E+02  0.7818609E-02  0.1379984E+01
      -11   -1    0    0    0    0  0.00000000000E+00  0.00000000000E+00  0.35740347158E-01  0.35744000000E-01  0.51099999109E-03 0. -1.
       11   -1    0    0    0    0 -0.00000000000E+00 -0.00000000000E+00 -0.35740347158E-01  0.35744000000E-01  0.51099999109E-03 0.  1.
       22    1    1    2    0    0 -0.29514755143E-01  0.18213257328E-01 -0.86191688231E-02  0.35737005818E-01  0.00000000000E+00 0. -1.
  9000001    1    1    2    0    0  0.29514755143E-01 -0.18213257328E-01  0.86191688231E-02  0.35750994182E-01  0.10000000475E-02 0.  1.
</event>
<event>
 4   0  0.4958067E-02  0.9118800E+02  0.7818609E-02  0.1379984E+01
      -11   -1    0    0    0    0  0.00000000000E+00  0.00000000000E+00  0.35740347158E-01  0.35744000000E-01  0.51099999109E-03 0. -1.
       11   -1    0    0    0    0 -0.00000000000E+00 -0.00000000000E+00 -0.35740347158E-01  0.35744000000E-01  0.51099999109E-03 0.  1.
       22    1    1    2    0    0 -0.15766510062E-02 -0.29873150124E-01  0.19551027035E-01  0.35737005818E-01  0.00000000000E+00 0. -1.
  9000001    1    1    2    0    0  0.15766510062E-02  0.29873150124E-01 -0.19551027035E-01  0.35750994182E-01  0.10000000475E-02 0.  1.
</event>
<event>
 4   0  0.4958067E-02  0.9118800E+02  0.7818609E-02  0.1379984E+01
      -11   -1    0    0    0    0  0.00000000000E+00  0.00000000000E+00  0.35740347158E-01  0.35744000000E-01  0.51099999109E-03 0. -1.
       11   -1    0    0    0    0 -0.00000000000E+00 -0.00000000000E+00 -0.35740347158E-01  0.35744000000E-01  0.51099999109E-03 0.  1.
       22    1    1    2    0    0 -0.48371561907E-02  0.93604937466E-02  0.34148450355E-01  0.35737005818E-01  0.00000000000E+00 0. -1.
  9000001    1    1    2    0    0  0.48371561907E-02 -0.93604937466E-02 -0.34148450355E-01  0.35750994182E-01  0.10000000475E-02 0.  1.
</event>
<event>
 4   0  0.4958067E-02  0.9118800E+02  0.7818609E-02  0.1379984E+01
      -11   -1    0    0    0    0  0.00000000000E+00  0.00000000000E+00  0.35740347158E-01  0.35744000000E-01  0.51099999109E-03 0.  1.
       11   -1    0    0    0    0 -0.00000000000E+00 -0.00000000000E+00 -0.35740347158E-01  0.35744000000E-01  0.51099999109E-03 0. -1.
       22    1    1    2    0    0 -0.24545382814E-01  0.11020379568E-01  0.23520395438E-01  0.35737005818E-01  0.00000000000E+00 0.  1.
  9000001    1    1    2    0    0  0.24545382814E-01 -0.11020379568E-01 -0.23520395438E-01  0.35750994182E-01  0.10000000475E-02 0. -1.
</event>
<event>
 4   0  0.4958067E-02  0.9118800E+02  0.7818609E-02  0.1379984E+01
      -11   -1    0    0    0    0  0.00000000000E+00  0.00000000000E+00  0.35740347158E-01  0.35744000000E-01  0.51099999109E-03 0.  1.
       11   -1    0    0    0    0 -0.00000000000E+00 -0.00000000000E+00 -0.35740347158E-01  0.35744000000E-01  0.51099999109E-03 0. -1.
       22    1    1    2    0    0 -0.27503850194E-02  0.49075905245E-02 -0.35291422787E-01  0.35737005818E-01  0.00000000000E+00 0. -1.
  9000001    1    1    2    0    0  0.27503850194E-02 -0.49075905245E-02  0.35291422787E-01  0.35750994182E-01  0.10000000475E-02 0.  1.
</event>
<event>
 4   0  0.4958067E-02  0.9118800E+02  0.7818609E-02  0.1379984E+01
      -11   -1    0    0    0    0  0.00000000000E+00  0.00000000000E+00  0.35740347158E-01  0.35744000000E-01  0.51099999109E-03 0. -1.
       11   -1    0    0    0    0 -0.00000000000E+00 -0.00000000000E+00 -0.35740347158E-01  0.35744000000E-01  0.51099999109E-03 0.  1.
       22    1    1    2    0    0  0.35346824254E-02 -0.17234095800E-04 -0.35561767504E-01  0.35737005818E-01  0.00000000000E+00 0.  1.
  9000001    1    1    2    0    0 -0.35346824254E-02  0.17234095800E-04  0.35561767504E-01  0.35750994182E-01  0.10000000475E-02 0. -1.
</event>
<event>
 4   0  0.4958067E-02  0.9118800E+02  0.7818609E-02  0.1379984E+01
      -11   -1    0    0    0    0  0.00000000000E+00  0.00000000000E+00  0.35740347158E-01  0.35744000000E-01  0.51099999109E-03 0. -1.
       11   -1    0    0    0    0 -0.00000000000E+00 -0.00000000000E+00 -0.35740347158E-01  0.35744000000E-01  0.51099999109E-03 0.  1.
       22    1    1    2    0    0 -0.12200360213E-01 -0.33152080984E-01 -0.54059524571E-02  0.35737005818E-01  0.00000000000E+00 0.  1.
  9000001    1    1    2    0    0  0.12200360213E-01  0.33152080984E-01  0.54059524571E-02  0.35750994182E-01  0.10000000475E-02 0. -1.
</event>
<event>
 4   0  0.4958067E-02  0.9118800E+02  0.7818609E-02  0.1379984E+01
      -11   -1    0    0    0    0  0.00000000000E+00  0.00000000000E+00  0.35740347158E-01  0.35744000000E-01  0.51099999109E-03 0. -1.
       11   -1    0    0    0    0 -0.00000000000E+00 -0.00000000000E+00 -0.35740347158E-01  0.35744000000E-01  0.51099999109E-03 0.  1.
       22    1    1    2    0    0  0.30521658159E-02  0.81360179258E-03 -0.35597133604E-01  0.35737005818E-01  0.00000000000E+00 0.  1.
  9000001    1    1    2    0    0 -0.30521658159E-02 -0.81360179258E-03  0.35597133604E-01  0.35750994182E-01  0.10000000475E-02 0. -1.
</event>
<event>
 4   0  0.4958067E-02  0.9118800E+02  0.7818609E-02  0.1379984E+01
      -11   -1    0    0    0    0  0.00000000000E+00  0.00000000000E+00  0.35740347158E-01  0.35744000000E-01  0.51099999109E-03 0. -1.
       11   -1    0    0    0    0 -0.00000000000E+00 -0.00000000000E+00 -0.35740347158E-01  0.35744000000E-01  0.51099999109E-03 0.  1.
       22    1    1    2    0    0 -0.22560760483E-02  0.80401874350E-02  0.34747648723E-01  0.35737005818E-01  0.00000000000E+00 0. -1.
  9000001    1    1    2    0    0  0.22560760483E-02 -0.80401874350E-02 -0.34747648723E-01  0.35750994182E-01  0.10000000475E-02 0.  1.
</event>
<event>
 4   0  0.4958067E-02  0.9118800E+02  0.7818609E-02  0.1379984E+01
      -11   -1    0    0    0    0  0.00000000000E+00  0.00000000000E+00  0.35740347158E-01  0.35744000000E-01  0.51099999109E-03 0. -1.
       11   -1    0    0    0    0 -0.00000000000E+00 -0.00000000000E+00 -0.35740347158E-01  0.35744000000E-01  0.51099999109E-03 0.  1.
       22    1    1    2    0    0  0.90647061666E-02 -0.31795579053E-01  0.13564875216E-01  0.35737005818E-01  0.00000000000E+00 0. -1.
  9000001    1    1    2    0    0 -0.90647061666E-02  0.31795579053E-01 -0.13564875216E-01  0.35750994182E-01  0.10000000475E-02 0.  1.
</event>
<event>
 4   0  0.4958067E-02  0.9118800E+02  0.7818609E-02  0.1379984E+01
      -11   -1    0    0    0    0  0.00000000000E+00  0.00000000000E+00  0.35740347158E-01  0.35744000000E-01  0.51099999109E-03 0. -1.
       11   -1    0    0    0    0 -0.00000000000E+00 -0.00000000000E+00 -0.35740347158E-01  0.35744000000E-01  0.51099999109E-03 0.  1.
       22    1    1    2    0    0 -0.47022310132E-02 -0.85419521193E-03 -0.35415998629E-01  0.35737005818E-01  0.00000000000E+00 0.  1.
  9000001    1    1    2    0    0  0.47022310132E-02  0.85419521193E-03  0.35415998629E-01  0.35750994182E-01  0.10000000475E-02 0. -1.
</event>
<event>
 4   0  0.4958067E-02  0.9118800E+02  0.7818609E-02  0.1379984E+01
      -11   -1    0    0    0    0  0.00000000000E+00  0.00000000000E+00  0.35740347158E-01  0.35744000000E-01  0.51099999109E-03 0.  1.
       11   -1    0    0    0    0 -0.00000000000E+00 -0.00000000000E+00 -0.35740347158E-01  0.35744000000E-01  0.51099999109E-03 0. -1.
       22    1    1    2    0    0  0.22066956935E-01  0.21241200561E-01  0.18411800435E-01  0.35737005818E-01  0.00000000000E+00 0.  1.
  9000001    1    1    2    0    0 -0.22066956935E-01 -0.21241200561E-01 -0.18411800435E-01  0.35750994182E-01  0.10000000475E-02 0. -1.
</event>
<event>
 4   0  0.4958067E-02  0.9118800E+02  0.7818609E-02  0.1379984E+01
      -11   -1    0    0    0    0  0.00000000000E+00  0.00000000000E+00  0.35740347158E-01  0.35744000000E-01  0.51099999109E-03 0. -1.
       11   -1    0    0    0    0 -0.00000000000E+00 -0.00000000000E+00 -0.35740347158E-01  0.35744000000E-01  0.51099999109E-03 0.  1.
       22    1    1    2    0    0 -0.54966647509E-03 -0.21758708135E-01 -0.28344136465E-01  0.35737005818E-01  0.00000000000E+00 0.  1.
  9000001    1    1    2    0    0  0.54966647509E-03  0.21758708135E-01  0.28344136465E-01  0.35750994182E-01  0.10000000475E-02 0. -1.
</event>
<event>
 4   0  0.4958067E-02  0.9118800E+02  0.7818609E-02  0.1379984E+01
      -11   -1    0    0    0    0  0.00000000000E+00  0.00000000000E+00  0.35740347158E-01  0.35744000000E-01  0.51099999109E-03 0. -1.
       11   -1    0    0    0    0 -0.00000000000E+00 -0.00000000000E+00 -0.35740347158E-01  0.35744000000E-01  0.51099999109E-03 0.  1.
       22    1    1    2    0    0  0.13204250922E-01  0.12738494053E-01  0.30667769918E-01  0.35737005818E-01  0.00000000000E+00 0. -1.
  9000001    1    1    2    0    0 -0.13204250922E-01 -0.12738494053E-01 -0.30667769918E-01  0.35750994182E-01  0.10000000475E-02 0.  1.
</event>
<event>
 4   0  0.4958067E-02  0.9118800E+02  0.7818609E-02  0.1379984E+01
      -11   -1    0    0    0    0  0.00000000000E+00  0.00000000000E+00  0.35740347158E-01  0.35744000000E-01  0.51099999109E-03 0. -1.
       11   -1    0    0    0    0 -0.00000000000E+00 -0.00000000000E+00 -0.35740347158E-01  0.35744000000E-01  0.51099999109E-03 0.  1.
       22    1    1    2    0    0  0.15476345568E-01  0.21684120978E-01  0.23820478798E-01  0.35737005818E-01  0.00000000000E+00 0. -1.
  9000001    1    1    2    0    0 -0.15476345568E-01 -0.21684120978E-01 -0.23820478798E-01  0.35750994182E-01  0.10000000475E-02 0.  1.
</event>
<event>
 4   0  0.4958067E-02  0.9118800E+02  0.7818609E-02  0.1379984E+01
      -11   -1    0    0    0    0  0.00000000000E+00  0.00000000000E+00  0.35740347158E-01  0.35744000000E-01  0.51099999109E-03 0. -1.
       11   -1    0    0    0    0 -0.00000000000E+00 -0.00000000000E+00 -0.35740347158E-01  0.35744000000E-01  0.51099999109E-03 0.  1.
       22    1    1    2    0    0 -0.54638687193E-02 -0.30671778541E-02 -0.35183407218E-01  0.35737005818E-01  0.00000000000E+00 0.  1.
  9000001    1    1    2    0    0  0.54638687193E-02  0.30671778541E-02  0.35183407218E-01  0.35750994182E-01  0.10000000475E-02 0. -1.
</event>
<event>
 4   0  0.4958067E-02  0.9118800E+02  0.7818609E-02  0.1379984E+01
      -11   -1    0    0    0    0  0.00000000000E+00  0.00000000000E+00  0.35740347158E-01  0.35744000000E-01  0.51099999109E-03 0.  1.
       11   -1    0    0    0    0 -0.00000000000E+00 -0.00000000000E+00 -0.35740347158E-01  0.35744000000E-01  0.51099999109E-03 0. -1.
       22    1    1    2    0    0  0.52177714867E-02  0.68192402123E-02  0.34690148580E-01  0.35737005818E-01  0.00000000000E+00 0.  1.
  9000001    1    1    2    0    0 -0.52177714867E-02 -0.68192402123E-02 -0.34690148580E-01  0.35750994182E-01  0.10000000475E-02 0. -1.
</event>
<event>
 4   0  0.4958067E-02  0.9118800E+02  0.7818609E-02  0.1379984E+01
      -11   -1    0    0    0    0  0.00000000000E+00  0.00000000000E+00  0.35740347158E-01  0.35744000000E-01  0.51099999109E-03 0.  1.
       11   -1    0    0    0    0 -0.00000000000E+00 -0.00000000000E+00 -0.35740347158E-01  0.35744000000E-01  0.51099999109E-03 0. -1.
       22    1    1    2    0    0  0.47284848042E-02 -0.26566563929E-02 -0.35323040542E-01  0.35737005818E-01  0.00000000000E+00 0. -1.
  9000001    1    1    2    0    0 -0.47284848042E-02  0.26566563929E-02  0.35323040542E-01  0.35750994182E-01  0.10000000475E-02 0.  1.
</event>
<event>
 4   0  0.4958067E-02  0.9118800E+02  0.7818609E-02  0.1379984E+01
      -11   -1    0    0    0    0  0.00000000000E+00  0.00000000000E+00  0.35740347158E-01  0.35744000000E-01  0.51099999109E-03 0. -1.
       11   -1    0    0    0    0 -0.00000000000E+00 -0.00000000000E+00 -0.35740347158E-01  0.35744000000E-01  0.51099999109E-03 0.  1.
       22    1    1    2    0    0 -0.39833725530E-02 -0.19200930594E-02  0.35462368373E-01  0.35737005818E-01  0.00000000000E+00 0. -1.
  9000001    1    1    2    0    0  0.39833725530E-02  0.19200930594E-02 -0.35462368373E-01  0.35750994182E-01  0.10000000475E-02 0.  1.
</event>
<event>
 4   0  0.4958067E-02  0.9118800E+02  0.7818609E-02  0.1379984E+01
      -11   -1    0    0    0    0  0.00000000000E+00  0.00000000000E+00  0.35740347158E-01  0.35744000000E-01  0.51099999109E-03 0.  1.
       11   -1    0    0    0    0 -0.00000000000E+00 -0.00000000000E+00 -0.35740347158E-01  0.35744000000E-01  0.51099999109E-03 0. -1.
       22    1    1    2    0    0  0.11917436073E-01 -0.34099984958E-02 -0.33518356352E-01  0.35737005818E-01  0.00000000000E+00 0. -1.
  9000001    1    1    2    0    0 -0.11917436073E-01  0.34099984958E-02  0.33518356352E-01  0.35750994182E-01  0.10000000475E-02 0.  1.
</event>
<event>
 4   0  0.4958067E-02  0.9118800E+02  0.7818609E-02  0.1379984E+01
      -11   -1    0    0    0    0  0.00000000000E+00  0.00000000000E+00  0.35740347158E-01  0.35744000000E-01  0.51099999109E-03 0. -1.
       11   -1    0    0    0    0 -0.00000000000E+00 -0.00000000000E+00 -0.35740347158E-01  0.35744000000E-01  0.51099999109E-03 0.  1.
       22    1    1    2    0    0  0.13033092077E-01  0.22859930501E-01 -0.24180481246E-01  0.35737005818E-01  0.00000000000E+00 0. -1.
  9000001    1    1    2    0    0 -0.13033092077E-01 -0.22859930501E-01  0.24180481246E-01  0.35750994182E-01  0.10000000475E-02 0.  1.
</event>
<event>
 4   0  0.4958067E-02  0.9118800E+02  0.7818609E-02  0.1379984E+01
      -11   -1    0    0    0    0  0.00000000000E+00  0.00000000000E+00  0.35740347158E-01  0.35744000000E-01  0.51099999109E-03 0. -1.
       11   -1    0    0    0    0 -0.00000000000E+00 -0.00000000000E+00 -0.35740347158E-01  0.35744000000E-01  0.51099999109E-03 0.  1.
       22    1    1    2    0    0  0.93441359025E-03 -0.80638354368E-02 -0.34802801815E-01  0.35737005818E-01  0.00000000000E+00 0.  1.
  9000001    1    1    2    0    0 -0.93441359025E-03  0.80638354368E-02  0.34802801815E-01  0.35750994182E-01  0.10000000475E-02 0. -1.
</event>
<event>
 4   0  0.4958067E-02  0.9118800E+02  0.7818609E-02  0.1379984E+01
      -11   -1    0    0    0    0  0.00000000000E+00  0.00000000000E+00  0.35740347158E-01  0.35744000000E-01  0.51099999109E-03 0.  1.
       11   -1    0    0    0    0 -0.00000000000E+00 -0.00000000000E+00 -0.35740347158E-01  0.35744000000E-01  0.51099999109E-03 0. -1.
       22    1    1    2    0    0 -0.21093225461E-01 -0.10471373894E-02 -0.28829029255E-01  0.35737005818E-01  0.00000000000E+00 0. -1.
  9000001    1    1    2    0    0  0.21093225461E-01  0.10471373894E-02  0.28829029255E-01  0.35750994182E-01  0.10000000475E-02 0.  1.
</event>
<event>
 4   0  0.4958067E-02  0.9118800E+02  0.7818609E-02  0.1379984E+01
      -11   -1    0    0    0    0  0.00000000000E+00  0.00000000000E+00  0.35740347158E-01  0.35744000000E-01  0.51099999109E-03 0. -1.
       11   -1    0    0    0    0 -0.00000000000E+00 -0.00000000000E+00 -0.35740347158E-01  0.35744000000E-01  0.51099999109E-03 0.  1.
       22    1    1    2    0    0  0.68731031460E-02  0.32295908001E-01 -0.13669980411E-01  0.35737005818E-01  0.00000000000E+00 0. -1.
  9000001    1    1    2    0    0 -0.68731031460E-02 -0.32295908001E-01  0.13669980411E-01  0.35750994182E-01  0.10000000475E-02 0.  1.
</event>
<event>
 4   0  0.4958067E-02  0.9118800E+02  0.7818609E-02  0.1379984E+01
      -11   -1    0    0    0    0  0.00000000000E+00  0.00000000000E+00  0.35740347158E-01  0.35744000000E-01  0.51099999109E-03 0. -1.
       11   -1    0    0    0    0 -0.00000000000E+00 -0.00000000000E+00 -0.35740347158E-01  0.35744000000E-01  0.51099999109E-03 0.  1.
       22    1    1    2    0    0 -0.34721288495E-01 -0.73990119293E-02  0.41012598803E-02  0.35737005818E-01  0.00000000000E+00 0.  1.
  9000001    1    1    2    0    0  0.34721288495E-01  0.73990119293E-02 -0.41012598803E-02  0.35750994182E-01  0.10000000475E-02 0. -1.
</event>
<event>
 4   0  0.4958067E-02  0.9118800E+02  0.7818609E-02  0.1379984E+01
      -11   -1    0    0    0    0  0.00000000000E+00  0.00000000000E+00  0.35740347158E-01  0.35744000000E-01  0.51099999109E-03 0. -1.
       11   -1    0    0    0    0 -0.00000000000E+00 -0.00000000000E+00 -0.35740347158E-01  0.35744000000E-01  0.51099999109E-03 0.  1.
       22    1    1    2    0    0  0.79614669339E-02 -0.18164869064E-01  0.29728541186E-01  0.35737005818E-01  0.00000000000E+00 0. -1.
  9000001    1    1    2    0    0 -0.79614669339E-02  0.18164869064E-01 -0.29728541186E-01  0.35750994182E-01  0.10000000475E-02 0.  1.
</event>
<event>
 4   0  0.4958067E-02  0.9118800E+02  0.7818609E-02  0.1379984E+01
      -11   -1    0    0    0    0  0.00000000000E+00  0.00000000000E+00  0.35740347158E-01  0.35744000000E-01  0.51099999109E-03 0. -1.
       11   -1    0    0    0    0 -0.00000000000E+00 -0.00000000000E+00 -0.35740347158E-01  0.35744000000E-01  0.51099999109E-03 0.  1.
       22    1    1    2    0    0 -0.24581641772E-01 -0.12817762344E-01  0.22551750290E-01  0.35737005818E-01  0.00000000000E+00 0. -1.
  9000001    1    1    2    0    0  0.24581641772E-01  0.12817762344E-01 -0.22551750290E-01  0.35750994182E-01  0.10000000475E-02 0.  1.
</event>
<event>
 4   0  0.4958067E-02  0.9118800E+02  0.7818609E-02  0.1379984E+01
      -11   -1    0    0    0    0  0.00000000000E+00  0.00000000000E+00  0.35740347158E-01  0.35744000000E-01  0.51099999109E-03 0. -1.
       11   -1    0    0    0    0 -0.00000000000E+00 -0.00000000000E+00 -0.35740347158E-01  0.35744000000E-01  0.51099999109E-03 0.  1.
       22    1    1    2    0    0 -0.18024423534E-01  0.24022722833E-01 -0.19369112753E-01  0.35737005818E-01  0.00000000000E+00 0.  1.
  9000001    1    1    2    0    0  0.18024423534E-01 -0.24022722833E-01  0.19369112753E-01  0.35750994182E-01  0.10000000475E-02 0. -1.
</event>
<event>
 4   0  0.4958067E-02  0.9118800E+02  0.7818609E-02  0.1379984E+01
      -11   -1    0    0    0    0  0.00000000000E+00  0.00000000000E+00  0.35740347158E-01  0.35744000000E-01  0.51099999109E-03 0. -1.
       11   -1    0    0    0    0 -0.00000000000E+00 -0.00000000000E+00 -0.35740347158E-01  0.35744000000E-01  0.51099999109E-03 0.  1.
       22    1    1    2    0    0  0.89172418090E-02  0.36757543447E-02 -0.34410829885E-01  0.35737005818E-01  0.00000000000E+00 0.  1.
  9000001    1    1    2    0    0 -0.89172418090E-02 -0.36757543447E-02  0.34410829885E-01  0.35750994182E-01  0.10000000475E-02 0. -1.
</event>
<event>
 4   0  0.4958067E-02  0.9118800E+02  0.7818609E-02  0.1379984E+01
      -11   -1    0    0    0    0  0.00000000000E+00  0.00000000000E+00  0.35740347158E-01  0.35744000000E-01  0.51099999109E-03 0.  1.
       11   -1    0    0    0    0 -0.00000000000E+00 -0.00000000000E+00 -0.35740347158E-01  0.35744000000E-01  0.51099999109E-03 0. -1.
       22    1    1    2    0    0  0.40270675520E-02  0.51096145089E-03 -0.35505707009E-01  0.35737005818E-01  0.00000000000E+00 0. -1.
  9000001    1    1    2    0    0 -0.40270675520E-02 -0.51096145089E-03  0.35505707009E-01  0.35750994182E-01  0.10000000475E-02 0.  1.
</event>
<event>
 4   0  0.4958067E-02  0.9118800E+02  0.7818609E-02  0.1379984E+01
      -11   -1    0    0    0    0  0.00000000000E+00  0.00000000000E+00  0.35740347158E-01  0.35744000000E-01  0.51099999109E-03 0. -1.
       11   -1    0    0    0    0 -0.00000000000E+00 -0.00000000000E+00 -0.35740347158E-01  0.35744000000E-01  0.51099999109E-03 0.  1.
       22    1    1    2    0    0 -0.21767629992E-02 -0.24890394041E-02  0.35583703722E-01  0.35737005818E-01  0.00000000000E+00 0. -1.
  9000001    1    1    2    0    0  0.21767629992E-02  0.24890394041E-02 -0.35583703722E-01  0.35750994182E-01  0.10000000475E-02 0.  1.
</event>
<event>
 4   0  0.4958067E-02  0.9118800E+02  0.7818609E-02  0.1379984E+01
      -11   -1    0    0    0    0  0.00000000000E+00  0.00000000000E+00  0.35740347158E-01  0.35744000000E-01  0.51099999109E-03 0. -1.
       11   -1    0    0    0    0 -0.00000000000E+00 -0.00000000000E+00 -0.35740347158E-01  0.35744000000E-01  0.51099999109E-03 0.  1.
       22    1    1    2    0    0 -0.40012113083E-02 -0.12220461214E-02  0.35491273522E-01  0.35737005818E-01  0.00000000000E+00 0. -1.
  9000001    1    1    2    0    0  0.40012113083E-02  0.12220461214E-02 -0.35491273522E-01  0.35750994182E-01  0.10000000475E-02 0.  1.
</event>
<event>
 4   0  0.4958067E-02  0.9118800E+02  0.7818609E-02  0.1379984E+01
      -11   -1    0    0    0    0  0.00000000000E+00  0.00000000000E+00  0.35740347158E-01  0.35744000000E-01  0.51099999109E-03 0. -1.
       11   -1    0    0    0    0 -0.00000000000E+00 -0.00000000000E+00 -0.35740347158E-01  0.35744000000E-01  0.51099999109E-03 0.  1.
       22    1    1    2    0    0  0.33876489348E-02 -0.84262161978E-02  0.34563800430E-01  0.35737005818E-01  0.00000000000E+00 0. -1.
  9000001    1    1    2    0    0 -0.33876489348E-02  0.84262161978E-02 -0.34563800430E-01  0.35750994182E-01  0.10000000475E-02 0.  1.
</event>
<event>
 4   0  0.4958067E-02  0.9118800E+02  0.7818609E-02  0.1379984E+01
      -11   -1    0    0    0    0  0.00000000000E+00  0.00000000000E+00  0.35740347158E-01  0.35744000000E-01  0.51099999109E-03 0. -1.
       11   -1    0    0    0    0 -0.00000000000E+00 -0.00000000000E+00 -0.35740347158E-01  0.35744000000E-01  0.51099999109E-03 0.  1.
       22    1    1    2    0    0  0.36625197508E-02 -0.77281454311E-02 -0.34698635451E-01  0.35737005818E-01  0.00000000000E+00 0.  1.
  9000001    1    1    2    0    0 -0.36625197508E-02  0.77281454311E-02  0.34698635451E-01  0.35750994182E-01  0.10000000475E-02 0. -1.
</event>
<event>
 4   0  0.4958067E-02  0.9118800E+02  0.7818609E-02  0.1379984E+01
      -11   -1    0    0    0    0  0.00000000000E+00  0.00000000000E+00  0.35740347158E-01  0.35744000000E-01  0.51099999109E-03 0.  1.
       11   -1    0    0    0    0 -0.00000000000E+00 -0.00000000000E+00 -0.35740347158E-01  0.35744000000E-01  0.51099999109E-03 0. -1.
       22    1    1    2    0    0  0.18316963561E-01  0.29022536167E-01  0.99656823760E-02  0.35737005818E-01  0.00000000000E+00 0.  1.
  9000001    1    1    2    0    0 -0.18316963561E-01 -0.29022536167E-01 -0.99656823760E-02  0.35750994182E-01  0.10000000475E-02 0. -1.
</event>
<event>
 4   0  0.4958067E-02  0.9118800E+02  0.7818609E-02  0.1379984E+01
      -11   -1    0    0    0    0  0.00000000000E+00  0.00000000000E+00  0.35740347158E-01  0.35744000000E-01  0.51099999109E-03 0.  1.
       11   -1    0    0    0    0 -0.00000000000E+00 -0.00000000000E+00 -0.35740347158E-01  0.35744000000E-01  0.51099999109E-03 0. -1.
       22    1    1    2    0    0  0.11480541901E-01 -0.69525987880E-02 -0.33120871254E-01  0.35737005818E-01  0.00000000000E+00 0. -1.
  9000001    1    1    2    0    0 -0.11480541901E-01  0.69525987880E-02  0.33120871254E-01  0.35750994182E-01  0.10000000475E-02 0.  1.
</event>
<event>
 4   0  0.4958067E-02  0.9118800E+02  0.7818609E-02  0.1379984E+01
      -11   -1    0    0    0    0  0.00000000000E+00  0.00000000000E+00  0.35740347158E-01  0.35744000000E-01  0.51099999109E-03 0. -1.
       11   -1    0    0    0    0 -0.00000000000E+00 -0.00000000000E+00 -0.35740347158E-01  0.35744000000E-01  0.51099999109E-03 0.  1.
       22    1    1    2    0    0  0.95155806719E-03 -0.38808026084E-02  0.35512920089E-01  0.35737005818E-01  0.00000000000E+00 0. -1.
  9000001    1    1    2    0    0 -0.95155806719E-03  0.38808026084E-02 -0.35512920089E-01  0.35750994182E-01  0.10000000475E-02 0.  1.
</event>
<event>
 4   0  0.4958067E-02  0.9118800E+02  0.7818609E-02  0.1379984E+01
      -11   -1    0    0    0    0  0.00000000000E+00  0.00000000000E+00  0.35740347158E-01  0.35744000000E-01  0.51099999109E-03 0.  1.
       11   -1    0    0    0    0 -0.00000000000E+00 -0.00000000000E+00 -0.35740347158E-01  0.35744000000E-01  0.51099999109E-03 0. -1.
       22    1    1    2    0    0 -0.12194986084E-01 -0.14286231526E-01 -0.30402623046E-01  0.35737005818E-01  0.00000000000E+00 0. -1.
  9000001    1    1    2    0    0  0.12194986084E-01  0.14286231526E-01  0.30402623046E-01  0.35750994182E-01  0.10000000475E-02 0.  1.
</event>
<event>
 4   0  0.4958067E-02  0.9118800E+02  0.7818609E-02  0.1379984E+01
      -11   -1    0    0    0    0  0.00000000000E+00  0.00000000000E+00  0.35740347158E-01  0.35744000000E-01  0.51099999109E-03 0.  1.
       11   -1    0    0    0    0 -0.00000000000E+00 -0.00000000000E+00 -0.35740347158E-01  0.35744000000E-01  0.51099999109E-03 0. -1.
       22    1    1    2    0    0 -0.88396569679E-02  0.47117425200E-02  0.34304424379E-01  0.35737005818E-01  0.00000000000E+00 0.  1.
  9000001    1    1    2    0    0  0.88396569679E-02 -0.47117425200E-02 -0.34304424379E-01  0.35750994182E-01  0.10000000475E-02 0. -1.
</event>
<event>
 4   0  0.4958067E-02  0.9118800E+02  0.7818609E-02  0.1379984E+01
      -11   -1    0    0    0    0  0.00000000000E+00  0.00000000000E+00  0.35740347158E-01  0.35744000000E-01  0.51099999109E-03 0. -1.
       11   -1    0    0    0    0 -0.00000000000E+00 -0.00000000000E+00 -0.35740347158E-01  0.35744000000E-01  0.51099999109E-03 0.  1.
       22    1    1    2    0    0 -0.47214019284E-02 -0.77866157155E-02  0.34557351814E-01  0.35737005818E-01  0.00000000000E+00 0. -1.
  9000001    1    1    2    0    0  0.47214019284E-02  0.77866157155E-02 -0.34557351814E-01  0.35750994182E-01  0.10000000475E-02 0.  1.
</event>
<event>
 4   0  0.4958067E-02  0.9118800E+02  0.7818609E-02  0.1379984E+01
      -11   -1    0    0    0    0  0.00000000000E+00  0.00000000000E+00  0.35740347158E-01  0.35744000000E-01  0.51099999109E-03 0.  1.
       11   -1    0    0    0    0 -0.00000000000E+00 -0.00000000000E+00 -0.35740347158E-01  0.35744000000E-01  0.51099999109E-03 0. -1.
       22    1    1    2    0    0 -0.16271600862E-01 -0.15030616719E-02 -0.31782218234E-01  0.35737005818E-01  0.00000000000E+00 0. -1.
  9000001    1    1    2    0    0  0.16271600862E-01  0.15030616719E-02  0.31782218234E-01  0.35750994182E-01  0.10000000475E-02 0.  1.
</event>
<event>
 4   0  0.4958067E-02  0.9118800E+02  0.7818609E-02  0.1379984E+01
      -11   -1    0    0    0    0  0.00000000000E+00  0.00000000000E+00  0.35740347158E-01  0.35744000000E-01  0.51099999109E-03 0. -1.
       11   -1    0    0    0    0 -0.00000000000E+00 -0.00000000000E+00 -0.35740347158E-01  0.35744000000E-01  0.51099999109E-03 0.  1.
       22    1    1    2    0    0  0.28006440434E-03 -0.70581908532E-02  0.35031943861E-01  0.35737005818E-01  0.00000000000E+00 0. -1.
  9000001    1    1    2    0    0 -0.28006440434E-03  0.70581908532E-02 -0.35031943861E-01  0.35750994182E-01  0.10000000475E-02 0.  1.
</event>
<event>
 4   0  0.4958067E-02  0.9118800E+02  0.7818609E-02  0.1379984E+01
      -11   -1    0    0    0    0  0.00000000000E+00  0.00000000000E+00  0.35740347158E-01  0.35744000000E-01  0.51099999109E-03 0. -1.
       11   -1    0    0    0    0 -0.00000000000E+00 -0.00000000000E+00 -0.35740347158E-01  0.35744000000E-01  0.51099999109E-03 0.  1.
       22    1    1    2    0    0 -0.16363510075E-01 -0.11413759336E-01  0.29649539974E-01  0.35737005818E-01  0.00000000000E+00 0. -1.
  9000001    1    1    2    0    0  0.16363510075E-01  0.11413759336E-01 -0.29649539974E-01  0.35750994182E-01  0.10000000475E-02 0.  1.
</event>
<event>
 4   0  0.4958067E-02  0.9118800E+02  0.7818609E-02  0.1379984E+01
      -11   -1    0    0    0    0  0.00000000000E+00  0.00000000000E+00  0.35740347158E-01  0.35744000000E-01  0.51099999109E-03 0.  1.
       11   -1    0    0    0    0 -0.00000000000E+00 -0.00000000000E+00 -0.35740347158E-01  0.35744000000E-01  0.51099999109E-03 0. -1.
       22    1    1    2    0    0 -0.62609083554E-03 -0.61035309521E-02  0.35206370234E-01  0.35737005818E-01  0.00000000000E+00 0.  1.
  9000001    1    1    2    0    0  0.62609083554E-03  0.61035309521E-02 -0.35206370234E-01  0.35750994182E-01  0.10000000475E-02 0. -1.
</event>
<event>
 4   0  0.4958067E-02  0.9118800E+02  0.7818609E-02  0.1379984E+01
      -11   -1    0    0    0    0  0.00000000000E+00  0.00000000000E+00  0.35740347158E-01  0.35744000000E-01  0.51099999109E-03 0. -1.
       11   -1    0    0    0    0 -0.00000000000E+00 -0.00000000000E+00 -0.35740347158E-01  0.35744000000E-01  0.51099999109E-03 0.  1.
       22    1    1    2    0    0  0.12368323849E-01 -0.45473039326E-02 -0.33218672114E-01  0.35737005818E-01  0.00000000000E+00 0.  1.
  9000001    1    1    2    0    0 -0.12368323849E-01  0.45473039326E-02  0.33218672114E-01  0.35750994182E-01  0.10000000475E-02 0. -1.
</event>
<event>
 4   0  0.4958067E-02  0.9118800E+02  0.7818609E-02  0.1379984E+01
      -11   -1    0    0    0    0  0.00000000000E+00  0.00000000000E+00  0.35740347158E-01  0.35744000000E-01  0.51099999109E-03 0.  1.
       11   -1    0    0    0    0 -0.00000000000E+00 -0.00000000000E+00 -0.35740347158E-01  0.35744000000E-01  0.51099999109E-03 0. -1.
       22    1    1    2    0    0 -0.31421683002E-02  0.14117340390E-01 -0.32679673553E-01  0.35737005818E-01  0.00000000000E+00 0. -1.
  9000001    1    1    2    0    0  0.31421683002E-02 -0.14117340390E-01  0.32679673553E-01  0.35750994182E-01  0.10000000475E-02 0.  1.
</event>
<event>
 4   0  0.4958067E-02  0.9118800E+02  0.7818609E-02  0.1379984E+01
      -11   -1    0    0    0    0  0.00000000000E+00  0.00000000000E+00  0.35740347158E-01  0.35744000000E-01  0.51099999109E-03 0. -1.
       11   -1    0    0    0    0 -0.00000000000E+00 -0.00000000000E+00 -0.35740347158E-01  0.35744000000E-01  0.51099999109E-03 0.  1.
       22    1    1    2    0    0 -0.27714076736E-02 -0.27978168829E-01  0.22060710627E-01  0.35737005818E-01  0.00000000000E+00 0. -1.
  9000001    1    1    2    0    0  0.27714076736E-02  0.27978168829E-01 -0.22060710627E-01  0.35750994182E-01  0.10000000475E-02 0.  1.
</event>
<event>
 4   0  0.4958067E-02  0.9118800E+02  0.7818609E-02  0.1379984E+01
      -11   -1    0    0    0    0  0.00000000000E+00  0.00000000000E+00  0.35740347158E-01  0.35744000000E-01  0.51099999109E-03 0. -1.
       11   -1    0    0    0    0 -0.00000000000E+00 -0.00000000000E+00 -0.35740347158E-01  0.35744000000E-01  0.51099999109E-03 0.  1.
       22    1    1    2    0    0 -0.13487500636E-01  0.16158065656E-02  0.33054652934E-01  0.35737005818E-01  0.00000000000E+00 0. -1.
  9000001    1    1    2    0    0  0.13487500636E-01 -0.16158065656E-02 -0.33054652934E-01  0.35750994182E-01  0.10000000475E-02 0.  1.
</event>
<event>
 4   0  0.4958067E-02  0.9118800E+02  0.7818609E-02  0.1379984E+01
      -11   -1    0    0    0    0  0.00000000000E+00  0.00000000000E+00  0.35740347158E-01  0.35744000000E-01  0.51099999109E-03 0. -1.
       11   -1    0    0    0    0 -0.00000000000E+00 -0.00000000000E+00 -0.35740347158E-01  0.35744000000E-01  0.51099999109E-03 0.  1.
       22    1    1    2    0    0  0.84321242257E-02 -0.25445531806E-01 -0.23633826965E-01  0.35737005818E-01  0.00000000000E+00 0.  1.
  9000001    1    1    2    0    0 -0.84321242257E-02  0.25445531806E-01  0.23633826965E-01  0.35750994182E-01  0.10000000475E-02 0. -1.
</event>
<event>
 4   0  0.4958067E-02  0.9118800E+02  0.7818609E-02  0.1379984E+01
      -11   -1    0    0    0    0  0.00000000000E+00  0.00000000000E+00  0.35740347158E-01  0.35744000000E-01  0.51099999109E-03 0. -1.
       11   -1    0    0    0    0 -0.00000000000E+00 -0.00000000000E+00 -0.35740347158E-01  0.35744000000E-01  0.51099999109E-03 0.  1.
       22    1    1    2    0    0  0.80379960117E-02  0.12636714798E-02  0.34798381275E-01  0.35737005818E-01  0.00000000000E+00 0. -1.
  9000001    1    1    2    0    0 -0.80379960117E-02 -0.12636714798E-02 -0.34798381275E-01  0.35750994182E-01  0.10000000475E-02 0.  1.
</event>
<event>
 4   0  0.4958067E-02  0.9118800E+02  0.7818609E-02  0.1379984E+01
      -11   -1    0    0    0    0  0.00000000000E+00  0.00000000000E+00  0.35740347158E-01  0.35744000000E-01  0.51099999109E-03 0.  1.
       11   -1    0    0    0    0 -0.00000000000E+00 -0.00000000000E+00 -0.35740347158E-01  0.35744000000E-01  0.51099999109E-03 0. -1.
       22    1    1    2    0    0 -0.10298111319E-01  0.17400542521E-02 -0.34176815231E-01  0.35737005818E-01  0.00000000000E+00 0. -1.
  9000001    1    1    2    0    0  0.10298111319E-01 -0.17400542521E-02  0.34176815231E-01  0.35750994182E-01  0.10000000475E-02 0.  1.
</event>
<event>
 4   0  0.4958067E-02  0.9118800E+02  0.7818609E-02  0.1379984E+01
      -11   -1    0    0    0    0  0.00000000000E+00  0.00000000000E+00  0.35740347158E-01  0.35744000000E-01  0.51099999109E-03 0.  1.
       11   -1    0    0    0    0 -0.00000000000E+00 -0.00000000000E+00 -0.35740347158E-01  0.35744000000E-01  0.51099999109E-03 0. -1.
       22    1    1    2    0    0 -0.12652099170E-01 -0.48188585207E-02 -0.33073200239E-01  0.35737005818E-01  0.00000000000E+00 0. -1.
  9000001    1    1    2    0    0  0.12652099170E-01  0.48188585207E-02  0.33073200239E-01  0.35750994182E-01  0.10000000475E-02 0.  1.
</event>
<event>
 4   0  0.4958067E-02  0.9118800E+02  0.7818609E-02  0.1379984E+01
      -11   -1    0    0    0    0  0.00000000000E+00  0.00000000000E+00  0.35740347158E-01  0.35744000000E-01  0.51099999109E-03 0.  1.
       11   -1    0    0    0    0 -0.00000000000E+00 -0.00000000000E+00 -0.35740347158E-01  0.35744000000E-01  0.51099999109E-03 0. -1.
       22    1    1    2    0    0 -0.83036876047E-03 -0.41138525930E-02 -0.35489720898E-01  0.35737005818E-01  0.00000000000E+00 0. -1.
  9000001    1    1    2    0    0  0.83036876047E-03  0.41138525930E-02  0.35489720898E-01  0.35750994182E-01  0.10000000475E-02 0.  1.
</event>
<event>
 4   0  0.4958067E-02  0.9118800E+02  0.7818609E-02  0.1379984E+01
      -11   -1    0    0    0    0  0.00000000000E+00  0.00000000000E+00  0.35740347158E-01  0.35744000000E-01  0.51099999109E-03 0.  1.
       11   -1    0    0    0    0 -0.00000000000E+00 -0.00000000000E+00 -0.35740347158E-01  0.35744000000E-01  0.51099999109E-03 0. -1.
       22    1    1    2    0    0 -0.96937026445E-02  0.21807495090E-01 -0.26600730663E-01  0.35737005818E-01  0.00000000000E+00 0. -1.
  9000001    1    1    2    0    0  0.96937026445E-02 -0.21807495090E-01  0.26600730663E-01  0.35750994182E-01  0.10000000475E-02 0.  1.
</event>
<event>
 4   0  0.4958067E-02  0.9118800E+02  0.7818609E-02  0.1379984E+01
      -11   -1    0    0    0    0  0.00000000000E+00  0.00000000000E+00  0.35740347158E-01  0.35744000000E-01  0.51099999109E-03 0.  1.
       11   -1    0    0    0    0 -0.00000000000E+00 -0.00000000000E+00 -0.35740347158E-01  0.35744000000E-01  0.51099999109E-03 0. -1.
       22    1    1    2    0    0  0.44545249168E-02 -0.58734784814E-02 -0.34968457832E-01  0.35737005818E-01  0.00000000000E+00 0. -1.
  9000001    1    1    2    0    0 -0.44545249168E-02  0.58734784814E-02  0.34968457832E-01  0.35750994182E-01  0.10000000475E-02 0.  1.
</event>
<event>
 4   0  0.4958067E-02  0.9118800E+02  0.7818609E-02  0.1379984E+01
      -11   -1    0    0    0    0  0.00000000000E+00  0.00000000000E+00  0.35740347158E-01  0.35744000000E-01  0.51099999109E-03 0. -1.
       11   -1    0    0    0    0 -0.00000000000E+00 -0.00000000000E+00 -0.35740347158E-01  0.35744000000E-01  0.51099999109E-03 0.  1.
       22    1    1    2    0    0  0.12168792323E-01 -0.27593445181E-01 -0.19174354261E-01  0.35737005818E-01  0.00000000000E+00 0.  1.
  9000001    1    1    2    0    0 -0.12168792323E-01  0.27593445181E-01  0.19174354261E-01  0.35750994182E-01  0.10000000475E-02 0. -1.
</event>
<event>
 4   0  0.4958067E-02  0.9118800E+02  0.7818609E-02  0.1379984E+01
      -11   -1    0    0    0    0  0.00000000000E+00  0.00000000000E+00  0.35740347158E-01  0.35744000000E-01  0.51099999109E-03 0. -1.
       11   -1    0    0    0    0 -0.00000000000E+00 -0.00000000000E+00 -0.35740347158E-01  0.35744000000E-01  0.51099999109E-03 0.  1.
       22    1    1    2    0    0  0.29897563360E-02  0.46096892131E-02  0.35312118420E-01  0.35737005818E-01  0.00000000000E+00 0. -1.
  9000001    1    1    2    0    0 -0.29897563360E-02 -0.46096892131E-02 -0.35312118420E-01  0.35750994182E-01  0.10000000475E-02 0.  1.
</event>
<event>
 4   0  0.4958067E-02  0.9118800E+02  0.7818609E-02  0.1379984E+01
      -11   -1    0    0    0    0  0.00000000000E+00  0.00000000000E+00  0.35740347158E-01  0.35744000000E-01  0.51099999109E-03 0.  1.
       11   -1    0    0    0    0 -0.00000000000E+00 -0.00000000000E+00 -0.35740347158E-01  0.35744000000E-01  0.51099999109E-03 0. -1.
       22    1    1    2    0    0 -0.84000620608E-03  0.35122945695E-02  0.35554068140E-01  0.35737005818E-01  0.00000000000E+00 0.  1.
  9000001    1    1    2    0    0  0.84000620608E-03 -0.35122945695E-02 -0.35554068140E-01  0.35750994182E-01  0.10000000475E-02 0. -1.
</event>
<event>
 4   0  0.4958067E-02  0.9118800E+02  0.7818609E-02  0.1379984E+01
      -11   -1    0    0    0    0  0.00000000000E+00  0.00000000000E+00  0.35740347158E-01  0.35744000000E-01  0.51099999109E-03 0.  1.
       11   -1    0    0    0    0 -0.00000000000E+00 -0.00000000000E+00 -0.35740347158E-01  0.35744000000E-01  0.51099999109E-03 0. -1.
       22    1    1    2    0    0  0.44729261971E-02  0.11851123440E-01 -0.33416723198E-01  0.35737005818E-01  0.00000000000E+00 0. -1.
  9000001    1    1    2    0    0 -0.44729261971E-02 -0.11851123440E-01  0.33416723198E-01  0.35750994182E-01  0.10000000475E-02 0.  1.
</event>
<event>
 4   0  0.4958067E-02  0.9118800E+02  0.7818609E-02  0.1379984E+01
      -11   -1    0    0    0    0  0.00000000000E+00  0.00000000000E+00  0.35740347158E-01  0.35744000000E-01  0.51099999109E-03 0.  1.
       11   -1    0    0    0    0 -0.00000000000E+00 -0.00000000000E+00 -0.35740347158E-01  0.35744000000E-01  0.51099999109E-03 0. -1.
       22    1    1    2    0    0 -0.14242213598E-01 -0.19108438706E-01 -0.26630067723E-01  0.35737005818E-01  0.00000000000E+00 0. -1.
  9000001    1    1    2    0    0  0.14242213598E-01  0.19108438706E-01  0.26630067723E-01  0.35750994182E-01  0.10000000475E-02 0.  1.
</event>
<event>
 4   0  0.4958067E-02  0.9118800E+02  0.7818609E-02  0.1379984E+01
      -11   -1    0    0    0    0  0.00000000000E+00  0.00000000000E+00  0.35740347158E-01  0.35744000000E-01  0.51099999109E-03 0.  1.
       11   -1    0    0    0    0 -0.00000000000E+00 -0.00000000000E+00 -0.35740347158E-01  0.35744000000E-01  0.51099999109E-03 0. -1.
       22    1    1    2    0    0  0.75728319475E-03  0.12263672570E-01  0.33558343853E-01  0.35737005818E-01  0.00000000000E+00 0.  1.
  9000001    1    1    2    0    0 -0.75728319475E-03 -0.12263672570E-01 -0.33558343853E-01  0.35750994182E-01  0.10000000475E-02 0. -1.
</event>
<event>
 4   0  0.4958067E-02  0.9118800E+02  0.7818609E-02  0.1379984E+01
      -11   -1    0    0    0    0  0.00000000000E+00  0.00000000000E+00  0.35740347158E-01  0.35744000000E-01  0.51099999109E-03 0. -1.
       11   -1    0    0    0    0 -0.00000000000E+00 -0.00000000000E+00 -0.35740347158E-01  0.35744000000E-01  0.51099999109E-03 0.  1.
       22    1    1    2    0    0 -0.96773153419E-03 -0.34938667509E-01  0.74489323570E-02  0.35737005818E-01  0.00000000000E+00 0. -1.
  9000001    1    1    2    0    0  0.96773153419E-03  0.34938667509E-01 -0.74489323570E-02  0.35750994182E-01  0.10000000475E-02 0.  1.
</event>
<event>
 4   0  0.4958067E-02  0.9118800E+02  0.7818609E-02  0.1379984E+01
      -11   -1    0    0    0    0  0.00000000000E+00  0.00000000000E+00  0.35740347158E-01  0.35744000000E-01  0.51099999109E-03 0. -1.
       11   -1    0    0    0    0 -0.00000000000E+00 -0.00000000000E+00 -0.35740347158E-01  0.35744000000E-01  0.51099999109E-03 0.  1.
       22    1    1    2    0    0 -0.16281233612E-01  0.68209561411E-02 -0.31072971764E-01  0.35737005818E-01  0.00000000000E+00 0.  1.
  9000001    1    1    2    0    0  0.16281233612E-01 -0.68209561411E-02  0.31072971764E-01  0.35750994182E-01  0.10000000475E-02 0. -1.
</event>
<event>
 4   0  0.4958067E-02  0.9118800E+02  0.7818609E-02  0.1379984E+01
      -11   -1    0    0    0    0  0.00000000000E+00  0.00000000000E+00  0.35740347158E-01  0.35744000000E-01  0.51099999109E-03 0.  1.
       11   -1    0    0    0    0 -0.00000000000E+00 -0.00000000000E+00 -0.35740347158E-01  0.35744000000E-01  0.51099999109E-03 0. -1.
       22    1    1    2    0    0 -0.10376354359E-01  0.59821486552E-03  0.34192206627E-01  0.35737005818E-01  0.00000000000E+00 0.  1.
  9000001    1    1    2    0    0  0.10376354359E-01 -0.59821486552E-03 -0.34192206627E-01  0.35750994182E-01  0.10000000475E-02 0. -1.
</event>
<event>
 4   0  0.4958067E-02  0.9118800E+02  0.7818609E-02  0.1379984E+01
      -11   -1    0    0    0    0  0.00000000000E+00  0.00000000000E+00  0.35740347158E-01  0.35744000000E-01  0.51099999109E-03 0.  1.
       11   -1    0    0    0    0 -0.00000000000E+00 -0.00000000000E+00 -0.35740347158E-01  0.35744000000E-01  0.51099999109E-03 0. -1.
       22    1    1    2    0    0 -0.18917369285E-02  0.12595133474E-01  0.33390380786E-01  0.35737005818E-01  0.00000000000E+00 0.  1.
  9000001    1    1    2    0    0  0.18917369285E-02 -0.12595133474E-01 -0.33390380786E-01  0.35750994182E-01  0.10000000475E-02 0. -1.
</event>
<event>
 4   0  0.4958067E-02  0.9118800E+02  0.7818609E-02  0.1379984E+01
      -11   -1    0    0    0    0  0.00000000000E+00  0.00000000000E+00  0.35740347158E-01  0.35744000000E-01  0.51099999109E-03 0.  1.
       11   -1    0    0    0    0 -0.00000000000E+00 -0.00000000000E+00 -0.35740347158E-01  0.35744000000E-01  0.51099999109E-03 0. -1.
       22    1    1    2    0    0 -0.17350876747E-01  0.31104897181E-01  0.29267784875E-02  0.35737005818E-01  0.00000000000E+00 0.  1.
  9000001    1    1    2    0    0  0.17350876747E-01 -0.31104897181E-01 -0.29267784875E-02  0.35750994182E-01  0.10000000475E-02 0. -1.
</event>
<event>
 4   0  0.4958067E-02  0.9118800E+02  0.7818609E-02  0.1379984E+01
      -11   -1    0    0    0    0  0.00000000000E+00  0.00000000000E+00  0.35740347158E-01  0.35744000000E-01  0.51099999109E-03 0.  1.
       11   -1    0    0    0    0 -0.00000000000E+00 -0.00000000000E+00 -0.35740347158E-01  0.35744000000E-01  0.51099999109E-03 0. -1.
       22    1    1    2    0    0 -0.99438270699E-03 -0.77628370165E-02 -0.34869516047E-01  0.35737005818E-01  0.00000000000E+00 0. -1.
  9000001    1    1    2    0    0  0.99438270699E-03  0.77628370165E-02  0.34869516047E-01  0.35750994182E-01  0.10000000475E-02 0.  1.
</event>
<event>
 4   0  0.4958067E-02  0.9118800E+02  0.7818609E-02  0.1379984E+01
      -11   -1    0    0    0    0  0.00000000000E+00  0.00000000000E+00  0.35740347158E-01  0.35744000000E-01  0.51099999109E-03 0. -1.
       11   -1    0    0    0    0 -0.00000000000E+00 -0.00000000000E+00 -0.35740347158E-01  0.35744000000E-01  0.51099999109E-03 0.  1.
       22    1    1    2    0    0  0.30165651368E-02  0.17672600538E-01 -0.30914609974E-01  0.35737005818E-01  0.00000000000E+00 0.  1.
  9000001    1    1    2    0    0 -0.30165651368E-02 -0.17672600538E-01  0.30914609974E-01  0.35750994182E-01  0.10000000475E-02 0. -1.
</event>
<event>
 4   0  0.4958067E-02  0.9118800E+02  0.7818609E-02  0.1379984E+01
      -11   -1    0    0    0    0  0.00000000000E+00  0.00000000000E+00  0.35740347158E-01  0.35744000000E-01  0.51099999109E-03 0.  1.
       11   -1    0    0    0    0 -0.00000000000E+00 -0.00000000000E+00 -0.35740347158E-01  0.35744000000E-01  0.51099999109E-03 0. -1.
       22    1    1    2    0    0 -0.74001164767E-03  0.35645969151E-02 -0.35551084603E-01  0.35737005818E-01  0.00000000000E+00 0. -1.
  9000001    1    1    2    0    0  0.74001164767E-03 -0.35645969151E-02  0.35551084603E-01  0.35750994182E-01  0.10000000475E-02 0.  1.
</event>
<event>
 4   0  0.4958067E-02  0.9118800E+02  0.7818609E-02  0.1379984E+01
      -11   -1    0    0    0    0  0.00000000000E+00  0.00000000000E+00  0.35740347158E-01  0.35744000000E-01  0.51099999109E-03 0. -1.
       11   -1    0    0    0    0 -0.00000000000E+00 -0.00000000000E+00 -0.35740347158E-01  0.35744000000E-01  0.51099999109E-03 0.  1.
       22    1    1    2    0    0 -0.26910869891E-01  0.13265867031E-01 -0.19415340288E-01  0.35737005818E-01  0.00000000000E+00 0.  1.
  9000001    1    1    2    0    0  0.26910869891E-01 -0.13265867031E-01  0.19415340288E-01  0.35750994182E-01  0.10000000475E-02 0. -1.
</event>
<event>
 4   0  0.4958067E-02  0.9118800E+02  0.7818609E-02  0.1379984E+01
      -11   -1    0    0    0    0  0.00000000000E+00  0.00000000000E+00  0.35740347158E-01  0.35744000000E-01  0.51099999109E-03 0. -1.
       11   -1    0    0    0    0 -0.00000000000E+00 -0.00000000000E+00 -0.35740347158E-01  0.35744000000E-01  0.51099999109E-03 0.  1.
       22    1    1    2    0    0  0.28824022018E-01  0.20284362748E-01  0.59037248821E-02  0.35737005818E-01  0.00000000000E+00 0. -1.
  9000001    1    1    2    0    0 -0.28824022018E-01 -0.20284362748E-01 -0.59037248821E-02  0.35750994182E-01  0.10000000475E-02 0.  1.
</event>
<event>
 4   0  0.4958067E-02  0.9118800E+02  0.7818609E-02  0.1379984E+01
      -11   -1    0    0    0    0  0.00000000000E+00  0.00000000000E+00  0.35740347158E-01  0.35744000000E-01  0.51099999109E-03 0. -1.
       11   -1    0    0    0    0 -0.00000000000E+00 -0.00000000000E+00 -0.35740347158E-01  0.35744000000E-01  0.51099999109E-03 0.  1.
       22    1    1    2    0    0  0.78351120837E-02 -0.19183089173E-02  0.34814719508E-01  0.35737005818E-01  0.00000000000E+00 0. -1.
  9000001    1    1    2    0    0 -0.78351120837E-02  0.19183089173E-02 -0.34814719508E-01  0.35750994182E-01  0.10000000475E-02 0.  1.
</event>
<event>
 4   0  0.4958067E-02  0.9118800E+02  0.7818609E-02  0.1379984E+01
      -11   -1    0    0    0    0  0.00000000000E+00  0.00000000000E+00  0.35740347158E-01  0.35744000000E-01  0.51099999109E-03 0. -1.
       11   -1    0    0    0    0 -0.00000000000E+00 -0.00000000000E+00 -0.35740347158E-01  0.35744000000E-01  0.51099999109E-03 0.  1.
       22    1    1    2    0    0  0.40112488417E-04  0.36149090525E-02 -0.35553683472E-01  0.35737005818E-01  0.00000000000E+00 0.  1.
  9000001    1    1    2    0    0 -0.40112488417E-04 -0.36149090525E-02  0.35553683472E-01  0.35750994182E-01  0.10000000475E-02 0. -1.
</event>
<event>
 4   0  0.4958067E-02  0.9118800E+02  0.7818609E-02  0.1379984E+01
      -11   -1    0    0    0    0  0.00000000000E+00  0.00000000000E+00  0.35740347158E-01  0.35744000000E-01  0.51099999109E-03 0. -1.
       11   -1    0    0    0    0 -0.00000000000E+00 -0.00000000000E+00 -0.35740347158E-01  0.35744000000E-01  0.51099999109E-03 0.  1.
       22    1    1    2    0    0 -0.17947602236E-01  0.11433029024E-01 -0.28710677564E-01  0.35737005818E-01  0.00000000000E+00 0.  1.
  9000001    1    1    2    0    0  0.17947602236E-01 -0.11433029024E-01  0.28710677564E-01  0.35750994182E-01  0.10000000475E-02 0. -1.
</event>
<event>
 4   0  0.4958067E-02  0.9118800E+02  0.7818609E-02  0.1379984E+01
      -11   -1    0    0    0    0  0.00000000000E+00  0.00000000000E+00  0.35740347158E-01  0.35744000000E-01  0.51099999109E-03 0. -1.
       11   -1    0    0    0    0 -0.00000000000E+00 -0.00000000000E+00 -0.35740347158E-01  0.35744000000E-01  0.51099999109E-03 0.  1.
       22    1    1    2    0    0 -0.65382219210E-02 -0.12216813417E-01  0.32941382924E-01  0.35737005818E-01  0.00000000000E+00 0. -1.
  9000001    1    1    2    0    0  0.65382219210E-02  0.12216813417E-01 -0.32941382924E-01  0.35750994182E-01  0.10000000475E-02 0.  1.
</event>
<event>
 4   0  0.4958067E-02  0.9118800E+02  0.7818609E-02  0.1379984E+01
      -11   -1    0    0    0    0  0.00000000000E+00  0.00000000000E+00  0.35740347158E-01  0.35744000000E-01  0.51099999109E-03 0.  1.
       11   -1    0    0    0    0 -0.00000000000E+00 -0.00000000000E+00 -0.35740347158E-01  0.35744000000E-01  0.51099999109E-03 0. -1.
       22    1    1    2    0    0  0.28713634970E-02  0.22570459859E-02  0.35549888888E-01  0.35737005818E-01  0.00000000000E+00 0.  1.
  9000001    1    1    2    0    0 -0.28713634970E-02 -0.22570459859E-02 -0.35549888888E-01  0.35750994182E-01  0.10000000475E-02 0. -1.
</event>
<event>
 4   0  0.4958067E-02  0.9118800E+02  0.7818609E-02  0.1379984E+01
      -11   -1    0    0    0    0  0.00000000000E+00  0.00000000000E+00  0.35740347158E-01  0.35744000000E-01  0.51099999109E-03 0. -1.
       11   -1    0    0    0    0 -0.00000000000E+00 -0.00000000000E+00 -0.35740347158E-01  0.35744000000E-01  0.51099999109E-03 0.  1.
       22    1    1    2    0    0  0.46397194425E-02  0.79860192537E-03  0.35425539140E-01  0.35737005818E-01  0.00000000000E+00 0. -1.
  9000001    1    1    2    0    0 -0.46397194425E-02 -0.79860192537E-03 -0.35425539140E-01  0.35750994182E-01  0.10000000475E-02 0.  1.
</event>
<event>
 4   0  0.4958067E-02  0.9118800E+02  0.7818609E-02  0.1379984E+01
      -11   -1    0    0    0    0  0.00000000000E+00  0.00000000000E+00  0.35740347158E-01  0.35744000000E-01  0.51099999109E-03 0.  1.
       11   -1    0    0    0    0 -0.00000000000E+00 -0.00000000000E+00 -0.35740347158E-01  0.35744000000E-01  0.51099999109E-03 0. -1.
       22    1    1    2    0    0 -0.32852210788E-02  0.12746869124E-02  0.35562846914E-01  0.35737005818E-01  0.00000000000E+00 0.  1.
  9000001    1    1    2    0    0  0.32852210788E-02 -0.12746869124E-02 -0.35562846914E-01  0.35750994182E-01  0.10000000475E-02 0. -1.
</event>
<event>
 4   0  0.4958067E-02  0.9118800E+02  0.7818609E-02  0.1379984E+01
      -11   -1    0    0    0    0  0.00000000000E+00  0.00000000000E+00  0.35740347158E-01  0.35744000000E-01  0.51099999109E-03 0. -1.
       11   -1    0    0    0    0 -0.00000000000E+00 -0.00000000000E+00 -0.35740347158E-01  0.35744000000E-01  0.51099999109E-03 0.  1.
       22    1    1    2    0    0 -0.26354217853E-01  0.37376665155E-02 -0.23845725723E-01  0.35737005818E-01  0.00000000000E+00 0.  1.
  9000001    1    1    2    0    0  0.26354217853E-01 -0.37376665155E-02  0.23845725723E-01  0.35750994182E-01  0.10000000475E-02 0. -1.
</event>
<event>
 4   0  0.4958067E-02  0.9118800E+02  0.7818609E-02  0.1379984E+01
      -11   -1    0    0    0    0  0.00000000000E+00  0.00000000000E+00  0.35740347158E-01  0.35744000000E-01  0.51099999109E-03 0.  1.
       11   -1    0    0    0    0 -0.00000000000E+00 -0.00000000000E+00 -0.35740347158E-01  0.35744000000E-01  0.51099999109E-03 0. -1.
       22    1    1    2    0    0  0.15299425129E-01  0.61489597855E-02  0.31705700893E-01  0.35737005818E-01  0.00000000000E+00 0.  1.
  9000001    1    1    2    0    0 -0.15299425129E-01 -0.61489597855E-02 -0.31705700893E-01  0.35750994182E-01  0.10000000475E-02 0. -1.
</event>
<event>
 4   0  0.4958067E-02  0.9118800E+02  0.7818609E-02  0.1379984E+01
      -11   -1    0    0    0    0  0.00000000000E+00  0.00000000000E+00  0.35740347158E-01  0.35744000000E-01  0.51099999109E-03 0. -1.
       11   -1    0    0    0    0 -0.00000000000E+00 -0.00000000000E+00 -0.35740347158E-01  0.35744000000E-01  0.51099999109E-03 0.  1.
       22    1    1    2    0    0  0.11024045740E-02  0.25127323836E-01  0.25387711316E-01  0.35737005818E-01  0.00000000000E+00 0. -1.
  9000001    1    1    2    0    0 -0.11024045740E-02 -0.25127323836E-01 -0.25387711316E-01  0.35750994182E-01  0.10000000475E-02 0.  1.
</event>
<event>
 4   0  0.4958067E-02  0.9118800E+02  0.7818609E-02  0.1379984E+01
      -11   -1    0    0    0    0  0.00000000000E+00  0.00000000000E+00  0.35740347158E-01  0.35744000000E-01  0.51099999109E-03 0.  1.
       11   -1    0    0    0    0 -0.00000000000E+00 -0.00000000000E+00 -0.35740347158E-01  0.35744000000E-01  0.51099999109E-03 0. -1.
       22    1    1    2    0    0  0.26301737403E-01  0.48235919610E-03  0.24189243975E-01  0.35737005818E-01  0.00000000000E+00 0.  1.
  9000001    1    1    2    0    0 -0.26301737403E-01 -0.48235919610E-03 -0.24189243975E-01  0.35750994182E-01  0.10000000475E-02 0. -1.
</event>
<event>
 4   0  0.4958067E-02  0.9118800E+02  0.7818609E-02  0.1379984E+01
      -11   -1    0    0    0    0  0.00000000000E+00  0.00000000000E+00  0.35740347158E-01  0.35744000000E-01  0.51099999109E-03 0.  1.
       11   -1    0    0    0    0 -0.00000000000E+00 -0.00000000000E+00 -0.35740347158E-01  0.35744000000E-01  0.51099999109E-03 0. -1.
       22    1    1    2    0    0  0.27797637578E-01 -0.33750353925E-02 -0.22204370427E-01  0.35737005818E-01  0.00000000000E+00 0. -1.
  9000001    1    1    2    0    0 -0.27797637578E-01  0.33750353925E-02  0.22204370427E-01  0.35750994182E-01  0.10000000475E-02 0.  1.
</event>
<event>
 4   0  0.4958067E-02  0.9118800E+02  0.7818609E-02  0.1379984E+01
      -11   -1    0    0    0    0  0.00000000000E+00  0.00000000000E+00  0.35740347158E-01  0.35744000000E-01  0.51099999109E-03 0. -1.
       11   -1    0    0    0    0 -0.00000000000E+00 -0.00000000000E+00 -0.35740347158E-01  0.35744000000E-01  0.51099999109E-03 0.  1.
       22    1    1    2    0    0 -0.14433217838E-01 -0.63279184163E-02 -0.32074495417E-01  0.35737005818E-01  0.00000000000E+00 0.  1.
  9000001    1    1    2    0    0  0.14433217838E-01  0.63279184163E-02  0.32074495417E-01  0.35750994182E-01  0.10000000475E-02 0. -1.
</event>
<event>
 4   0  0.4958067E-02  0.9118800E+02  0.7818609E-02  0.1379984E+01
      -11   -1    0    0    0    0  0.00000000000E+00  0.00000000000E+00  0.35740347158E-01  0.35744000000E-01  0.51099999109E-03 0.  1.
       11   -1    0    0    0    0 -0.00000000000E+00 -0.00000000000E+00 -0.35740347158E-01  0.35744000000E-01  0.51099999109E-03 0. -1.
       22    1    1    2    0    0 -0.14684220246E-02  0.33438572877E-02  0.35549907736E-01  0.35737005818E-01  0.00000000000E+00 0.  1.
  9000001    1    1    2    0    0  0.14684220246E-02 -0.33438572877E-02 -0.35549907736E-01  0.35750994182E-01  0.10000000475E-02 0. -1.
</event>
<event>
 4   0  0.4958067E-02  0.9118800E+02  0.7818609E-02  0.1379984E+01
      -11   -1    0    0    0    0  0.00000000000E+00  0.00000000000E+00  0.35740347158E-01  0.35744000000E-01  0.51099999109E-03 0.  1.
       11   -1    0    0    0    0 -0.00000000000E+00 -0.00000000000E+00 -0.35740347158E-01  0.35744000000E-01  0.51099999109E-03 0. -1.
       22    1    1    2    0    0  0.34600307600E-01  0.12126940071E-02  0.88589882080E-02  0.35737005818E-01  0.00000000000E+00 0.  1.
  9000001    1    1    2    0    0 -0.34600307600E-01 -0.12126940071E-02 -0.88589882080E-02  0.35750994182E-01  0.10000000475E-02 0. -1.
</event>
<event>
 4   0  0.4958067E-02  0.9118800E+02  0.7818609E-02  0.1379984E+01
      -11   -1    0    0    0    0  0.00000000000E+00  0.00000000000E+00  0.35740347158E-01  0.35744000000E-01  0.51099999109E-03 0. -1.
       11   -1    0    0    0    0 -0.00000000000E+00 -0.00000000000E+00 -0.35740347158E-01  0.35744000000E-01  0.51099999109E-03 0.  1.
       22    1    1    2    0    0 -0.81829004066E-02  0.59404314237E-02 -0.34276595518E-01  0.35737005818E-01  0.00000000000E+00 0.  1.
  9000001    1    1    2    0    0  0.81829004066E-02 -0.59404314237E-02  0.34276595518E-01  0.35750994182E-01  0.10000000475E-02 0. -1.
</event>
<event>
 4   0  0.4958067E-02  0.9118800E+02  0.7818609E-02  0.1379984E+01
      -11   -1    0    0    0    0  0.00000000000E+00  0.00000000000E+00  0.35740347158E-01  0.35744000000E-01  0.51099999109E-03 0.  1.
       11   -1    0    0    0    0 -0.00000000000E+00 -0.00000000000E+00 -0.35740347158E-01  0.35744000000E-01  0.51099999109E-03 0. -1.
       22    1    1    2    0    0 -0.60353486825E-02  0.11856456012E-02 -0.35203727014E-01  0.35737005818E-01  0.00000000000E+00 0. -1.
  9000001    1    1    2    0    0  0.60353486825E-02 -0.11856456012E-02  0.35203727014E-01  0.35750994182E-01  0.10000000475E-02 0.  1.
</event>
<event>
 4   0  0.4958067E-02  0.9118800E+02  0.7818609E-02  0.1379984E+01
      -11   -1    0    0    0    0  0.00000000000E+00  0.00000000000E+00  0.35740347158E-01  0.35744000000E-01  0.51099999109E-03 0.  1.
       11   -1    0    0    0    0 -0.00000000000E+00 -0.00000000000E+00 -0.35740347158E-01  0.35744000000E-01  0.51099999109E-03 0. -1.
       22    1    1    2    0    0  0.11098480307E-01  0.25970720832E-02  0.33870526071E-01  0.35737005818E-01  0.00000000000E+00 0.  1.
  9000001    1    1    2    0    0 -0.11098480307E-01 -0.25970720832E-02 -0.33870526071E-01  0.35750994182E-01  0.10000000475E-02 0. -1.
</event>
<event>
 4   0  0.4958067E-02  0.9118800E+02  0.7818609E-02  0.1379984E+01
      -11   -1    0    0    0    0  0.00000000000E+00  0.00000000000E+00  0.35740347158E-01  0.35744000000E-01  0.51099999109E-03 0. -1.
       11   -1    0    0    0    0 -0.00000000000E+00 -0.00000000000E+00 -0.35740347158E-01  0.35744000000E-01  0.51099999109E-03 0.  1.
       22    1    1    2    0    0  0.34663702942E-01  0.76072148697E-02  0.42061342255E-02  0.35737005818E-01  0.00000000000E+00 0. -1.
  9000001    1    1    2    0    0 -0.34663702942E-01 -0.76072148697E-02 -0.42061342255E-02  0.35750994182E-01  0.10000000475E-02 0.  1.
</event>
<event>
 4   0  0.4958067E-02  0.9118800E+02  0.7818609E-02  0.1379984E+01
      -11   -1    0    0    0    0  0.00000000000E+00  0.00000000000E+00  0.35740347158E-01  0.35744000000E-01  0.51099999109E-03 0. -1.
       11   -1    0    0    0    0 -0.00000000000E+00 -0.00000000000E+00 -0.35740347158E-01  0.35744000000E-01  0.51099999109E-03 0.  1.
       22    1    1    2    0    0 -0.31435283728E-02 -0.92101989289E-03  0.35586563990E-01  0.35737005818E-01  0.00000000000E+00 0. -1.
  9000001    1    1    2    0    0  0.31435283728E-02  0.92101989289E-03 -0.35586563990E-01  0.35750994182E-01  0.10000000475E-02 0.  1.
</event>
<event>
 4   0  0.4958067E-02  0.9118800E+02  0.7818609E-02  0.1379984E+01
      -11   -1    0    0    0    0  0.00000000000E+00  0.00000000000E+00  0.35740347158E-01  0.35744000000E-01  0.51099999109E-03 0.  1.
       11   -1    0    0    0    0 -0.00000000000E+00 -0.00000000000E+00 -0.35740347158E-01  0.35744000000E-01  0.51099999109E-03 0. -1.
       22    1    1    2    0    0 -0.30908841322E-02 -0.17978243353E-02 -0.35557669325E-01  0.35737005818E-01  0.00000000000E+00 0. -1.
  9000001    1    1    2    0    0  0.30908841322E-02  0.17978243353E-02  0.35557669325E-01  0.35750994182E-01  0.10000000475E-02 0.  1.
</event>
<event>
 4   0  0.4958067E-02  0.9118800E+02  0.7818609E-02  0.1379984E+01
      -11   -1    0    0    0    0  0.00000000000E+00  0.00000000000E+00  0.35740347158E-01  0.35744000000E-01  0.51099999109E-03 0. -1.
       11   -1    0    0    0    0 -0.00000000000E+00 -0.00000000000E+00 -0.35740347158E-01  0.35744000000E-01  0.51099999109E-03 0.  1.
       22    1    1    2    0    0  0.99893098125E-03 -0.99764076589E-02  0.34301705672E-01  0.35737005818E-01  0.00000000000E+00 0. -1.
  9000001    1    1    2    0    0 -0.99893098125E-03  0.99764076589E-02 -0.34301705672E-01  0.35750994182E-01  0.10000000475E-02 0.  1.
</event>
<event>
 4   0  0.4958067E-02  0.9118800E+02  0.7818609E-02  0.1379984E+01
      -11   -1    0    0    0    0  0.00000000000E+00  0.00000000000E+00  0.35740347158E-01  0.35744000000E-01  0.51099999109E-03 0. -1.
       11   -1    0    0    0    0 -0.00000000000E+00 -0.00000000000E+00 -0.35740347158E-01  0.35744000000E-01  0.51099999109E-03 0.  1.
       22    1    1    2    0    0 -0.74714961423E-02 -0.33398971676E-01 -0.10286837282E-01  0.35737005818E-01  0.00000000000E+00 0.  1.
  9000001    1    1    2    0    0  0.74714961423E-02  0.33398971676E-01  0.10286837282E-01  0.35750994182E-01  0.10000000475E-02 0. -1.
</event>
<event>
 4   0  0.4958067E-02  0.9118800E+02  0.7818609E-02  0.1379984E+01
      -11   -1    0    0    0    0  0.00000000000E+00  0.00000000000E+00  0.35740347158E-01  0.35744000000E-01  0.51099999109E-03 0.  1.
       11   -1    0    0    0    0 -0.00000000000E+00 -0.00000000000E+00 -0.35740347158E-01  0.35744000000E-01  0.51099999109E-03 0. -1.
       22    1    1    2    0    0 -0.18653243440E-02 -0.47025988181E-02 -0.35377107207E-01  0.35737005818E-01  0.00000000000E+00 0. -1.
  9000001    1    1    2    0    0  0.18653243440E-02  0.47025988181E-02  0.35377107207E-01  0.35750994182E-01  0.10000000475E-02 0.  1.
</event>
<event>
 4   0  0.4958067E-02  0.9118800E+02  0.7818609E-02  0.1379984E+01
      -11   -1    0    0    0    0  0.00000000000E+00  0.00000000000E+00  0.35740347158E-01  0.35744000000E-01  0.51099999109E-03 0. -1.
       11   -1    0    0    0    0 -0.00000000000E+00 -0.00000000000E+00 -0.35740347158E-01  0.35744000000E-01  0.51099999109E-03 0.  1.
       22    1    1    2    0    0  0.72006346939E-02  0.43330182864E-02  0.34734844140E-01  0.35737005818E-01  0.00000000000E+00 0. -1.
  9000001    1    1    2    0    0 -0.72006346939E-02 -0.43330182864E-02 -0.34734844140E-01  0.35750994182E-01  0.10000000475E-02 0.  1.
</event>
<event>
 4   0  0.4958067E-02  0.9118800E+02  0.7818609E-02  0.1379984E+01
      -11   -1    0    0    0    0  0.00000000000E+00  0.00000000000E+00  0.35740347158E-01  0.35744000000E-01  0.51099999109E-03 0. -1.
       11   -1    0    0    0    0 -0.00000000000E+00 -0.00000000000E+00 -0.35740347158E-01  0.35744000000E-01  0.51099999109E-03 0.  1.
       22    1    1    2    0    0 -0.34598626152E-01 -0.67993345080E-02  0.58170184407E-02  0.35737005818E-01  0.00000000000E+00 0. -1.
  9000001    1    1    2    0    0  0.34598626152E-01  0.67993345080E-02 -0.58170184407E-02  0.35750994182E-01  0.10000000475E-02 0.  1.
</event>
<event>
 4   0  0.4958067E-02  0.9118800E+02  0.7818609E-02  0.1379984E+01
      -11   -1    0    0    0    0  0.00000000000E+00  0.00000000000E+00  0.35740347158E-01  0.35744000000E-01  0.51099999109E-03 0. -1.
       11   -1    0    0    0    0 -0.00000000000E+00 -0.00000000000E+00 -0.35740347158E-01  0.35744000000E-01  0.51099999109E-03 0.  1.
       22    1    1    2    0    0  0.31594230492E-01  0.16510730385E-01 -0.25167373032E-02  0.35737005818E-01  0.00000000000E+00 0.  1.
  9000001    1    1    2    0    0 -0.31594230492E-01 -0.16510730385E-01  0.25167373032E-02  0.35750994182E-01  0.10000000475E-02 0. -1.
</event>
<event>
 4   0  0.4958067E-02  0.9118800E+02  0.7818609E-02  0.1379984E+01
      -11   -1    0    0    0    0  0.00000000000E+00  0.00000000000E+00  0.35740347158E-01  0.35744000000E-01  0.51099999109E-03 0. -1.
       11   -1    0    0    0    0 -0.00000000000E+00 -0.00000000000E+00 -0.35740347158E-01  0.35744000000E-01  0.51099999109E-03 0.  1.
       22    1    1    2    0    0  0.55033447401E-02  0.99149633041E-02  0.33890120747E-01  0.35737005818E-01  0.00000000000E+00 0. -1.
  9000001    1    1    2    0    0 -0.55033447401E-02 -0.99149633041E-02 -0.33890120747E-01  0.35750994182E-01  0.10000000475E-02 0.  1.
</event>
<event>
 4   0  0.4958067E-02  0.9118800E+02  0.7818609E-02  0.1379984E+01
      -11   -1    0    0    0    0  0.00000000000E+00  0.00000000000E+00  0.35740347158E-01  0.35744000000E-01  0.51099999109E-03 0.  1.
       11   -1    0    0    0    0 -0.00000000000E+00 -0.00000000000E+00 -0.35740347158E-01  0.35744000000E-01  0.51099999109E-03 0. -1.
       22    1    1    2    0    0  0.33753621466E-03 -0.30458154176E-02 -0.35605374069E-01  0.35737005818E-01  0.00000000000E+00 0. -1.
  9000001    1    1    2    0    0 -0.33753621466E-03  0.30458154176E-02  0.35605374069E-01  0.35750994182E-01  0.10000000475E-02 0.  1.
</event>
<event>
 4   0  0.4958067E-02  0.9118800E+02  0.7818609E-02  0.1379984E+01
      -11   -1    0    0    0    0  0.00000000000E+00  0.00000000000E+00  0.35740347158E-01  0.35744000000E-01  0.51099999109E-03 0.  1.
       11   -1    0    0    0    0 -0.00000000000E+00 -0.00000000000E+00 -0.35740347158E-01  0.35744000000E-01  0.51099999109E-03 0. -1.
       22    1    1    2    0    0  0.32547019576E-01 -0.10139383083E-01 -0.10724645091E-01  0.35737005818E-01  0.00000000000E+00 0. -1.
  9000001    1    1    2    0    0 -0.32547019576E-01  0.10139383083E-01  0.10724645091E-01  0.35750994182E-01  0.10000000475E-02 0.  1.
</event>
<event>
 4   0  0.4958067E-02  0.9118800E+02  0.7818609E-02  0.1379984E+01
      -11   -1    0    0    0    0  0.00000000000E+00  0.00000000000E+00  0.35740347158E-01  0.35744000000E-01  0.51099999109E-03 0. -1.
       11   -1    0    0    0    0 -0.00000000000E+00 -0.00000000000E+00 -0.35740347158E-01  0.35744000000E-01  0.51099999109E-03 0.  1.
       22    1    1    2    0    0  0.10736657142E-01 -0.62973643501E-02  0.33499268358E-01  0.35737005818E-01  0.00000000000E+00 0. -1.
  9000001    1    1    2    0    0 -0.10736657142E-01  0.62973643501E-02 -0.33499268358E-01  0.35750994182E-01  0.10000000475E-02 0.  1.
</event>
<event>
 4   0  0.4958067E-02  0.9118800E+02  0.7818609E-02  0.1379984E+01
      -11   -1    0    0    0    0  0.00000000000E+00  0.00000000000E+00  0.35740347158E-01  0.35744000000E-01  0.51099999109E-03 0. -1.
       11   -1    0    0    0    0 -0.00000000000E+00 -0.00000000000E+00 -0.35740347158E-01  0.35744000000E-01  0.51099999109E-03 0.  1.
       22    1    1    2    0    0 -0.22594503253E-02 -0.31106976133E-01  0.17446618725E-01  0.35737005818E-01  0.00000000000E+00 0. -1.
  9000001    1    1    2    0    0  0.22594503253E-02  0.31106976133E-01 -0.17446618725E-01  0.35750994182E-01  0.10000000475E-02 0.  1.
</event>
<event>
 4   0  0.4958067E-02  0.9118800E+02  0.7818609E-02  0.1379984E+01
      -11   -1    0    0    0    0  0.00000000000E+00  0.00000000000E+00  0.35740347158E-01  0.35744000000E-01  0.51099999109E-03 0.  1.
       11   -1    0    0    0    0 -0.00000000000E+00 -0.00000000000E+00 -0.35740347158E-01  0.35744000000E-01  0.51099999109E-03 0. -1.
       22    1    1    2    0    0  0.41899091883E-02  0.57418591831E-02 -0.35022982440E-01  0.35737005818E-01  0.00000000000E+00 0. -1.
  9000001    1    1    2    0    0 -0.41899091883E-02 -0.57418591831E-02  0.35022982440E-01  0.35750994182E-01  0.10000000475E-02 0.  1.
</event>
<event>
 4   0  0.4958067E-02  0.9118800E+02  0.7818609E-02  0.1379984E+01
      -11   -1    0    0    0    0  0.00000000000E+00  0.00000000000E+00  0.35740347158E-01  0.35744000000E-01  0.51099999109E-03 0.  1.
       11   -1    0    0    0    0 -0.00000000000E+00 -0.00000000000E+00 -0.35740347158E-01  0.35744000000E-01  0.51099999109E-03 0. -1.
       22    1    1    2    0    0  0.59877503472E-02  0.30783657843E-02 -0.35097066754E-01  0.35737005818E-01  0.00000000000E+00 0. -1.
  9000001    1    1    2    0    0 -0.59877503472E-02 -0.30783657843E-02  0.35097066754E-01  0.35750994182E-01  0.10000000475E-02 0.  1.
</event>
<event>
 4   0  0.4958067E-02  0.9118800E+02  0.7818609E-02  0.1379984E+01
      -11   -1    0    0    0    0  0.00000000000E+00  0.00000000000E+00  0.35740347158E-01  0.35744000000E-01  0.51099999109E-03 0. -1.
       11   -1    0    0    0    0 -0.00000000000E+00 -0.00000000000E+00 -0.35740347158E-01  0.35744000000E-01  0.51099999109E-03 0.  1.
       22    1    1    2    0    0 -0.27861055929E-01  0.21052396804E-01 -0.75955076317E-02  0.35737005818E-01  0.00000000000E+00 0.  1.
  9000001    1    1    2    0    0  0.27861055929E-01 -0.21052396804E-01  0.75955076317E-02  0.35750994182E-01  0.10000000475E-02 0. -1.
</event>
<event>
 4   0  0.4958067E-02  0.9118800E+02  0.7818609E-02  0.1379984E+01
      -11   -1    0    0    0    0  0.00000000000E+00  0.00000000000E+00  0.35740347158E-01  0.35744000000E-01  0.51099999109E-03 0.  1.
       11   -1    0    0    0    0 -0.00000000000E+00 -0.00000000000E+00 -0.35740347158E-01  0.35744000000E-01  0.51099999109E-03 0. -1.
       22    1    1    2    0    0  0.25160666706E-02 -0.21464887117E-02 -0.35583642023E-01  0.35737005818E-01  0.00000000000E+00 0. -1.
  9000001    1    1    2    0    0 -0.25160666706E-02  0.21464887117E-02  0.35583642023E-01  0.35750994182E-01  0.10000000475E-02 0.  1.
</event>
<event>
 4   0  0.4958067E-02  0.9118800E+02  0.7818609E-02  0.1379984E+01
      -11   -1    0    0    0    0  0.00000000000E+00  0.00000000000E+00  0.35740347158E-01  0.35744000000E-01  0.51099999109E-03 0.  1.
       11   -1    0    0    0    0 -0.00000000000E+00 -0.00000000000E+00 -0.35740347158E-01  0.35744000000E-01  0.51099999109E-03 0. -1.
       22    1    1    2    0    0 -0.12139799496E-01  0.23428858656E-01  0.24100776650E-01  0.35737005818E-01  0.00000000000E+00 0.  1.
  9000001    1    1    2    0    0  0.12139799496E-01 -0.23428858656E-01 -0.24100776650E-01  0.35750994182E-01  0.10000000475E-02 0. -1.
</event>
<event>
 4   0  0.4958067E-02  0.9118800E+02  0.7818609E-02  0.1379984E+01
      -11   -1    0    0    0    0  0.00000000000E+00  0.00000000000E+00  0.35740347158E-01  0.35744000000E-01  0.51099999109E-03 0. -1.
       11   -1    0    0    0    0 -0.00000000000E+00 -0.00000000000E+00 -0.35740347158E-01  0.35744000000E-01  0.51099999109E-03 0.  1.
       22    1    1    2    0    0 -0.25269797904E-01 -0.14753869856E-01  0.20515706740E-01  0.35737005818E-01  0.00000000000E+00 0. -1.
  9000001    1    1    2    0    0  0.25269797904E-01  0.14753869856E-01 -0.20515706740E-01  0.35750994182E-01  0.10000000475E-02 0.  1.
</event>
<event>
 4   0  0.4958067E-02  0.9118800E+02  0.7818609E-02  0.1379984E+01
      -11   -1    0    0    0    0  0.00000000000E+00  0.00000000000E+00  0.35740347158E-01  0.35744000000E-01  0.51099999109E-03 0. -1.
       11   -1    0    0    0    0 -0.00000000000E+00 -0.00000000000E+00 -0.35740347158E-01  0.35744000000E-01  0.51099999109E-03 0.  1.
       22    1    1    2    0    0  0.26613306546E-01  0.78775518503E-02  0.22512433818E-01  0.35737005818E-01  0.00000000000E+00 0. -1.
  9000001    1    1    2    0    0 -0.26613306546E-01 -0.78775518503E-02 -0.22512433818E-01  0.35750994182E-01  0.10000000475E-02 0.  1.
</event>
<event>
 4   0  0.4958067E-02  0.9118800E+02  0.7818609E-02  0.1379984E+01
      -11   -1    0    0    0    0  0.00000000000E+00  0.00000000000E+00  0.35740347158E-01  0.35744000000E-01  0.51099999109E-03 0.  1.
       11   -1    0    0    0    0 -0.00000000000E+00 -0.00000000000E+00 -0.35740347158E-01  0.35744000000E-01  0.51099999109E-03 0. -1.
       22    1    1    2    0    0  0.47579451562E-02  0.34436126407E-02 -0.35251057782E-01  0.35737005818E-01  0.00000000000E+00 0. -1.
  9000001    1    1    2    0    0 -0.47579451562E-02 -0.34436126407E-02  0.35251057782E-01  0.35750994182E-01  0.10000000475E-02 0.  1.
</event>
<event>
 4   0  0.4958067E-02  0.9118800E+02  0.7818609E-02  0.1379984E+01
      -11   -1    0    0    0    0  0.00000000000E+00  0.00000000000E+00  0.35740347158E-01  0.35744000000E-01  0.51099999109E-03 0. -1.
       11   -1    0    0    0    0 -0.00000000000E+00 -0.00000000000E+00 -0.35740347158E-01  0.35744000000E-01  0.51099999109E-03 0.  1.
       22    1    1    2    0    0  0.11419926505E-01  0.14519992478E-01  0.30592297755E-01  0.35737005818E-01  0.00000000000E+00 0. -1.
  9000001    1    1    2    0    0 -0.11419926505E-01 -0.14519992478E-01 -0.30592297755E-01  0.35750994182E-01  0.10000000475E-02 0.  1.
</event>
<event>
 4   0  0.4958067E-02  0.9118800E+02  0.7818609E-02  0.1379984E+01
      -11   -1    0    0    0    0  0.00000000000E+00  0.00000000000E+00  0.35740347158E-01  0.35744000000E-01  0.51099999109E-03 0. -1.
       11   -1    0    0    0    0 -0.00000000000E+00 -0.00000000000E+00 -0.35740347158E-01  0.35744000000E-01  0.51099999109E-03 0.  1.
       22    1    1    2    0    0  0.10332173815E-01 -0.13961417622E-01  0.31232332399E-01  0.35737005818E-01  0.00000000000E+00 0. -1.
  9000001    1    1    2    0    0 -0.10332173815E-01  0.13961417622E-01 -0.31232332399E-01  0.35750994182E-01  0.10000000475E-02 0.  1.
</event>
<event>
 4   0  0.4958067E-02  0.9118800E+02  0.7818609E-02  0.1379984E+01
      -11   -1    0    0    0    0  0.00000000000E+00  0.00000000000E+00  0.35740347158E-01  0.35744000000E-01  0.51099999109E-03 0. -1.
       11   -1    0    0    0    0 -0.00000000000E+00 -0.00000000000E+00 -0.35740347158E-01  0.35744000000E-01  0.51099999109E-03 0.  1.
       22    1    1    2    0    0 -0.19824114352E-03  0.48539875611E-02  0.35405269242E-01  0.35737005818E-01  0.00000000000E+00 0. -1.
  9000001    1    1    2    0    0  0.19824114352E-03 -0.48539875611E-02 -0.35405269242E-01  0.35750994182E-01  0.10000000475E-02 0.  1.
</event>
<event>
 4   0  0.4958067E-02  0.9118800E+02  0.7818609E-02  0.1379984E+01
      -11   -1    0    0    0    0  0.00000000000E+00  0.00000000000E+00  0.35740347158E-01  0.35744000000E-01  0.51099999109E-03 0.  1.
       11   -1    0    0    0    0 -0.00000000000E+00 -0.00000000000E+00 -0.35740347158E-01  0.35744000000E-01  0.51099999109E-03 0. -1.
       22    1    1    2    0    0 -0.13170871276E-03  0.41303249060E-02  0.35497276710E-01  0.35737005818E-01  0.00000000000E+00 0.  1.
  9000001    1    1    2    0    0  0.13170871276E-03 -0.41303249060E-02 -0.35497276710E-01  0.35750994182E-01  0.10000000475E-02 0. -1.
</event>
<event>
 4   0  0.4958067E-02  0.9118800E+02  0.7818609E-02  0.1379984E+01
      -11   -1    0    0    0    0  0.00000000000E+00  0.00000000000E+00  0.35740347158E-01  0.35744000000E-01  0.51099999109E-03 0. -1.
       11   -1    0    0    0    0 -0.00000000000E+00 -0.00000000000E+00 -0.35740347158E-01  0.35744000000E-01  0.51099999109E-03 0.  1.
       22    1    1    2    0    0 -0.31014765212E-02  0.73362375305E-02 -0.34838111992E-01  0.35737005818E-01  0.00000000000E+00 0.  1.
  9000001    1    1    2    0    0  0.31014765212E-02 -0.73362375305E-02  0.34838111992E-01  0.35750994182E-01  0.10000000475E-02 0. -1.
</event>
<event>
 4   0  0.4958067E-02  0.9118800E+02  0.7818609E-02  0.1379984E+01
      -11   -1    0    0    0    0  0.00000000000E+00  0.00000000000E+00  0.35740347158E-01  0.35744000000E-01  0.51099999109E-03 0. -1.
       11   -1    0    0    0    0 -0.00000000000E+00 -0.00000000000E+00 -0.35740347158E-01  0.35744000000E-01  0.51099999109E-03 0.  1.
       22    1    1    2    0    0  0.64773360468E-02  0.17332096009E-02 -0.35102331647E-01  0.35737005818E-01  0.00000000000E+00 0.  1.
  9000001    1    1    2    0    0 -0.64773360468E-02 -0.17332096009E-02  0.35102331647E-01  0.35750994182E-01  0.10000000475E-02 0. -1.
</event>
<event>
 4   0  0.4958067E-02  0.9118800E+02  0.7818609E-02  0.1379984E+01
      -11   -1    0    0    0    0  0.00000000000E+00  0.00000000000E+00  0.35740347158E-01  0.35744000000E-01  0.51099999109E-03 0.  1.
       11   -1    0    0    0    0 -0.00000000000E+00 -0.00000000000E+00 -0.35740347158E-01  0.35744000000E-01  0.51099999109E-03 0. -1.
       22    1    1    2    0    0  0.56612662364E-02 -0.18397919372E-03  0.35285263229E-01  0.35737005818E-01  0.00000000000E+00 0.  1.
  9000001    1    1    2    0    0 -0.56612662364E-02  0.18397919372E-03 -0.35285263229E-01  0.35750994182E-01  0.10000000475E-02 0. -1.
</event>
<event>
 4   0  0.4958067E-02  0.9118800E+02  0.7818609E-02  0.1379984E+01
      -11   -1    0    0    0    0  0.00000000000E+00  0.00000000000E+00  0.35740347158E-01  0.35744000000E-01  0.51099999109E-03 0. -1.
       11   -1    0    0    0    0 -0.00000000000E+00 -0.00000000000E+00 -0.35740347158E-01  0.35744000000E-01  0.51099999109E-03 0.  1.
       22    1    1    2    0    0  0.27194290444E-02 -0.22540873428E-02  0.35562021607E-01  0.35737005818E-01  0.00000000000E+00 0. -1.
  9000001    1    1    2    0    0 -0.27194290444E-02  0.22540873428E-02 -0.35562021607E-01  0.35750994182E-01  0.10000000475E-02 0.  1.
</event>
<event>
 4   0  0.4958067E-02  0.9118800E+02  0.7818609E-02  0.1379984E+01
      -11   -1    0    0    0    0  0.00000000000E+00  0.00000000000E+00  0.35740347158E-01  0.35744000000E-01  0.51099999109E-03 0. -1.
       11   -1    0    0    0    0 -0.00000000000E+00 -0.00000000000E+00 -0.35740347158E-01  0.35744000000E-01  0.51099999109E-03 0.  1.
       22    1    1    2    0    0  0.34857661718E-01 -0.17939569465E-02 -0.76719438811E-02  0.35737005818E-01  0.00000000000E+00 0.  1.
  9000001    1    1    2    0    0 -0.34857661718E-01  0.17939569465E-02  0.76719438811E-02  0.35750994182E-01  0.10000000475E-02 0. -1.
</event>
<event>
 4   0  0.4958067E-02  0.9118800E+02  0.7818609E-02  0.1379984E+01
      -11   -1    0    0    0    0  0.00000000000E+00  0.00000000000E+00  0.35740347158E-01  0.35744000000E-01  0.51099999109E-03 0.  1.
       11   -1    0    0    0    0 -0.00000000000E+00 -0.00000000000E+00 -0.35740347158E-01  0.35744000000E-01  0.51099999109E-03 0. -1.
       22    1    1    2    0    0  0.14557599037E-01 -0.12279271954E-01  0.30239533320E-01  0.35737005818E-01  0.00000000000E+00 0.  1.
  9000001    1    1    2    0    0 -0.14557599037E-01  0.12279271954E-01 -0.30239533320E-01  0.35750994182E-01  0.10000000475E-02 0. -1.
</event>
<event>
 4   0  0.4958067E-02  0.9118800E+02  0.7818609E-02  0.1379984E+01
      -11   -1    0    0    0    0  0.00000000000E+00  0.00000000000E+00  0.35740347158E-01  0.35744000000E-01  0.51099999109E-03 0.  1.
       11   -1    0    0    0    0 -0.00000000000E+00 -0.00000000000E+00 -0.35740347158E-01  0.35744000000E-01  0.51099999109E-03 0. -1.
       22    1    1    2    0    0 -0.31880728410E-01  0.11866778286E-01 -0.10951361287E-01  0.35737005818E-01  0.00000000000E+00 0. -1.
  9000001    1    1    2    0    0  0.31880728410E-01 -0.11866778286E-01  0.10951361287E-01  0.35750994182E-01  0.10000000475E-02 0.  1.
</event>
<event>
 4   0  0.4958067E-02  0.9118800E+02  0.7818609E-02  0.1379984E+01
      -11   -1    0    0    0    0  0.00000000000E+00  0.00000000000E+00  0.35740347158E-01  0.35744000000E-01  0.51099999109E-03 0.  1.
       11   -1    0    0    0    0 -0.00000000000E+00 -0.00000000000E+00 -0.35740347158E-01  0.35744000000E-01  0.51099999109E-03 0. -1.
       22    1    1    2    0    0  0.32272819034E-02 -0.26229300110E-02 -0.35494203394E-01  0.35737005818E-01  0.00000000000E+00 0. -1.
  9000001    1    1    2    0    0 -0.32272819034E-02  0.26229300110E-02  0.35494203394E-01  0.35750994182E-01  0.10000000475E-02 0.  1.
</event>
<event>
 4   0  0.4958067E-02  0.9118800E+02  0.7818609E-02  0.1379984E+01
      -11   -1    0    0    0    0  0.00000000000E+00  0.00000000000E+00  0.35740347158E-01  0.35744000000E-01  0.51099999109E-03 0. -1.
       11   -1    0    0    0    0 -0.00000000000E+00 -0.00000000000E+00 -0.35740347158E-01  0.35744000000E-01  0.51099999109E-03 0.  1.
       22    1    1    2    0    0  0.82142071904E-02  0.92163907059E-02  0.33536823455E-01  0.35737005818E-01  0.00000000000E+00 0. -1.
  9000001    1    1    2    0    0 -0.82142071904E-02 -0.92163907059E-02 -0.33536823455E-01  0.35750994182E-01  0.10000000475E-02 0.  1.
</event>
<event>
 4   0  0.4958067E-02  0.9118800E+02  0.7818609E-02  0.1379984E+01
      -11   -1    0    0    0    0  0.00000000000E+00  0.00000000000E+00  0.35740347158E-01  0.35744000000E-01  0.51099999109E-03 0. -1.
       11   -1    0    0    0    0 -0.00000000000E+00 -0.00000000000E+00 -0.35740347158E-01  0.35744000000E-01  0.51099999109E-03 0.  1.
       22    1    1    2    0    0 -0.79729814266E-03  0.73389031670E-02 -0.34966246594E-01  0.35737005818E-01  0.00000000000E+00 0.  1.
  9000001    1    1    2    0    0  0.79729814266E-03 -0.73389031670E-02  0.34966246594E-01  0.35750994182E-01  0.10000000475E-02 0. -1.
</event>
<event>
 4   0  0.4958067E-02  0.9118800E+02  0.7818609E-02  0.1379984E+01
      -11   -1    0    0    0    0  0.00000000000E+00  0.00000000000E+00  0.35740347158E-01  0.35744000000E-01  0.51099999109E-03 0.  1.
       11   -1    0    0    0    0 -0.00000000000E+00 -0.00000000000E+00 -0.35740347158E-01  0.35744000000E-01  0.51099999109E-03 0. -1.
       22    1    1    2    0    0 -0.97242046546E-02  0.89590449303E-02  0.33201038277E-01  0.35737005818E-01  0.00000000000E+00 0.  1.
  9000001    1    1    2    0    0  0.97242046546E-02 -0.89590449303E-02 -0.33201038277E-01  0.35750994182E-01  0.10000000475E-02 0. -1.
</event>
<event>
 4   0  0.4958067E-02  0.9118800E+02  0.7818609E-02  0.1379984E+01
      -11   -1    0    0    0    0  0.00000000000E+00  0.00000000000E+00  0.35740347158E-01  0.35744000000E-01  0.51099999109E-03 0. -1.
       11   -1    0    0    0    0 -0.00000000000E+00 -0.00000000000E+00 -0.35740347158E-01  0.35744000000E-01  0.51099999109E-03 0.  1.
       22    1    1    2    0    0 -0.32461205645E-01  0.34117745057E-03 -0.14942801307E-01  0.35737005818E-01  0.00000000000E+00 0. -1.
  9000001    1    1    2    0    0  0.32461205645E-01 -0.34117745057E-03  0.14942801307E-01  0.35750994182E-01  0.10000000475E-02 0.  1.
</event>
<event>
 4   0  0.4958067E-02  0.9118800E+02  0.7818609E-02  0.1379984E+01
      -11   -1    0    0    0    0  0.00000000000E+00  0.00000000000E+00  0.35740347158E-01  0.35744000000E-01  0.51099999109E-03 0. -1.
       11   -1    0    0    0    0 -0.00000000000E+00 -0.00000000000E+00 -0.35740347158E-01  0.35744000000E-01  0.51099999109E-03 0.  1.
       22    1    1    2    0    0 -0.31269029420E-02  0.41377005398E-02 -0.35358669334E-01  0.35737005818E-01  0.00000000000E+00 0.  1.
  9000001    1    1    2    0    0  0.31269029420E-02 -0.41377005398E-02  0.35358669334E-01  0.35750994182E-01  0.10000000475E-02 0. -1.
</event>
<event>
 4   0  0.4958067E-02  0.9118800E+02  0.7818609E-02  0.1379984E+01
      -11   -1    0    0    0    0  0.00000000000E+00  0.00000000000E+00  0.35740347158E-01  0.35744000000E-01  0.51099999109E-03 0. -1.
       11   -1    0    0    0    0 -0.00000000000E+00 -0.00000000000E+00 -0.35740347158E-01  0.35744000000E-01  0.51099999109E-03 0.  1.
       22    1    1    2    0    0 -0.12809899486E-01  0.20164955987E-02 -0.33301258318E-01  0.35737005818E-01  0.00000000000E+00 0.  1.
  9000001    1    1    2    0    0  0.12809899486E-01 -0.20164955987E-02  0.33301258318E-01  0.35750994182E-01  0.10000000475E-02 0. -1.
</event>
<event>
 4   0  0.4958067E-02  0.9118800E+02  0.7818609E-02  0.1379984E+01
      -11   -1    0    0    0    0  0.00000000000E+00  0.00000000000E+00  0.35740347158E-01  0.35744000000E-01  0.51099999109E-03 0.  1.
       11   -1    0    0    0    0 -0.00000000000E+00 -0.00000000000E+00 -0.35740347158E-01  0.35744000000E-01  0.51099999109E-03 0. -1.
       22    1    1    2    0    0 -0.37676378319E-02 -0.25902963395E-02  0.35443318904E-01  0.35737005818E-01  0.00000000000E+00 0.  1.
  9000001    1    1    2    0    0  0.37676378319E-02  0.25902963395E-02 -0.35443318904E-01  0.35750994182E-01  0.10000000475E-02 0. -1.
</event>
<event>
 4   0  0.4958067E-02  0.9118800E+02  0.7818609E-02  0.1379984E+01
      -11   -1    0    0    0    0  0.00000000000E+00  0.00000000000E+00  0.35740347158E-01  0.35744000000E-01  0.51099999109E-03 0. -1.
       11   -1    0    0    0    0 -0.00000000000E+00 -0.00000000000E+00 -0.35740347158E-01  0.35744000000E-01  0.51099999109E-03 0.  1.
       22    1    1    2    0    0  0.18453545877E-02 -0.37971590645E-02 -0.35486755760E-01  0.35737005818E-01  0.00000000000E+00 0.  1.
  9000001    1    1    2    0    0 -0.18453545877E-02  0.37971590645E-02  0.35486755760E-01  0.35750994182E-01  0.10000000475E-02 0. -1.
</event>
<event>
 4   0  0.4958067E-02  0.9118800E+02  0.7818609E-02  0.1379984E+01
      -11   -1    0    0    0    0  0.00000000000E+00  0.00000000000E+00  0.35740347158E-01  0.35744000000E-01  0.51099999109E-03 0.  1.
       11   -1    0    0    0    0 -0.00000000000E+00 -0.00000000000E+00 -0.35740347158E-01  0.35744000000E-01  0.51099999109E-03 0. -1.
       22    1    1    2    0    0 -0.70931553778E-02  0.22834795679E-01 -0.26559232631E-01  0.35737005818E-01  0.00000000000E+00 0. -1.
  9000001    1    1    2    0    0  0.70931553778E-02 -0.22834795679E-01  0.26559232631E-01  0.35750994182E-01  0.10000000475E-02 0.  1.
</event>
<event>
 4   0  0.4958067E-02  0.9118800E+02  0.7818609E-02  0.1379984E+01
      -11   -1    0    0    0    0  0.00000000000E+00  0.00000000000E+00  0.35740347158E-01  0.35744000000E-01  0.51099999109E-03 0.  1.
       11   -1    0    0    0    0 -0.00000000000E+00 -0.00000000000E+00 -0.35740347158E-01  0.35744000000E-01  0.51099999109E-03 0. -1.
       22    1    1    2    0    0  0.13011258779E-02  0.63073162939E-02  0.35151933339E-01  0.35737005818E-01  0.00000000000E+00 0.  1.
  9000001    1    1    2    0    0 -0.13011258779E-02 -0.63073162939E-02 -0.35151933339E-01  0.35750994182E-01  0.10000000475E-02 0. -1.
</event>
<event>
 4   0  0.4958067E-02  0.9118800E+02  0.7818609E-02  0.1379984E+01
      -11   -1    0    0    0    0  0.00000000000E+00  0.00000000000E+00  0.35740347158E-01  0.35744000000E-01  0.51099999109E-03 0. -1.
       11   -1    0    0    0    0 -0.00000000000E+00 -0.00000000000E+00 -0.35740347158E-01  0.35744000000E-01  0.51099999109E-03 0. -1.
       22    1    1    2    0    0  0.30042336610E-02 -0.23334995332E-02 -0.35533968888E-01  0.35737005818E-01  0.00000000000E+00 0. -1.
  9000001    1    1    2    0    0 -0.30042336610E-02  0.23334995332E-02  0.35533968888E-01  0.35750994182E-01  0.10000000475E-02 0. -1.
</event>
<event>
 4   0  0.4958067E-02  0.9118800E+02  0.7818609E-02  0.1379984E+01
      -11   -1    0    0    0    0  0.00000000000E+00  0.00000000000E+00  0.35740347158E-01  0.35744000000E-01  0.51099999109E-03 0.  1.
       11   -1    0    0    0    0 -0.00000000000E+00 -0.00000000000E+00 -0.35740347158E-01  0.35744000000E-01  0.51099999109E-03 0. -1.
       22    1    1    2    0    0  0.10115563709E-02  0.43557438690E-02 -0.35456139580E-01  0.35737005818E-01  0.00000000000E+00 0. -1.
  9000001    1    1    2    0    0 -0.10115563709E-02 -0.43557438690E-02  0.35456139580E-01  0.35750994182E-01  0.10000000475E-02 0.  1.
</event>
<event>
 4   0  0.4958067E-02  0.9118800E+02  0.7818609E-02  0.1379984E+01
      -11   -1    0    0    0    0  0.00000000000E+00  0.00000000000E+00  0.35740347158E-01  0.35744000000E-01  0.51099999109E-03 0.  1.
       11   -1    0    0    0    0 -0.00000000000E+00 -0.00000000000E+00 -0.35740347158E-01  0.35744000000E-01  0.51099999109E-03 0. -1.
       22    1    1    2    0    0 -0.21233371191E-02 -0.54756001813E-02  0.35251139372E-01  0.35737005818E-01  0.00000000000E+00 0.  1.
  9000001    1    1    2    0    0  0.21233371191E-02  0.54756001813E-02 -0.35251139372E-01  0.35750994182E-01  0.10000000475E-02 0. -1.
</event>
<event>
 4   0  0.4958067E-02  0.9118800E+02  0.7818609E-02  0.1379984E+01
      -11   -1    0    0    0    0  0.00000000000E+00  0.00000000000E+00  0.35740347158E-01  0.35744000000E-01  0.51099999109E-03 0.  1.
       11   -1    0    0    0    0 -0.00000000000E+00 -0.00000000000E+00 -0.35740347158E-01  0.35744000000E-01  0.51099999109E-03 0. -1.
       22    1    1    2    0    0  0.77208248329E-02 -0.38849912224E-02 -0.34676062233E-01  0.35737005818E-01  0.00000000000E+00 0. -1.
  9000001    1    1    2    0    0 -0.77208248329E-02  0.38849912224E-02  0.34676062233E-01  0.35750994182E-01  0.10000000475E-02 0.  1.
</event>
<event>
 4   0  0.4958067E-02  0.9118800E+02  0.7818609E-02  0.1379984E+01
      -11   -1    0    0    0    0  0.00000000000E+00  0.00000000000E+00  0.35740347158E-01  0.35744000000E-01  0.51099999109E-03 0. -1.
       11   -1    0    0    0    0 -0.00000000000E+00 -0.00000000000E+00 -0.35740347158E-01  0.35744000000E-01  0.51099999109E-03 0.  1.
       22    1    1    2    0    0 -0.38047837481E-02  0.50281265925E-02  0.35176343592E-01  0.35737005818E-01  0.00000000000E+00 0. -1.
  9000001    1    1    2    0    0  0.38047837481E-02 -0.50281265925E-02 -0.35176343592E-01  0.35750994182E-01  0.10000000475E-02 0.  1.
</event>
<event>
 4   0  0.4958067E-02  0.9118800E+02  0.7818609E-02  0.1379984E+01
      -11   -1    0    0    0    0  0.00000000000E+00  0.00000000000E+00  0.35740347158E-01  0.35744000000E-01  0.51099999109E-03 0. -1.
       11   -1    0    0    0    0 -0.00000000000E+00 -0.00000000000E+00 -0.35740347158E-01  0.35744000000E-01  0.51099999109E-03 0.  1.
       22    1    1    2    0    0 -0.14719592406E-01 -0.13194374761E-01 -0.29772061718E-01  0.35737005818E-01  0.00000000000E+00 0.  1.
  9000001    1    1    2    0    0  0.14719592406E-01  0.13194374761E-01  0.29772061718E-01  0.35750994182E-01  0.10000000475E-02 0. -1.
</event>
<event>
 4   0  0.4958067E-02  0.9118800E+02  0.7818609E-02  0.1379984E+01
      -11   -1    0    0    0    0  0.00000000000E+00  0.00000000000E+00  0.35740347158E-01  0.35744000000E-01  0.51099999109E-03 0.  1.
       11   -1    0    0    0    0 -0.00000000000E+00 -0.00000000000E+00 -0.35740347158E-01  0.35744000000E-01  0.51099999109E-03 0. -1.
       22    1    1    2    0    0  0.89012026977E-02 -0.33896682228E-02 -0.34444336614E-01  0.35737005818E-01  0.00000000000E+00 0. -1.
  9000001    1    1    2    0    0 -0.89012026977E-02  0.33896682228E-02  0.34444336614E-01  0.35750994182E-01  0.10000000475E-02 0.  1.
</event>
<event>
 4   0  0.4958067E-02  0.9118800E+02  0.7818609E-02  0.1379984E+01
      -11   -1    0    0    0    0  0.00000000000E+00  0.00000000000E+00  0.35740347158E-01  0.35744000000E-01  0.51099999109E-03 0.  1.
       11   -1    0    0    0    0 -0.00000000000E+00 -0.00000000000E+00 -0.35740347158E-01  0.35744000000E-01  0.51099999109E-03 0. -1.
       22    1    1    2    0    0 -0.14184103225E-01 -0.91584260496E-02  0.31497111500E-01  0.35737005818E-01  0.00000000000E+00 0.  1.
  9000001    1    1    2    0    0  0.14184103225E-01  0.91584260496E-02 -0.31497111500E-01  0.35750994182E-01  0.10000000475E-02 0. -1.
</event>
<event>
 4   0  0.4958067E-02  0.9118800E+02  0.7818609E-02  0.1379984E+01
      -11   -1    0    0    0    0  0.00000000000E+00  0.00000000000E+00  0.35740347158E-01  0.35744000000E-01  0.51099999109E-03 0.  1.
       11   -1    0    0    0    0 -0.00000000000E+00 -0.00000000000E+00 -0.35740347158E-01  0.35744000000E-01  0.51099999109E-03 0. -1.
       22    1    1    2    0    0 -0.80001987543E-02 -0.41716190752E-02 -0.34579300153E-01  0.35737005818E-01  0.00000000000E+00 0. -1.
  9000001    1    1    2    0    0  0.80001987543E-02  0.41716190752E-02  0.34579300153E-01  0.35750994182E-01  0.10000000475E-02 0.  1.
</event>
<event>
 4   0  0.4958067E-02  0.9118800E+02  0.7818609E-02  0.1379984E+01
      -11   -1    0    0    0    0  0.00000000000E+00  0.00000000000E+00  0.35740347158E-01  0.35744000000E-01  0.51099999109E-03 0.  1.
       11   -1    0    0    0    0 -0.00000000000E+00 -0.00000000000E+00 -0.35740347158E-01  0.35744000000E-01  0.51099999109E-03 0. -1.
       22    1    1    2    0    0  0.29309017395E-02 -0.23103695629E-02 -0.35541603683E-01  0.35737005818E-01  0.00000000000E+00 0. -1.
  9000001    1    1    2    0    0 -0.29309017395E-02  0.23103695629E-02  0.35541603683E-01  0.35750994182E-01  0.10000000475E-02 0.  1.
</event>
<event>
 4   0  0.4958067E-02  0.9118800E+02  0.7818609E-02  0.1379984E+01
      -11   -1    0    0    0    0  0.00000000000E+00  0.00000000000E+00  0.35740347158E-01  0.35744000000E-01  0.51099999109E-03 0.  1.
       11   -1    0    0    0    0 -0.00000000000E+00 -0.00000000000E+00 -0.35740347158E-01  0.35744000000E-01  0.51099999109E-03 0. -1.
       22    1    1    2    0    0 -0.19283176122E-01  0.23320432198E-01 -0.19011842247E-01  0.35737005818E-01  0.00000000000E+00 0. -1.
  9000001    1    1    2    0    0  0.19283176122E-01 -0.23320432198E-01  0.19011842247E-01  0.35750994182E-01  0.10000000475E-02 0.  1.
</event>
<event>
 4   0  0.4958067E-02  0.9118800E+02  0.7818609E-02  0.1379984E+01
      -11   -1    0    0    0    0  0.00000000000E+00  0.00000000000E+00  0.35740347158E-01  0.35744000000E-01  0.51099999109E-03 0.  1.
       11   -1    0    0    0    0 -0.00000000000E+00 -0.00000000000E+00 -0.35740347158E-01  0.35744000000E-01  0.51099999109E-03 0. -1.
       22    1    1    2    0    0 -0.70182400121E-02  0.68562249885E-02 -0.34363790113E-01  0.35737005818E-01  0.00000000000E+00 0. -1.
  9000001    1    1    2    0    0  0.70182400121E-02 -0.68562249885E-02  0.34363790113E-01  0.35750994182E-01  0.10000000475E-02 0.  1.
</event>
<event>
 4   0  0.4958067E-02  0.9118800E+02  0.7818609E-02  0.1379984E+01
      -11   -1    0    0    0    0  0.00000000000E+00  0.00000000000E+00  0.35740347158E-01  0.35744000000E-01  0.51099999109E-03 0.  1.
       11   -1    0    0    0    0 -0.00000000000E+00 -0.00000000000E+00 -0.35740347158E-01  0.35744000000E-01  0.51099999109E-03 0. -1.
       22    1    1    2    0    0 -0.11679980396E-02  0.19585074454E-01  0.29869620421E-01  0.35737005818E-01  0.00000000000E+00 0.  1.
  9000001    1    1    2    0    0  0.11679980396E-02 -0.19585074454E-01 -0.29869620421E-01  0.35750994182E-01  0.10000000475E-02 0. -1.
</event>
<event>
 4   0  0.4958067E-02  0.9118800E+02  0.7818609E-02  0.1379984E+01
      -11   -1    0    0    0    0  0.00000000000E+00  0.00000000000E+00  0.35740347158E-01  0.35744000000E-01  0.51099999109E-03 0.  1.
       11   -1    0    0    0    0 -0.00000000000E+00 -0.00000000000E+00 -0.35740347158E-01  0.35744000000E-01  0.51099999109E-03 0. -1.
       22    1    1    2    0    0 -0.27637510562E-01 -0.12405094125E-01 -0.18958249775E-01  0.35737005818E-01  0.00000000000E+00 0.  1.
  9000001    1    1    2    0    0  0.27637510562E-01  0.12405094125E-01  0.18958249775E-01  0.35750994182E-01  0.10000000475E-02 0. -1.
</event>
<event>
 4   0  0.4958067E-02  0.9118800E+02  0.7818609E-02  0.1379984E+01
      -11   -1    0    0    0    0  0.00000000000E+00  0.00000000000E+00  0.35740347158E-01  0.35744000000E-01  0.51099999109E-03 0. -1.
       11   -1    0    0    0    0 -0.00000000000E+00 -0.00000000000E+00 -0.35740347158E-01  0.35744000000E-01  0.51099999109E-03 0.  1.
       22    1    1    2    0    0  0.25326043340E-01  0.18733243308E-01 -0.16875743206E-01  0.35737005818E-01  0.00000000000E+00 0.  1.
  9000001    1    1    2    0    0 -0.25326043340E-01 -0.18733243308E-01  0.16875743206E-01  0.35750994182E-01  0.10000000475E-02 0. -1.
</event>
<event>
 4   0  0.4958067E-02  0.9118800E+02  0.7818609E-02  0.1379984E+01
      -11   -1    0    0    0    0  0.00000000000E+00  0.00000000000E+00  0.35740347158E-01  0.35744000000E-01  0.51099999109E-03 0. -1.
       11   -1    0    0    0    0 -0.00000000000E+00 -0.00000000000E+00 -0.35740347158E-01  0.35744000000E-01  0.51099999109E-03 0.  1.
       22    1    1    2    0    0 -0.35549496334E-02  0.13988295554E-03  0.35559476244E-01  0.35737005818E-01  0.00000000000E+00 0. -1.
  9000001    1    1    2    0    0  0.35549496334E-02 -0.13988295554E-03 -0.35559476244E-01  0.35750994182E-01  0.10000000475E-02 0.  1.
</event>
<event>
 4   0  0.4958067E-02  0.9118800E+02  0.7818609E-02  0.1379984E+01
      -11   -1    0    0    0    0  0.00000000000E+00  0.00000000000E+00  0.35740347158E-01  0.35744000000E-01  0.51099999109E-03 0. -1.
       11   -1    0    0    0    0 -0.00000000000E+00 -0.00000000000E+00 -0.35740347158E-01  0.35744000000E-01  0.51099999109E-03 0.  1.
       22    1    1    2    0    0 -0.16402837185E-01  0.80654158221E-02  0.30708786768E-01  0.35737005818E-01  0.00000000000E+00 0. -1.
  9000001    1    1    2    0    0  0.16402837185E-01 -0.80654158221E-02 -0.30708786768E-01  0.35750994182E-01  0.10000000475E-02 0.  1.
</event>
<event>
 4   0  0.4958067E-02  0.9118800E+02  0.7818609E-02  0.1379984E+01
      -11   -1    0    0    0    0  0.00000000000E+00  0.00000000000E+00  0.35740347158E-01  0.35744000000E-01  0.51099999109E-03 0. -1.
       11   -1    0    0    0    0 -0.00000000000E+00 -0.00000000000E+00 -0.35740347158E-01  0.35744000000E-01  0.51099999109E-03 0.  1.
       22    1    1    2    0    0  0.17656742294E-01 -0.74467147475E-02 -0.30164871555E-01  0.35737005818E-01  0.00000000000E+00 0.  1.
  9000001    1    1    2    0    0 -0.17656742294E-01  0.74467147475E-02  0.30164871555E-01  0.35750994182E-01  0.10000000475E-02 0. -1.
</event>
<event>
 4   0  0.4958067E-02  0.9118800E+02  0.7818609E-02  0.1379984E+01
      -11   -1    0    0    0    0  0.00000000000E+00  0.00000000000E+00  0.35740347158E-01  0.35744000000E-01  0.51099999109E-03 0.  1.
       11   -1    0    0    0    0 -0.00000000000E+00 -0.00000000000E+00 -0.35740347158E-01  0.35744000000E-01  0.51099999109E-03 0. -1.
       22    1    1    2    0    0 -0.33125033912E-02 -0.21492954882E-02  0.35518184569E-01  0.35737005818E-01  0.00000000000E+00 0.  1.
  9000001    1    1    2    0    0  0.33125033912E-02  0.21492954882E-02 -0.35518184569E-01  0.35750994182E-01  0.10000000475E-02 0. -1.
</event>
<event>
 4   0  0.4958067E-02  0.9118800E+02  0.7818609E-02  0.1379984E+01
      -11   -1    0    0    0    0  0.00000000000E+00  0.00000000000E+00  0.35740347158E-01  0.35744000000E-01  0.51099999109E-03 0.  1.
       11   -1    0    0    0    0 -0.00000000000E+00 -0.00000000000E+00 -0.35740347158E-01  0.35744000000E-01  0.51099999109E-03 0. -1.
       22    1    1    2    0    0 -0.32073239181E-02  0.29928538156E-02  0.35466737716E-01  0.35737005818E-01  0.00000000000E+00 0.  1.
  9000001    1    1    2    0    0  0.32073239181E-02 -0.29928538156E-02 -0.35466737716E-01  0.35750994182E-01  0.10000000475E-02 0. -1.
</event>
<event>
 4   0  0.4958067E-02  0.9118800E+02  0.7818609E-02  0.1379984E+01
      -11   -1    0    0    0    0  0.00000000000E+00  0.00000000000E+00  0.35740347158E-01  0.35744000000E-01  0.51099999109E-03 0.  1.
       11   -1    0    0    0    0 -0.00000000000E+00 -0.00000000000E+00 -0.35740347158E-01  0.35744000000E-01  0.51099999109E-03 0. -1.
       22    1    1    2    0    0 -0.71311340433E-02 -0.24278491756E-03  0.35017446618E-01  0.35737005818E-01  0.00000000000E+00 0.  1.
  9000001    1    1    2    0    0  0.71311340433E-02  0.24278491756E-03 -0.35017446618E-01  0.35750994182E-01  0.10000000475E-02 0. -1.
</event>
<event>
 4   0  0.4958067E-02  0.9118800E+02  0.7818609E-02  0.1379984E+01
      -11   -1    0    0    0    0  0.00000000000E+00  0.00000000000E+00  0.35740347158E-01  0.35744000000E-01  0.51099999109E-03 0. -1.
       11   -1    0    0    0    0 -0.00000000000E+00 -0.00000000000E+00 -0.35740347158E-01  0.35744000000E-01  0.51099999109E-03 0.  1.
       22    1    1    2    0    0 -0.44337951550E-03 -0.48821786027E-02  0.35399171340E-01  0.35737005818E-01  0.00000000000E+00 0. -1.
  9000001    1    1    2    0    0  0.44337951550E-03  0.48821786027E-02 -0.35399171340E-01  0.35750994182E-01  0.10000000475E-02 0.  1.
</event>
<event>
 4   0  0.4958067E-02  0.9118800E+02  0.7818609E-02  0.1379984E+01
      -11   -1    0    0    0    0  0.00000000000E+00  0.00000000000E+00  0.35740347158E-01  0.35744000000E-01  0.51099999109E-03 0.  1.
       11   -1    0    0    0    0 -0.00000000000E+00 -0.00000000000E+00 -0.35740347158E-01  0.35744000000E-01  0.51099999109E-03 0. -1.
       22    1    1    2    0    0 -0.13792717292E-01  0.31281854410E-01  0.10408655978E-01  0.35737005818E-01  0.00000000000E+00 0. -1.
  9000001    1    1    2    0    0  0.13792717292E-01 -0.31281854410E-01 -0.10408655978E-01  0.35750994182E-01  0.10000000475E-02 0.  1.
</event>
<event>
 4   0  0.4958067E-02  0.9118800E+02  0.7818609E-02  0.1379984E+01
      -11   -1    0    0    0    0  0.00000000000E+00  0.00000000000E+00  0.35740347158E-01  0.35744000000E-01  0.51099999109E-03 0. -1.
       11   -1    0    0    0    0 -0.00000000000E+00 -0.00000000000E+00 -0.35740347158E-01  0.35744000000E-01  0.51099999109E-03 0.  1.
       22    1    1    2    0    0  0.30440367097E-01 -0.62283637360E-02  0.17655739040E-01  0.35737005818E-01  0.00000000000E+00 0.  1.
  9000001    1    1    2    0    0 -0.30440367097E-01  0.62283637360E-02 -0.17655739040E-01  0.35750994182E-01  0.10000000475E-02 0. -1.
</event>
<event>
 4   0  0.4958067E-02  0.9118800E+02  0.7818609E-02  0.1379984E+01
      -11   -1    0    0    0    0  0.00000000000E+00  0.00000000000E+00  0.35740347158E-01  0.35744000000E-01  0.51099999109E-03 0. -1.
       11   -1    0    0    0    0 -0.00000000000E+00 -0.00000000000E+00 -0.35740347158E-01  0.35744000000E-01  0.51099999109E-03 0.  1.
       22    1    1    2    0    0  0.15783864737E-01  0.66313616345E-02  0.31369224436E-01  0.35737005818E-01  0.00000000000E+00 0. -1.
  9000001    1    1    2    0    0 -0.15783864737E-01 -0.66313616345E-02 -0.31369224436E-01  0.35750994182E-01  0.10000000475E-02 0.  1.
</event>
<event>
 4   0  0.4958067E-02  0.9118800E+02  0.7818609E-02  0.1379984E+01
      -11   -1    0    0    0    0  0.00000000000E+00  0.00000000000E+00  0.35740347158E-01  0.35744000000E-01  0.51099999109E-03 0.  1.
       11   -1    0    0    0    0 -0.00000000000E+00 -0.00000000000E+00 -0.35740347158E-01  0.35744000000E-01  0.51099999109E-03 0. -1.
       22    1    1    2    0    0 -0.47539672514E-02  0.59578615595E-02  0.34914714174E-01  0.35737005818E-01  0.00000000000E+00 0.  1.
  9000001    1    1    2    0    0  0.47539672514E-02 -0.59578615595E-02 -0.34914714174E-01  0.35750994182E-01  0.10000000475E-02 0. -1.
</event>
<event>
 4   0  0.4958067E-02  0.9118800E+02  0.7818609E-02  0.1379984E+01
      -11   -1    0    0    0    0  0.00000000000E+00  0.00000000000E+00  0.35740347158E-01  0.35744000000E-01  0.51099999109E-03 0.  1.
       11   -1    0    0    0    0 -0.00000000000E+00 -0.00000000000E+00 -0.35740347158E-01  0.35744000000E-01  0.51099999109E-03 0. -1.
       22    1    1    2    0    0 -0.11514420774E-01  0.56456481009E-02  0.33356833732E-01  0.35737005818E-01  0.00000000000E+00 0.  1.
  9000001    1    1    2    0    0  0.11514420774E-01 -0.56456481009E-02 -0.33356833732E-01  0.35750994182E-01  0.10000000475E-02 0. -1.
</event>
<event>
 4   0  0.4958067E-02  0.9118800E+02  0.7818609E-02  0.1379984E+01
      -11   -1    0    0    0    0  0.00000000000E+00  0.00000000000E+00  0.35740347158E-01  0.35744000000E-01  0.51099999109E-03 0.  1.
       11   -1    0    0    0    0 -0.00000000000E+00 -0.00000000000E+00 -0.35740347158E-01  0.35744000000E-01  0.51099999109E-03 0. -1.
       22    1    1    2    0    0 -0.13271568800E-01  0.56134741083E-02 -0.32703026693E-01  0.35737005818E-01  0.00000000000E+00 0. -1.
  9000001    1    1    2    0    0  0.13271568800E-01 -0.56134741083E-02  0.32703026693E-01  0.35750994182E-01  0.10000000475E-02 0.  1.
</event>
<event>
 4   0  0.4958067E-02  0.9118800E+02  0.7818609E-02  0.1379984E+01
      -11   -1    0    0    0    0  0.00000000000E+00  0.00000000000E+00  0.35740347158E-01  0.35744000000E-01  0.51099999109E-03 0. -1.
       11   -1    0    0    0    0 -0.00000000000E+00 -0.00000000000E+00 -0.35740347158E-01  0.35744000000E-01  0.51099999109E-03 0.  1.
       22    1    1    2    0    0  0.63346419186E-02 -0.62427086980E-02 -0.34612634756E-01  0.35737005818E-01  0.00000000000E+00 0.  1.
  9000001    1    1    2    0    0 -0.63346419186E-02  0.62427086980E-02  0.34612634756E-01  0.35750994182E-01  0.10000000475E-02 0. -1.
</event>
<event>
 4   0  0.4958067E-02  0.9118800E+02  0.7818609E-02  0.1379984E+01
      -11   -1    0    0    0    0  0.00000000000E+00  0.00000000000E+00  0.35740347158E-01  0.35744000000E-01  0.51099999109E-03 0.  1.
       11   -1    0    0    0    0 -0.00000000000E+00 -0.00000000000E+00 -0.35740347158E-01  0.35744000000E-01  0.51099999109E-03 0. -1.
       22    1    1    2    0    0  0.14987582576E-03 -0.35511808337E-02 -0.35559812103E-01  0.35737005818E-01  0.00000000000E+00 0. -1.
  9000001    1    1    2    0    0 -0.14987582576E-03  0.35511808337E-02  0.35559812103E-01  0.35750994182E-01  0.10000000475E-02 0.  1.
</event>
<event>
 4   0  0.4958067E-02  0.9118800E+02  0.7818609E-02  0.1379984E+01
      -11   -1    0    0    0    0  0.00000000000E+00  0.00000000000E+00  0.35740347158E-01  0.35744000000E-01  0.51099999109E-03 0. -1.
       11   -1    0    0    0    0 -0.00000000000E+00 -0.00000000000E+00 -0.35740347158E-01  0.35744000000E-01  0.51099999109E-03 0.  1.
       22    1    1    2    0    0  0.22533739604E-01  0.17881132010E-01 -0.21204463738E-01  0.35737005818E-01  0.00000000000E+00 0.  1.
  9000001    1    1    2    0    0 -0.22533739604E-01 -0.17881132010E-01  0.21204463738E-01  0.35750994182E-01  0.10000000475E-02 0. -1.
</event>
<event>
 4   0  0.4958067E-02  0.9118800E+02  0.7818609E-02  0.1379984E+01
      -11   -1    0    0    0    0  0.00000000000E+00  0.00000000000E+00  0.35740347158E-01  0.35744000000E-01  0.51099999109E-03 0.  1.
       11   -1    0    0    0    0 -0.00000000000E+00 -0.00000000000E+00 -0.35740347158E-01  0.35744000000E-01  0.51099999109E-03 0. -1.
       22    1    1    2    0    0  0.41477808106E-02  0.38512688776E-02 -0.35285935261E-01  0.35737005818E-01  0.00000000000E+00 0. -1.
  9000001    1    1    2    0    0 -0.41477808106E-02 -0.38512688776E-02  0.35285935261E-01  0.35750994182E-01  0.10000000475E-02 0.  1.
</event>
<event>
 4   0  0.4958067E-02  0.9118800E+02  0.7818609E-02  0.1379984E+01
      -11   -1    0    0    0    0  0.00000000000E+00  0.00000000000E+00  0.35740347158E-01  0.35744000000E-01  0.51099999109E-03 0. -1.
       11   -1    0    0    0    0 -0.00000000000E+00 -0.00000000000E+00 -0.35740347158E-01  0.35744000000E-01  0.51099999109E-03 0.  1.
       22    1    1    2    0    0 -0.53478041321E-02 -0.34455172128E-03 -0.35332928833E-01  0.35737005818E-01  0.00000000000E+00 0.  1.
  9000001    1    1    2    0    0  0.53478041321E-02  0.34455172128E-03  0.35332928833E-01  0.35750994182E-01  0.10000000475E-02 0. -1.
</event>
<event>
 4   0  0.4958067E-02  0.9118800E+02  0.7818609E-02  0.1379984E+01
      -11   -1    0    0    0    0  0.00000000000E+00  0.00000000000E+00  0.35740347158E-01  0.35744000000E-01  0.51099999109E-03 0. -1.
       11   -1    0    0    0    0 -0.00000000000E+00 -0.00000000000E+00 -0.35740347158E-01  0.35744000000E-01  0.51099999109E-03 0.  1.
       22    1    1    2    0    0 -0.30332542691E-01  0.10896985339E-01 -0.15437815561E-01  0.35737005818E-01  0.00000000000E+00 0.  1.
  9000001    1    1    2    0    0  0.30332542691E-01 -0.10896985339E-01  0.15437815561E-01  0.35750994182E-01  0.10000000475E-02 0. -1.
</event>
<event>
 4   0  0.4958067E-02  0.9118800E+02  0.7818609E-02  0.1379984E+01
      -11   -1    0    0    0    0  0.00000000000E+00  0.00000000000E+00  0.35740347158E-01  0.35744000000E-01  0.51099999109E-03 0. -1.
       11   -1    0    0    0    0 -0.00000000000E+00 -0.00000000000E+00 -0.35740347158E-01  0.35744000000E-01  0.51099999109E-03 0.  1.
       22    1    1    2    0    0  0.83955292412E-02  0.14286888365E-01 -0.31662809327E-01  0.35737005818E-01  0.00000000000E+00 0.  1.
  9000001    1    1    2    0    0 -0.83955292412E-02 -0.14286888365E-01  0.31662809327E-01  0.35750994182E-01  0.10000000475E-02 0. -1.
</event>
<event>
 4   0  0.4958067E-02  0.9118800E+02  0.7818609E-02  0.1379984E+01
      -11   -1    0    0    0    0  0.00000000000E+00  0.00000000000E+00  0.35740347158E-01  0.35744000000E-01  0.51099999109E-03 0. -1.
       11   -1    0    0    0    0 -0.00000000000E+00 -0.00000000000E+00 -0.35740347158E-01  0.35744000000E-01  0.51099999109E-03 0.  1.
       22    1    1    2    0    0  0.70123977408E-03  0.53954774815E-02  0.35320400202E-01  0.35737005818E-01  0.00000000000E+00 0. -1.
  9000001    1    1    2    0    0 -0.70123977408E-03 -0.53954774815E-02 -0.35320400202E-01  0.35750994182E-01  0.10000000475E-02 0.  1.
</event>
<event>
 4   0  0.4958067E-02  0.9118800E+02  0.7818609E-02  0.1379984E+01
      -11   -1    0    0    0    0  0.00000000000E+00  0.00000000000E+00  0.35740347158E-01  0.35744000000E-01  0.51099999109E-03 0. -1.
       11   -1    0    0    0    0 -0.00000000000E+00 -0.00000000000E+00 -0.35740347158E-01  0.35744000000E-01  0.51099999109E-03 0.  1.
       22    1    1    2    0    0 -0.18390620969E-02  0.60932752255E-02 -0.35165657004E-01  0.35737005818E-01  0.00000000000E+00 0.  1.
  9000001    1    1    2    0    0  0.18390620969E-02 -0.60932752255E-02  0.35165657004E-01  0.35750994182E-01  0.10000000475E-02 0. -1.
</event>
<event>
 4   0  0.4958067E-02  0.9118800E+02  0.7818609E-02  0.1379984E+01
      -11   -1    0    0    0    0  0.00000000000E+00  0.00000000000E+00  0.35740347158E-01  0.35744000000E-01  0.51099999109E-03 0.  1.
       11   -1    0    0    0    0 -0.00000000000E+00 -0.00000000000E+00 -0.35740347158E-01  0.35744000000E-01  0.51099999109E-03 0. -1.
       22    1    1    2    0    0  0.20204910777E-01 -0.91547842830E-02 -0.28019369909E-01  0.35737005818E-01  0.00000000000E+00 0. -1.
  9000001    1    1    2    0    0 -0.20204910777E-01  0.91547842830E-02  0.28019369909E-01  0.35750994182E-01  0.10000000475E-02 0.  1.
</event>
<event>
 4   0  0.4958067E-02  0.9118800E+02  0.7818609E-02  0.1379984E+01
      -11   -1    0    0    0    0  0.00000000000E+00  0.00000000000E+00  0.35740347158E-01  0.35744000000E-01  0.51099999109E-03 0. -1.
       11   -1    0    0    0    0 -0.00000000000E+00 -0.00000000000E+00 -0.35740347158E-01  0.35744000000E-01  0.51099999109E-03 0.  1.
       22    1    1    2    0    0  0.11104718126E-02 -0.30974598745E-02 -0.35585196073E-01  0.35737005818E-01  0.00000000000E+00 0.  1.
  9000001    1    1    2    0    0 -0.11104718126E-02  0.30974598745E-02  0.35585196073E-01  0.35750994182E-01  0.10000000475E-02 0. -1.
</event>
<event>
 4   0  0.4958067E-02  0.9118800E+02  0.7818609E-02  0.1379984E+01
      -11   -1    0    0    0    0  0.00000000000E+00  0.00000000000E+00  0.35740347158E-01  0.35744000000E-01  0.51099999109E-03 0. -1.
       11   -1    0    0    0    0 -0.00000000000E+00 -0.00000000000E+00 -0.35740347158E-01  0.35744000000E-01  0.51099999109E-03 0.  1.
       22    1    1    2    0    0  0.33807931559E-01  0.22088307209E-02  0.11370066642E-01  0.35737005818E-01  0.00000000000E+00 0.  1.
  9000001    1    1    2    0    0 -0.33807931559E-01 -0.22088307209E-02 -0.11370066642E-01  0.35750994182E-01  0.10000000475E-02 0. -1.
</event>
<event>
 4   0  0.4958067E-02  0.9118800E+02  0.7818609E-02  0.1379984E+01
      -11   -1    0    0    0    0  0.00000000000E+00  0.00000000000E+00  0.35740347158E-01  0.35744000000E-01  0.51099999109E-03 0.  1.
       11   -1    0    0    0    0 -0.00000000000E+00 -0.00000000000E+00 -0.35740347158E-01  0.35744000000E-01  0.51099999109E-03 0. -1.
       22    1    1    2    0    0  0.51795622792E-02 -0.78143107542E-03 -0.35351026646E-01  0.35737005818E-01  0.00000000000E+00 0. -1.
  9000001    1    1    2    0    0 -0.51795622792E-02  0.78143107542E-03  0.35351026646E-01  0.35750994182E-01  0.10000000475E-02 0.  1.
</event>
<event>
 4   0  0.4958067E-02  0.9118800E+02  0.7818609E-02  0.1379984E+01
      -11   -1    0    0    0    0  0.00000000000E+00  0.00000000000E+00  0.35740347158E-01  0.35744000000E-01  0.51099999109E-03 0. -1.
       11   -1    0    0    0    0 -0.00000000000E+00 -0.00000000000E+00 -0.35740347158E-01  0.35744000000E-01  0.51099999109E-03 0.  1.
       22    1    1    2    0    0  0.50940098944E-02 -0.35655060507E-02  0.35191928260E-01  0.35737005818E-01  0.00000000000E+00 0. -1.
  9000001    1    1    2    0    0 -0.50940098944E-02  0.35655060507E-02 -0.35191928260E-01  0.35750994182E-01  0.10000000475E-02 0.  1.
</event>
<event>
 4   0  0.4958067E-02  0.9118800E+02  0.7818609E-02  0.1379984E+01
      -11   -1    0    0    0    0  0.00000000000E+00  0.00000000000E+00  0.35740347158E-01  0.35744000000E-01  0.51099999109E-03 0. -1.
       11   -1    0    0    0    0 -0.00000000000E+00 -0.00000000000E+00 -0.35740347158E-01  0.35744000000E-01  0.51099999109E-03 0.  1.
       22    1    1    2    0    0  0.21895237145E-02  0.25266039234E-02  0.35580273234E-01  0.35737005818E-01  0.00000000000E+00 0. -1.
  9000001    1    1    2    0    0 -0.21895237145E-02 -0.25266039234E-02 -0.35580273234E-01  0.35750994182E-01  0.10000000475E-02 0.  1.
</event>
<event>
 4   0  0.4958067E-02  0.9118800E+02  0.7818609E-02  0.1379984E+01
      -11   -1    0    0    0    0  0.00000000000E+00  0.00000000000E+00  0.35740347158E-01  0.35744000000E-01  0.51099999109E-03 0.  1.
       11   -1    0    0    0    0 -0.00000000000E+00 -0.00000000000E+00 -0.35740347158E-01  0.35744000000E-01  0.51099999109E-03 0. -1.
       22    1    1    2    0    0  0.62906968283E-02 -0.13435230908E-02 -0.35153316543E-01  0.35737005818E-01  0.00000000000E+00 0. -1.
  9000001    1    1    2    0    0 -0.62906968283E-02  0.13435230908E-02  0.35153316543E-01  0.35750994182E-01  0.10000000475E-02 0.  1.
</event>
<event>
 4   0  0.4958067E-02  0.9118800E+02  0.7818609E-02  0.1379984E+01
      -11   -1    0    0    0    0  0.00000000000E+00  0.00000000000E+00  0.35740347158E-01  0.35744000000E-01  0.51099999109E-03 0.  1.
       11   -1    0    0    0    0 -0.00000000000E+00 -0.00000000000E+00 -0.35740347158E-01  0.35744000000E-01  0.51099999109E-03 0. -1.
       22    1    1    2    0    0 -0.15865354110E-01  0.11272705935E-02 -0.32002396549E-01  0.35737005818E-01  0.00000000000E+00 0. -1.
  9000001    1    1    2    0    0  0.15865354110E-01 -0.11272705935E-02  0.32002396549E-01  0.35750994182E-01  0.10000000475E-02 0.  1.
</event>
<event>
 4   0  0.4958067E-02  0.9118800E+02  0.7818609E-02  0.1379984E+01
      -11   -1    0    0    0    0  0.00000000000E+00  0.00000000000E+00  0.35740347158E-01  0.35744000000E-01  0.51099999109E-03 0. -1.
       11   -1    0    0    0    0 -0.00000000000E+00 -0.00000000000E+00 -0.35740347158E-01  0.35744000000E-01  0.51099999109E-03 0.  1.
       22    1    1    2    0    0  0.18110850292E-02 -0.66986968860E-02 -0.35056825525E-01  0.35737005818E-01  0.00000000000E+00 0.  1.
  9000001    1    1    2    0    0 -0.18110850292E-02  0.66986968860E-02  0.35056825525E-01  0.35750994182E-01  0.10000000475E-02 0. -1.
</event>
<event>
 4   0  0.4958067E-02  0.9118800E+02  0.7818609E-02  0.1379984E+01
      -11   -1    0    0    0    0  0.00000000000E+00  0.00000000000E+00  0.35740347158E-01  0.35744000000E-01  0.51099999109E-03 0.  1.
       11   -1    0    0    0    0 -0.00000000000E+00 -0.00000000000E+00 -0.35740347158E-01  0.35744000000E-01  0.51099999109E-03 0. -1.
       22    1    1    2    0    0 -0.11927033384E-01  0.26992312162E-02  0.33579660665E-01  0.35737005818E-01  0.00000000000E+00 0.  1.
  9000001    1    1    2    0    0  0.11927033384E-01 -0.26992312162E-02 -0.33579660665E-01  0.35750994182E-01  0.10000000475E-02 0. -1.
</event>
<event>
 4   0  0.4958067E-02  0.9118800E+02  0.7818609E-02  0.1379984E+01
      -11   -1    0    0    0    0  0.00000000000E+00  0.00000000000E+00  0.35740347158E-01  0.35744000000E-01  0.51099999109E-03 0. -1.
       11   -1    0    0    0    0 -0.00000000000E+00 -0.00000000000E+00 -0.35740347158E-01  0.35744000000E-01  0.51099999109E-03 0.  1.
       22    1    1    2    0    0 -0.30878813585E-03 -0.10825753645E-01 -0.34056442750E-01  0.35737005818E-01  0.00000000000E+00 0.  1.
  9000001    1    1    2    0    0  0.30878813585E-03  0.10825753645E-01  0.34056442750E-01  0.35750994182E-01  0.10000000475E-02 0. -1.
</event>
<event>
 4   0  0.4958067E-02  0.9118800E+02  0.7818609E-02  0.1379984E+01
      -11   -1    0    0    0    0  0.00000000000E+00  0.00000000000E+00  0.35740347158E-01  0.35744000000E-01  0.51099999109E-03 0.  1.
       11   -1    0    0    0    0 -0.00000000000E+00 -0.00000000000E+00 -0.35740347158E-01  0.35744000000E-01  0.51099999109E-03 0. -1.
       22    1    1    2    0    0  0.53246735683E-03  0.47383557105E-02  0.35417482245E-01  0.35737005818E-01  0.00000000000E+00 0.  1.
  9000001    1    1    2    0    0 -0.53246735683E-03 -0.47383557105E-02 -0.35417482245E-01  0.35750994182E-01  0.10000000475E-02 0. -1.
</event>
<event>
 4   0  0.4958067E-02  0.9118800E+02  0.7818609E-02  0.1379984E+01
      -11   -1    0    0    0    0  0.00000000000E+00  0.00000000000E+00  0.35740347158E-01  0.35744000000E-01  0.51099999109E-03 0.  1.
       11   -1    0    0    0    0 -0.00000000000E+00 -0.00000000000E+00 -0.35740347158E-01  0.35744000000E-01  0.51099999109E-03 0. -1.
       22    1    1    2    0    0 -0.19747597548E-01  0.29216452440E-01  0.57935207602E-02  0.35737005818E-01  0.00000000000E+00 0.  1.
  9000001    1    1    2    0    0  0.19747597548E-01 -0.29216452440E-01 -0.57935207602E-02  0.35750994182E-01  0.10000000475E-02 0. -1.
</event>
<event>
 4   0  0.4958067E-02  0.9118800E+02  0.7818609E-02  0.1379984E+01
      -11   -1    0    0    0    0  0.00000000000E+00  0.00000000000E+00  0.35740347158E-01  0.35744000000E-01  0.51099999109E-03 0. -1.
       11   -1    0    0    0    0 -0.00000000000E+00 -0.00000000000E+00 -0.35740347158E-01  0.35744000000E-01  0.51099999109E-03 0.  1.
       22    1    1    2    0    0  0.63703380619E-03  0.34491902067E-02  0.35564460627E-01  0.35737005818E-01  0.00000000000E+00 0. -1.
  9000001    1    1    2    0    0 -0.63703380619E-03 -0.34491902067E-02 -0.35564460627E-01  0.35750994182E-01  0.10000000475E-02 0.  1.
</event>
<event>
 4   0  0.4958067E-02  0.9118800E+02  0.7818609E-02  0.1379984E+01
      -11   -1    0    0    0    0  0.00000000000E+00  0.00000000000E+00  0.35740347158E-01  0.35744000000E-01  0.51099999109E-03 0.  1.
       11   -1    0    0    0    0 -0.00000000000E+00 -0.00000000000E+00 -0.35740347158E-01  0.35744000000E-01  0.51099999109E-03 0. -1.
       22    1    1    2    0    0 -0.10051771495E-01 -0.96376043394E-03  0.34280703617E-01  0.35737005818E-01  0.00000000000E+00 0.  1.
  9000001    1    1    2    0    0  0.10051771495E-01  0.96376043394E-03 -0.34280703617E-01  0.35750994182E-01  0.10000000475E-02 0. -1.
</event>
<event>
 4   0  0.4958067E-02  0.9118800E+02  0.7818609E-02  0.1379984E+01
      -11   -1    0    0    0    0  0.00000000000E+00  0.00000000000E+00  0.35740347158E-01  0.35744000000E-01  0.51099999109E-03 0.  1.
       11   -1    0    0    0    0 -0.00000000000E+00 -0.00000000000E+00 -0.35740347158E-01  0.35744000000E-01  0.51099999109E-03 0. -1.
       22    1    1    2    0    0  0.19328510244E-01 -0.17702939074E-01  0.24292966570E-01  0.35737005818E-01  0.00000000000E+00 0. -1.
  9000001    1    1    2    0    0 -0.19328510244E-01  0.17702939074E-01 -0.24292966570E-01  0.35750994182E-01  0.10000000475E-02 0.  1.
</event>
<event>
 4   0  0.4958067E-02  0.9118800E+02  0.7818609E-02  0.1379984E+01
      -11   -1    0    0    0    0  0.00000000000E+00  0.00000000000E+00  0.35740347158E-01  0.35744000000E-01  0.51099999109E-03 0.  1.
       11   -1    0    0    0    0 -0.00000000000E+00 -0.00000000000E+00 -0.35740347158E-01  0.35744000000E-01  0.51099999109E-03 0. -1.
       22    1    1    2    0    0 -0.26610395488E-02  0.33546965657E-02 -0.35479549946E-01  0.35737005818E-01  0.00000000000E+00 0. -1.
  9000001    1    1    2    0    0  0.26610395488E-02 -0.33546965657E-02  0.35479549946E-01  0.35750994182E-01  0.10000000475E-02 0.  1.
</event>
<event>
 4   0  0.4958067E-02  0.9118800E+02  0.7818609E-02  0.1379984E+01
      -11   -1    0    0    0    0  0.00000000000E+00  0.00000000000E+00  0.35740347158E-01  0.35744000000E-01  0.51099999109E-03 0. -1.
       11   -1    0    0    0    0 -0.00000000000E+00 -0.00000000000E+00 -0.35740347158E-01  0.35744000000E-01  0.51099999109E-03 0.  1.
       22    1    1    2    0    0  0.48620229632E-02 -0.50078897222E-03  0.35401179754E-01  0.35737005818E-01  0.00000000000E+00 0. -1.
  9000001    1    1    2    0    0 -0.48620229632E-02  0.50078897222E-03 -0.35401179754E-01  0.35750994182E-01  0.10000000475E-02 0.  1.
</event>
<event>
 4   0  0.4958067E-02  0.9118800E+02  0.7818609E-02  0.1379984E+01
      -11   -1    0    0    0    0  0.00000000000E+00  0.00000000000E+00  0.35740347158E-01  0.35744000000E-01  0.51099999109E-03 0.  1.
       11   -1    0    0    0    0 -0.00000000000E+00 -0.00000000000E+00 -0.35740347158E-01  0.35744000000E-01  0.51099999109E-03 0. -1.
       22    1    1    2    0    0  0.11700716579E-01  0.15708972560E-02 -0.33730684817E-01  0.35737005818E-01  0.00000000000E+00 0. -1.
  9000001    1    1    2    0    0 -0.11700716579E-01 -0.15708972560E-02  0.33730684817E-01  0.35750994182E-01  0.10000000475E-02 0.  1.
</event>
<event>
 4   0  0.4958067E-02  0.9118800E+02  0.7818609E-02  0.1379984E+01
      -11   -1    0    0    0    0  0.00000000000E+00  0.00000000000E+00  0.35740347158E-01  0.35744000000E-01  0.51099999109E-03 0. -1.
       11   -1    0    0    0    0 -0.00000000000E+00 -0.00000000000E+00 -0.35740347158E-01  0.35744000000E-01  0.51099999109E-03 0.  1.
       22    1    1    2    0    0 -0.16001157070E-01 -0.18523092650E-01  0.26038271755E-01  0.35737005818E-01  0.00000000000E+00 0. -1.
  9000001    1    1    2    0    0  0.16001157070E-01  0.18523092650E-01 -0.26038271755E-01  0.35750994182E-01  0.10000000475E-02 0.  1.
</event>
<event>
 4   0  0.4958067E-02  0.9118800E+02  0.7818609E-02  0.1379984E+01
      -11   -1    0    0    0    0  0.00000000000E+00  0.00000000000E+00  0.35740347158E-01  0.35744000000E-01  0.51099999109E-03 0. -1.
       11   -1    0    0    0    0 -0.00000000000E+00 -0.00000000000E+00 -0.35740347158E-01  0.35744000000E-01  0.51099999109E-03 0.  1.
       22    1    1    2    0    0  0.20874464311E-03  0.39156685300E-02  0.35521226760E-01  0.35737005818E-01  0.00000000000E+00 0. -1.
  9000001    1    1    2    0    0 -0.20874464311E-03 -0.39156685300E-02 -0.35521226760E-01  0.35750994182E-01  0.10000000475E-02 0.  1.
</event>
<event>
 4   0  0.4958067E-02  0.9118800E+02  0.7818609E-02  0.1379984E+01
      -11   -1    0    0    0    0  0.00000000000E+00  0.00000000000E+00  0.35740347158E-01  0.35744000000E-01  0.51099999109E-03 0. -1.
       11   -1    0    0    0    0 -0.00000000000E+00 -0.00000000000E+00 -0.35740347158E-01  0.35744000000E-01  0.51099999109E-03 0.  1.
       22    1    1    2    0    0  0.24607653283E-02 -0.29932020936E-02 -0.35526313629E-01  0.35737005818E-01  0.00000000000E+00 0.  1.
  9000001    1    1    2    0    0 -0.24607653283E-02  0.29932020936E-02  0.35526313629E-01  0.35750994182E-01  0.10000000475E-02 0. -1.
</event>
<event>
 4   0  0.4958067E-02  0.9118800E+02  0.7818609E-02  0.1379984E+01
      -11   -1    0    0    0    0  0.00000000000E+00  0.00000000000E+00  0.35740347158E-01  0.35744000000E-01  0.51099999109E-03 0. -1.
       11   -1    0    0    0    0 -0.00000000000E+00 -0.00000000000E+00 -0.35740347158E-01  0.35744000000E-01  0.51099999109E-03 0.  1.
       22    1    1    2    0    0  0.30807113917E-02 -0.61052082997E-02  0.35076619475E-01  0.35737005818E-01  0.00000000000E+00 0. -1.
  9000001    1    1    2    0    0 -0.30807113917E-02  0.61052082997E-02 -0.35076619475E-01  0.35750994182E-01  0.10000000475E-02 0.  1.
</event>
<event>
 4   0  0.4958067E-02  0.9118800E+02  0.7818609E-02  0.1379984E+01
      -11   -1    0    0    0    0  0.00000000000E+00  0.00000000000E+00  0.35740347158E-01  0.35744000000E-01  0.51099999109E-03 0. -1.
       11   -1    0    0    0    0 -0.00000000000E+00 -0.00000000000E+00 -0.35740347158E-01  0.35744000000E-01  0.51099999109E-03 0.  1.
       22    1    1    2    0    0  0.91158649046E-02 -0.41743771931E-02  0.34301737084E-01  0.35737005818E-01  0.00000000000E+00 0. -1.
  9000001    1    1    2    0    0 -0.91158649046E-02  0.41743771931E-02 -0.34301737084E-01  0.35750994182E-01  0.10000000475E-02 0.  1.
</event>
<event>
 4   0  0.4958067E-02  0.9118800E+02  0.7818609E-02  0.1379984E+01
      -11   -1    0    0    0    0  0.00000000000E+00  0.00000000000E+00  0.35740347158E-01  0.35744000000E-01  0.51099999109E-03 0.  1.
       11   -1    0    0    0    0 -0.00000000000E+00 -0.00000000000E+00 -0.35740347158E-01  0.35744000000E-01  0.51099999109E-03 0. -1.
       22    1    1    2    0    0  0.19532207898E-02  0.26117533580E-02 -0.35587880772E-01  0.35737005818E-01  0.00000000000E+00 0. -1.
  9000001    1    1    2    0    0 -0.19532207898E-02 -0.26117533580E-02  0.35587880772E-01  0.35750994182E-01  0.10000000475E-02 0.  1.
</event>
<event>
 4   0  0.4958067E-02  0.9118800E+02  0.7818609E-02  0.1379984E+01
      -11   -1    0    0    0    0  0.00000000000E+00  0.00000000000E+00  0.35740347158E-01  0.35744000000E-01  0.51099999109E-03 0. -1.
       11   -1    0    0    0    0 -0.00000000000E+00 -0.00000000000E+00 -0.35740347158E-01  0.35744000000E-01  0.51099999109E-03 0.  1.
       22    1    1    2    0    0 -0.17114065133E-01  0.29710883648E-01  0.10075006320E-01  0.35737005818E-01  0.00000000000E+00 0. -1.
  9000001    1    1    2    0    0  0.17114065133E-01 -0.29710883648E-01 -0.10075006320E-01  0.35750994182E-01  0.10000000475E-02 0.  1.
</event>
<event>
 4   0  0.4958067E-02  0.9118800E+02  0.7818609E-02  0.1379984E+01
      -11   -1    0    0    0    0  0.00000000000E+00  0.00000000000E+00  0.35740347158E-01  0.35744000000E-01  0.51099999109E-03 0.  1.
       11   -1    0    0    0    0 -0.00000000000E+00 -0.00000000000E+00 -0.35740347158E-01  0.35744000000E-01  0.51099999109E-03 0. -1.
       22    1    1    2    0    0 -0.22971432095E-02 -0.10986064735E-01 -0.33928794550E-01  0.35737005818E-01  0.00000000000E+00 0. -1.
  9000001    1    1    2    0    0  0.22971432095E-02  0.10986064735E-01  0.33928794550E-01  0.35750994182E-01  0.10000000475E-02 0.  1.
</event>
<event>
 4   0  0.4958067E-02  0.9118800E+02  0.7818609E-02  0.1379984E+01
      -11   -1    0    0    0    0  0.00000000000E+00  0.00000000000E+00  0.35740347158E-01  0.35744000000E-01  0.51099999109E-03 0.  1.
       11   -1    0    0    0    0 -0.00000000000E+00 -0.00000000000E+00 -0.35740347158E-01  0.35744000000E-01  0.51099999109E-03 0. -1.
       22    1    1    2    0    0 -0.27723506626E-03 -0.43907214287E-02 -0.35465170110E-01  0.35737005818E-01  0.00000000000E+00 0. -1.
  9000001    1    1    2    0    0  0.27723506626E-03  0.43907214287E-02  0.35465170110E-01  0.35750994182E-01  0.10000000475E-02 0.  1.
</event>
<event>
 4   0  0.4958067E-02  0.9118800E+02  0.7818609E-02  0.1379984E+01
      -11   -1    0    0    0    0  0.00000000000E+00  0.00000000000E+00  0.35740347158E-01  0.35744000000E-01  0.51099999109E-03 0.  1.
       11   -1    0    0    0    0 -0.00000000000E+00 -0.00000000000E+00 -0.35740347158E-01  0.35744000000E-01  0.51099999109E-03 0. -1.
       22    1    1    2    0    0 -0.70203888102E-02 -0.45672018097E-02 -0.34741738492E-01  0.35737005818E-01  0.00000000000E+00 0. -1.
  9000001    1    1    2    0    0  0.70203888102E-02  0.45672018097E-02  0.34741738492E-01  0.35750994182E-01  0.10000000475E-02 0.  1.
</event>
<event>
 4   0  0.4958067E-02  0.9118800E+02  0.7818609E-02  0.1379984E+01
      -11   -1    0    0    0    0  0.00000000000E+00  0.00000000000E+00  0.35740347158E-01  0.35744000000E-01  0.51099999109E-03 0. -1.
       11   -1    0    0    0    0 -0.00000000000E+00 -0.00000000000E+00 -0.35740347158E-01  0.35744000000E-01  0.51099999109E-03 0.  1.
       22    1    1    2    0    0 -0.40107504672E-02  0.27914565072E-02  0.35401345118E-01  0.35737005818E-01  0.00000000000E+00 0. -1.
  9000001    1    1    2    0    0  0.40107504672E-02 -0.27914565072E-02 -0.35401345118E-01  0.35750994182E-01  0.10000000475E-02 0.  1.
</event>
<event>
 4   0  0.4958067E-02  0.9118800E+02  0.7818609E-02  0.1379984E+01
      -11   -1    0    0    0    0  0.00000000000E+00  0.00000000000E+00  0.35740347158E-01  0.35744000000E-01  0.51099999109E-03 0.  1.
       11   -1    0    0    0    0 -0.00000000000E+00 -0.00000000000E+00 -0.35740347158E-01  0.35744000000E-01  0.51099999109E-03 0. -1.
       22    1    1    2    0    0 -0.41770408858E-02  0.16882475149E-02 -0.35451879141E-01  0.35737005818E-01  0.00000000000E+00 0. -1.
  9000001    1    1    2    0    0  0.41770408858E-02 -0.16882475149E-02  0.35451879141E-01  0.35750994182E-01  0.10000000475E-02 0.  1.
</event>
<event>
 4   0  0.4958067E-02  0.9118800E+02  0.7818609E-02  0.1379984E+01
      -11   -1    0    0    0    0  0.00000000000E+00  0.00000000000E+00  0.35740347158E-01  0.35744000000E-01  0.51099999109E-03 0. -1.
       11   -1    0    0    0    0 -0.00000000000E+00 -0.00000000000E+00 -0.35740347158E-01  0.35744000000E-01  0.51099999109E-03 0.  1.
       22    1    1    2    0    0 -0.30433767521E-01 -0.88883969244E-02  0.16489868994E-01  0.35737005818E-01  0.00000000000E+00 0. -1.
  9000001    1    1    2    0    0  0.30433767521E-01  0.88883969244E-02 -0.16489868994E-01  0.35750994182E-01  0.10000000475E-02 0.  1.
</event>
<event>
 4   0  0.4958067E-02  0.9118800E+02  0.7818609E-02  0.1379984E+01
      -11   -1    0    0    0    0  0.00000000000E+00  0.00000000000E+00  0.35740347158E-01  0.35744000000E-01  0.51099999109E-03 0. -1.
       11   -1    0    0    0    0 -0.00000000000E+00 -0.00000000000E+00 -0.35740347158E-01  0.35744000000E-01  0.51099999109E-03 0.  1.
       22    1    1    2    0    0 -0.58925990684E-02 -0.21712539575E-01 -0.27766463338E-01  0.35737005818E-01  0.00000000000E+00 0.  1.
  9000001    1    1    2    0    0  0.58925990684E-02  0.21712539575E-01  0.27766463338E-01  0.35750994182E-01  0.10000000475E-02 0. -1.
</event>
<event>
 4   0  0.4958067E-02  0.9118800E+02  0.7818609E-02  0.1379984E+01
      -11   -1    0    0    0    0  0.00000000000E+00  0.00000000000E+00  0.35740347158E-01  0.35744000000E-01  0.51099999109E-03 0. -1.
       11   -1    0    0    0    0 -0.00000000000E+00 -0.00000000000E+00 -0.35740347158E-01  0.35744000000E-01  0.51099999109E-03 0.  1.
       22    1    1    2    0    0  0.31019674679E-02 -0.32282983365E-03 -0.35600662404E-01  0.35737005818E-01  0.00000000000E+00 0.  1.
  9000001    1    1    2    0    0 -0.31019674679E-02  0.32282983365E-03  0.35600662404E-01  0.35750994182E-01  0.10000000475E-02 0. -1.
</event>
<event>
 4   0  0.4958067E-02  0.9118800E+02  0.7818609E-02  0.1379984E+01
      -11   -1    0    0    0    0  0.00000000000E+00  0.00000000000E+00  0.35740347158E-01  0.35744000000E-01  0.51099999109E-03 0. -1.
       11   -1    0    0    0    0 -0.00000000000E+00 -0.00000000000E+00 -0.35740347158E-01  0.35744000000E-01  0.51099999109E-03 0.  1.
       22    1    1    2    0    0  0.34650472246E-02 -0.18432263305E-01 -0.30420037838E-01  0.35737005818E-01  0.00000000000E+00 0.  1.
  9000001    1    1    2    0    0 -0.34650472246E-02  0.18432263305E-01  0.30420037838E-01  0.35750994182E-01  0.10000000475E-02 0. -1.
</event>
<event>
 4   0  0.4958067E-02  0.9118800E+02  0.7818609E-02  0.1379984E+01
      -11   -1    0    0    0    0  0.00000000000E+00  0.00000000000E+00  0.35740347158E-01  0.35744000000E-01  0.51099999109E-03 0.  1.
       11   -1    0    0    0    0 -0.00000000000E+00 -0.00000000000E+00 -0.35740347158E-01  0.35744000000E-01  0.51099999109E-03 0. -1.
       22    1    1    2    0    0  0.11268533332E-01  0.59765396539E-02 -0.33383150169E-01  0.35737005818E-01  0.00000000000E+00 0. -1.
  9000001    1    1    2    0    0 -0.11268533332E-01 -0.59765396539E-02  0.33383150169E-01  0.35750994182E-01  0.10000000475E-02 0.  1.
</event>
<event>
 4   0  0.4958067E-02  0.9118800E+02  0.7818609E-02  0.1379984E+01
      -11   -1    0    0    0    0  0.00000000000E+00  0.00000000000E+00  0.35740347158E-01  0.35744000000E-01  0.51099999109E-03 0. -1.
       11   -1    0    0    0    0 -0.00000000000E+00 -0.00000000000E+00 -0.35740347158E-01  0.35744000000E-01  0.51099999109E-03 0.  1.
       22    1    1    2    0    0  0.26506251435E-02  0.17914236069E-02 -0.35593518689E-01  0.35737005818E-01  0.00000000000E+00 0.  1.
  9000001    1    1    2    0    0 -0.26506251435E-02 -0.17914236069E-02  0.35593518689E-01  0.35750994182E-01  0.10000000475E-02 0. -1.
</event>
<event>
 4   0  0.4958067E-02  0.9118800E+02  0.7818609E-02  0.1379984E+01
      -11   -1    0    0    0    0  0.00000000000E+00  0.00000000000E+00  0.35740347158E-01  0.35744000000E-01  0.51099999109E-03 0. -1.
       11   -1    0    0    0    0 -0.00000000000E+00 -0.00000000000E+00 -0.35740347158E-01  0.35744000000E-01  0.51099999109E-03 0.  1.
       22    1    1    2    0    0 -0.70993658868E-03 -0.16509694342E-01 -0.31686898991E-01  0.35737005818E-01  0.00000000000E+00 0.  1.
  9000001    1    1    2    0    0  0.70993658868E-03  0.16509694342E-01  0.31686898991E-01  0.35750994182E-01  0.10000000475E-02 0. -1.
</event>
<event>
 4   0  0.4958067E-02  0.9118800E+02  0.7818609E-02  0.1379984E+01
      -11   -1    0    0    0    0  0.00000000000E+00  0.00000000000E+00  0.35740347158E-01  0.35744000000E-01  0.51099999109E-03 0. -1.
       11   -1    0    0    0    0 -0.00000000000E+00 -0.00000000000E+00 -0.35740347158E-01  0.35744000000E-01  0.51099999109E-03 0.  1.
       22    1    1    2    0    0  0.13235321004E-01  0.18206680338E-01 -0.27757461229E-01  0.35737005818E-01  0.00000000000E+00 0.  1.
  9000001    1    1    2    0    0 -0.13235321004E-01 -0.18206680338E-01  0.27757461229E-01  0.35750994182E-01  0.10000000475E-02 0. -1.
</event>
<event>
 4   0  0.4958067E-02  0.9118800E+02  0.7818609E-02  0.1379984E+01
      -11   -1    0    0    0    0  0.00000000000E+00  0.00000000000E+00  0.35740347158E-01  0.35744000000E-01  0.51099999109E-03 0.  1.
       11   -1    0    0    0    0 -0.00000000000E+00 -0.00000000000E+00 -0.35740347158E-01  0.35744000000E-01  0.51099999109E-03 0. -1.
       22    1    1    2    0    0  0.10147789443E-01  0.10481405424E-01 -0.32623551227E-01  0.35737005818E-01  0.00000000000E+00 0. -1.
  9000001    1    1    2    0    0 -0.10147789443E-01 -0.10481405424E-01  0.32623551227E-01  0.35750994182E-01  0.10000000475E-02 0.  1.
</event>
<event>
 4   0  0.4958067E-02  0.9118800E+02  0.7818609E-02  0.1379984E+01
      -11   -1    0    0    0    0  0.00000000000E+00  0.00000000000E+00  0.35740347158E-01  0.35744000000E-01  0.51099999109E-03 0. -1.
       11   -1    0    0    0    0 -0.00000000000E+00 -0.00000000000E+00 -0.35740347158E-01  0.35744000000E-01  0.51099999109E-03 0.  1.
       22    1    1    2    0    0  0.25193511536E-02  0.37489416086E-02 -0.35450414546E-01  0.35737005818E-01  0.00000000000E+00 0.  1.
  9000001    1    1    2    0    0 -0.25193511536E-02 -0.37489416086E-02  0.35450414546E-01  0.35750994182E-01  0.10000000475E-02 0. -1.
</event>
<event>
 4   0  0.4958067E-02  0.9118800E+02  0.7818609E-02  0.1379984E+01
      -11   -1    0    0    0    0  0.00000000000E+00  0.00000000000E+00  0.35740347158E-01  0.35744000000E-01  0.51099999109E-03 0.  1.
       11   -1    0    0    0    0 -0.00000000000E+00 -0.00000000000E+00 -0.35740347158E-01  0.35744000000E-01  0.51099999109E-03 0. -1.
       22    1    1    2    0    0  0.47152296182E-02 -0.15017570481E-02 -0.35392724115E-01  0.35737005818E-01  0.00000000000E+00 0. -1.
  9000001    1    1    2    0    0 -0.47152296182E-02  0.15017570481E-02  0.35392724115E-01  0.35750994182E-01  0.10000000475E-02 0.  1.
</event>
<event>
 4   0  0.4958067E-02  0.9118800E+02  0.7818609E-02  0.1379984E+01
      -11   -1    0    0    0    0  0.00000000000E+00  0.00000000000E+00  0.35740347158E-01  0.35744000000E-01  0.51099999109E-03 0. -1.
       11   -1    0    0    0    0 -0.00000000000E+00 -0.00000000000E+00 -0.35740347158E-01  0.35744000000E-01  0.51099999109E-03 0.  1.
       22    1    1    2    0    0  0.15812067325E-02  0.28897360087E-01 -0.20966066634E-01  0.35737005818E-01  0.00000000000E+00 0.  1.
  9000001    1    1    2    0    0 -0.15812067325E-02 -0.28897360087E-01  0.20966066634E-01  0.35750994182E-01  0.10000000475E-02 0. -1.
</event>
<event>
 4   0  0.4958067E-02  0.9118800E+02  0.7818609E-02  0.1379984E+01
      -11   -1    0    0    0    0  0.00000000000E+00  0.00000000000E+00  0.35740347158E-01  0.35744000000E-01  0.51099999109E-03 0.  1.
       11   -1    0    0    0    0 -0.00000000000E+00 -0.00000000000E+00 -0.35740347158E-01  0.35744000000E-01  0.51099999109E-03 0. -1.
       22    1    1    2    0    0 -0.19439835389E-02 -0.10778217728E-01 -0.34017415179E-01  0.35737005818E-01  0.00000000000E+00 0. -1.
  9000001    1    1    2    0    0  0.19439835389E-02  0.10778217728E-01  0.34017415179E-01  0.35750994182E-01  0.10000000475E-02 0.  1.
</event>
<event>
 4   0  0.4958067E-02  0.9118800E+02  0.7818609E-02  0.1379984E+01
      -11   -1    0    0    0    0  0.00000000000E+00  0.00000000000E+00  0.35740347158E-01  0.35744000000E-01  0.51099999109E-03 0. -1.
       11   -1    0    0    0    0 -0.00000000000E+00 -0.00000000000E+00 -0.35740347158E-01  0.35744000000E-01  0.51099999109E-03 0.  1.
       22    1    1    2    0    0 -0.15322164841E-01 -0.11375289769E-01  0.30215354244E-01  0.35737005818E-01  0.00000000000E+00 0. -1.
  9000001    1    1    2    0    0  0.15322164841E-01  0.11375289769E-01 -0.30215354244E-01  0.35750994182E-01  0.10000000475E-02 0.  1.
</event>
<event>
 4   0  0.4958067E-02  0.9118800E+02  0.7818609E-02  0.1379984E+01
      -11   -1    0    0    0    0  0.00000000000E+00  0.00000000000E+00  0.35740347158E-01  0.35744000000E-01  0.51099999109E-03 0. -1.
       11   -1    0    0    0    0 -0.00000000000E+00 -0.00000000000E+00 -0.35740347158E-01  0.35744000000E-01  0.51099999109E-03 0.  1.
       22    1    1    2    0    0  0.14507257451E-02 -0.67298783480E-02  0.35067616359E-01  0.35737005818E-01  0.00000000000E+00 0. -1.
  9000001    1    1    2    0    0 -0.14507257451E-02  0.67298783480E-02 -0.35067616359E-01  0.35750994182E-01  0.10000000475E-02 0.  1.
</event>
<event>
 4   0  0.4958067E-02  0.9118800E+02  0.7818609E-02  0.1379984E+01
      -11   -1    0    0    0    0  0.00000000000E+00  0.00000000000E+00  0.35740347158E-01  0.35744000000E-01  0.51099999109E-03 0.  1.
       11   -1    0    0    0    0 -0.00000000000E+00 -0.00000000000E+00 -0.35740347158E-01  0.35744000000E-01  0.51099999109E-03 0. -1.
       22    1    1    2    0    0  0.20928867368E-01 -0.19825429800E-01 -0.21120332119E-01  0.35737005818E-01  0.00000000000E+00 0. -1.
  9000001    1    1    2    0    0 -0.20928867368E-01  0.19825429800E-01  0.21120332119E-01  0.35750994182E-01  0.10000000475E-02 0.  1.
</event>
<event>
 4   0  0.4958067E-02  0.9118800E+02  0.7818609E-02  0.1379984E+01
      -11   -1    0    0    0    0  0.00000000000E+00  0.00000000000E+00  0.35740347158E-01  0.35744000000E-01  0.51099999109E-03 0. -1.
       11   -1    0    0    0    0 -0.00000000000E+00 -0.00000000000E+00 -0.35740347158E-01  0.35744000000E-01  0.51099999109E-03 0.  1.
       22    1    1    2    0    0  0.11762722746E-01 -0.19636987828E-01 -0.27443772473E-01  0.35737005818E-01  0.00000000000E+00 0.  1.
  9000001    1    1    2    0    0 -0.11762722746E-01  0.19636987828E-01  0.27443772473E-01  0.35750994182E-01  0.10000000475E-02 0. -1.
</event>
<event>
 4   0  0.4958067E-02  0.9118800E+02  0.7818609E-02  0.1379984E+01
      -11   -1    0    0    0    0  0.00000000000E+00  0.00000000000E+00  0.35740347158E-01  0.35744000000E-01  0.51099999109E-03 0.  1.
       11   -1    0    0    0    0 -0.00000000000E+00 -0.00000000000E+00 -0.35740347158E-01  0.35744000000E-01  0.51099999109E-03 0. -1.
       22    1    1    2    0    0 -0.13012540421E-01  0.30155044957E-01 -0.14088315736E-01  0.35737005818E-01  0.00000000000E+00 0. -1.
  9000001    1    1    2    0    0  0.13012540421E-01 -0.30155044957E-01  0.14088315736E-01  0.35750994182E-01  0.10000000475E-02 0.  1.
</event>
<event>
 4   0  0.4958067E-02  0.9118800E+02  0.7818609E-02  0.1379984E+01
      -11   -1    0    0    0    0  0.00000000000E+00  0.00000000000E+00  0.35740347158E-01  0.35744000000E-01  0.51099999109E-03 0. -1.
       11   -1    0    0    0    0 -0.00000000000E+00 -0.00000000000E+00 -0.35740347158E-01  0.35744000000E-01  0.51099999109E-03 0.  1.
       22    1    1    2    0    0  0.31961541078E-02  0.21416138955E-02  0.35529307251E-01  0.35737005818E-01  0.00000000000E+00 0. -1.
  9000001    1    1    2    0    0 -0.31961541078E-02 -0.21416138955E-02 -0.35529307251E-01  0.35750994182E-01  0.10000000475E-02 0.  1.
</event>
<event>
 4   0  0.4958067E-02  0.9118800E+02  0.7818609E-02  0.1379984E+01
      -11   -1    0    0    0    0  0.00000000000E+00  0.00000000000E+00  0.35740347158E-01  0.35744000000E-01  0.51099999109E-03 0.  1.
       11   -1    0    0    0    0 -0.00000000000E+00 -0.00000000000E+00 -0.35740347158E-01  0.35744000000E-01  0.51099999109E-03 0. -1.
       22    1    1    2    0    0  0.38845557197E-02 -0.21874870732E-03  0.35524582485E-01  0.35737005818E-01  0.00000000000E+00 0.  1.
  9000001    1    1    2    0    0 -0.38845557197E-02  0.21874870732E-03 -0.35524582485E-01  0.35750994182E-01  0.10000000475E-02 0. -1.
</event>
<event>
 4   0  0.4958067E-02  0.9118800E+02  0.7818609E-02  0.1379984E+01
      -11   -1    0    0    0    0  0.00000000000E+00  0.00000000000E+00  0.35740347158E-01  0.35744000000E-01  0.51099999109E-03 0.  1.
       11   -1    0    0    0    0 -0.00000000000E+00 -0.00000000000E+00 -0.35740347158E-01  0.35744000000E-01  0.51099999109E-03 0. -1.
       22    1    1    2    0    0  0.12126322905E-04 -0.87437835994E-02 -0.34650825188E-01  0.35737005818E-01  0.00000000000E+00 0. -1.
  9000001    1    1    2    0    0 -0.12126322905E-04  0.87437835994E-02  0.34650825188E-01  0.35750994182E-01  0.10000000475E-02 0.  1.
</event>
<event>
 4   0  0.4958067E-02  0.9118800E+02  0.7818609E-02  0.1379984E+01
      -11   -1    0    0    0    0  0.00000000000E+00  0.00000000000E+00  0.35740347158E-01  0.35744000000E-01  0.51099999109E-03 0.  1.
       11   -1    0    0    0    0 -0.00000000000E+00 -0.00000000000E+00 -0.35740347158E-01  0.35744000000E-01  0.51099999109E-03 0. -1.
       22    1    1    2    0    0  0.33577163995E-01 -0.75794847366E-02  0.96051576784E-02  0.35737005818E-01  0.00000000000E+00 0. -1.
  9000001    1    1    2    0    0 -0.33577163995E-01  0.75794847366E-02 -0.96051576784E-02  0.35750994182E-01  0.10000000475E-02 0.  1.
</event>
<event>
 4   0  0.4958067E-02  0.9118800E+02  0.7818609E-02  0.1379984E+01
      -11   -1    0    0    0    0  0.00000000000E+00  0.00000000000E+00  0.35740347158E-01  0.35744000000E-01  0.51099999109E-03 0. -1.
       11   -1    0    0    0    0 -0.00000000000E+00 -0.00000000000E+00 -0.35740347158E-01  0.35744000000E-01  0.51099999109E-03 0.  1.
       22    1    1    2    0    0 -0.56928922123E-02  0.32175727656E-01  0.14472287757E-01  0.35737005818E-01  0.00000000000E+00 0. -1.
  9000001    1    1    2    0    0  0.56928922123E-02 -0.32175727656E-01 -0.14472287757E-01  0.35750994182E-01  0.10000000475E-02 0.  1.
</event>
<event>
 4   0  0.4958067E-02  0.9118800E+02  0.7818609E-02  0.1379984E+01
      -11   -1    0    0    0    0  0.00000000000E+00  0.00000000000E+00  0.35740347158E-01  0.35744000000E-01  0.51099999109E-03 0. -1.
       11   -1    0    0    0    0 -0.00000000000E+00 -0.00000000000E+00 -0.35740347158E-01  0.35744000000E-01  0.51099999109E-03 0.  1.
       22    1    1    2    0    0  0.12118385504E-01  0.15138171357E-01  0.30018562351E-01  0.35737005818E-01  0.00000000000E+00 0. -1.
  9000001    1    1    2    0    0 -0.12118385504E-01 -0.15138171357E-01 -0.30018562351E-01  0.35750994182E-01  0.10000000475E-02 0.  1.
</event>
<event>
 4   0  0.4958067E-02  0.9118800E+02  0.7818609E-02  0.1379984E+01
      -11   -1    0    0    0    0  0.00000000000E+00  0.00000000000E+00  0.35740347158E-01  0.35744000000E-01  0.51099999109E-03 0.  1.
       11   -1    0    0    0    0 -0.00000000000E+00 -0.00000000000E+00 -0.35740347158E-01  0.35744000000E-01  0.51099999109E-03 0. -1.
       22    1    1    2    0    0 -0.27232673658E-02 -0.34544245930E-01  0.87414228143E-02  0.35737005818E-01  0.00000000000E+00 0.  1.
  9000001    1    1    2    0    0  0.27232673658E-02  0.34544245930E-01 -0.87414228143E-02  0.35750994182E-01  0.10000000475E-02 0. -1.
</event>
<event>
 4   0  0.4958067E-02  0.9118800E+02  0.7818609E-02  0.1379984E+01
      -11   -1    0    0    0    0  0.00000000000E+00  0.00000000000E+00  0.35740347158E-01  0.35744000000E-01  0.51099999109E-03 0.  1.
       11   -1    0    0    0    0 -0.00000000000E+00 -0.00000000000E+00 -0.35740347158E-01  0.35744000000E-01  0.51099999109E-03 0. -1.
       22    1    1    2    0    0  0.10685639533E-01  0.12278247872E-01 -0.31815017238E-01  0.35737005818E-01  0.00000000000E+00 0. -1.
  9000001    1    1    2    0    0 -0.10685639533E-01 -0.12278247872E-01  0.31815017238E-01  0.35750994182E-01  0.10000000475E-02 0.  1.
</event>
<event>
 4   0  0.4958067E-02  0.9118800E+02  0.7818609E-02  0.1379984E+01
      -11   -1    0    0    0    0  0.00000000000E+00  0.00000000000E+00  0.35740347158E-01  0.35744000000E-01  0.51099999109E-03 0.  1.
       11   -1    0    0    0    0 -0.00000000000E+00 -0.00000000000E+00 -0.35740347158E-01  0.35744000000E-01  0.51099999109E-03 0. -1.
       22    1    1    2    0    0 -0.89283771879E-03 -0.74370556728E-02  0.34943191448E-01  0.35737005818E-01  0.00000000000E+00 0.  1.
  9000001    1    1    2    0    0  0.89283771879E-03  0.74370556728E-02 -0.34943191448E-01  0.35750994182E-01  0.10000000475E-02 0. -1.
</event>
<event>
 4   0  0.4958067E-02  0.9118800E+02  0.7818609E-02  0.1379984E+01
      -11   -1    0    0    0    0  0.00000000000E+00  0.00000000000E+00  0.35740347158E-01  0.35744000000E-01  0.51099999109E-03 0.  1.
       11   -1    0    0    0    0 -0.00000000000E+00 -0.00000000000E+00 -0.35740347158E-01  0.35744000000E-01  0.51099999109E-03 0. -1.
       22    1    1    2    0    0  0.38274709847E-02 -0.70021458231E-02 -0.34834666707E-01  0.35737005818E-01  0.00000000000E+00 0. -1.
  9000001    1    1    2    0    0 -0.38274709847E-02  0.70021458231E-02  0.34834666707E-01  0.35750994182E-01  0.10000000475E-02 0.  1.
</event>
<event>
 4   0  0.4958067E-02  0.9118800E+02  0.7818609E-02  0.1379984E+01
      -11   -1    0    0    0    0  0.00000000000E+00  0.00000000000E+00  0.35740347158E-01  0.35744000000E-01  0.51099999109E-03 0.  1.
       11   -1    0    0    0    0 -0.00000000000E+00 -0.00000000000E+00 -0.35740347158E-01  0.35744000000E-01  0.51099999109E-03 0. -1.
       22    1    1    2    0    0  0.22521031965E-02  0.16067913853E-01 -0.31841541428E-01  0.35737005818E-01  0.00000000000E+00 0. -1.
  9000001    1    1    2    0    0 -0.22521031965E-02 -0.16067913853E-01  0.31841541428E-01  0.35750994182E-01  0.10000000475E-02 0.  1.
</event>
<event>
 4   0  0.4958067E-02  0.9118800E+02  0.7818609E-02  0.1379984E+01
      -11   -1    0    0    0    0  0.00000000000E+00  0.00000000000E+00  0.35740347158E-01  0.35744000000E-01  0.51099999109E-03 0.  1.
       11   -1    0    0    0    0 -0.00000000000E+00 -0.00000000000E+00 -0.35740347158E-01  0.35744000000E-01  0.51099999109E-03 0. -1.
       22    1    1    2    0    0 -0.45048884039E-02  0.81772884127E-02 -0.34495963815E-01  0.35737005818E-01  0.00000000000E+00 0. -1.
  9000001    1    1    2    0    0  0.45048884039E-02 -0.81772884127E-02  0.34495963815E-01  0.35750994182E-01  0.10000000475E-02 0.  1.
</event>
<event>
 4   0  0.4958067E-02  0.9118800E+02  0.7818609E-02  0.1379984E+01
      -11   -1    0    0    0    0  0.00000000000E+00  0.00000000000E+00  0.35740347158E-01  0.35744000000E-01  0.51099999109E-03 0. -1.
       11   -1    0    0    0    0 -0.00000000000E+00 -0.00000000000E+00 -0.35740347158E-01  0.35744000000E-01  0.51099999109E-03 0.  1.
       22    1    1    2    0    0  0.90322840356E-02 -0.35819378551E-02 -0.34390713153E-01  0.35737005818E-01  0.00000000000E+00 0.  1.
  9000001    1    1    2    0    0 -0.90322840356E-02  0.35819378551E-02  0.34390713153E-01  0.35750994182E-01  0.10000000475E-02 0. -1.
</event>
<event>
 4   0  0.4958067E-02  0.9118800E+02  0.7818609E-02  0.1379984E+01
      -11   -1    0    0    0    0  0.00000000000E+00  0.00000000000E+00  0.35740347158E-01  0.35744000000E-01  0.51099999109E-03 0. -1.
       11   -1    0    0    0    0 -0.00000000000E+00 -0.00000000000E+00 -0.35740347158E-01  0.35744000000E-01  0.51099999109E-03 0.  1.
       22    1    1    2    0    0 -0.19669415677E-02  0.14427652364E-01 -0.32635985859E-01  0.35737005818E-01  0.00000000000E+00 0.  1.
  9000001    1    1    2    0    0  0.19669415677E-02 -0.14427652364E-01  0.32635985859E-01  0.35750994182E-01  0.10000000475E-02 0. -1.
</event>
<event>
 4   0  0.4958067E-02  0.9118800E+02  0.7818609E-02  0.1379984E+01
      -11   -1    0    0    0    0  0.00000000000E+00  0.00000000000E+00  0.35740347158E-01  0.35744000000E-01  0.51099999109E-03 0. -1.
       11   -1    0    0    0    0 -0.00000000000E+00 -0.00000000000E+00 -0.35740347158E-01  0.35744000000E-01  0.51099999109E-03 0.  1.
       22    1    1    2    0    0 -0.40196515718E-02 -0.11367772675E-01 -0.33641488233E-01  0.35737005818E-01  0.00000000000E+00 0.  1.
  9000001    1    1    2    0    0  0.40196515718E-02  0.11367772675E-01  0.33641488233E-01  0.35750994182E-01  0.10000000475E-02 0. -1.
</event>
<event>
 4   0  0.4958067E-02  0.9118800E+02  0.7818609E-02  0.1379984E+01
      -11   -1    0    0    0    0  0.00000000000E+00  0.00000000000E+00  0.35740347158E-01  0.35744000000E-01  0.51099999109E-03 0.  1.
       11   -1    0    0    0    0 -0.00000000000E+00 -0.00000000000E+00 -0.35740347158E-01  0.35744000000E-01  0.51099999109E-03 0. -1.
       22    1    1    2    0    0  0.43023351925E-02 -0.21714462771E-02 -0.35410567883E-01  0.35737005818E-01  0.00000000000E+00 0. -1.
  9000001    1    1    2    0    0 -0.43023351925E-02  0.21714462771E-02  0.35410567883E-01  0.35750994182E-01  0.10000000475E-02 0.  1.
</event>
<event>
 4   0  0.4958067E-02  0.9118800E+02  0.7818609E-02  0.1379984E+01
      -11   -1    0    0    0    0  0.00000000000E+00  0.00000000000E+00  0.35740347158E-01  0.35744000000E-01  0.51099999109E-03 0. -1.
       11   -1    0    0    0    0 -0.00000000000E+00 -0.00000000000E+00 -0.35740347158E-01  0.35744000000E-01  0.51099999109E-03 0.  1.
       22    1    1    2    0    0 -0.23554552622E-01 -0.48720530586E-02  0.26430658990E-01  0.35737005818E-01  0.00000000000E+00 0. -1.
  9000001    1    1    2    0    0  0.23554552622E-01  0.48720530586E-02 -0.26430658990E-01  0.35750994182E-01  0.10000000475E-02 0.  1.
</event>
<event>
 4   0  0.4958067E-02  0.9118800E+02  0.7818609E-02  0.1379984E+01
      -11   -1    0    0    0    0  0.00000000000E+00  0.00000000000E+00  0.35740347158E-01  0.35744000000E-01  0.51099999109E-03 0. -1.
       11   -1    0    0    0    0 -0.00000000000E+00 -0.00000000000E+00 -0.35740347158E-01  0.35744000000E-01  0.51099999109E-03 0.  1.
       22    1    1    2    0    0  0.38468731807E-02  0.31505555853E-02 -0.35389393201E-01  0.35737005818E-01  0.00000000000E+00 0.  1.
  9000001    1    1    2    0    0 -0.38468731807E-02 -0.31505555853E-02  0.35389393201E-01  0.35750994182E-01  0.10000000475E-02 0. -1.
</event>
<event>
 4   0  0.4958067E-02  0.9118800E+02  0.7818609E-02  0.1379984E+01
      -11   -1    0    0    0    0  0.00000000000E+00  0.00000000000E+00  0.35740347158E-01  0.35744000000E-01  0.51099999109E-03 0. -1.
       11   -1    0    0    0    0 -0.00000000000E+00 -0.00000000000E+00 -0.35740347158E-01  0.35744000000E-01  0.51099999109E-03 0.  1.
       22    1    1    2    0    0  0.81047147431E-02  0.20637640052E-03  0.34805238005E-01  0.35737005818E-01  0.00000000000E+00 0. -1.
  9000001    1    1    2    0    0 -0.81047147431E-02 -0.20637640052E-03 -0.34805238005E-01  0.35750994182E-01  0.10000000475E-02 0.  1.
</event>
<event>
 4   0  0.4958067E-02  0.9118800E+02  0.7818609E-02  0.1379984E+01
      -11   -1    0    0    0    0  0.00000000000E+00  0.00000000000E+00  0.35740347158E-01  0.35744000000E-01  0.51099999109E-03 0. -1.
       11   -1    0    0    0    0 -0.00000000000E+00 -0.00000000000E+00 -0.35740347158E-01  0.35744000000E-01  0.51099999109E-03 0.  1.
       22    1    1    2    0    0  0.73369920031E-02 -0.11696841200E-02  0.34956172163E-01  0.35737005818E-01  0.00000000000E+00 0. -1.
  9000001    1    1    2    0    0 -0.73369920031E-02  0.11696841200E-02 -0.34956172163E-01  0.35750994182E-01  0.10000000475E-02 0.  1.
</event>
<event>
 4   0  0.4958067E-02  0.9118800E+02  0.7818609E-02  0.1379984E+01
      -11   -1    0    0    0    0  0.00000000000E+00  0.00000000000E+00  0.35740347158E-01  0.35744000000E-01  0.51099999109E-03 0. -1.
       11   -1    0    0    0    0 -0.00000000000E+00 -0.00000000000E+00 -0.35740347158E-01  0.35744000000E-01  0.51099999109E-03 0.  1.
       22    1    1    2    0    0 -0.60994946736E-02  0.63327348916E-03  0.35206941280E-01  0.35737005818E-01  0.00000000000E+00 0. -1.
  9000001    1    1    2    0    0  0.60994946736E-02 -0.63327348916E-03 -0.35206941280E-01  0.35750994182E-01  0.10000000475E-02 0.  1.
</event>
<event>
 4   0  0.4958067E-02  0.9118800E+02  0.7818609E-02  0.1379984E+01
      -11   -1    0    0    0    0  0.00000000000E+00  0.00000000000E+00  0.35740347158E-01  0.35744000000E-01  0.51099999109E-03 0. -1.
       11   -1    0    0    0    0 -0.00000000000E+00 -0.00000000000E+00 -0.35740347158E-01  0.35744000000E-01  0.51099999109E-03 0.  1.
       22    1    1    2    0    0 -0.22481082835E-01  0.11123364708E-01 -0.25455947380E-01  0.35737005818E-01  0.00000000000E+00 0.  1.
  9000001    1    1    2    0    0  0.22481082835E-01 -0.11123364708E-01  0.25455947380E-01  0.35750994182E-01  0.10000000475E-02 0. -1.
</event>
<event>
 4   0  0.4958067E-02  0.9118800E+02  0.7818609E-02  0.1379984E+01
      -11   -1    0    0    0    0  0.00000000000E+00  0.00000000000E+00  0.35740347158E-01  0.35744000000E-01  0.51099999109E-03 0. -1.
       11   -1    0    0    0    0 -0.00000000000E+00 -0.00000000000E+00 -0.35740347158E-01  0.35744000000E-01  0.51099999109E-03 0.  1.
       22    1    1    2    0    0 -0.54017387135E-02  0.17673323769E-01  0.30587716991E-01  0.35737005818E-01  0.00000000000E+00 0. -1.
  9000001    1    1    2    0    0  0.54017387135E-02 -0.17673323769E-01 -0.30587716991E-01  0.35750994182E-01  0.10000000475E-02 0.  1.
</event>
<event>
 4   0  0.4958067E-02  0.9118800E+02  0.7818609E-02  0.1379984E+01
      -11   -1    0    0    0    0  0.00000000000E+00  0.00000000000E+00  0.35740347158E-01  0.35744000000E-01  0.51099999109E-03 0. -1.
       11   -1    0    0    0    0 -0.00000000000E+00 -0.00000000000E+00 -0.35740347158E-01  0.35744000000E-01  0.51099999109E-03 0.  1.
       22    1    1    2    0    0  0.24512533137E-01  0.25486839398E-01  0.51662676641E-02  0.35737005818E-01  0.00000000000E+00 0.  1.
  9000001    1    1    2    0    0 -0.24512533137E-01 -0.25486839398E-01 -0.51662676641E-02  0.35750994182E-01  0.10000000475E-02 0. -1.
</event>
<event>
 4   0  0.4958067E-02  0.9118800E+02  0.7818609E-02  0.1379984E+01
      -11   -1    0    0    0    0  0.00000000000E+00  0.00000000000E+00  0.35740347158E-01  0.35744000000E-01  0.51099999109E-03 0.  1.
       11   -1    0    0    0    0 -0.00000000000E+00 -0.00000000000E+00 -0.35740347158E-01  0.35744000000E-01  0.51099999109E-03 0. -1.
       22    1    1    2    0    0 -0.30237237220E-03  0.46384382218E-02 -0.35433417090E-01  0.35737005818E-01  0.00000000000E+00 0. -1.
  9000001    1    1    2    0    0  0.30237237220E-03 -0.46384382218E-02  0.35433417090E-01  0.35750994182E-01  0.10000000475E-02 0.  1.
</event>
<event>
 4   0  0.4958067E-02  0.9118800E+02  0.7818609E-02  0.1379984E+01
      -11   -1    0    0    0    0  0.00000000000E+00  0.00000000000E+00  0.35740347158E-01  0.35744000000E-01  0.51099999109E-03 0. -1.
       11   -1    0    0    0    0 -0.00000000000E+00 -0.00000000000E+00 -0.35740347158E-01  0.35744000000E-01  0.51099999109E-03 0.  1.
       22    1    1    2    0    0 -0.26891838534E-02 -0.20900049527E-02 -0.35574341236E-01  0.35737005818E-01  0.00000000000E+00 0.  1.
  9000001    1    1    2    0    0  0.26891838534E-02  0.20900049527E-02  0.35574341236E-01  0.35750994182E-01  0.10000000475E-02 0. -1.
</event>
<event>
 4   0  0.4958067E-02  0.9118800E+02  0.7818609E-02  0.1379984E+01
      -11   -1    0    0    0    0  0.00000000000E+00  0.00000000000E+00  0.35740347158E-01  0.35744000000E-01  0.51099999109E-03 0.  1.
       11   -1    0    0    0    0 -0.00000000000E+00 -0.00000000000E+00 -0.35740347158E-01  0.35744000000E-01  0.51099999109E-03 0. -1.
       22    1    1    2    0    0 -0.37894482270E-02  0.33719702693E-02 -0.35375181745E-01  0.35737005818E-01  0.00000000000E+00 0. -1.
  9000001    1    1    2    0    0  0.37894482270E-02 -0.33719702693E-02  0.35375181745E-01  0.35750994182E-01  0.10000000475E-02 0.  1.
</event>
<event>
 4   0  0.4958067E-02  0.9118800E+02  0.7818609E-02  0.1379984E+01
      -11   -1    0    0    0    0  0.00000000000E+00  0.00000000000E+00  0.35740347158E-01  0.35744000000E-01  0.51099999109E-03 0.  1.
       11   -1    0    0    0    0 -0.00000000000E+00 -0.00000000000E+00 -0.35740347158E-01  0.35744000000E-01  0.51099999109E-03 0. -1.
       22    1    1    2    0    0  0.25448395530E-01 -0.19346420126E-01  0.15975881139E-01  0.35737005818E-01  0.00000000000E+00 0.  1.
  9000001    1    1    2    0    0 -0.25448395530E-01  0.19346420126E-01 -0.15975881139E-01  0.35750994182E-01  0.10000000475E-02 0. -1.
</event>
<event>
 4   0  0.4958067E-02  0.9118800E+02  0.7818609E-02  0.1379984E+01
      -11   -1    0    0    0    0  0.00000000000E+00  0.00000000000E+00  0.35740347158E-01  0.35744000000E-01  0.51099999109E-03 0.  1.
       11   -1    0    0    0    0 -0.00000000000E+00 -0.00000000000E+00 -0.35740347158E-01  0.35744000000E-01  0.51099999109E-03 0. -1.
       22    1    1    2    0    0  0.34253068621E-03 -0.51175507739E-02  0.35367031706E-01  0.35737005818E-01  0.00000000000E+00 0.  1.
  9000001    1    1    2    0    0 -0.34253068621E-03  0.51175507739E-02 -0.35367031706E-01  0.35750994182E-01  0.10000000475E-02 0. -1.
</event>
<event>
 4   0  0.4958067E-02  0.9118800E+02  0.7818609E-02  0.1379984E+01
      -11   -1    0    0    0    0  0.00000000000E+00  0.00000000000E+00  0.35740347158E-01  0.35744000000E-01  0.51099999109E-03 0. -1.
       11   -1    0    0    0    0 -0.00000000000E+00 -0.00000000000E+00 -0.35740347158E-01  0.35744000000E-01  0.51099999109E-03 0.  1.
       22    1    1    2    0    0  0.33298996422E-02 -0.50560884413E-04 -0.35581495146E-01  0.35737005818E-01  0.00000000000E+00 0.  1.
  9000001    1    1    2    0    0 -0.33298996422E-02  0.50560884413E-04  0.35581495146E-01  0.35750994182E-01  0.10000000475E-02 0. -1.
</event>
<event>
 4   0  0.4958067E-02  0.9118800E+02  0.7818609E-02  0.1379984E+01
      -11   -1    0    0    0    0  0.00000000000E+00  0.00000000000E+00  0.35740347158E-01  0.35744000000E-01  0.51099999109E-03 0.  1.
       11   -1    0    0    0    0 -0.00000000000E+00 -0.00000000000E+00 -0.35740347158E-01  0.35744000000E-01  0.51099999109E-03 0. -1.
       22    1    1    2    0    0  0.53904618259E-02 -0.31716366719E-01 -0.15561124263E-01  0.35737005818E-01  0.00000000000E+00 0. -1.
  9000001    1    1    2    0    0 -0.53904618259E-02  0.31716366719E-01  0.15561124263E-01  0.35750994182E-01  0.10000000475E-02 0.  1.
</event>
<event>
 4   0  0.4958067E-02  0.9118800E+02  0.7818609E-02  0.1379984E+01
      -11   -1    0    0    0    0  0.00000000000E+00  0.00000000000E+00  0.35740347158E-01  0.35744000000E-01  0.51099999109E-03 0.  1.
       11   -1    0    0    0    0 -0.00000000000E+00 -0.00000000000E+00 -0.35740347158E-01  0.35744000000E-01  0.51099999109E-03 0. -1.
       22    1    1    2    0    0  0.16381803547E-02 -0.59115282536E-02 -0.35206587220E-01  0.35737005818E-01  0.00000000000E+00 0. -1.
  9000001    1    1    2    0    0 -0.16381803547E-02  0.59115282536E-02  0.35206587220E-01  0.35750994182E-01  0.10000000475E-02 0.  1.
</event>
<event>
 4   0  0.4958067E-02  0.9118800E+02  0.7818609E-02  0.1379984E+01
      -11   -1    0    0    0    0  0.00000000000E+00  0.00000000000E+00  0.35740347158E-01  0.35744000000E-01  0.51099999109E-03 0. -1.
       11   -1    0    0    0    0 -0.00000000000E+00 -0.00000000000E+00 -0.35740347158E-01  0.35744000000E-01  0.51099999109E-03 0.  1.
       22    1    1    2    0    0 -0.15683032541E-01  0.25381841517E-02 -0.32011461953E-01  0.35737005818E-01  0.00000000000E+00 0.  1.
  9000001    1    1    2    0    0  0.15683032541E-01 -0.25381841517E-02  0.32011461953E-01  0.35750994182E-01  0.10000000475E-02 0. -1.
</event>
<event>
 4   0  0.4958067E-02  0.9118800E+02  0.7818609E-02  0.1379984E+01
      -11   -1    0    0    0    0  0.00000000000E+00  0.00000000000E+00  0.35740347158E-01  0.35744000000E-01  0.51099999109E-03 0.  1.
       11   -1    0    0    0    0 -0.00000000000E+00 -0.00000000000E+00 -0.35740347158E-01  0.35744000000E-01  0.51099999109E-03 0. -1.
       22    1    1    2    0    0  0.33531897931E-01  0.11971738351E-01 -0.30696721108E-02  0.35737005818E-01  0.00000000000E+00 0. -1.
  9000001    1    1    2    0    0 -0.33531897931E-01 -0.11971738351E-01  0.30696721108E-02  0.35750994182E-01  0.10000000475E-02 0.  1.
</event>
<event>
 4   0  0.4958067E-02  0.9118800E+02  0.7818609E-02  0.1379984E+01
      -11   -1    0    0    0    0  0.00000000000E+00  0.00000000000E+00  0.35740347158E-01  0.35744000000E-01  0.51099999109E-03 0.  1.
       11   -1    0    0    0    0 -0.00000000000E+00 -0.00000000000E+00 -0.35740347158E-01  0.35744000000E-01  0.51099999109E-03 0. -1.
       22    1    1    2    0    0 -0.36047829186E-02  0.88042472041E-02 -0.34447414361E-01  0.35737005818E-01  0.00000000000E+00 0. -1.
  9000001    1    1    2    0    0  0.36047829186E-02 -0.88042472041E-02  0.34447414361E-01  0.35750994182E-01  0.10000000475E-02 0.  1.
</event>
<event>
 4   0  0.4958067E-02  0.9118800E+02  0.7818609E-02  0.1379984E+01
      -11   -1    0    0    0    0  0.00000000000E+00  0.00000000000E+00  0.35740347158E-01  0.35744000000E-01  0.51099999109E-03 0. -1.
       11   -1    0    0    0    0 -0.00000000000E+00 -0.00000000000E+00 -0.35740347158E-01  0.35744000000E-01  0.51099999109E-03 0.  1.
       22    1    1    2    0    0  0.13614657374E-01 -0.11940286940E-01 -0.30809158334E-01  0.35737005818E-01  0.00000000000E+00 0.  1.
  9000001    1    1    2    0    0 -0.13614657374E-01  0.11940286940E-01  0.30809158334E-01  0.35750994182E-01  0.10000000475E-02 0. -1.
</event>
<event>
 4   0  0.4958067E-02  0.9118800E+02  0.7818609E-02  0.1379984E+01
      -11   -1    0    0    0    0  0.00000000000E+00  0.00000000000E+00  0.35740347158E-01  0.35744000000E-01  0.51099999109E-03 0. -1.
       11   -1    0    0    0    0 -0.00000000000E+00 -0.00000000000E+00 -0.35740347158E-01  0.35744000000E-01  0.51099999109E-03 0.  1.
       22    1    1    2    0    0 -0.91770822163E-02  0.18077777593E-02  0.34491255217E-01  0.35737005818E-01  0.00000000000E+00 0. -1.
  9000001    1    1    2    0    0  0.91770822163E-02 -0.18077777593E-02 -0.34491255217E-01  0.35750994182E-01  0.10000000475E-02 0.  1.
</event>
<event>
 4   0  0.4958067E-02  0.9118800E+02  0.7818609E-02  0.1379984E+01
      -11   -1    0    0    0    0  0.00000000000E+00  0.00000000000E+00  0.35740347158E-01  0.35744000000E-01  0.51099999109E-03 0. -1.
       11   -1    0    0    0    0 -0.00000000000E+00 -0.00000000000E+00 -0.35740347158E-01  0.35744000000E-01  0.51099999109E-03 0.  1.
       22    1    1    2    0    0  0.77603374484E-03  0.89760951209E-02 -0.34582670124E-01  0.35737005818E-01  0.00000000000E+00 0.  1.
  9000001    1    1    2    0    0 -0.77603374484E-03 -0.89760951209E-02  0.34582670124E-01  0.35750994182E-01  0.10000000475E-02 0. -1.
</event>
<event>
 4   0  0.4958067E-02  0.9118800E+02  0.7818609E-02  0.1379984E+01
      -11   -1    0    0    0    0  0.00000000000E+00  0.00000000000E+00  0.35740347158E-01  0.35744000000E-01  0.51099999109E-03 0. -1.
       11   -1    0    0    0    0 -0.00000000000E+00 -0.00000000000E+00 -0.35740347158E-01  0.35744000000E-01  0.51099999109E-03 0.  1.
       22    1    1    2    0    0 -0.62268470105E-03 -0.42759289316E-02  0.35474811915E-01  0.35737005818E-01  0.00000000000E+00 0. -1.
  9000001    1    1    2    0    0  0.62268470105E-03  0.42759289316E-02 -0.35474811915E-01  0.35750994182E-01  0.10000000475E-02 0.  1.
</event>
<event>
 4   0  0.4958067E-02  0.9118800E+02  0.7818609E-02  0.1379984E+01
      -11   -1    0    0    0    0  0.00000000000E+00  0.00000000000E+00  0.35740347158E-01  0.35744000000E-01  0.51099999109E-03 0.  1.
       11   -1    0    0    0    0 -0.00000000000E+00 -0.00000000000E+00 -0.35740347158E-01  0.35744000000E-01  0.51099999109E-03 0. -1.
       22    1    1    2    0    0  0.32082887089E-02 -0.51647708803E-02  0.35215985151E-01  0.35737005818E-01  0.00000000000E+00 0.  1.
  9000001    1    1    2    0    0 -0.32082887089E-02  0.51647708803E-02 -0.35215985151E-01  0.35750994182E-01  0.10000000475E-02 0. -1.
</event>
<event>
 4   0  0.4958067E-02  0.9118800E+02  0.7818609E-02  0.1379984E+01
      -11   -1    0    0    0    0  0.00000000000E+00  0.00000000000E+00  0.35740347158E-01  0.35744000000E-01  0.51099999109E-03 0.  1.
       11   -1    0    0    0    0 -0.00000000000E+00 -0.00000000000E+00 -0.35740347158E-01  0.35744000000E-01  0.51099999109E-03 0. -1.
       22    1    1    2    0    0 -0.94386120169E-03 -0.30894670254E-02  0.35590699690E-01  0.35737005818E-01  0.00000000000E+00 0.  1.
  9000001    1    1    2    0    0  0.94386120169E-03  0.30894670254E-02 -0.35590699690E-01  0.35750994182E-01  0.10000000475E-02 0. -1.
</event>
<event>
 4   0  0.4958067E-02  0.9118800E+02  0.7818609E-02  0.1379984E+01
      -11   -1    0    0    0    0  0.00000000000E+00  0.00000000000E+00  0.35740347158E-01  0.35744000000E-01  0.51099999109E-03 0.  1.
       11   -1    0    0    0    0 -0.00000000000E+00 -0.00000000000E+00 -0.35740347158E-01  0.35744000000E-01  0.51099999109E-03 0. -1.
       22    1    1    2    0    0  0.86231526588E-02  0.18527127658E-01  0.29317577728E-01  0.35737005818E-01  0.00000000000E+00 0.  1.
  9000001    1    1    2    0    0 -0.86231526588E-02 -0.18527127658E-01 -0.29317577728E-01  0.35750994182E-01  0.10000000475E-02 0. -1.
</event>
<event>
 4   0  0.4958067E-02  0.9118800E+02  0.7818609E-02  0.1379984E+01
      -11   -1    0    0    0    0  0.00000000000E+00  0.00000000000E+00  0.35740347158E-01  0.35744000000E-01  0.51099999109E-03 0. -1.
       11   -1    0    0    0    0 -0.00000000000E+00 -0.00000000000E+00 -0.35740347158E-01  0.35744000000E-01  0.51099999109E-03 0.  1.
       22    1    1    2    0    0 -0.89544996914E-02  0.31960571366E-02  0.34449031030E-01  0.35737005818E-01  0.00000000000E+00 0. -1.
  9000001    1    1    2    0    0  0.89544996914E-02 -0.31960571366E-02 -0.34449031030E-01  0.35750994182E-01  0.10000000475E-02 0.  1.
</event>
<event>
 4   0  0.4958067E-02  0.9118800E+02  0.7818609E-02  0.1379984E+01
      -11   -1    0    0    0    0  0.00000000000E+00  0.00000000000E+00  0.35740347158E-01  0.35744000000E-01  0.51099999109E-03 0. -1.
       11   -1    0    0    0    0 -0.00000000000E+00 -0.00000000000E+00 -0.35740347158E-01  0.35744000000E-01  0.51099999109E-03 0.  1.
       22    1    1    2    0    0  0.97870789900E-02  0.79776255892E-02 -0.33432082790E-01  0.35737005818E-01  0.00000000000E+00 0.  1.
  9000001    1    1    2    0    0 -0.97870789900E-02 -0.79776255892E-02  0.33432082790E-01  0.35750994182E-01  0.10000000475E-02 0. -1.
</event>
<event>
 4   0  0.4958067E-02  0.9118800E+02  0.7818609E-02  0.1379984E+01
      -11   -1    0    0    0    0  0.00000000000E+00  0.00000000000E+00  0.35740347158E-01  0.35744000000E-01  0.51099999109E-03 0.  1.
       11   -1    0    0    0    0 -0.00000000000E+00 -0.00000000000E+00 -0.35740347158E-01  0.35744000000E-01  0.51099999109E-03 0. -1.
       22    1    1    2    0    0 -0.78325700741E-03 -0.95324115362E-02 -0.34433315606E-01  0.35737005818E-01  0.00000000000E+00 0. -1.
  9000001    1    1    2    0    0  0.78325700741E-03  0.95324115362E-02  0.34433315606E-01  0.35750994182E-01  0.10000000475E-02 0.  1.
</event>
<event>
 4   0  0.4958067E-02  0.9118800E+02  0.7818609E-02  0.1379984E+01
      -11   -1    0    0    0    0  0.00000000000E+00  0.00000000000E+00  0.35740347158E-01  0.35744000000E-01  0.51099999109E-03 0.  1.
       11   -1    0    0    0    0 -0.00000000000E+00 -0.00000000000E+00 -0.35740347158E-01  0.35744000000E-01  0.51099999109E-03 0. -1.
       22    1    1    2    0    0 -0.19459420660E-02 -0.31960103319E-01 -0.15871316586E-01  0.35737005818E-01  0.00000000000E+00 0.  1.
  9000001    1    1    2    0    0  0.19459420660E-02  0.31960103319E-01  0.15871316586E-01  0.35750994182E-01  0.10000000475E-02 0. -1.
</event>
<event>
 4   0  0.4958067E-02  0.9118800E+02  0.7818609E-02  0.1379984E+01
      -11   -1    0    0    0    0  0.00000000000E+00  0.00000000000E+00  0.35740347158E-01  0.35744000000E-01  0.51099999109E-03 0.  1.
       11   -1    0    0    0    0 -0.00000000000E+00 -0.00000000000E+00 -0.35740347158E-01  0.35744000000E-01  0.51099999109E-03 0. -1.
       22    1    1    2    0    0  0.50489471243E-02  0.27654058085E-01 -0.22065692584E-01  0.35737005818E-01  0.00000000000E+00 0. -1.
  9000001    1    1    2    0    0 -0.50489471243E-02 -0.27654058085E-01  0.22065692584E-01  0.35750994182E-01  0.10000000475E-02 0.  1.
</event>
<event>
 4   0  0.4958067E-02  0.9118800E+02  0.7818609E-02  0.1379984E+01
      -11   -1    0    0    0    0  0.00000000000E+00  0.00000000000E+00  0.35740347158E-01  0.35744000000E-01  0.51099999109E-03 0. -1.
       11   -1    0    0    0    0 -0.00000000000E+00 -0.00000000000E+00 -0.35740347158E-01  0.35744000000E-01  0.51099999109E-03 0.  1.
       22    1    1    2    0    0  0.22828565030E-02  0.21717210462E-02  0.35597833905E-01  0.35737005818E-01  0.00000000000E+00 0. -1.
  9000001    1    1    2    0    0 -0.22828565030E-02 -0.21717210462E-02 -0.35597833905E-01  0.35750994182E-01  0.10000000475E-02 0.  1.
</event>
<event>
 4   0  0.4958067E-02  0.9118800E+02  0.7818609E-02  0.1379984E+01
      -11   -1    0    0    0    0  0.00000000000E+00  0.00000000000E+00  0.35740347158E-01  0.35744000000E-01  0.51099999109E-03 0.  1.
       11   -1    0    0    0    0 -0.00000000000E+00 -0.00000000000E+00 -0.35740347158E-01  0.35744000000E-01  0.51099999109E-03 0. -1.
       22    1    1    2    0    0 -0.24467186482E-01  0.36416425525E-03  0.26045301974E-01  0.35737005818E-01  0.00000000000E+00 0.  1.
  9000001    1    1    2    0    0  0.24467186482E-01 -0.36416425525E-03 -0.26045301974E-01  0.35750994182E-01  0.10000000475E-02 0. -1.
</event>
<event>
 4   0  0.4958067E-02  0.9118800E+02  0.7818609E-02  0.1379984E+01
      -11   -1    0    0    0    0  0.00000000000E+00  0.00000000000E+00  0.35740347158E-01  0.35744000000E-01  0.51099999109E-03 0. -1.
       11   -1    0    0    0    0 -0.00000000000E+00 -0.00000000000E+00 -0.35740347158E-01  0.35744000000E-01  0.51099999109E-03 0.  1.
       22    1    1    2    0    0  0.30087105897E-03 -0.60528907240E-02 -0.35219392036E-01  0.35737005818E-01  0.00000000000E+00 0.  1.
  9000001    1    1    2    0    0 -0.30087105897E-03  0.60528907240E-02  0.35219392036E-01  0.35750994182E-01  0.10000000475E-02 0. -1.
</event>
<event>
 4   0  0.4958067E-02  0.9118800E+02  0.7818609E-02  0.1379984E+01
      -11   -1    0    0    0    0  0.00000000000E+00  0.00000000000E+00  0.35740347158E-01  0.35744000000E-01  0.51099999109E-03 0.  1.
       11   -1    0    0    0    0 -0.00000000000E+00 -0.00000000000E+00 -0.35740347158E-01  0.35744000000E-01  0.51099999109E-03 0. -1.
       22    1    1    2    0    0 -0.79001989494E-02 -0.40207764171E-02 -0.34620135737E-01  0.35737005818E-01  0.00000000000E+00 0. -1.
  9000001    1    1    2    0    0  0.79001989494E-02  0.40207764171E-02  0.34620135737E-01  0.35750994182E-01  0.10000000475E-02 0.  1.
</event>
<event>
 4   0  0.4958067E-02  0.9118800E+02  0.7818609E-02  0.1379984E+01
      -11   -1    0    0    0    0  0.00000000000E+00  0.00000000000E+00  0.35740347158E-01  0.35744000000E-01  0.51099999109E-03 0. -1.
       11   -1    0    0    0    0 -0.00000000000E+00 -0.00000000000E+00 -0.35740347158E-01  0.35744000000E-01  0.51099999109E-03 0.  1.
       22    1    1    2    0    0  0.94916646583E-02 -0.26374030621E-01 -0.22168725622E-01  0.35737005818E-01  0.00000000000E+00 0.  1.
  9000001    1    1    2    0    0 -0.94916646583E-02  0.26374030621E-01  0.22168725622E-01  0.35750994182E-01  0.10000000475E-02 0. -1.
</event>
<event>
 4   0  0.4958067E-02  0.9118800E+02  0.7818609E-02  0.1379984E+01
      -11   -1    0    0    0    0  0.00000000000E+00  0.00000000000E+00  0.35740347158E-01  0.35744000000E-01  0.51099999109E-03 0. -1.
       11   -1    0    0    0    0 -0.00000000000E+00 -0.00000000000E+00 -0.35740347158E-01  0.35744000000E-01  0.51099999109E-03 0.  1.
       22    1    1    2    0    0 -0.31422128237E-02  0.96444899046E-02 -0.34267242345E-01  0.35737005818E-01  0.00000000000E+00 0.  1.
  9000001    1    1    2    0    0  0.31422128237E-02 -0.96444899046E-02  0.34267242345E-01  0.35750994182E-01  0.10000000475E-02 0. -1.
</event>
<event>
 4   0  0.4958067E-02  0.9118800E+02  0.7818609E-02  0.1379984E+01
      -11   -1    0    0    0    0  0.00000000000E+00  0.00000000000E+00  0.35740347158E-01  0.35744000000E-01  0.51099999109E-03 0. -1.
       11   -1    0    0    0    0 -0.00000000000E+00 -0.00000000000E+00 -0.35740347158E-01  0.35744000000E-01  0.51099999109E-03 0.  1.
       22    1    1    2    0    0  0.11435220066E-02 -0.70485112172E-02 -0.35016345211E-01  0.35737005818E-01  0.00000000000E+00 0.  1.
  9000001    1    1    2    0    0 -0.11435220066E-02  0.70485112172E-02  0.35016345211E-01  0.35750994182E-01  0.10000000475E-02 0. -1.
</event>
<event>
 4   0  0.4958067E-02  0.9118800E+02  0.7818609E-02  0.1379984E+01
      -11   -1    0    0    0    0  0.00000000000E+00  0.00000000000E+00  0.35740347158E-01  0.35744000000E-01  0.51099999109E-03 0.  1.
       11   -1    0    0    0    0 -0.00000000000E+00 -0.00000000000E+00 -0.35740347158E-01  0.35744000000E-01  0.51099999109E-03 0. -1.
       22    1    1    2    0    0 -0.13818743792E-01  0.68177292033E-02 -0.32244293656E-01  0.35737005818E-01  0.00000000000E+00 0. -1.
  9000001    1    1    2    0    0  0.13818743792E-01 -0.68177292033E-02  0.32244293656E-01  0.35750994182E-01  0.10000000475E-02 0.  1.
</event>
<event>
 4   0  0.4958067E-02  0.9118800E+02  0.7818609E-02  0.1379984E+01
      -11   -1    0    0    0    0  0.00000000000E+00  0.00000000000E+00  0.35740347158E-01  0.35744000000E-01  0.51099999109E-03 0.  1.
       11   -1    0    0    0    0 -0.00000000000E+00 -0.00000000000E+00 -0.35740347158E-01  0.35744000000E-01  0.51099999109E-03 0. -1.
       22    1    1    2    0    0 -0.13444761831E-01 -0.19372670240E-01  0.26852776615E-01  0.35737005818E-01  0.00000000000E+00 0.  1.
  9000001    1    1    2    0    0  0.13444761831E-01  0.19372670240E-01 -0.26852776615E-01  0.35750994182E-01  0.10000000475E-02 0. -1.
</event>
<event>
 4   0  0.4958067E-02  0.9118800E+02  0.7818609E-02  0.1379984E+01
      -11   -1    0    0    0    0  0.00000000000E+00  0.00000000000E+00  0.35740347158E-01  0.35744000000E-01  0.51099999109E-03 0.  1.
       11   -1    0    0    0    0 -0.00000000000E+00 -0.00000000000E+00 -0.35740347158E-01  0.35744000000E-01  0.51099999109E-03 0. -1.
       22    1    1    2    0    0 -0.46229509108E-02  0.94086680619E-02  0.34164877799E-01  0.35737005818E-01  0.00000000000E+00 0.  1.
  9000001    1    1    2    0    0  0.46229509108E-02 -0.94086680619E-02 -0.34164877799E-01  0.35750994182E-01  0.10000000475E-02 0. -1.
</event>
<event>
 4   0  0.4958067E-02  0.9118800E+02  0.7818609E-02  0.1379984E+01
      -11   -1    0    0    0    0  0.00000000000E+00  0.00000000000E+00  0.35740347158E-01  0.35744000000E-01  0.51099999109E-03 0.  1.
       11   -1    0    0    0    0 -0.00000000000E+00 -0.00000000000E+00 -0.35740347158E-01  0.35744000000E-01  0.51099999109E-03 0. -1.
       22    1    1    2    0    0 -0.10050744540E-01  0.78776733177E-02 -0.33377513121E-01  0.35737005818E-01  0.00000000000E+00 0. -1.
  9000001    1    1    2    0    0  0.10050744540E-01 -0.78776733177E-02  0.33377513121E-01  0.35750994182E-01  0.10000000475E-02 0.  1.
</event>
<event>
 4   0  0.4958067E-02  0.9118800E+02  0.7818609E-02  0.1379984E+01
      -11   -1    0    0    0    0  0.00000000000E+00  0.00000000000E+00  0.35740347158E-01  0.35744000000E-01  0.51099999109E-03 0. -1.
       11   -1    0    0    0    0 -0.00000000000E+00 -0.00000000000E+00 -0.35740347158E-01  0.35744000000E-01  0.51099999109E-03 0.  1.
       22    1    1    2    0    0 -0.12299502100E-01 -0.12442637091E-01  0.31161460415E-01  0.35737005818E-01  0.00000000000E+00 0. -1.
  9000001    1    1    2    0    0  0.12299502100E-01  0.12442637091E-01 -0.31161460415E-01  0.35750994182E-01  0.10000000475E-02 0.  1.
</event>
<event>
 4   0  0.4958067E-02  0.9118800E+02  0.7818609E-02  0.1379984E+01
      -11   -1    0    0    0    0  0.00000000000E+00  0.00000000000E+00  0.35740347158E-01  0.35744000000E-01  0.51099999109E-03 0. -1.
       11   -1    0    0    0    0 -0.00000000000E+00 -0.00000000000E+00 -0.35740347158E-01  0.35744000000E-01  0.51099999109E-03 0.  1.
       22    1    1    2    0    0  0.14123580917E-01  0.45234420769E-03 -0.32824585781E-01  0.35737005818E-01  0.00000000000E+00 0.  1.
  9000001    1    1    2    0    0 -0.14123580917E-01 -0.45234420769E-03  0.32824585781E-01  0.35750994182E-01  0.10000000475E-02 0. -1.
</event>
<event>
 4   0  0.4958067E-02  0.9118800E+02  0.7818609E-02  0.1379984E+01
      -11   -1    0    0    0    0  0.00000000000E+00  0.00000000000E+00  0.35740347158E-01  0.35744000000E-01  0.51099999109E-03 0. -1.
       11   -1    0    0    0    0 -0.00000000000E+00 -0.00000000000E+00 -0.35740347158E-01  0.35744000000E-01  0.51099999109E-03 0.  1.
       22    1    1    2    0    0 -0.52189297676E-03  0.31895343168E-02  0.35590561718E-01  0.35737005818E-01  0.00000000000E+00 0. -1.
  9000001    1    1    2    0    0  0.52189297676E-03 -0.31895343168E-02 -0.35590561718E-01  0.35750994182E-01  0.10000000475E-02 0.  1.
</event>
<event>
 4   0  0.4958067E-02  0.9118800E+02  0.7818609E-02  0.1379984E+01
      -11   -1    0    0    0    0  0.00000000000E+00  0.00000000000E+00  0.35740347158E-01  0.35744000000E-01  0.51099999109E-03 0. -1.
       11   -1    0    0    0    0 -0.00000000000E+00 -0.00000000000E+00 -0.35740347158E-01  0.35744000000E-01  0.51099999109E-03 0.  1.
       22    1    1    2    0    0 -0.11392922064E-01 -0.13236835795E-01  0.31178856455E-01  0.35737005818E-01  0.00000000000E+00 0. -1.
  9000001    1    1    2    0    0  0.11392922064E-01  0.13236835795E-01 -0.31178856455E-01  0.35750994182E-01  0.10000000475E-02 0.  1.
</event>
<event>
 4   0  0.4958067E-02  0.9118800E+02  0.7818609E-02  0.1379984E+01
      -11   -1    0    0    0    0  0.00000000000E+00  0.00000000000E+00  0.35740347158E-01  0.35744000000E-01  0.51099999109E-03 0. -1.
       11   -1    0    0    0    0 -0.00000000000E+00 -0.00000000000E+00 -0.35740347158E-01  0.35744000000E-01  0.51099999109E-03 0.  1.
       22    1    1    2    0    0  0.66973194652E-03 -0.48207059351E-02  0.35404037034E-01  0.35737005818E-01  0.00000000000E+00 0. -1.
  9000001    1    1    2    0    0 -0.66973194652E-03  0.48207059351E-02 -0.35404037034E-01  0.35750994182E-01  0.10000000475E-02 0.  1.
</event>
<event>
 4   0  0.4958067E-02  0.9118800E+02  0.7818609E-02  0.1379984E+01
      -11   -1    0    0    0    0  0.00000000000E+00  0.00000000000E+00  0.35740347158E-01  0.35744000000E-01  0.51099999109E-03 0.  1.
       11   -1    0    0    0    0 -0.00000000000E+00 -0.00000000000E+00 -0.35740347158E-01  0.35744000000E-01  0.51099999109E-03 0. -1.
       22    1    1    2    0    0  0.37385040268E-02  0.75101055258E-03 -0.35532986867E-01  0.35737005818E-01  0.00000000000E+00 0. -1.
  9000001    1    1    2    0    0 -0.37385040268E-02 -0.75101055258E-03  0.35532986867E-01  0.35750994182E-01  0.10000000475E-02 0.  1.
</event>
<event>
 4   0  0.4958067E-02  0.9118800E+02  0.7818609E-02  0.1379984E+01
      -11   -1    0    0    0    0  0.00000000000E+00  0.00000000000E+00  0.35740347158E-01  0.35744000000E-01  0.51099999109E-03 0.  1.
       11   -1    0    0    0    0 -0.00000000000E+00 -0.00000000000E+00 -0.35740347158E-01  0.35744000000E-01  0.51099999109E-03 0. -1.
       22    1    1    2    0    0 -0.35518157535E-02  0.41771960355E-02 -0.35313867290E-01  0.35737005818E-01  0.00000000000E+00 0. -1.
  9000001    1    1    2    0    0  0.35518157535E-02 -0.41771960355E-02  0.35313867290E-01  0.35750994182E-01  0.10000000475E-02 0.  1.
</event>
<event>
 4   0  0.4958067E-02  0.9118800E+02  0.7818609E-02  0.1379984E+01
      -11   -1    0    0    0    0  0.00000000000E+00  0.00000000000E+00  0.35740347158E-01  0.35744000000E-01  0.51099999109E-03 0.  1.
       11   -1    0    0    0    0 -0.00000000000E+00 -0.00000000000E+00 -0.35740347158E-01  0.35744000000E-01  0.51099999109E-03 0. -1.
       22    1    1    2    0    0  0.36400994501E-02 -0.24442155177E-02 -0.35467013849E-01  0.35737005818E-01  0.00000000000E+00 0. -1.
  9000001    1    1    2    0    0 -0.36400994501E-02  0.24442155177E-02  0.35467013849E-01  0.35750994182E-01  0.10000000475E-02 0.  1.
</event>
<event>
 4   0  0.4958067E-02  0.9118800E+02  0.7818609E-02  0.1379984E+01
      -11   -1    0    0    0    0  0.00000000000E+00  0.00000000000E+00  0.35740347158E-01  0.35744000000E-01  0.51099999109E-03 0. -1.
       11   -1    0    0    0    0 -0.00000000000E+00 -0.00000000000E+00 -0.35740347158E-01  0.35744000000E-01  0.51099999109E-03 0.  1.
       22    1    1    2    0    0  0.12417246682E-02 -0.42974076066E-02 -0.35455944390E-01  0.35737005818E-01  0.00000000000E+00 0.  1.
  9000001    1    1    2    0    0 -0.12417246682E-02  0.42974076066E-02  0.35455944390E-01  0.35750994182E-01  0.10000000475E-02 0. -1.
</event>
<event>
 4   0  0.4958067E-02  0.9118800E+02  0.7818609E-02  0.1379984E+01
      -11   -1    0    0    0    0  0.00000000000E+00  0.00000000000E+00  0.35740347158E-01  0.35744000000E-01  0.51099999109E-03 0. -1.
       11   -1    0    0    0    0 -0.00000000000E+00 -0.00000000000E+00 -0.35740347158E-01  0.35744000000E-01  0.51099999109E-03 0.  1.
       22    1    1    2    0    0 -0.13390756272E-01  0.87965381010E-02 -0.31944360203E-01  0.35737005818E-01  0.00000000000E+00 0.  1.
  9000001    1    1    2    0    0  0.13390756272E-01 -0.87965381010E-02  0.31944360203E-01  0.35750994182E-01  0.10000000475E-02 0. -1.
</event>
<event>
 4   0  0.4958067E-02  0.9118800E+02  0.7818609E-02  0.1379984E+01
      -11   -1    0    0    0    0  0.00000000000E+00  0.00000000000E+00  0.35740347158E-01  0.35744000000E-01  0.51099999109E-03 0.  1.
       11   -1    0    0    0    0 -0.00000000000E+00 -0.00000000000E+00 -0.35740347158E-01  0.35744000000E-01  0.51099999109E-03 0. -1.
       22    1    1    2    0    0 -0.98324576841E-04  0.73943469699E-02  0.34963517415E-01  0.35737005818E-01  0.00000000000E+00 0.  1.
  9000001    1    1    2    0    0  0.98324576841E-04 -0.73943469699E-02 -0.34963517415E-01  0.35750994182E-01  0.10000000475E-02 0. -1.
</event>
<event>
 4   0  0.4958067E-02  0.9118800E+02  0.7818609E-02  0.1379984E+01
      -11   -1    0    0    0    0  0.00000000000E+00  0.00000000000E+00  0.35740347158E-01  0.35744000000E-01  0.51099999109E-03 0.  1.
       11   -1    0    0    0    0 -0.00000000000E+00 -0.00000000000E+00 -0.35740347158E-01  0.35744000000E-01  0.51099999109E-03 0. -1.
       22    1    1    2    0    0 -0.28257865968E-02 -0.10588078126E-01 -0.34015307092E-01  0.35737005818E-01  0.00000000000E+00 0. -1.
  9000001    1    1    2    0    0  0.28257865968E-02  0.10588078126E-01  0.34015307092E-01  0.35750994182E-01  0.10000000475E-02 0.  1.
</event>
<event>
 4   0  0.4958067E-02  0.9118800E+02  0.7818609E-02  0.1379984E+01
      -11   -1    0    0    0    0  0.00000000000E+00  0.00000000000E+00  0.35740347158E-01  0.35744000000E-01  0.51099999109E-03 0.  1.
       11   -1    0    0    0    0 -0.00000000000E+00 -0.00000000000E+00 -0.35740347158E-01  0.35744000000E-01  0.51099999109E-03 0. -1.
       22    1    1    2    0    0 -0.15246864895E-02 -0.94535885814E-02 -0.34430198648E-01  0.35737005818E-01  0.00000000000E+00 0. -1.
  9000001    1    1    2    0    0  0.15246864895E-02  0.94535885814E-02  0.34430198648E-01  0.35750994182E-01  0.10000000475E-02 0.  1.
</event>
<event>
 4   0  0.4958067E-02  0.9118800E+02  0.7818609E-02  0.1379984E+01
      -11   -1    0    0    0    0  0.00000000000E+00  0.00000000000E+00  0.35740347158E-01  0.35744000000E-01  0.51099999109E-03 0. -1.
       11   -1    0    0    0    0 -0.00000000000E+00 -0.00000000000E+00 -0.35740347158E-01  0.35744000000E-01  0.51099999109E-03 0.  1.
       22    1    1    2    0    0  0.81358164875E-02  0.80505589260E-02  0.33854550299E-01  0.35737005818E-01  0.00000000000E+00 0. -1.
  9000001    1    1    2    0    0 -0.81358164875E-02 -0.80505589260E-02 -0.33854550299E-01  0.35750994182E-01  0.10000000475E-02 0.  1.
</event>
<event>
 4   0  0.4958067E-02  0.9118800E+02  0.7818609E-02  0.1379984E+01
      -11   -1    0    0    0    0  0.00000000000E+00  0.00000000000E+00  0.35740347158E-01  0.35744000000E-01  0.51099999109E-03 0. -1.
       11   -1    0    0    0    0 -0.00000000000E+00 -0.00000000000E+00 -0.35740347158E-01  0.35744000000E-01  0.51099999109E-03 0.  1.
       22    1    1    2    0    0 -0.22941767610E-02  0.25330313020E-01  0.25104692393E-01  0.35737005818E-01  0.00000000000E+00 0. -1.
  9000001    1    1    2    0    0  0.22941767610E-02 -0.25330313020E-01 -0.25104692393E-01  0.35750994182E-01  0.10000000475E-02 0.  1.
</event>
<event>
 4   0  0.4958067E-02  0.9118800E+02  0.7818609E-02  0.1379984E+01
      -11   -1    0    0    0    0  0.00000000000E+00  0.00000000000E+00  0.35740347158E-01  0.35744000000E-01  0.51099999109E-03 0. -1.
       11   -1    0    0    0    0 -0.00000000000E+00 -0.00000000000E+00 -0.35740347158E-01  0.35744000000E-01  0.51099999109E-03 0.  1.
       22    1    1    2    0    0 -0.28836667732E-02 -0.93630773419E-02  0.34367875022E-01  0.35737005818E-01  0.00000000000E+00 0. -1.
  9000001    1    1    2    0    0  0.28836667732E-02  0.93630773419E-02 -0.34367875022E-01  0.35750994182E-01  0.10000000475E-02 0.  1.
</event>
<event>
 4   0  0.4958067E-02  0.9118800E+02  0.7818609E-02  0.1379984E+01
      -11   -1    0    0    0    0  0.00000000000E+00  0.00000000000E+00  0.35740347158E-01  0.35744000000E-01  0.51099999109E-03 0. -1.
       11   -1    0    0    0    0 -0.00000000000E+00 -0.00000000000E+00 -0.35740347158E-01  0.35744000000E-01  0.51099999109E-03 0.  1.
       22    1    1    2    0    0  0.10073356974E-01  0.33068835687E-01 -0.90616317752E-02  0.35737005818E-01  0.00000000000E+00 0.  1.
  9000001    1    1    2    0    0 -0.10073356974E-01 -0.33068835687E-01  0.90616317752E-02  0.35750994182E-01  0.10000000475E-02 0. -1.
</event>
<event>
 4   0  0.4958067E-02  0.9118800E+02  0.7818609E-02  0.1379984E+01
      -11   -1    0    0    0    0  0.00000000000E+00  0.00000000000E+00  0.35740347158E-01  0.35744000000E-01  0.51099999109E-03 0.  1.
       11   -1    0    0    0    0 -0.00000000000E+00 -0.00000000000E+00 -0.35740347158E-01  0.35744000000E-01  0.51099999109E-03 0. -1.
       22    1    1    2    0    0 -0.24057327051E-02 -0.27545584106E-02  0.35549380346E-01  0.35737005818E-01  0.00000000000E+00 0.  1.
  9000001    1    1    2    0    0  0.24057327051E-02  0.27545584106E-02 -0.35549380346E-01  0.35750994182E-01  0.10000000475E-02 0. -1.
</event>
<event>
 4   0  0.4958067E-02  0.9118800E+02  0.7818609E-02  0.1379984E+01
      -11   -1    0    0    0    0  0.00000000000E+00  0.00000000000E+00  0.35740347158E-01  0.35744000000E-01  0.51099999109E-03 0. -1.
       11   -1    0    0    0    0 -0.00000000000E+00 -0.00000000000E+00 -0.35740347158E-01  0.35744000000E-01  0.51099999109E-03 0.  1.
       22    1    1    2    0    0  0.35694293300E-01  0.12048136056E-02 -0.12646876499E-02  0.35737005818E-01  0.00000000000E+00 0.  1.
  9000001    1    1    2    0    0 -0.35694293300E-01 -0.12048136056E-02  0.12646876499E-02  0.35750994182E-01  0.10000000475E-02 0. -1.
</event>
<event>
 4   0  0.4958067E-02  0.9118800E+02  0.7818609E-02  0.1379984E+01
      -11   -1    0    0    0    0  0.00000000000E+00  0.00000000000E+00  0.35740347158E-01  0.35744000000E-01  0.51099999109E-03 0. -1.
       11   -1    0    0    0    0 -0.00000000000E+00 -0.00000000000E+00 -0.35740347158E-01  0.35744000000E-01  0.51099999109E-03 0.  1.
       22    1    1    2    0    0 -0.39467700492E-03 -0.29200138254E-01  0.20599265542E-01  0.35737005818E-01  0.00000000000E+00 0. -1.
  9000001    1    1    2    0    0  0.39467700492E-03  0.29200138254E-01 -0.20599265542E-01  0.35750994182E-01  0.10000000475E-02 0.  1.
</event>
<event>
 4   0  0.4958067E-02  0.9118800E+02  0.7818609E-02  0.1379984E+01
      -11   -1    0    0    0    0  0.00000000000E+00  0.00000000000E+00  0.35740347158E-01  0.35744000000E-01  0.51099999109E-03 0.  1.
       11   -1    0    0    0    0 -0.00000000000E+00 -0.00000000000E+00 -0.35740347158E-01  0.35744000000E-01  0.51099999109E-03 0. -1.
       22    1    1    2    0    0  0.36715994013E-02 -0.69851727294E-02  0.34854846215E-01  0.35737005818E-01  0.00000000000E+00 0.  1.
  9000001    1    1    2    0    0 -0.36715994013E-02  0.69851727294E-02 -0.34854846215E-01  0.35750994182E-01  0.10000000475E-02 0. -1.
</event>
<event>
 4   0  0.4958067E-02  0.9118800E+02  0.7818609E-02  0.1379984E+01
      -11   -1    0    0    0    0  0.00000000000E+00  0.00000000000E+00  0.35740347158E-01  0.35744000000E-01  0.51099999109E-03 0.  1.
       11   -1    0    0    0    0 -0.00000000000E+00 -0.00000000000E+00 -0.35740347158E-01  0.35744000000E-01  0.51099999109E-03 0. -1.
       22    1    1    2    0    0  0.39648399079E-02  0.97474609760E-02  0.34152608010E-01  0.35737005818E-01  0.00000000000E+00 0.  1.
  9000001    1    1    2    0    0 -0.39648399079E-02 -0.97474609760E-02 -0.34152608010E-01  0.35750994182E-01  0.10000000475E-02 0. -1.
</event>
<event>
 4   0  0.4958067E-02  0.9118800E+02  0.7818609E-02  0.1379984E+01
      -11   -1    0    0    0    0  0.00000000000E+00  0.00000000000E+00  0.35740347158E-01  0.35744000000E-01  0.51099999109E-03 0.  1.
       11   -1    0    0    0    0 -0.00000000000E+00 -0.00000000000E+00 -0.35740347158E-01  0.35744000000E-01  0.51099999109E-03 0. -1.
       22    1    1    2    0    0 -0.17677828209E-02 -0.86163855510E-02 -0.34637644678E-01  0.35737005818E-01  0.00000000000E+00 0. -1.
  9000001    1    1    2    0    0  0.17677828209E-02  0.86163855510E-02  0.34637644678E-01  0.35750994182E-01  0.10000000475E-02 0.  1.
</event>
<event>
 4   0  0.4958067E-02  0.9118800E+02  0.7818609E-02  0.1379984E+01
      -11   -1    0    0    0    0  0.00000000000E+00  0.00000000000E+00  0.35740347158E-01  0.35744000000E-01  0.51099999109E-03 0.  1.
       11   -1    0    0    0    0 -0.00000000000E+00 -0.00000000000E+00 -0.35740347158E-01  0.35744000000E-01  0.51099999109E-03 0. -1.
       22    1    1    2    0    0 -0.15837126250E-01  0.27524548365E-01  0.16392628048E-01  0.35737005818E-01  0.00000000000E+00 0.  1.
  9000001    1    1    2    0    0  0.15837126250E-01 -0.27524548365E-01 -0.16392628048E-01  0.35750994182E-01  0.10000000475E-02 0. -1.
</event>
<event>
 4   0  0.4958067E-02  0.9118800E+02  0.7818609E-02  0.1379984E+01
      -11   -1    0    0    0    0  0.00000000000E+00  0.00000000000E+00  0.35740347158E-01  0.35744000000E-01  0.51099999109E-03 0. -1.
       11   -1    0    0    0    0 -0.00000000000E+00 -0.00000000000E+00 -0.35740347158E-01  0.35744000000E-01  0.51099999109E-03 0.  1.
       22    1    1    2    0    0 -0.27351920630E-02  0.23969285160E-02  0.35551470334E-01  0.35737005818E-01  0.00000000000E+00 0. -1.
  9000001    1    1    2    0    0  0.27351920630E-02 -0.23969285160E-02 -0.35551470334E-01  0.35750994182E-01  0.10000000475E-02 0.  1.
</event>
<event>
 4   0  0.4958067E-02  0.9118800E+02  0.7818609E-02  0.1379984E+01
      -11   -1    0    0    0    0  0.00000000000E+00  0.00000000000E+00  0.35740347158E-01  0.35744000000E-01  0.51099999109E-03 0.  1.
       11   -1    0    0    0    0 -0.00000000000E+00 -0.00000000000E+00 -0.35740347158E-01  0.35744000000E-01  0.51099999109E-03 0. -1.
       22    1    1    2    0    0 -0.42577513641E-02  0.58430100145E-02  0.34998062406E-01  0.35737005818E-01  0.00000000000E+00 0.  1.
  9000001    1    1    2    0    0  0.42577513641E-02 -0.58430100145E-02 -0.34998062406E-01  0.35750994182E-01  0.10000000475E-02 0. -1.
</event>
<event>
 4   0  0.4958067E-02  0.9118800E+02  0.7818609E-02  0.1379984E+01
      -11   -1    0    0    0    0  0.00000000000E+00  0.00000000000E+00  0.35740347158E-01  0.35744000000E-01  0.51099999109E-03 0. -1.
       11   -1    0    0    0    0 -0.00000000000E+00 -0.00000000000E+00 -0.35740347158E-01  0.35744000000E-01  0.51099999109E-03 0.  1.
       22    1    1    2    0    0 -0.15944006789E-01 -0.71100699524E-03  0.31975251390E-01  0.35737005818E-01  0.00000000000E+00 0. -1.
  9000001    1    1    2    0    0  0.15944006789E-01  0.71100699524E-03 -0.31975251390E-01  0.35750994182E-01  0.10000000475E-02 0.  1.
</event>
<event>
 4   0  0.4958067E-02  0.9118800E+02  0.7818609E-02  0.1379984E+01
      -11   -1    0    0    0    0  0.00000000000E+00  0.00000000000E+00  0.35740347158E-01  0.35744000000E-01  0.51099999109E-03 0. -1.
       11   -1    0    0    0    0 -0.00000000000E+00 -0.00000000000E+00 -0.35740347158E-01  0.35744000000E-01  0.51099999109E-03 0.  1.
       22    1    1    2    0    0  0.29930190181E-02  0.64945087424E-03  0.35605528161E-01  0.35737005818E-01  0.00000000000E+00 0. -1.
  9000001    1    1    2    0    0 -0.29930190181E-02 -0.64945087424E-03 -0.35605528161E-01  0.35750994182E-01  0.10000000475E-02 0.  1.
</event>
<event>
 4   0  0.4958067E-02  0.9118800E+02  0.7818609E-02  0.1379984E+01
      -11   -1    0    0    0    0  0.00000000000E+00  0.00000000000E+00  0.35740347158E-01  0.35744000000E-01  0.51099999109E-03 0.  1.
       11   -1    0    0    0    0 -0.00000000000E+00 -0.00000000000E+00 -0.35740347158E-01  0.35744000000E-01  0.51099999109E-03 0. -1.
       22    1    1    2    0    0 -0.13021509020E-02  0.28179464271E-02 -0.35601926434E-01  0.35737005818E-01  0.00000000000E+00 0. -1.
  9000001    1    1    2    0    0  0.13021509020E-02 -0.28179464271E-02  0.35601926434E-01  0.35750994182E-01  0.10000000475E-02 0.  1.
</event>
<event>
 4   0  0.4958067E-02  0.9118800E+02  0.7818609E-02  0.1379984E+01
      -11   -1    0    0    0    0  0.00000000000E+00  0.00000000000E+00  0.35740347158E-01  0.35744000000E-01  0.51099999109E-03 0.  1.
       11   -1    0    0    0    0 -0.00000000000E+00 -0.00000000000E+00 -0.35740347158E-01  0.35744000000E-01  0.51099999109E-03 0. -1.
       22    1    1    2    0    0  0.30204587300E-01 -0.10844787043E-01 -0.15722820514E-01  0.35737005818E-01  0.00000000000E+00 0. -1.
  9000001    1    1    2    0    0 -0.30204587300E-01  0.10844787043E-01  0.15722820514E-01  0.35750994182E-01  0.10000000475E-02 0.  1.
</event>
<event>
 4   0  0.4958067E-02  0.9118800E+02  0.7818609E-02  0.1379984E+01
      -11   -1    0    0    0    0  0.00000000000E+00  0.00000000000E+00  0.35740347158E-01  0.35744000000E-01  0.51099999109E-03 0.  1.
       11   -1    0    0    0    0 -0.00000000000E+00 -0.00000000000E+00 -0.35740347158E-01  0.35744000000E-01  0.51099999109E-03 0. -1.
       22    1    1    2    0    0 -0.11198905993E-01  0.37769880774E-03  0.33934870458E-01  0.35737005818E-01  0.00000000000E+00 0.  1.
  9000001    1    1    2    0    0  0.11198905993E-01 -0.37769880774E-03 -0.33934870458E-01  0.35750994182E-01  0.10000000475E-02 0. -1.
</event>
<event>
 4   0  0.4958067E-02  0.9118800E+02  0.7818609E-02  0.1379984E+01
      -11   -1    0    0    0    0  0.00000000000E+00  0.00000000000E+00  0.35740347158E-01  0.35744000000E-01  0.51099999109E-03 0.  1.
       11   -1    0    0    0    0 -0.00000000000E+00 -0.00000000000E+00 -0.35740347158E-01  0.35744000000E-01  0.51099999109E-03 0. -1.
       22    1    1    2    0    0  0.10342173481E-01  0.13154074575E-01  0.31577576769E-01  0.35737005818E-01  0.00000000000E+00 0.  1.
  9000001    1    1    2    0    0 -0.10342173481E-01 -0.13154074575E-01 -0.31577576769E-01  0.35750994182E-01  0.10000000475E-02 0. -1.
</event>
<event>
 4   0  0.4958067E-02  0.9118800E+02  0.7818609E-02  0.1379984E+01
      -11   -1    0    0    0    0  0.00000000000E+00  0.00000000000E+00  0.35740347158E-01  0.35744000000E-01  0.51099999109E-03 0.  1.
       11   -1    0    0    0    0 -0.00000000000E+00 -0.00000000000E+00 -0.35740347158E-01  0.35744000000E-01  0.51099999109E-03 0. -1.
       22    1    1    2    0    0 -0.19829569523E-01  0.37213573473E-02 -0.29497004202E-01  0.35737005818E-01  0.00000000000E+00 0. -1.
  9000001    1    1    2    0    0  0.19829569523E-01 -0.37213573473E-02  0.29497004202E-01  0.35750994182E-01  0.10000000475E-02 0.  1.
</event>
<event>
 4   0  0.4958067E-02  0.9118800E+02  0.7818609E-02  0.1379984E+01
      -11   -1    0    0    0    0  0.00000000000E+00  0.00000000000E+00  0.35740347158E-01  0.35744000000E-01  0.51099999109E-03 0.  1.
       11   -1    0    0    0    0 -0.00000000000E+00 -0.00000000000E+00 -0.35740347158E-01  0.35744000000E-01  0.51099999109E-03 0. -1.
       22    1    1    2    0    0 -0.67109948089E-02 -0.98470476463E-02  0.33691716878E-01  0.35737005818E-01  0.00000000000E+00 0.  1.
  9000001    1    1    2    0    0  0.67109948089E-02  0.98470476463E-02 -0.33691716878E-01  0.35750994182E-01  0.10000000475E-02 0. -1.
</event>
<event>
 4   0  0.4958067E-02  0.9118800E+02  0.7818609E-02  0.1379984E+01
      -11   -1    0    0    0    0  0.00000000000E+00  0.00000000000E+00  0.35740347158E-01  0.35744000000E-01  0.51099999109E-03 0.  1.
       11   -1    0    0    0    0 -0.00000000000E+00 -0.00000000000E+00 -0.35740347158E-01  0.35744000000E-01  0.51099999109E-03 0. -1.
       22    1    1    2    0    0  0.61025406255E-02  0.82013939996E-02  0.34243681450E-01  0.35737005818E-01  0.00000000000E+00 0.  1.
  9000001    1    1    2    0    0 -0.61025406255E-02 -0.82013939996E-02 -0.34243681450E-01  0.35750994182E-01  0.10000000475E-02 0. -1.
</event>
<event>
 4   0  0.4958067E-02  0.9118800E+02  0.7818609E-02  0.1379984E+01
      -11   -1    0    0    0    0  0.00000000000E+00  0.00000000000E+00  0.35740347158E-01  0.35744000000E-01  0.51099999109E-03 0. -1.
       11   -1    0    0    0    0 -0.00000000000E+00 -0.00000000000E+00 -0.35740347158E-01  0.35744000000E-01  0.51099999109E-03 0.  1.
       22    1    1    2    0    0  0.44068353454E-02  0.46517282863E-02 -0.35157855610E-01  0.35737005818E-01  0.00000000000E+00 0.  1.
  9000001    1    1    2    0    0 -0.44068353454E-02 -0.46517282863E-02  0.35157855610E-01  0.35750994182E-01  0.10000000475E-02 0. -1.
</event>
<event>
 4   0  0.4958067E-02  0.9118800E+02  0.7818609E-02  0.1379984E+01
      -11   -1    0    0    0    0  0.00000000000E+00  0.00000000000E+00  0.35740347158E-01  0.35744000000E-01  0.51099999109E-03 0.  1.
       11   -1    0    0    0    0 -0.00000000000E+00 -0.00000000000E+00 -0.35740347158E-01  0.35744000000E-01  0.51099999109E-03 0. -1.
       22    1    1    2    0    0  0.75619952502E-02 -0.13891865406E-02  0.34900142886E-01  0.35737005818E-01  0.00000000000E+00 0.  1.
  9000001    1    1    2    0    0 -0.75619952502E-02  0.13891865406E-02 -0.34900142886E-01  0.35750994182E-01  0.10000000475E-02 0. -1.
</event>
<event>
 4   0  0.4958067E-02  0.9118800E+02  0.7818609E-02  0.1379984E+01
      -11   -1    0    0    0    0  0.00000000000E+00  0.00000000000E+00  0.35740347158E-01  0.35744000000E-01  0.51099999109E-03 0. -1.
       11   -1    0    0    0    0 -0.00000000000E+00 -0.00000000000E+00 -0.35740347158E-01  0.35744000000E-01  0.51099999109E-03 0.  1.
       22    1    1    2    0    0 -0.13987028109E-01  0.33691115784E-02 -0.32713081737E-01  0.35737005818E-01  0.00000000000E+00 0.  1.
  9000001    1    1    2    0    0  0.13987028109E-01 -0.33691115784E-02  0.32713081737E-01  0.35750994182E-01  0.10000000475E-02 0. -1.
</event>
<event>
 4   0  0.4958067E-02  0.9118800E+02  0.7818609E-02  0.1379984E+01
      -11   -1    0    0    0    0  0.00000000000E+00  0.00000000000E+00  0.35740347158E-01  0.35744000000E-01  0.51099999109E-03 0. -1.
       11   -1    0    0    0    0 -0.00000000000E+00 -0.00000000000E+00 -0.35740347158E-01  0.35744000000E-01  0.51099999109E-03 0.  1.
       22    1    1    2    0    0  0.93367614148E-02 -0.57894720770E-02 -0.34006477092E-01  0.35737005818E-01  0.00000000000E+00 0.  1.
  9000001    1    1    2    0    0 -0.93367614148E-02  0.57894720770E-02  0.34006477092E-01  0.35750994182E-01  0.10000000475E-02 0. -1.
</event>
<event>
 4   0  0.4958067E-02  0.9118800E+02  0.7818609E-02  0.1379984E+01
      -11   -1    0    0    0    0  0.00000000000E+00  0.00000000000E+00  0.35740347158E-01  0.35744000000E-01  0.51099999109E-03 0. -1.
       11   -1    0    0    0    0 -0.00000000000E+00 -0.00000000000E+00 -0.35740347158E-01  0.35744000000E-01  0.51099999109E-03 0.  1.
       22    1    1    2    0    0 -0.24783601554E-01  0.58175323925E-03  0.25740400969E-01  0.35737005818E-01  0.00000000000E+00 0. -1.
  9000001    1    1    2    0    0  0.24783601554E-01 -0.58175323925E-03 -0.25740400969E-01  0.35750994182E-01  0.10000000475E-02 0.  1.
</event>
<event>
 4   0  0.4958067E-02  0.9118800E+02  0.7818609E-02  0.1379984E+01
      -11   -1    0    0    0    0  0.00000000000E+00  0.00000000000E+00  0.35740347158E-01  0.35744000000E-01  0.51099999109E-03 0.  1.
       11   -1    0    0    0    0 -0.00000000000E+00 -0.00000000000E+00 -0.35740347158E-01  0.35744000000E-01  0.51099999109E-03 0. -1.
       22    1    1    2    0    0 -0.47455668506E-02 -0.14668565249E-03  0.35420215463E-01  0.35737005818E-01  0.00000000000E+00 0.  1.
  9000001    1    1    2    0    0  0.47455668506E-02  0.14668565249E-03 -0.35420215463E-01  0.35750994182E-01  0.10000000475E-02 0. -1.
</event>
<event>
 4   0  0.4958067E-02  0.9118800E+02  0.7818609E-02  0.1379984E+01
      -11   -1    0    0    0    0  0.00000000000E+00  0.00000000000E+00  0.35740347158E-01  0.35744000000E-01  0.51099999109E-03 0.  1.
       11   -1    0    0    0    0 -0.00000000000E+00 -0.00000000000E+00 -0.35740347158E-01  0.35744000000E-01  0.51099999109E-03 0. -1.
       22    1    1    2    0    0 -0.26194398887E-02  0.23421786499E-01  0.26864326471E-01  0.35737005818E-01  0.00000000000E+00 0.  1.
  9000001    1    1    2    0    0  0.26194398887E-02 -0.23421786499E-01 -0.26864326471E-01  0.35750994182E-01  0.10000000475E-02 0. -1.
</event>
<event>
 4   0  0.4958067E-02  0.9118800E+02  0.7818609E-02  0.1379984E+01
      -11   -1    0    0    0    0  0.00000000000E+00  0.00000000000E+00  0.35740347158E-01  0.35744000000E-01  0.51099999109E-03 0.  1.
       11   -1    0    0    0    0 -0.00000000000E+00 -0.00000000000E+00 -0.35740347158E-01  0.35744000000E-01  0.51099999109E-03 0. -1.
       22    1    1    2    0    0 -0.31014486482E-02 -0.35029701684E-01  0.63588207295E-02  0.35737005818E-01  0.00000000000E+00 0.  1.
  9000001    1    1    2    0    0  0.31014486482E-02  0.35029701684E-01 -0.63588207295E-02  0.35750994182E-01  0.10000000475E-02 0. -1.
</event>
<event>
 4   0  0.4958067E-02  0.9118800E+02  0.7818609E-02  0.1379984E+01
      -11   -1    0    0    0    0  0.00000000000E+00  0.00000000000E+00  0.35740347158E-01  0.35744000000E-01  0.51099999109E-03 0.  1.
       11   -1    0    0    0    0 -0.00000000000E+00 -0.00000000000E+00 -0.35740347158E-01  0.35744000000E-01  0.51099999109E-03 0. -1.
       22    1    1    2    0    0 -0.49800756298E-03 -0.39009455003E-02  0.35519968997E-01  0.35737005818E-01  0.00000000000E+00 0.  1.
  9000001    1    1    2    0    0  0.49800756298E-03  0.39009455003E-02 -0.35519968997E-01  0.35750994182E-01  0.10000000475E-02 0. -1.
</event>
<event>
 4   0  0.4958067E-02  0.9118800E+02  0.7818609E-02  0.1379984E+01
      -11   -1    0    0    0    0  0.00000000000E+00  0.00000000000E+00  0.35740347158E-01  0.35744000000E-01  0.51099999109E-03 0. -1.
       11   -1    0    0    0    0 -0.00000000000E+00 -0.00000000000E+00 -0.35740347158E-01  0.35744000000E-01  0.51099999109E-03 0.  1.
       22    1    1    2    0    0  0.37516722564E-03 -0.38429783223E-02 -0.35527796893E-01  0.35737005818E-01  0.00000000000E+00 0.  1.
  9000001    1    1    2    0    0 -0.37516722564E-03  0.38429783223E-02  0.35527796893E-01  0.35750994182E-01  0.10000000475E-02 0. -1.
</event>
<event>
 4   0  0.4958067E-02  0.9118800E+02  0.7818609E-02  0.1379984E+01
      -11   -1    0    0    0    0  0.00000000000E+00  0.00000000000E+00  0.35740347158E-01  0.35744000000E-01  0.51099999109E-03 0. -1.
       11   -1    0    0    0    0 -0.00000000000E+00 -0.00000000000E+00 -0.35740347158E-01  0.35744000000E-01  0.51099999109E-03 0.  1.
       22    1    1    2    0    0 -0.42528195294E-02  0.34869788536E-01 -0.65684821950E-02  0.35737005818E-01  0.00000000000E+00 0.  1.
  9000001    1    1    2    0    0  0.42528195294E-02 -0.34869788536E-01  0.65684821950E-02  0.35750994182E-01  0.10000000475E-02 0. -1.
</event>
<event>
 4   0  0.4958067E-02  0.9118800E+02  0.7818609E-02  0.1379984E+01
      -11   -1    0    0    0    0  0.00000000000E+00  0.00000000000E+00  0.35740347158E-01  0.35744000000E-01  0.51099999109E-03 0.  1.
       11   -1    0    0    0    0 -0.00000000000E+00 -0.00000000000E+00 -0.35740347158E-01  0.35744000000E-01  0.51099999109E-03 0. -1.
       22    1    1    2    0    0 -0.10344575352E-01 -0.42661997007E-02  0.33939989478E-01  0.35737005818E-01  0.00000000000E+00 0.  1.
  9000001    1    1    2    0    0  0.10344575352E-01  0.42661997007E-02 -0.33939989478E-01  0.35750994182E-01  0.10000000475E-02 0. -1.
</event>
<event>
 4   0  0.4958067E-02  0.9118800E+02  0.7818609E-02  0.1379984E+01
      -11   -1    0    0    0    0  0.00000000000E+00  0.00000000000E+00  0.35740347158E-01  0.35744000000E-01  0.51099999109E-03 0.  1.
       11   -1    0    0    0    0 -0.00000000000E+00 -0.00000000000E+00 -0.35740347158E-01  0.35744000000E-01  0.51099999109E-03 0. -1.
       22    1    1    2    0    0  0.80846295206E-02 -0.13003496136E-02 -0.34786224878E-01  0.35737005818E-01  0.00000000000E+00 0. -1.
  9000001    1    1    2    0    0 -0.80846295206E-02  0.13003496136E-02  0.34786224878E-01  0.35750994182E-01  0.10000000475E-02 0.  1.
</event>
<event>
 4   0  0.4958067E-02  0.9118800E+02  0.7818609E-02  0.1379984E+01
      -11   -1    0    0    0    0  0.00000000000E+00  0.00000000000E+00  0.35740347158E-01  0.35744000000E-01  0.51099999109E-03 0. -1.
       11   -1    0    0    0    0 -0.00000000000E+00 -0.00000000000E+00 -0.35740347158E-01  0.35744000000E-01  0.51099999109E-03 0.  1.
       22    1    1    2    0    0 -0.52821612647E-02  0.66163044083E-02  0.34719689993E-01  0.35737005818E-01  0.00000000000E+00 0. -1.
  9000001    1    1    2    0    0  0.52821612647E-02 -0.66163044083E-02 -0.34719689993E-01  0.35750994182E-01  0.10000000475E-02 0.  1.
</event>
<event>
 4   0  0.4958067E-02  0.9118800E+02  0.7818609E-02  0.1379984E+01
      -11   -1    0    0    0    0  0.00000000000E+00  0.00000000000E+00  0.35740347158E-01  0.35744000000E-01  0.51099999109E-03 0. -1.
       11   -1    0    0    0    0 -0.00000000000E+00 -0.00000000000E+00 -0.35740347158E-01  0.35744000000E-01  0.51099999109E-03 0.  1.
       22    1    1    2    0    0  0.30237785586E-01  0.15239805506E-01  0.11426208290E-01  0.35737005818E-01  0.00000000000E+00 0. -1.
  9000001    1    1    2    0    0 -0.30237785586E-01 -0.15239805506E-01 -0.11426208290E-01  0.35750994182E-01  0.10000000475E-02 0.  1.
</event>
<event>
 4   0  0.4958067E-02  0.9118800E+02  0.7818609E-02  0.1379984E+01
      -11   -1    0    0    0    0  0.00000000000E+00  0.00000000000E+00  0.35740347158E-01  0.35744000000E-01  0.51099999109E-03 0.  1.
       11   -1    0    0    0    0 -0.00000000000E+00 -0.00000000000E+00 -0.35740347158E-01  0.35744000000E-01  0.51099999109E-03 0. -1.
       22    1    1    2    0    0  0.19599147836E-01 -0.10043512985E-01 -0.28144890049E-01  0.35737005818E-01  0.00000000000E+00 0. -1.
  9000001    1    1    2    0    0 -0.19599147836E-01  0.10043512985E-01  0.28144890049E-01  0.35750994182E-01  0.10000000475E-02 0.  1.
</event>
<event>
 4   0  0.4958067E-02  0.9118800E+02  0.7818609E-02  0.1379984E+01
      -11   -1    0    0    0    0  0.00000000000E+00  0.00000000000E+00  0.35740347158E-01  0.35744000000E-01  0.51099999109E-03 0. -1.
       11   -1    0    0    0    0 -0.00000000000E+00 -0.00000000000E+00 -0.35740347158E-01  0.35744000000E-01  0.51099999109E-03 0.  1.
       22    1    1    2    0    0  0.54652510360E-02 -0.68803732743E-03 -0.35309930906E-01  0.35737005818E-01  0.00000000000E+00 0.  1.
  9000001    1    1    2    0    0 -0.54652510360E-02  0.68803732743E-03  0.35309930906E-01  0.35750994182E-01  0.10000000475E-02 0. -1.
</event>
<event>
 4   0  0.4958067E-02  0.9118800E+02  0.7818609E-02  0.1379984E+01
      -11   -1    0    0    0    0  0.00000000000E+00  0.00000000000E+00  0.35740347158E-01  0.35744000000E-01  0.51099999109E-03 0.  1.
       11   -1    0    0    0    0 -0.00000000000E+00 -0.00000000000E+00 -0.35740347158E-01  0.35744000000E-01  0.51099999109E-03 0. -1.
       22    1    1    2    0    0 -0.14898660135E-01  0.80180008922E-02  0.31478169781E-01  0.35737005818E-01  0.00000000000E+00 0.  1.
  9000001    1    1    2    0    0  0.14898660135E-01 -0.80180008922E-02 -0.31478169781E-01  0.35750994182E-01  0.10000000475E-02 0. -1.
</event>
<event>
 4   0  0.4958067E-02  0.9118800E+02  0.7818609E-02  0.1379984E+01
      -11   -1    0    0    0    0  0.00000000000E+00  0.00000000000E+00  0.35740347158E-01  0.35744000000E-01  0.51099999109E-03 0. -1.
       11   -1    0    0    0    0 -0.00000000000E+00 -0.00000000000E+00 -0.35740347158E-01  0.35744000000E-01  0.51099999109E-03 0.  1.
       22    1    1    2    0    0 -0.91667890947E-02 -0.17142140540E-03  0.34540905855E-01  0.35737005818E-01  0.00000000000E+00 0. -1.
  9000001    1    1    2    0    0  0.91667890947E-02  0.17142140540E-03 -0.34540905855E-01  0.35750994182E-01  0.10000000475E-02 0.  1.
</event>
<event>
 4   0  0.4958067E-02  0.9118800E+02  0.7818609E-02  0.1379984E+01
      -11   -1    0    0    0    0  0.00000000000E+00  0.00000000000E+00  0.35740347158E-01  0.35744000000E-01  0.51099999109E-03 0.  1.
       11   -1    0    0    0    0 -0.00000000000E+00 -0.00000000000E+00 -0.35740347158E-01  0.35744000000E-01  0.51099999109E-03 0. -1.
       22    1    1    2    0    0  0.17058663340E-01  0.11051440200E-01 -0.29393898337E-01  0.35737005818E-01  0.00000000000E+00 0. -1.
  9000001    1    1    2    0    0 -0.17058663340E-01 -0.11051440200E-01  0.29393898337E-01  0.35750994182E-01  0.10000000475E-02 0.  1.
</event>
<event>
 4   0  0.4958067E-02  0.9118800E+02  0.7818609E-02  0.1379984E+01
      -11   -1    0    0    0    0  0.00000000000E+00  0.00000000000E+00  0.35740347158E-01  0.35744000000E-01  0.51099999109E-03 0. -1.
       11   -1    0    0    0    0 -0.00000000000E+00 -0.00000000000E+00 -0.35740347158E-01  0.35744000000E-01  0.51099999109E-03 0.  1.
       22    1    1    2    0    0 -0.15516213005E-02 -0.10877171451E-01 -0.34006075890E-01  0.35737005818E-01  0.00000000000E+00 0.  1.
  9000001    1    1    2    0    0  0.15516213005E-02  0.10877171451E-01  0.34006075890E-01  0.35750994182E-01  0.10000000475E-02 0. -1.
</event>
<event>
 4   0  0.4958067E-02  0.9118800E+02  0.7818609E-02  0.1379984E+01
      -11   -1    0    0    0    0  0.00000000000E+00  0.00000000000E+00  0.35740347158E-01  0.35744000000E-01  0.51099999109E-03 0. -1.
       11   -1    0    0    0    0 -0.00000000000E+00 -0.00000000000E+00 -0.35740347158E-01  0.35744000000E-01  0.51099999109E-03 0.  1.
       22    1    1    2    0    0  0.72191950145E-02  0.18182407472E-01 -0.29906803018E-01  0.35737005818E-01  0.00000000000E+00 0.  1.
  9000001    1    1    2    0    0 -0.72191950145E-02 -0.18182407472E-01  0.29906803018E-01  0.35750994182E-01  0.10000000475E-02 0. -1.
</event>
<event>
 4   0  0.4958067E-02  0.9118800E+02  0.7818609E-02  0.1379984E+01
      -11   -1    0    0    0    0  0.00000000000E+00  0.00000000000E+00  0.35740347158E-01  0.35744000000E-01  0.51099999109E-03 0.  1.
       11   -1    0    0    0    0 -0.00000000000E+00 -0.00000000000E+00 -0.35740347158E-01  0.35744000000E-01  0.51099999109E-03 0. -1.
       22    1    1    2    0    0 -0.24871266611E-01  0.19590128570E-01  0.16576505803E-01  0.35737005818E-01  0.00000000000E+00 0.  1.
  9000001    1    1    2    0    0  0.24871266611E-01 -0.19590128570E-01 -0.16576505803E-01  0.35750994182E-01  0.10000000475E-02 0. -1.
</event>
<event>
 4   0  0.4958067E-02  0.9118800E+02  0.7818609E-02  0.1379984E+01
      -11   -1    0    0    0    0  0.00000000000E+00  0.00000000000E+00  0.35740347158E-01  0.35744000000E-01  0.51099999109E-03 0. -1.
       11   -1    0    0    0    0 -0.00000000000E+00 -0.00000000000E+00 -0.35740347158E-01  0.35744000000E-01  0.51099999109E-03 0.  1.
       22    1    1    2    0    0  0.80869776801E-02 -0.18679599237E-01  0.29373575697E-01  0.35737005818E-01  0.00000000000E+00 0. -1.
  9000001    1    1    2    0    0 -0.80869776801E-02  0.18679599237E-01 -0.29373575697E-01  0.35750994182E-01  0.10000000475E-02 0.  1.
</event>
<event>
 4   0  0.4958067E-02  0.9118800E+02  0.7818609E-02  0.1379984E+01
      -11   -1    0    0    0    0  0.00000000000E+00  0.00000000000E+00  0.35740347158E-01  0.35744000000E-01  0.51099999109E-03 0. -1.
       11   -1    0    0    0    0 -0.00000000000E+00 -0.00000000000E+00 -0.35740347158E-01  0.35744000000E-01  0.51099999109E-03 0.  1.
       22    1    1    2    0    0 -0.64957413244E-02  0.10104682163E-02  0.35127167314E-01  0.35737005818E-01  0.00000000000E+00 0. -1.
  9000001    1    1    2    0    0  0.64957413244E-02 -0.10104682163E-02 -0.35127167314E-01  0.35750994182E-01  0.10000000475E-02 0.  1.
</event>
<event>
 4   0  0.4958067E-02  0.9118800E+02  0.7818609E-02  0.1379984E+01
      -11   -1    0    0    0    0  0.00000000000E+00  0.00000000000E+00  0.35740347158E-01  0.35744000000E-01  0.51099999109E-03 0.  1.
       11   -1    0    0    0    0 -0.00000000000E+00 -0.00000000000E+00 -0.35740347158E-01  0.35744000000E-01  0.51099999109E-03 0. -1.
       22    1    1    2    0    0 -0.27224903569E-02  0.14924972337E-02  0.35601883140E-01  0.35737005818E-01  0.00000000000E+00 0.  1.
  9000001    1    1    2    0    0  0.27224903569E-02 -0.14924972337E-02 -0.35601883140E-01  0.35750994182E-01  0.10000000475E-02 0. -1.
</event>
<event>
 4   0  0.4958067E-02  0.9118800E+02  0.7818609E-02  0.1379984E+01
      -11   -1    0    0    0    0  0.00000000000E+00  0.00000000000E+00  0.35740347158E-01  0.35744000000E-01  0.51099999109E-03 0.  1.
       11   -1    0    0    0    0 -0.00000000000E+00 -0.00000000000E+00 -0.35740347158E-01  0.35744000000E-01  0.51099999109E-03 0. -1.
       22    1    1    2    0    0  0.85964242220E-02  0.21495021037E-01  0.27224972839E-01  0.35737005818E-01  0.00000000000E+00 0.  1.
  9000001    1    1    2    0    0 -0.85964242220E-02 -0.21495021037E-01 -0.27224972839E-01  0.35750994182E-01  0.10000000475E-02 0. -1.
</event>
<event>
 4   0  0.4958067E-02  0.9118800E+02  0.7818609E-02  0.1379984E+01
      -11   -1    0    0    0    0  0.00000000000E+00  0.00000000000E+00  0.35740347158E-01  0.35744000000E-01  0.51099999109E-03 0.  1.
       11   -1    0    0    0    0 -0.00000000000E+00 -0.00000000000E+00 -0.35740347158E-01  0.35744000000E-01  0.51099999109E-03 0. -1.
       22    1    1    2    0    0  0.77125400763E-02 -0.12455722246E-01 -0.32596093229E-01  0.35737005818E-01  0.00000000000E+00 0. -1.
  9000001    1    1    2    0    0 -0.77125400763E-02  0.12455722246E-01  0.32596093229E-01  0.35750994182E-01  0.10000000475E-02 0.  1.
</event>
<event>
 4   0  0.4958067E-02  0.9118800E+02  0.7818609E-02  0.1379984E+01
      -11   -1    0    0    0    0  0.00000000000E+00  0.00000000000E+00  0.35740347158E-01  0.35744000000E-01  0.51099999109E-03 0. -1.
       11   -1    0    0    0    0 -0.00000000000E+00 -0.00000000000E+00 -0.35740347158E-01  0.35744000000E-01  0.51099999109E-03 0.  1.
       22    1    1    2    0    0 -0.61941204447E-02  0.10679206993E-01 -0.33536860240E-01  0.35737005818E-01  0.00000000000E+00 0.  1.
  9000001    1    1    2    0    0  0.61941204447E-02 -0.10679206993E-01  0.33536860240E-01  0.35750994182E-01  0.10000000475E-02 0. -1.
</event>
<event>
 4   0  0.4958067E-02  0.9118800E+02  0.7818609E-02  0.1379984E+01
      -11   -1    0    0    0    0  0.00000000000E+00  0.00000000000E+00  0.35740347158E-01  0.35744000000E-01  0.51099999109E-03 0.  1.
       11   -1    0    0    0    0 -0.00000000000E+00 -0.00000000000E+00 -0.35740347158E-01  0.35744000000E-01  0.51099999109E-03 0. -1.
       22    1    1    2    0    0 -0.10068539480E-01  0.29118211140E-02  0.34165470806E-01  0.35737005818E-01  0.00000000000E+00 0.  1.
  9000001    1    1    2    0    0  0.10068539480E-01 -0.29118211140E-02 -0.34165470806E-01  0.35750994182E-01  0.10000000475E-02 0. -1.
</event>
<event>
 4   0  0.4958067E-02  0.9118800E+02  0.7818609E-02  0.1379984E+01
      -11   -1    0    0    0    0  0.00000000000E+00  0.00000000000E+00  0.35740347158E-01  0.35744000000E-01  0.51099999109E-03 0. -1.
       11   -1    0    0    0    0 -0.00000000000E+00 -0.00000000000E+00 -0.35740347158E-01  0.35744000000E-01  0.51099999109E-03 0.  1.
       22    1    1    2    0    0  0.42112272143E-02  0.54486780191E-02 -0.35067236248E-01  0.35737005818E-01  0.00000000000E+00 0.  1.
  9000001    1    1    2    0    0 -0.42112272143E-02 -0.54486780191E-02  0.35067236248E-01  0.35750994182E-01  0.10000000475E-02 0. -1.
</event>
<event>
 4   0  0.4958067E-02  0.9118800E+02  0.7818609E-02  0.1379984E+01
      -11   -1    0    0    0    0  0.00000000000E+00  0.00000000000E+00  0.35740347158E-01  0.35744000000E-01  0.51099999109E-03 0.  1.
       11   -1    0    0    0    0 -0.00000000000E+00 -0.00000000000E+00 -0.35740347158E-01  0.35744000000E-01  0.51099999109E-03 0. -1.
       22    1    1    2    0    0 -0.16203415764E-01 -0.38802532666E-02 -0.31615289609E-01  0.35737005818E-01  0.00000000000E+00 0. -1.
  9000001    1    1    2    0    0  0.16203415764E-01  0.38802532666E-02  0.31615289609E-01  0.35750994182E-01  0.10000000475E-02 0.  1.
</event>
<event>
 4   0  0.4958067E-02  0.9118800E+02  0.7818609E-02  0.1379984E+01
      -11   -1    0    0    0    0  0.00000000000E+00  0.00000000000E+00  0.35740347158E-01  0.35744000000E-01  0.51099999109E-03 0.  1.
       11   -1    0    0    0    0 -0.00000000000E+00 -0.00000000000E+00 -0.35740347158E-01  0.35744000000E-01  0.51099999109E-03 0. -1.
       22    1    1    2    0    0 -0.40177108858E-02  0.18754804514E-02 -0.35460882070E-01  0.35737005818E-01  0.00000000000E+00 0. -1.
  9000001    1    1    2    0    0  0.40177108858E-02 -0.18754804514E-02  0.35460882070E-01  0.35750994182E-01  0.10000000475E-02 0.  1.
</event>
<event>
 4   0  0.4958067E-02  0.9118800E+02  0.7818609E-02  0.1379984E+01
      -11   -1    0    0    0    0  0.00000000000E+00  0.00000000000E+00  0.35740347158E-01  0.35744000000E-01  0.51099999109E-03 0.  1.
       11   -1    0    0    0    0 -0.00000000000E+00 -0.00000000000E+00 -0.35740347158E-01  0.35744000000E-01  0.51099999109E-03 0. -1.
       22    1    1    2    0    0  0.36352505038E-02  0.39659050433E-02 -0.35329734443E-01  0.35737005818E-01  0.00000000000E+00 0. -1.
  9000001    1    1    2    0    0 -0.36352505038E-02 -0.39659050433E-02  0.35329734443E-01  0.35750994182E-01  0.10000000475E-02 0.  1.
</event>
<event>
 4   0  0.4958067E-02  0.9118800E+02  0.7818609E-02  0.1379984E+01
      -11   -1    0    0    0    0  0.00000000000E+00  0.00000000000E+00  0.35740347158E-01  0.35744000000E-01  0.51099999109E-03 0. -1.
       11   -1    0    0    0    0 -0.00000000000E+00 -0.00000000000E+00 -0.35740347158E-01  0.35744000000E-01  0.51099999109E-03 0.  1.
       22    1    1    2    0    0 -0.27447131768E-02 -0.19007226799E-01 -0.30138438312E-01  0.35737005818E-01  0.00000000000E+00 0.  1.
  9000001    1    1    2    0    0  0.27447131768E-02  0.19007226799E-01  0.30138438312E-01  0.35750994182E-01  0.10000000475E-02 0. -1.
</event>
<event>
 4   0  0.4958067E-02  0.9118800E+02  0.7818609E-02  0.1379984E+01
      -11   -1    0    0    0    0  0.00000000000E+00  0.00000000000E+00  0.35740347158E-01  0.35744000000E-01  0.51099999109E-03 0.  1.
       11   -1    0    0    0    0 -0.00000000000E+00 -0.00000000000E+00 -0.35740347158E-01  0.35744000000E-01  0.51099999109E-03 0. -1.
       22    1    1    2    0    0  0.18854967581E-01  0.22883355544E-01 -0.19949331353E-01  0.35737005818E-01  0.00000000000E+00 0. -1.
  9000001    1    1    2    0    0 -0.18854967581E-01 -0.22883355544E-01  0.19949331353E-01  0.35750994182E-01  0.10000000475E-02 0.  1.
</event>
<event>
 4   0  0.4958067E-02  0.9118800E+02  0.7818609E-02  0.1379984E+01
      -11   -1    0    0    0    0  0.00000000000E+00  0.00000000000E+00  0.35740347158E-01  0.35744000000E-01  0.51099999109E-03 0. -1.
       11   -1    0    0    0    0 -0.00000000000E+00 -0.00000000000E+00 -0.35740347158E-01  0.35744000000E-01  0.51099999109E-03 0.  1.
       22    1    1    2    0    0 -0.39649277750E-02 -0.42158682070E-02 -0.35265271697E-01  0.35737005818E-01  0.00000000000E+00 0.  1.
  9000001    1    1    2    0    0  0.39649277750E-02  0.42158682070E-02  0.35265271697E-01  0.35750994182E-01  0.10000000475E-02 0. -1.
</event>
<event>
 4   0  0.4958067E-02  0.9118800E+02  0.7818609E-02  0.1379984E+01
      -11   -1    0    0    0    0  0.00000000000E+00  0.00000000000E+00  0.35740347158E-01  0.35744000000E-01  0.51099999109E-03 0. -1.
       11   -1    0    0    0    0 -0.00000000000E+00 -0.00000000000E+00 -0.35740347158E-01  0.35744000000E-01  0.51099999109E-03 0.  1.
       22    1    1    2    0    0 -0.21560430043E-01 -0.27577956040E-01  0.71928980144E-02  0.35737005818E-01  0.00000000000E+00 0. -1.
  9000001    1    1    2    0    0  0.21560430043E-01  0.27577956040E-01 -0.71928980144E-02  0.35750994182E-01  0.10000000475E-02 0.  1.
</event>
<event>
 4   0  0.4958067E-02  0.9118800E+02  0.7818609E-02  0.1379984E+01
      -11   -1    0    0    0    0  0.00000000000E+00  0.00000000000E+00  0.35740347158E-01  0.35744000000E-01  0.51099999109E-03 0. -1.
       11   -1    0    0    0    0 -0.00000000000E+00 -0.00000000000E+00 -0.35740347158E-01  0.35744000000E-01  0.51099999109E-03 0.  1.
       22    1    1    2    0    0  0.29829720076E-02 -0.21127217425E-02  0.35549569192E-01  0.35737005818E-01  0.00000000000E+00 0. -1.
  9000001    1    1    2    0    0 -0.29829720076E-02  0.21127217425E-02 -0.35549569192E-01  0.35750994182E-01  0.10000000475E-02 0.  1.
</event>
<event>
 4   0  0.4958067E-02  0.9118800E+02  0.7818609E-02  0.1379984E+01
      -11   -1    0    0    0    0  0.00000000000E+00  0.00000000000E+00  0.35740347158E-01  0.35744000000E-01  0.51099999109E-03 0.  1.
       11   -1    0    0    0    0 -0.00000000000E+00 -0.00000000000E+00 -0.35740347158E-01  0.35744000000E-01  0.51099999109E-03 0. -1.
       22    1    1    2    0    0  0.64127252069E-02 -0.22618254158E-02  0.35084108740E-01  0.35737005818E-01  0.00000000000E+00 0.  1.
  9000001    1    1    2    0    0 -0.64127252069E-02  0.22618254158E-02 -0.35084108740E-01  0.35750994182E-01  0.10000000475E-02 0. -1.
</event>
<event>
 4   0  0.4958067E-02  0.9118800E+02  0.7818609E-02  0.1379984E+01
      -11   -1    0    0    0    0  0.00000000000E+00  0.00000000000E+00  0.35740347158E-01  0.35744000000E-01  0.51099999109E-03 0. -1.
       11   -1    0    0    0    0 -0.00000000000E+00 -0.00000000000E+00 -0.35740347158E-01  0.35744000000E-01  0.51099999109E-03 0.  1.
       22    1    1    2    0    0  0.75853502566E-02 -0.15656983788E-01 -0.31216260266E-01  0.35737005818E-01  0.00000000000E+00 0.  1.
  9000001    1    1    2    0    0 -0.75853502566E-02  0.15656983788E-01  0.31216260266E-01  0.35750994182E-01  0.10000000475E-02 0. -1.
</event>
<event>
 4   0  0.4958067E-02  0.9118800E+02  0.7818609E-02  0.1379984E+01
      -11   -1    0    0    0    0  0.00000000000E+00  0.00000000000E+00  0.35740347158E-01  0.35744000000E-01  0.51099999109E-03 0.  1.
       11   -1    0    0    0    0 -0.00000000000E+00 -0.00000000000E+00 -0.35740347158E-01  0.35744000000E-01  0.51099999109E-03 0. -1.
       22    1    1    2    0    0  0.27920735820E-02  0.13023489385E-02 -0.35603957606E-01  0.35737005818E-01  0.00000000000E+00 0. -1.
  9000001    1    1    2    0    0 -0.27920735820E-02 -0.13023489385E-02  0.35603957606E-01  0.35750994182E-01  0.10000000475E-02 0.  1.
</event>
<event>
 4   0  0.4958067E-02  0.9118800E+02  0.7818609E-02  0.1379984E+01
      -11   -1    0    0    0    0  0.00000000000E+00  0.00000000000E+00  0.35740347158E-01  0.35744000000E-01  0.51099999109E-03 0. -1.
       11   -1    0    0    0    0 -0.00000000000E+00 -0.00000000000E+00 -0.35740347158E-01  0.35744000000E-01  0.51099999109E-03 0.  1.
       22    1    1    2    0    0 -0.18722729338E-01  0.45563115664E-02 -0.30097059922E-01  0.35737005818E-01  0.00000000000E+00 0.  1.
  9000001    1    1    2    0    0  0.18722729338E-01 -0.45563115664E-02  0.30097059922E-01  0.35750994182E-01  0.10000000475E-02 0. -1.
</event>
<event>
 4   0  0.4958067E-02  0.9118800E+02  0.7818609E-02  0.1379984E+01
      -11   -1    0    0    0    0  0.00000000000E+00  0.00000000000E+00  0.35740347158E-01  0.35744000000E-01  0.51099999109E-03 0.  1.
       11   -1    0    0    0    0 -0.00000000000E+00 -0.00000000000E+00 -0.35740347158E-01  0.35744000000E-01  0.51099999109E-03 0. -1.
       22    1    1    2    0    0  0.11785204920E-01 -0.24695257219E-01  0.22986665716E-01  0.35737005818E-01  0.00000000000E+00 0.  1.
  9000001    1    1    2    0    0 -0.11785204920E-01  0.24695257219E-01 -0.22986665716E-01  0.35750994182E-01  0.10000000475E-02 0. -1.
</event>
<event>
 4   0  0.4958067E-02  0.9118800E+02  0.7818609E-02  0.1379984E+01
      -11   -1    0    0    0    0  0.00000000000E+00  0.00000000000E+00  0.35740347158E-01  0.35744000000E-01  0.51099999109E-03 0.  1.
       11   -1    0    0    0    0 -0.00000000000E+00 -0.00000000000E+00 -0.35740347158E-01  0.35744000000E-01  0.51099999109E-03 0. -1.
       22    1    1    2    0    0  0.19675906603E-01 -0.13911174771E-01 -0.26390746498E-01  0.35737005818E-01  0.00000000000E+00 0. -1.
  9000001    1    1    2    0    0 -0.19675906603E-01  0.13911174771E-01  0.26390746498E-01  0.35750994182E-01  0.10000000475E-02 0.  1.
</event>
<event>
 4   0  0.4958067E-02  0.9118800E+02  0.7818609E-02  0.1379984E+01
      -11   -1    0    0    0    0  0.00000000000E+00  0.00000000000E+00  0.35740347158E-01  0.35744000000E-01  0.51099999109E-03 0. -1.
       11   -1    0    0    0    0 -0.00000000000E+00 -0.00000000000E+00 -0.35740347158E-01  0.35744000000E-01  0.51099999109E-03 0.  1.
       22    1    1    2    0    0 -0.56655972432E-02 -0.43847803037E-02 -0.35011545159E-01  0.35737005818E-01  0.00000000000E+00 0.  1.
  9000001    1    1    2    0    0  0.56655972432E-02  0.43847803037E-02  0.35011545159E-01  0.35750994182E-01  0.10000000475E-02 0. -1.
</event>
<event>
 4   0  0.4958067E-02  0.9118800E+02  0.7818609E-02  0.1379984E+01
      -11   -1    0    0    0    0  0.00000000000E+00  0.00000000000E+00  0.35740347158E-01  0.35744000000E-01  0.51099999109E-03 0. -1.
       11   -1    0    0    0    0 -0.00000000000E+00 -0.00000000000E+00 -0.35740347158E-01  0.35744000000E-01  0.51099999109E-03 0.  1.
       22    1    1    2    0    0 -0.29785613977E-01 -0.50155448134E-02  0.19099609815E-01  0.35737005818E-01  0.00000000000E+00 0. -1.
  9000001    1    1    2    0    0  0.29785613977E-01  0.50155448134E-02 -0.19099609815E-01  0.35750994182E-01  0.10000000475E-02 0.  1.
</event>
<event>
 4   0  0.4958067E-02  0.9118800E+02  0.7818609E-02  0.1379984E+01
      -11   -1    0    0    0    0  0.00000000000E+00  0.00000000000E+00  0.35740347158E-01  0.35744000000E-01  0.51099999109E-03 0.  1.
       11   -1    0    0    0    0 -0.00000000000E+00 -0.00000000000E+00 -0.35740347158E-01  0.35744000000E-01  0.51099999109E-03 0. -1.
       22    1    1    2    0    0  0.14870574988E-01  0.95644615465E-02  0.31056732921E-01  0.35737005818E-01  0.00000000000E+00 0.  1.
  9000001    1    1    2    0    0 -0.14870574988E-01 -0.95644615465E-02 -0.31056732921E-01  0.35750994182E-01  0.10000000475E-02 0. -1.
</event>
<event>
 4   0  0.4958067E-02  0.9118800E+02  0.7818609E-02  0.1379984E+01
      -11   -1    0    0    0    0  0.00000000000E+00  0.00000000000E+00  0.35740347158E-01  0.35744000000E-01  0.51099999109E-03 0. -1.
       11   -1    0    0    0    0 -0.00000000000E+00 -0.00000000000E+00 -0.35740347158E-01  0.35744000000E-01  0.51099999109E-03 0.  1.
       22    1    1    2    0    0  0.35855999872E-02  0.20872357157E-01 -0.28785791014E-01  0.35737005818E-01  0.00000000000E+00 0.  1.
  9000001    1    1    2    0    0 -0.35855999872E-02 -0.20872357157E-01  0.28785791014E-01  0.35750994182E-01  0.10000000475E-02 0. -1.
</event>
<event>
 4   0  0.4958067E-02  0.9118800E+02  0.7818609E-02  0.1379984E+01
      -11   -1    0    0    0    0  0.00000000000E+00  0.00000000000E+00  0.35740347158E-01  0.35744000000E-01  0.51099999109E-03 0. -1.
       11   -1    0    0    0    0 -0.00000000000E+00 -0.00000000000E+00 -0.35740347158E-01  0.35744000000E-01  0.51099999109E-03 0.  1.
       22    1    1    2    0    0  0.75835732819E-02 -0.99724484884E-02 -0.33468989711E-01  0.35737005818E-01  0.00000000000E+00 0.  1.
  9000001    1    1    2    0    0 -0.75835732819E-02  0.99724484884E-02  0.33468989711E-01  0.35750994182E-01  0.10000000475E-02 0. -1.
</event>
<event>
 4   0  0.4958067E-02  0.9118800E+02  0.7818609E-02  0.1379984E+01
      -11   -1    0    0    0    0  0.00000000000E+00  0.00000000000E+00  0.35740347158E-01  0.35744000000E-01  0.51099999109E-03 0. -1.
       11   -1    0    0    0    0 -0.00000000000E+00 -0.00000000000E+00 -0.35740347158E-01  0.35744000000E-01  0.51099999109E-03 0.  1.
       22    1    1    2    0    0 -0.46841910384E-02  0.21841636770E-02  0.35361297604E-01  0.35737005818E-01  0.00000000000E+00 0. -1.
  9000001    1    1    2    0    0  0.46841910384E-02 -0.21841636770E-02 -0.35361297604E-01  0.35750994182E-01  0.10000000475E-02 0.  1.
</event>
<event>
 4   0  0.4958067E-02  0.9118800E+02  0.7818609E-02  0.1379984E+01
      -11   -1    0    0    0    0  0.00000000000E+00  0.00000000000E+00  0.35740347158E-01  0.35744000000E-01  0.51099999109E-03 0.  1.
       11   -1    0    0    0    0 -0.00000000000E+00 -0.00000000000E+00 -0.35740347158E-01  0.35744000000E-01  0.51099999109E-03 0. -1.
       22    1    1    2    0    0 -0.71308287058E-02  0.68763501662E-02  0.34336579259E-01  0.35737005818E-01  0.00000000000E+00 0.  1.
  9000001    1    1    2    0    0  0.71308287058E-02 -0.68763501662E-02 -0.34336579259E-01  0.35750994182E-01  0.10000000475E-02 0. -1.
</event>
<event>
 4   0  0.4958067E-02  0.9118800E+02  0.7818609E-02  0.1379984E+01
      -11   -1    0    0    0    0  0.00000000000E+00  0.00000000000E+00  0.35740347158E-01  0.35744000000E-01  0.51099999109E-03 0.  1.
       11   -1    0    0    0    0 -0.00000000000E+00 -0.00000000000E+00 -0.35740347158E-01  0.35744000000E-01  0.51099999109E-03 0. -1.
       22    1    1    2    0    0  0.45758926183E-02  0.62293150080E-02  0.34891122455E-01  0.35737005818E-01  0.00000000000E+00 0.  1.
  9000001    1    1    2    0    0 -0.45758926183E-02 -0.62293150080E-02 -0.34891122455E-01  0.35750994182E-01  0.10000000475E-02 0. -1.
</event>
<event>
 4   0  0.4958067E-02  0.9118800E+02  0.7818609E-02  0.1379984E+01
      -11   -1    0    0    0    0  0.00000000000E+00  0.00000000000E+00  0.35740347158E-01  0.35744000000E-01  0.51099999109E-03 0. -1.
       11   -1    0    0    0    0 -0.00000000000E+00 -0.00000000000E+00 -0.35740347158E-01  0.35744000000E-01  0.51099999109E-03 0.  1.
       22    1    1    2    0    0  0.61713133677E-02  0.68806764635E-02  0.34521077150E-01  0.35737005818E-01  0.00000000000E+00 0. -1.
  9000001    1    1    2    0    0 -0.61713133677E-02 -0.68806764635E-02 -0.34521077150E-01  0.35750994182E-01  0.10000000475E-02 0.  1.
</event>
<event>
 4   0  0.4958067E-02  0.9118800E+02  0.7818609E-02  0.1379984E+01
      -11   -1    0    0    0    0  0.00000000000E+00  0.00000000000E+00  0.35740347158E-01  0.35744000000E-01  0.51099999109E-03 0. -1.
       11   -1    0    0    0    0 -0.00000000000E+00 -0.00000000000E+00 -0.35740347158E-01  0.35744000000E-01  0.51099999109E-03 0.  1.
       22    1    1    2    0    0  0.15738118104E-01  0.13933506187E-01  0.28901602529E-01  0.35737005818E-01  0.00000000000E+00 0. -1.
  9000001    1    1    2    0    0 -0.15738118104E-01 -0.13933506187E-01 -0.28901602529E-01  0.35750994182E-01  0.10000000475E-02 0.  1.
</event>
<event>
 4   0  0.4958067E-02  0.9118800E+02  0.7818609E-02  0.1379984E+01
      -11   -1    0    0    0    0  0.00000000000E+00  0.00000000000E+00  0.35740347158E-01  0.35744000000E-01  0.51099999109E-03 0. -1.
       11   -1    0    0    0    0 -0.00000000000E+00 -0.00000000000E+00 -0.35740347158E-01  0.35744000000E-01  0.51099999109E-03 0.  1.
       22    1    1    2    0    0  0.19540493053E-02  0.32488823313E-02  0.35535335088E-01  0.35737005818E-01  0.00000000000E+00 0. -1.
  9000001    1    1    2    0    0 -0.19540493053E-02 -0.32488823313E-02 -0.35535335088E-01  0.35750994182E-01  0.10000000475E-02 0.  1.
</event>
<event>
 4   0  0.4958067E-02  0.9118800E+02  0.7818609E-02  0.1379984E+01
      -11   -1    0    0    0    0  0.00000000000E+00  0.00000000000E+00  0.35740347158E-01  0.35744000000E-01  0.51099999109E-03 0. -1.
       11   -1    0    0    0    0 -0.00000000000E+00 -0.00000000000E+00 -0.35740347158E-01  0.35744000000E-01  0.51099999109E-03 0.  1.
       22    1    1    2    0    0  0.53453830761E-02  0.25080352685E-02  0.35245853994E-01  0.35737005818E-01  0.00000000000E+00 0. -1.
  9000001    1    1    2    0    0 -0.53453830761E-02 -0.25080352685E-02 -0.35245853994E-01  0.35750994182E-01  0.10000000475E-02 0.  1.
</event>
<event>
 4   0  0.4958067E-02  0.9118800E+02  0.7818609E-02  0.1379984E+01
      -11   -1    0    0    0    0  0.00000000000E+00  0.00000000000E+00  0.35740347158E-01  0.35744000000E-01  0.51099999109E-03 0.  1.
       11   -1    0    0    0    0 -0.00000000000E+00 -0.00000000000E+00 -0.35740347158E-01  0.35744000000E-01  0.51099999109E-03 0. -1.
       22    1    1    2    0    0  0.97218082601E-02  0.12425964295E-03  0.34389018430E-01  0.35737005818E-01  0.00000000000E+00 0.  1.
  9000001    1    1    2    0    0 -0.97218082601E-02 -0.12425964295E-03 -0.34389018430E-01  0.35750994182E-01  0.10000000475E-02 0. -1.
</event>
<event>
 4   0  0.4958067E-02  0.9118800E+02  0.7818609E-02  0.1379984E+01
      -11   -1    0    0    0    0  0.00000000000E+00  0.00000000000E+00  0.35740347158E-01  0.35744000000E-01  0.51099999109E-03 0. -1.
       11   -1    0    0    0    0 -0.00000000000E+00 -0.00000000000E+00 -0.35740347158E-01  0.35744000000E-01  0.51099999109E-03 0.  1.
       22    1    1    2    0    0  0.12933854256E-01 -0.18392270338E-01  0.27777209917E-01  0.35737005818E-01  0.00000000000E+00 0. -1.
  9000001    1    1    2    0    0 -0.12933854256E-01  0.18392270338E-01 -0.27777209917E-01  0.35750994182E-01  0.10000000475E-02 0.  1.
</event>
<event>
 4   0  0.4958067E-02  0.9118800E+02  0.7818609E-02  0.1379984E+01
      -11   -1    0    0    0    0  0.00000000000E+00  0.00000000000E+00  0.35740347158E-01  0.35744000000E-01  0.51099999109E-03 0. -1.
       11   -1    0    0    0    0 -0.00000000000E+00 -0.00000000000E+00 -0.35740347158E-01  0.35744000000E-01  0.51099999109E-03 0.  1.
       22    1    1    2    0    0 -0.25821341025E-02  0.37809575185E-02  0.35442496083E-01  0.35737005818E-01  0.00000000000E+00 0. -1.
  9000001    1    1    2    0    0  0.25821341025E-02 -0.37809575185E-02 -0.35442496083E-01  0.35750994182E-01  0.10000000475E-02 0.  1.
</event>
<event>
 4   0  0.4958067E-02  0.9118800E+02  0.7818609E-02  0.1379984E+01
      -11   -1    0    0    0    0  0.00000000000E+00  0.00000000000E+00  0.35740347158E-01  0.35744000000E-01  0.51099999109E-03 0. -1.
       11   -1    0    0    0    0 -0.00000000000E+00 -0.00000000000E+00 -0.35740347158E-01  0.35744000000E-01  0.51099999109E-03 0.  1.
       22    1    1    2    0    0  0.10950033815E-01  0.10482836913E-01 -0.32362640105E-01  0.35737005818E-01  0.00000000000E+00 0.  1.
  9000001    1    1    2    0    0 -0.10950033815E-01 -0.10482836913E-01  0.32362640105E-01  0.35750994182E-01  0.10000000475E-02 0. -1.
</event>
<event>
 4   0  0.4958067E-02  0.9118800E+02  0.7818609E-02  0.1379984E+01
      -11   -1    0    0    0    0  0.00000000000E+00  0.00000000000E+00  0.35740347158E-01  0.35744000000E-01  0.51099999109E-03 0.  1.
       11   -1    0    0    0    0 -0.00000000000E+00 -0.00000000000E+00 -0.35740347158E-01  0.35744000000E-01  0.51099999109E-03 0. -1.
       22    1    1    2    0    0 -0.12046687173E-01  0.30140636294E-01  0.14951687424E-01  0.35737005818E-01  0.00000000000E+00 0. -1.
  9000001    1    1    2    0    0  0.12046687173E-01 -0.30140636294E-01 -0.14951687424E-01  0.35750994182E-01  0.10000000475E-02 0.  1.
</event>
<event>
 4   0  0.4958067E-02  0.9118800E+02  0.7818609E-02  0.1379984E+01
      -11   -1    0    0    0    0  0.00000000000E+00  0.00000000000E+00  0.35740347158E-01  0.35744000000E-01  0.51099999109E-03 0.  1.
       11   -1    0    0    0    0 -0.00000000000E+00 -0.00000000000E+00 -0.35740347158E-01  0.35744000000E-01  0.51099999109E-03 0. -1.
       22    1    1    2    0    0  0.18286965520E-01  0.28004962072E-01 -0.12587397518E-01  0.35737005818E-01  0.00000000000E+00 0. -1.
  9000001    1    1    2    0    0 -0.18286965520E-01 -0.28004962072E-01  0.12587397518E-01  0.35750994182E-01  0.10000000475E-02 0.  1.
</event>
<event>
 4   0  0.4958067E-02  0.9118800E+02  0.7818609E-02  0.1379984E+01
      -11   -1    0    0    0    0  0.00000000000E+00  0.00000000000E+00  0.35740347158E-01  0.35744000000E-01  0.51099999109E-03 0.  1.
       11   -1    0    0    0    0 -0.00000000000E+00 -0.00000000000E+00 -0.35740347158E-01  0.35744000000E-01  0.51099999109E-03 0. -1.
       22    1    1    2    0    0  0.11922503857E-01  0.16500791416E-02  0.33649141526E-01  0.35737005818E-01  0.00000000000E+00 0.  1.
  9000001    1    1    2    0    0 -0.11922503857E-01 -0.16500791416E-02 -0.33649141526E-01  0.35750994182E-01  0.10000000475E-02 0. -1.
</event>
<event>
 4   0  0.4958067E-02  0.9118800E+02  0.7818609E-02  0.1379984E+01
      -11   -1    0    0    0    0  0.00000000000E+00  0.00000000000E+00  0.35740347158E-01  0.35744000000E-01  0.51099999109E-03 0.  1.
       11   -1    0    0    0    0 -0.00000000000E+00 -0.00000000000E+00 -0.35740347158E-01  0.35744000000E-01  0.51099999109E-03 0. -1.
       22    1    1    2    0    0  0.46802261861E-03  0.53020221222E-02  0.35338408299E-01  0.35737005818E-01  0.00000000000E+00 0.  1.
  9000001    1    1    2    0    0 -0.46802261861E-03 -0.53020221222E-02 -0.35338408299E-01  0.35750994182E-01  0.10000000475E-02 0. -1.
</event>
<event>
 4   0  0.4958067E-02  0.9118800E+02  0.7818609E-02  0.1379984E+01
      -11   -1    0    0    0    0  0.00000000000E+00  0.00000000000E+00  0.35740347158E-01  0.35744000000E-01  0.51099999109E-03 0.  1.
       11   -1    0    0    0    0 -0.00000000000E+00 -0.00000000000E+00 -0.35740347158E-01  0.35744000000E-01  0.51099999109E-03 0. -1.
       22    1    1    2    0    0 -0.22699491550E-01 -0.20698239362E-01  0.18260601184E-01  0.35737005818E-01  0.00000000000E+00 0.  1.
  9000001    1    1    2    0    0  0.22699491550E-01  0.20698239362E-01 -0.18260601184E-01  0.35750994182E-01  0.10000000475E-02 0. -1.
</event>
<event>
 4   0  0.4958067E-02  0.9118800E+02  0.7818609E-02  0.1379984E+01
      -11   -1    0    0    0    0  0.00000000000E+00  0.00000000000E+00  0.35740347158E-01  0.35744000000E-01  0.51099999109E-03 0. -1.
       11   -1    0    0    0    0 -0.00000000000E+00 -0.00000000000E+00 -0.35740347158E-01  0.35744000000E-01  0.51099999109E-03 0.  1.
       22    1    1    2    0    0  0.27277261417E-02 -0.74702385936E-02  0.34840904557E-01  0.35737005818E-01  0.00000000000E+00 0. -1.
  9000001    1    1    2    0    0 -0.27277261417E-02  0.74702385936E-02 -0.34840904557E-01  0.35750994182E-01  0.10000000475E-02 0.  1.
</event>
<event>
 4   0  0.4958067E-02  0.9118800E+02  0.7818609E-02  0.1379984E+01
      -11   -1    0    0    0    0  0.00000000000E+00  0.00000000000E+00  0.35740347158E-01  0.35744000000E-01  0.51099999109E-03 0. -1.
       11   -1    0    0    0    0 -0.00000000000E+00 -0.00000000000E+00 -0.35740347158E-01  0.35744000000E-01  0.51099999109E-03 0.  1.
       22    1    1    2    0    0 -0.16618669673E-01  0.10472469693E-01 -0.29854326013E-01  0.35737005818E-01  0.00000000000E+00 0.  1.
  9000001    1    1    2    0    0  0.16618669673E-01 -0.10472469693E-01  0.29854326013E-01  0.35750994182E-01  0.10000000475E-02 0. -1.
</event>
<event>
 4   0  0.4958067E-02  0.9118800E+02  0.7818609E-02  0.1379984E+01
      -11   -1    0    0    0    0  0.00000000000E+00  0.00000000000E+00  0.35740347158E-01  0.35744000000E-01  0.51099999109E-03 0.  1.
       11   -1    0    0    0    0 -0.00000000000E+00 -0.00000000000E+00 -0.35740347158E-01  0.35744000000E-01  0.51099999109E-03 0. -1.
       22    1    1    2    0    0 -0.10248459755E-01  0.65975476730E-02  0.33594270675E-01  0.35737005818E-01  0.00000000000E+00 0.  1.
  9000001    1    1    2    0    0  0.10248459755E-01 -0.65975476730E-02 -0.33594270675E-01  0.35750994182E-01  0.10000000475E-02 0. -1.
</event>
<event>
 4   0  0.4958067E-02  0.9118800E+02  0.7818609E-02  0.1379984E+01
      -11   -1    0    0    0    0  0.00000000000E+00  0.00000000000E+00  0.35740347158E-01  0.35744000000E-01  0.51099999109E-03 0. -1.
       11   -1    0    0    0    0 -0.00000000000E+00 -0.00000000000E+00 -0.35740347158E-01  0.35744000000E-01  0.51099999109E-03 0.  1.
       22    1    1    2    0    0  0.12976960222E-01  0.12529205342E-01 -0.30850463558E-01  0.35737005818E-01  0.00000000000E+00 0.  1.
  9000001    1    1    2    0    0 -0.12976960222E-01 -0.12529205342E-01  0.30850463558E-01  0.35750994182E-01  0.10000000475E-02 0. -1.
</event>
<event>
 4   0  0.4958067E-02  0.9118800E+02  0.7818609E-02  0.1379984E+01
      -11   -1    0    0    0    0  0.00000000000E+00  0.00000000000E+00  0.35740347158E-01  0.35744000000E-01  0.51099999109E-03 0. -1.
       11   -1    0    0    0    0 -0.00000000000E+00 -0.00000000000E+00 -0.35740347158E-01  0.35744000000E-01  0.51099999109E-03 0.  1.
       22    1    1    2    0    0  0.11812882538E-01 -0.28630222100E-01 -0.17829744067E-01  0.35737005818E-01  0.00000000000E+00 0.  1.
  9000001    1    1    2    0    0 -0.11812882538E-01  0.28630222100E-01  0.17829744067E-01  0.35750994182E-01  0.10000000475E-02 0. -1.
</event>
<event>
 4   0  0.4958067E-02  0.9118800E+02  0.7818609E-02  0.1379984E+01
      -11   -1    0    0    0    0  0.00000000000E+00  0.00000000000E+00  0.35740347158E-01  0.35744000000E-01  0.51099999109E-03 0.  1.
       11   -1    0    0    0    0 -0.00000000000E+00 -0.00000000000E+00 -0.35740347158E-01  0.35744000000E-01  0.51099999109E-03 0. -1.
       22    1    1    2    0    0  0.13823279183E-01  0.34534264187E-03 -0.32953471379E-01  0.35737005818E-01  0.00000000000E+00 0. -1.
  9000001    1    1    2    0    0 -0.13823279183E-01 -0.34534264187E-03  0.32953471379E-01  0.35750994182E-01  0.10000000475E-02 0.  1.
</event>
<event>
 4   0  0.4958067E-02  0.9118800E+02  0.7818609E-02  0.1379984E+01
      -11   -1    0    0    0    0  0.00000000000E+00  0.00000000000E+00  0.35740347158E-01  0.35744000000E-01  0.51099999109E-03 0.  1.
       11   -1    0    0    0    0 -0.00000000000E+00 -0.00000000000E+00 -0.35740347158E-01  0.35744000000E-01  0.51099999109E-03 0. -1.
       22    1    1    2    0    0 -0.22753176722E-01 -0.27553111307E-01  0.50258454453E-03  0.35737005818E-01  0.00000000000E+00 0.  1.
  9000001    1    1    2    0    0  0.22753176722E-01  0.27553111307E-01 -0.50258454453E-03  0.35750994182E-01  0.10000000475E-02 0. -1.
</event>
<event>
 4   0  0.4958067E-02  0.9118800E+02  0.7818609E-02  0.1379984E+01
      -11   -1    0    0    0    0  0.00000000000E+00  0.00000000000E+00  0.35740347158E-01  0.35744000000E-01  0.51099999109E-03 0.  1.
       11   -1    0    0    0    0 -0.00000000000E+00 -0.00000000000E+00 -0.35740347158E-01  0.35744000000E-01  0.51099999109E-03 0. -1.
       22    1    1    2    0    0  0.23174497170E-01 -0.11581212414E-02  0.27179680295E-01  0.35737005818E-01  0.00000000000E+00 0.  1.
  9000001    1    1    2    0    0 -0.23174497170E-01  0.11581212414E-02 -0.27179680295E-01  0.35750994182E-01  0.10000000475E-02 0. -1.
</event>
<event>
 4   0  0.4958067E-02  0.9118800E+02  0.7818609E-02  0.1379984E+01
      -11   -1    0    0    0    0  0.00000000000E+00  0.00000000000E+00  0.35740347158E-01  0.35744000000E-01  0.51099999109E-03 0. -1.
       11   -1    0    0    0    0 -0.00000000000E+00 -0.00000000000E+00 -0.35740347158E-01  0.35744000000E-01  0.51099999109E-03 0.  1.
       22    1    1    2    0    0  0.18673355688E-02 -0.32379475933E-01 -0.15007204304E-01  0.35737005818E-01  0.00000000000E+00 0.  1.
  9000001    1    1    2    0    0 -0.18673355688E-02  0.32379475933E-01  0.15007204304E-01  0.35750994182E-01  0.10000000475E-02 0. -1.
</event>
<event>
 4   0  0.4958067E-02  0.9118800E+02  0.7818609E-02  0.1379984E+01
      -11   -1    0    0    0    0  0.00000000000E+00  0.00000000000E+00  0.35740347158E-01  0.35744000000E-01  0.51099999109E-03 0.  1.
       11   -1    0    0    0    0 -0.00000000000E+00 -0.00000000000E+00 -0.35740347158E-01  0.35744000000E-01  0.51099999109E-03 0. -1.
       22    1    1    2    0    0 -0.33164784882E-02  0.21312326499E-02 -0.35518902048E-01  0.35737005818E-01  0.00000000000E+00 0. -1.
  9000001    1    1    2    0    0  0.33164784882E-02 -0.21312326499E-02  0.35518902048E-01  0.35750994182E-01  0.10000000475E-02 0.  1.
</event>
<event>
 4   0  0.4958067E-02  0.9118800E+02  0.7818609E-02  0.1379984E+01
      -11   -1    0    0    0    0  0.00000000000E+00  0.00000000000E+00  0.35740347158E-01  0.35744000000E-01  0.51099999109E-03 0. -1.
       11   -1    0    0    0    0 -0.00000000000E+00 -0.00000000000E+00 -0.35740347158E-01  0.35744000000E-01  0.51099999109E-03 0.  1.
       22    1    1    2    0    0  0.17881045957E-01  0.13824729832E-01 -0.27681738121E-01  0.35737005818E-01  0.00000000000E+00 0.  1.
  9000001    1    1    2    0    0 -0.17881045957E-01 -0.13824729832E-01  0.27681738121E-01  0.35750994182E-01  0.10000000475E-02 0. -1.
</event>
<event>
 4   0  0.4958067E-02  0.9118800E+02  0.7818609E-02  0.1379984E+01
      -11   -1    0    0    0    0  0.00000000000E+00  0.00000000000E+00  0.35740347158E-01  0.35744000000E-01  0.51099999109E-03 0.  1.
       11   -1    0    0    0    0 -0.00000000000E+00 -0.00000000000E+00 -0.35740347158E-01  0.35744000000E-01  0.51099999109E-03 0. -1.
       22    1    1    2    0    0  0.19045264339E-01  0.39618206012E-02 -0.29978583500E-01  0.35737005818E-01  0.00000000000E+00 0. -1.
  9000001    1    1    2    0    0 -0.19045264339E-01 -0.39618206012E-02  0.29978583500E-01  0.35750994182E-01  0.10000000475E-02 0.  1.
</event>
<event>
 4   0  0.4958067E-02  0.9118800E+02  0.7818609E-02  0.1379984E+01
      -11   -1    0    0    0    0  0.00000000000E+00  0.00000000000E+00  0.35740347158E-01  0.35744000000E-01  0.51099999109E-03 0. -1.
       11   -1    0    0    0    0 -0.00000000000E+00 -0.00000000000E+00 -0.35740347158E-01  0.35744000000E-01  0.51099999109E-03 0.  1.
       22    1    1    2    0    0  0.31981642310E-02 -0.41754179373E-03  0.35591164483E-01  0.35737005818E-01  0.00000000000E+00 0. -1.
  9000001    1    1    2    0    0 -0.31981642310E-02  0.41754179373E-03 -0.35591164483E-01  0.35750994182E-01  0.10000000475E-02 0.  1.
</event>
<event>
 4   0  0.4958067E-02  0.9118800E+02  0.7818609E-02  0.1379984E+01
      -11   -1    0    0    0    0  0.00000000000E+00  0.00000000000E+00  0.35740347158E-01  0.35744000000E-01  0.51099999109E-03 0. -1.
       11   -1    0    0    0    0 -0.00000000000E+00 -0.00000000000E+00 -0.35740347158E-01  0.35744000000E-01  0.51099999109E-03 0.  1.
       22    1    1    2    0    0 -0.27096491609E-02  0.17472889606E-02 -0.35591268137E-01  0.35737005818E-01  0.00000000000E+00 0.  1.
  9000001    1    1    2    0    0  0.27096491609E-02 -0.17472889606E-02  0.35591268137E-01  0.35750994182E-01  0.10000000475E-02 0. -1.
</event>
<event>
 4   0  0.4958067E-02  0.9118800E+02  0.7818609E-02  0.1379984E+01
      -11   -1    0    0    0    0  0.00000000000E+00  0.00000000000E+00  0.35740347158E-01  0.35744000000E-01  0.51099999109E-03 0. -1.
       11   -1    0    0    0    0 -0.00000000000E+00 -0.00000000000E+00 -0.35740347158E-01  0.35744000000E-01  0.51099999109E-03 0.  1.
       22    1    1    2    0    0  0.17277650031E-01 -0.14572640021E-01 -0.27681303385E-01  0.35737005818E-01  0.00000000000E+00 0.  1.
  9000001    1    1    2    0    0 -0.17277650031E-01  0.14572640021E-01  0.27681303385E-01  0.35750994182E-01  0.10000000475E-02 0. -1.
</event>
<event>
 4   0  0.4958067E-02  0.9118800E+02  0.7818609E-02  0.1379984E+01
      -11   -1    0    0    0    0  0.00000000000E+00  0.00000000000E+00  0.35740347158E-01  0.35744000000E-01  0.51099999109E-03 0.  1.
       11   -1    0    0    0    0 -0.00000000000E+00 -0.00000000000E+00 -0.35740347158E-01  0.35744000000E-01  0.51099999109E-03 0. -1.
       22    1    1    2    0    0  0.19883823177E-01  0.88801329408E-03 -0.29681283549E-01  0.35737005818E-01  0.00000000000E+00 0. -1.
  9000001    1    1    2    0    0 -0.19883823177E-01 -0.88801329408E-03  0.29681283549E-01  0.35750994182E-01  0.10000000475E-02 0.  1.
</event>
<event>
 4   0  0.4958067E-02  0.9118800E+02  0.7818609E-02  0.1379984E+01
      -11   -1    0    0    0    0  0.00000000000E+00  0.00000000000E+00  0.35740347158E-01  0.35744000000E-01  0.51099999109E-03 0.  1.
       11   -1    0    0    0    0 -0.00000000000E+00 -0.00000000000E+00 -0.35740347158E-01  0.35744000000E-01  0.51099999109E-03 0. -1.
       22    1    1    2    0    0  0.27639630256E-02 -0.20612968539E-01  0.29061996168E-01  0.35737005818E-01  0.00000000000E+00 0.  1.
  9000001    1    1    2    0    0 -0.27639630256E-02  0.20612968539E-01 -0.29061996168E-01  0.35750994182E-01  0.10000000475E-02 0. -1.
</event>
<event>
 4   0  0.4958067E-02  0.9118800E+02  0.7818609E-02  0.1379984E+01
      -11   -1    0    0    0    0  0.00000000000E+00  0.00000000000E+00  0.35740347158E-01  0.35744000000E-01  0.51099999109E-03 0. -1.
       11   -1    0    0    0    0 -0.00000000000E+00 -0.00000000000E+00 -0.35740347158E-01  0.35744000000E-01  0.51099999109E-03 0.  1.
       22    1    1    2    0    0  0.36678030025E-02 -0.39190741682E-03 -0.35546127983E-01  0.35737005818E-01  0.00000000000E+00 0.  1.
  9000001    1    1    2    0    0 -0.36678030025E-02  0.39190741682E-03  0.35546127983E-01  0.35750994182E-01  0.10000000475E-02 0. -1.
</event>
<event>
 4   0  0.4958067E-02  0.9118800E+02  0.7818609E-02  0.1379984E+01
      -11   -1    0    0    0    0  0.00000000000E+00  0.00000000000E+00  0.35740347158E-01  0.35744000000E-01  0.51099999109E-03 0. -1.
       11   -1    0    0    0    0 -0.00000000000E+00 -0.00000000000E+00 -0.35740347158E-01  0.35744000000E-01  0.51099999109E-03 0.  1.
       22    1    1    2    0    0  0.75549409555E-02  0.48411301275E-02  0.34592194367E-01  0.35737005818E-01  0.00000000000E+00 0. -1.
  9000001    1    1    2    0    0 -0.75549409555E-02 -0.48411301275E-02 -0.34592194367E-01  0.35750994182E-01  0.10000000475E-02 0.  1.
</event>
<event>
 4   0  0.4958067E-02  0.9118800E+02  0.7818609E-02  0.1379984E+01
      -11   -1    0    0    0    0  0.00000000000E+00  0.00000000000E+00  0.35740347158E-01  0.35744000000E-01  0.51099999109E-03 0.  1.
       11   -1    0    0    0    0 -0.00000000000E+00 -0.00000000000E+00 -0.35740347158E-01  0.35744000000E-01  0.51099999109E-03 0. -1.
       22    1    1    2    0    0 -0.36600934511E-02  0.63530903379E-02  0.34976785787E-01  0.35737005818E-01  0.00000000000E+00 0.  1.
  9000001    1    1    2    0    0  0.36600934511E-02 -0.63530903379E-02 -0.34976785787E-01  0.35750994182E-01  0.10000000475E-02 0. -1.
</event>
<event>
 4   0  0.4958067E-02  0.9118800E+02  0.7818609E-02  0.1379984E+01
      -11   -1    0    0    0    0  0.00000000000E+00  0.00000000000E+00  0.35740347158E-01  0.35744000000E-01  0.51099999109E-03 0.  1.
       11   -1    0    0    0    0 -0.00000000000E+00 -0.00000000000E+00 -0.35740347158E-01  0.35744000000E-01  0.51099999109E-03 0. -1.
       22    1    1    2    0    0 -0.49092520547E-02  0.11936698116E-01  0.33324886605E-01  0.35737005818E-01  0.00000000000E+00 0.  1.
  9000001    1    1    2    0    0  0.49092520547E-02 -0.11936698116E-01 -0.33324886605E-01  0.35750994182E-01  0.10000000475E-02 0. -1.
</event>
<event>
 4   0  0.4958067E-02  0.9118800E+02  0.7818609E-02  0.1379984E+01
      -11   -1    0    0    0    0  0.00000000000E+00  0.00000000000E+00  0.35740347158E-01  0.35744000000E-01  0.51099999109E-03 0. -1.
       11   -1    0    0    0    0 -0.00000000000E+00 -0.00000000000E+00 -0.35740347158E-01  0.35744000000E-01  0.51099999109E-03 0.  1.
       22    1    1    2    0    0 -0.13065139142E-01  0.16071069453E-01  0.29123125703E-01  0.35737005818E-01  0.00000000000E+00 0. -1.
  9000001    1    1    2    0    0  0.13065139142E-01 -0.16071069453E-01 -0.29123125703E-01  0.35750994182E-01  0.10000000475E-02 0.  1.
</event>
<event>
 4   0  0.4958067E-02  0.9118800E+02  0.7818609E-02  0.1379984E+01
      -11   -1    0    0    0    0  0.00000000000E+00  0.00000000000E+00  0.35740347158E-01  0.35744000000E-01  0.51099999109E-03 0.  1.
       11   -1    0    0    0    0 -0.00000000000E+00 -0.00000000000E+00 -0.35740347158E-01  0.35744000000E-01  0.51099999109E-03 0. -1.
       22    1    1    2    0    0  0.13838260041E-01  0.37206549772E-02 -0.32738247822E-01  0.35737005818E-01  0.00000000000E+00 0. -1.
  9000001    1    1    2    0    0 -0.13838260041E-01 -0.37206549772E-02  0.32738247822E-01  0.35750994182E-01  0.10000000475E-02 0.  1.
</event>
<event>
 4   0  0.4958067E-02  0.9118800E+02  0.7818609E-02  0.1379984E+01
      -11   -1    0    0    0    0  0.00000000000E+00  0.00000000000E+00  0.35740347158E-01  0.35744000000E-01  0.51099999109E-03 0.  1.
       11   -1    0    0    0    0 -0.00000000000E+00 -0.00000000000E+00 -0.35740347158E-01  0.35744000000E-01  0.51099999109E-03 0. -1.
       22    1    1    2    0    0 -0.13096595632E-01 -0.18286746146E-01 -0.27770626264E-01  0.35737005818E-01  0.00000000000E+00 0. -1.
  9000001    1    1    2    0    0  0.13096595632E-01  0.18286746146E-01  0.27770626264E-01  0.35750994182E-01  0.10000000475E-02 0.  1.
</event>
<event>
 4   0  0.4958067E-02  0.9118800E+02  0.7818609E-02  0.1379984E+01
      -11   -1    0    0    0    0  0.00000000000E+00  0.00000000000E+00  0.35740347158E-01  0.35744000000E-01  0.51099999109E-03 0. -1.
       11   -1    0    0    0    0 -0.00000000000E+00 -0.00000000000E+00 -0.35740347158E-01  0.35744000000E-01  0.51099999109E-03 0.  1.
       22    1    1    2    0    0 -0.81270382538E-03  0.93929398012E-02 -0.34470941085E-01  0.35737005818E-01  0.00000000000E+00 0.  1.
  9000001    1    1    2    0    0  0.81270382538E-03 -0.93929398012E-02  0.34470941085E-01  0.35750994182E-01  0.10000000475E-02 0. -1.
</event>
<event>
 4   0  0.4958067E-02  0.9118800E+02  0.7818609E-02  0.1379984E+01
      -11   -1    0    0    0    0  0.00000000000E+00  0.00000000000E+00  0.35740347158E-01  0.35744000000E-01  0.51099999109E-03 0. -1.
       11   -1    0    0    0    0 -0.00000000000E+00 -0.00000000000E+00 -0.35740347158E-01  0.35744000000E-01  0.51099999109E-03 0.  1.
       22    1    1    2    0    0 -0.24279010265E-01  0.18082574694E-01  0.18991675488E-01  0.35737005818E-01  0.00000000000E+00 0. -1.
  9000001    1    1    2    0    0  0.24279010265E-01 -0.18082574694E-01 -0.18991675488E-01  0.35750994182E-01  0.10000000475E-02 0.  1.
</event>
<event>
 4   0  0.4958067E-02  0.9118800E+02  0.7818609E-02  0.1379984E+01
      -11   -1    0    0    0    0  0.00000000000E+00  0.00000000000E+00  0.35740347158E-01  0.35744000000E-01  0.51099999109E-03 0. -1.
       11   -1    0    0    0    0 -0.00000000000E+00 -0.00000000000E+00 -0.35740347158E-01  0.35744000000E-01  0.51099999109E-03 0.  1.
       22    1    1    2    0    0 -0.16243078547E-02  0.34684416481E-02  0.35531185196E-01  0.35737005818E-01  0.00000000000E+00 0. -1.
  9000001    1    1    2    0    0  0.16243078547E-02 -0.34684416481E-02 -0.35531185196E-01  0.35750994182E-01  0.10000000475E-02 0.  1.
</event>
<event>
 4   0  0.4958067E-02  0.9118800E+02  0.7818609E-02  0.1379984E+01
      -11   -1    0    0    0    0  0.00000000000E+00  0.00000000000E+00  0.35740347158E-01  0.35744000000E-01  0.51099999109E-03 0.  1.
       11   -1    0    0    0    0 -0.00000000000E+00 -0.00000000000E+00 -0.35740347158E-01  0.35744000000E-01  0.51099999109E-03 0. -1.
       22    1    1    2    0    0 -0.77623412564E-02 -0.26448127935E-02  0.34783395584E-01  0.35737005818E-01  0.00000000000E+00 0.  1.
  9000001    1    1    2    0    0  0.77623412564E-02  0.26448127935E-02 -0.34783395584E-01  0.35750994182E-01  0.10000000475E-02 0. -1.
</event>
<event>
 4   0  0.4958067E-02  0.9118800E+02  0.7818609E-02  0.1379984E+01
      -11   -1    0    0    0    0  0.00000000000E+00  0.00000000000E+00  0.35740347158E-01  0.35744000000E-01  0.51099999109E-03 0. -1.
       11   -1    0    0    0    0 -0.00000000000E+00 -0.00000000000E+00 -0.35740347158E-01  0.35744000000E-01  0.51099999109E-03 0.  1.
       22    1    1    2    0    0  0.17384358620E-01 -0.18378448145E-01  0.25241836383E-01  0.35737005818E-01  0.00000000000E+00 0. -1.
  9000001    1    1    2    0    0 -0.17384358620E-01  0.18378448145E-01 -0.25241836383E-01  0.35750994182E-01  0.10000000475E-02 0.  1.
</event>
<event>
 4   0  0.4958067E-02  0.9118800E+02  0.7818609E-02  0.1379984E+01
      -11   -1    0    0    0    0  0.00000000000E+00  0.00000000000E+00  0.35740347158E-01  0.35744000000E-01  0.51099999109E-03 0.  1.
       11   -1    0    0    0    0 -0.00000000000E+00 -0.00000000000E+00 -0.35740347158E-01  0.35744000000E-01  0.51099999109E-03 0. -1.
       22    1    1    2    0    0  0.22948182885E-01  0.27386979785E-01  0.68397764106E-03  0.35737005818E-01  0.00000000000E+00 0.  1.
  9000001    1    1    2    0    0 -0.22948182885E-01 -0.27386979785E-01 -0.68397764106E-03  0.35750994182E-01  0.10000000475E-02 0. -1.
</event>
<event>
 4   0  0.4958067E-02  0.9118800E+02  0.7818609E-02  0.1379984E+01
      -11   -1    0    0    0    0  0.00000000000E+00  0.00000000000E+00  0.35740347158E-01  0.35744000000E-01  0.51099999109E-03 0. -1.
       11   -1    0    0    0    0 -0.00000000000E+00 -0.00000000000E+00 -0.35740347158E-01  0.35744000000E-01  0.51099999109E-03 0.  1.
       22    1    1    2    0    0 -0.60243193956E-02 -0.67649663595E-02 -0.34569876928E-01  0.35737005818E-01  0.00000000000E+00 0.  1.
  9000001    1    1    2    0    0  0.60243193956E-02  0.67649663595E-02  0.34569876928E-01  0.35750994182E-01  0.10000000475E-02 0. -1.
</event>
<event>
 4   0  0.4958067E-02  0.9118800E+02  0.7818609E-02  0.1379984E+01
      -11   -1    0    0    0    0  0.00000000000E+00  0.00000000000E+00  0.35740347158E-01  0.35744000000E-01  0.51099999109E-03 0.  1.
       11   -1    0    0    0    0 -0.00000000000E+00 -0.00000000000E+00 -0.35740347158E-01  0.35744000000E-01  0.51099999109E-03 0. -1.
       22    1    1    2    0    0 -0.44157449116E-02 -0.14164208040E-01 -0.32511690087E-01  0.35737005818E-01  0.00000000000E+00 0. -1.
  9000001    1    1    2    0    0  0.44157449116E-02  0.14164208040E-01  0.32511690087E-01  0.35750994182E-01  0.10000000475E-02 0.  1.
</event>
<event>
 4   0  0.4958067E-02  0.9118800E+02  0.7818609E-02  0.1379984E+01
      -11   -1    0    0    0    0  0.00000000000E+00  0.00000000000E+00  0.35740347158E-01  0.35744000000E-01  0.51099999109E-03 0. -1.
       11   -1    0    0    0    0 -0.00000000000E+00 -0.00000000000E+00 -0.35740347158E-01  0.35744000000E-01  0.51099999109E-03 0.  1.
       22    1    1    2    0    0 -0.13138769845E-01 -0.11055823820E-01  0.31341267867E-01  0.35737005818E-01  0.00000000000E+00 0. -1.
  9000001    1    1    2    0    0  0.13138769845E-01  0.11055823820E-01 -0.31341267867E-01  0.35750994182E-01  0.10000000475E-02 0.  1.
</event>
<event>
 4   0  0.4958067E-02  0.9118800E+02  0.7818609E-02  0.1379984E+01
      -11   -1    0    0    0    0  0.00000000000E+00  0.00000000000E+00  0.35740347158E-01  0.35744000000E-01  0.51099999109E-03 0. -1.
       11   -1    0    0    0    0 -0.00000000000E+00 -0.00000000000E+00 -0.35740347158E-01  0.35744000000E-01  0.51099999109E-03 0.  1.
       22    1    1    2    0    0  0.54052087653E-02  0.41516340812E-03  0.35323433333E-01  0.35737005818E-01  0.00000000000E+00 0. -1.
  9000001    1    1    2    0    0 -0.54052087653E-02 -0.41516340812E-03 -0.35323433333E-01  0.35750994182E-01  0.10000000475E-02 0.  1.
</event>
<event>
 4   0  0.4958067E-02  0.9118800E+02  0.7818609E-02  0.1379984E+01
      -11   -1    0    0    0    0  0.00000000000E+00  0.00000000000E+00  0.35740347158E-01  0.35744000000E-01  0.51099999109E-03 0. -1.
       11   -1    0    0    0    0 -0.00000000000E+00 -0.00000000000E+00 -0.35740347158E-01  0.35744000000E-01  0.51099999109E-03 0.  1.
       22    1    1    2    0    0  0.39123992700E-02 -0.60856634359E-03  0.35516986976E-01  0.35737005818E-01  0.00000000000E+00 0. -1.
  9000001    1    1    2    0    0 -0.39123992700E-02  0.60856634359E-03 -0.35516986976E-01  0.35750994182E-01  0.10000000475E-02 0.  1.
</event>
<event>
 4   0  0.4958067E-02  0.9118800E+02  0.7818609E-02  0.1379984E+01
      -11   -1    0    0    0    0  0.00000000000E+00  0.00000000000E+00  0.35740347158E-01  0.35744000000E-01  0.51099999109E-03 0.  1.
       11   -1    0    0    0    0 -0.00000000000E+00 -0.00000000000E+00 -0.35740347158E-01  0.35744000000E-01  0.51099999109E-03 0. -1.
       22    1    1    2    0    0 -0.17729197768E-02  0.31629893432E-02 -0.35552578511E-01  0.35737005818E-01  0.00000000000E+00 0. -1.
  9000001    1    1    2    0    0  0.17729197768E-02 -0.31629893432E-02  0.35552578511E-01  0.35750994182E-01  0.10000000475E-02 0.  1.
</event>
<event>
 4   0  0.4958067E-02  0.9118800E+02  0.7818609E-02  0.1379984E+01
      -11   -1    0    0    0    0  0.00000000000E+00  0.00000000000E+00  0.35740347158E-01  0.35744000000E-01  0.51099999109E-03 0.  1.
       11   -1    0    0    0    0 -0.00000000000E+00 -0.00000000000E+00 -0.35740347158E-01  0.35744000000E-01  0.51099999109E-03 0. -1.
       22    1    1    2    0    0 -0.23687160097E-01 -0.26523116967E-01 -0.35463076284E-02  0.35737005818E-01  0.00000000000E+00 0. -1.
  9000001    1    1    2    0    0  0.23687160097E-01  0.26523116967E-01  0.35463076284E-02  0.35750994182E-01  0.10000000475E-02 0.  1.
</event>
<event>
 4   0  0.4958067E-02  0.9118800E+02  0.7818609E-02  0.1379984E+01
      -11   -1    0    0    0    0  0.00000000000E+00  0.00000000000E+00  0.35740347158E-01  0.35744000000E-01  0.51099999109E-03 0.  1.
       11   -1    0    0    0    0 -0.00000000000E+00 -0.00000000000E+00 -0.35740347158E-01  0.35744000000E-01  0.51099999109E-03 0. -1.
       22    1    1    2    0    0  0.86214753606E-02  0.84919741710E-02  0.33625736009E-01  0.35737005818E-01  0.00000000000E+00 0.  1.
  9000001    1    1    2    0    0 -0.86214753606E-02 -0.84919741710E-02 -0.33625736009E-01  0.35750994182E-01  0.10000000475E-02 0. -1.
</event>
<event>
 4   0  0.4958067E-02  0.9118800E+02  0.7818609E-02  0.1379984E+01
      -11   -1    0    0    0    0  0.00000000000E+00  0.00000000000E+00  0.35740347158E-01  0.35744000000E-01  0.51099999109E-03 0. -1.
       11   -1    0    0    0    0 -0.00000000000E+00 -0.00000000000E+00 -0.35740347158E-01  0.35744000000E-01  0.51099999109E-03 0.  1.
       22    1    1    2    0    0  0.21290266105E-01 -0.26756839679E-01  0.10388921234E-01  0.35737005818E-01  0.00000000000E+00 0.  1.
  9000001    1    1    2    0    0 -0.21290266105E-01  0.26756839679E-01 -0.10388921234E-01  0.35750994182E-01  0.10000000475E-02 0. -1.
</event>
<event>
 4   0  0.4958067E-02  0.9118800E+02  0.7818609E-02  0.1379984E+01
      -11   -1    0    0    0    0  0.00000000000E+00  0.00000000000E+00  0.35740347158E-01  0.35744000000E-01  0.51099999109E-03 0. -1.
       11   -1    0    0    0    0 -0.00000000000E+00 -0.00000000000E+00 -0.35740347158E-01  0.35744000000E-01  0.51099999109E-03 0.  1.
       22    1    1    2    0    0 -0.37997179515E-02  0.75980854837E-03  0.35526306019E-01  0.35737005818E-01  0.00000000000E+00 0. -1.
  9000001    1    1    2    0    0  0.37997179515E-02 -0.75980854837E-03 -0.35526306019E-01  0.35750994182E-01  0.10000000475E-02 0.  1.
</event>
<event>
 4   0  0.4958067E-02  0.9118800E+02  0.7818609E-02  0.1379984E+01
      -11   -1    0    0    0    0  0.00000000000E+00  0.00000000000E+00  0.35740347158E-01  0.35744000000E-01  0.51099999109E-03 0.  1.
       11   -1    0    0    0    0 -0.00000000000E+00 -0.00000000000E+00 -0.35740347158E-01  0.35744000000E-01  0.51099999109E-03 0. -1.
       22    1    1    2    0    0  0.88338663653E-02  0.43543882921E-02 -0.34353103099E-01  0.35737005818E-01  0.00000000000E+00 0. -1.
  9000001    1    1    2    0    0 -0.88338663653E-02 -0.43543882921E-02  0.34353103099E-01  0.35750994182E-01  0.10000000475E-02 0.  1.
</event>
<event>
 4   0  0.4958067E-02  0.9118800E+02  0.7818609E-02  0.1379984E+01
      -11   -1    0    0    0    0  0.00000000000E+00  0.00000000000E+00  0.35740347158E-01  0.35744000000E-01  0.51099999109E-03 0.  1.
       11   -1    0    0    0    0 -0.00000000000E+00 -0.00000000000E+00 -0.35740347158E-01  0.35744000000E-01  0.51099999109E-03 0. -1.
       22    1    1    2    0    0 -0.25471894602E-02  0.15065502716E-01 -0.32305975277E-01  0.35737005818E-01  0.00000000000E+00 0. -1.
  9000001    1    1    2    0    0  0.25471894602E-02 -0.15065502716E-01  0.32305975277E-01  0.35750994182E-01  0.10000000475E-02 0.  1.
</event>
<event>
 4   0  0.4958067E-02  0.9118800E+02  0.7818609E-02  0.1379984E+01
      -11   -1    0    0    0    0  0.00000000000E+00  0.00000000000E+00  0.35740347158E-01  0.35744000000E-01  0.51099999109E-03 0. -1.
       11   -1    0    0    0    0 -0.00000000000E+00 -0.00000000000E+00 -0.35740347158E-01  0.35744000000E-01  0.51099999109E-03 0.  1.
       22    1    1    2    0    0 -0.52827812302E-02 -0.12699873558E-01  0.32983920612E-01  0.35737005818E-01  0.00000000000E+00 0. -1.
  9000001    1    1    2    0    0  0.52827812302E-02  0.12699873558E-01 -0.32983920612E-01  0.35750994182E-01  0.10000000475E-02 0.  1.
</event>
<event>
 4   0  0.4958067E-02  0.9118800E+02  0.7818609E-02  0.1379984E+01
      -11   -1    0    0    0    0  0.00000000000E+00  0.00000000000E+00  0.35740347158E-01  0.35744000000E-01  0.51099999109E-03 0.  1.
       11   -1    0    0    0    0 -0.00000000000E+00 -0.00000000000E+00 -0.35740347158E-01  0.35744000000E-01  0.51099999109E-03 0. -1.
       22    1    1    2    0    0 -0.13781117311E-01  0.32928367521E-01 -0.17137686372E-02  0.35737005818E-01  0.00000000000E+00 0.  1.
  9000001    1    1    2    0    0  0.13781117311E-01 -0.32928367521E-01  0.17137686372E-02  0.35750994182E-01  0.10000000475E-02 0. -1.
</event>
<event>
 4   0  0.4958067E-02  0.9118800E+02  0.7818609E-02  0.1379984E+01
      -11   -1    0    0    0    0  0.00000000000E+00  0.00000000000E+00  0.35740347158E-01  0.35744000000E-01  0.51099999109E-03 0.  1.
       11   -1    0    0    0    0 -0.00000000000E+00 -0.00000000000E+00 -0.35740347158E-01  0.35744000000E-01  0.51099999109E-03 0. -1.
       22    1    1    2    0    0 -0.47723898437E-02 -0.18381926883E-01  0.30273134032E-01  0.35737005818E-01  0.00000000000E+00 0.  1.
  9000001    1    1    2    0    0  0.47723898437E-02  0.18381926883E-01 -0.30273134032E-01  0.35750994182E-01  0.10000000475E-02 0. -1.
</event>
<event>
 4   0  0.4958067E-02  0.9118800E+02  0.7818609E-02  0.1379984E+01
      -11   -1    0    0    0    0  0.00000000000E+00  0.00000000000E+00  0.35740347158E-01  0.35744000000E-01  0.51099999109E-03 0.  1.
       11   -1    0    0    0    0 -0.00000000000E+00 -0.00000000000E+00 -0.35740347158E-01  0.35744000000E-01  0.51099999109E-03 0. -1.
       22    1    1    2    0    0 -0.87278433741E-02 -0.40965748676E-02  0.34411864368E-01  0.35737005818E-01  0.00000000000E+00 0.  1.
  9000001    1    1    2    0    0  0.87278433741E-02  0.40965748676E-02 -0.34411864368E-01  0.35750994182E-01  0.10000000475E-02 0. -1.
</event>
<event>
 4   0  0.4958067E-02  0.9118800E+02  0.7818609E-02  0.1379984E+01
      -11   -1    0    0    0    0  0.00000000000E+00  0.00000000000E+00  0.35740347158E-01  0.35744000000E-01  0.51099999109E-03 0.  1.
       11   -1    0    0    0    0 -0.00000000000E+00 -0.00000000000E+00 -0.35740347158E-01  0.35744000000E-01  0.51099999109E-03 0. -1.
       22    1    1    2    0    0  0.10716607795E-01 -0.49240343226E-02  0.33734874955E-01  0.35737005818E-01  0.00000000000E+00 0.  1.
  9000001    1    1    2    0    0 -0.10716607795E-01  0.49240343226E-02 -0.33734874955E-01  0.35750994182E-01  0.10000000475E-02 0. -1.
</event>
<event>
 4   0  0.4958067E-02  0.9118800E+02  0.7818609E-02  0.1379984E+01
      -11   -1    0    0    0    0  0.00000000000E+00  0.00000000000E+00  0.35740347158E-01  0.35744000000E-01  0.51099999109E-03 0.  1.
       11   -1    0    0    0    0 -0.00000000000E+00 -0.00000000000E+00 -0.35740347158E-01  0.35744000000E-01  0.51099999109E-03 0. -1.
       22    1    1    2    0    0  0.23244540321E-01  0.17849699560E-01  0.20450260530E-01  0.35737005818E-01  0.00000000000E+00 0.  1.
  9000001    1    1    2    0    0 -0.23244540321E-01 -0.17849699560E-01 -0.20450260530E-01  0.35750994182E-01  0.10000000475E-02 0. -1.
</event>
<event>
 4   0  0.4958067E-02  0.9118800E+02  0.7818609E-02  0.1379984E+01
      -11   -1    0    0    0    0  0.00000000000E+00  0.00000000000E+00  0.35740347158E-01  0.35744000000E-01  0.51099999109E-03 0.  1.
       11   -1    0    0    0    0 -0.00000000000E+00 -0.00000000000E+00 -0.35740347158E-01  0.35744000000E-01  0.51099999109E-03 0. -1.
       22    1    1    2    0    0  0.48842092184E-02  0.45637644385E-02  0.35106269231E-01  0.35737005818E-01  0.00000000000E+00 0.  1.
  9000001    1    1    2    0    0 -0.48842092184E-02 -0.45637644385E-02 -0.35106269231E-01  0.35750994182E-01  0.10000000475E-02 0. -1.
</event>
<event>
 4   0  0.4958067E-02  0.9118800E+02  0.7818609E-02  0.1379984E+01
      -11   -1    0    0    0    0  0.00000000000E+00  0.00000000000E+00  0.35740347158E-01  0.35744000000E-01  0.51099999109E-03 0.  1.
       11   -1    0    0    0    0 -0.00000000000E+00 -0.00000000000E+00 -0.35740347158E-01  0.35744000000E-01  0.51099999109E-03 0. -1.
       22    1    1    2    0    0  0.13683614769E-02 -0.32197928701E-02 -0.35565349789E-01  0.35737005818E-01  0.00000000000E+00 0. -1.
  9000001    1    1    2    0    0 -0.13683614769E-02  0.32197928701E-02  0.35565349789E-01  0.35750994182E-01  0.10000000475E-02 0.  1.
</event>
<event>
 4   0  0.4958067E-02  0.9118800E+02  0.7818609E-02  0.1379984E+01
      -11   -1    0    0    0    0  0.00000000000E+00  0.00000000000E+00  0.35740347158E-01  0.35744000000E-01  0.51099999109E-03 0.  1.
       11   -1    0    0    0    0 -0.00000000000E+00 -0.00000000000E+00 -0.35740347158E-01  0.35744000000E-01  0.51099999109E-03 0. -1.
       22    1    1    2    0    0 -0.42718325320E-02 -0.64642672051E-02 -0.34886935681E-01  0.35737005818E-01  0.00000000000E+00 0. -1.
  9000001    1    1    2    0    0  0.42718325320E-02  0.64642672051E-02  0.34886935681E-01  0.35750994182E-01  0.10000000475E-02 0.  1.
</event>
<event>
 4   0  0.4958067E-02  0.9118800E+02  0.7818609E-02  0.1379984E+01
      -11   -1    0    0    0    0  0.00000000000E+00  0.00000000000E+00  0.35740347158E-01  0.35744000000E-01  0.51099999109E-03 0.  1.
       11   -1    0    0    0    0 -0.00000000000E+00 -0.00000000000E+00 -0.35740347158E-01  0.35744000000E-01  0.51099999109E-03 0. -1.
       22    1    1    2    0    0  0.47352826460E-02  0.26851273279E-02  0.35319976987E-01  0.35737005818E-01  0.00000000000E+00 0.  1.
  9000001    1    1    2    0    0 -0.47352826460E-02 -0.26851273279E-02 -0.35319976987E-01  0.35750994182E-01  0.10000000475E-02 0. -1.
</event>
<event>
 4   0  0.4958067E-02  0.9118800E+02  0.7818609E-02  0.1379984E+01
      -11   -1    0    0    0    0  0.00000000000E+00  0.00000000000E+00  0.35740347158E-01  0.35744000000E-01  0.51099999109E-03 0.  1.
       11   -1    0    0    0    0 -0.00000000000E+00 -0.00000000000E+00 -0.35740347158E-01  0.35744000000E-01  0.51099999109E-03 0. -1.
       22    1    1    2    0    0 -0.27802499583E-02  0.13222692326E-02 -0.35604148622E-01  0.35737005818E-01  0.00000000000E+00 0. -1.
  9000001    1    1    2    0    0  0.27802499583E-02 -0.13222692326E-02  0.35604148622E-01  0.35750994182E-01  0.10000000475E-02 0.  1.
</event>
<event>
 4   0  0.4958067E-02  0.9118800E+02  0.7818609E-02  0.1379984E+01
      -11   -1    0    0    0    0  0.00000000000E+00  0.00000000000E+00  0.35740347158E-01  0.35744000000E-01  0.51099999109E-03 0. -1.
       11   -1    0    0    0    0 -0.00000000000E+00 -0.00000000000E+00 -0.35740347158E-01  0.35744000000E-01  0.51099999109E-03 0.  1.
       22    1    1    2    0    0  0.18378769096E-02  0.42909196320E-02  0.35430831236E-01  0.35737005818E-01  0.00000000000E+00 0. -1.
  9000001    1    1    2    0    0 -0.18378769096E-02 -0.42909196320E-02 -0.35430831236E-01  0.35750994182E-01  0.10000000475E-02 0.  1.
</event>
<event>
 4   0  0.4958067E-02  0.9118800E+02  0.7818609E-02  0.1379984E+01
      -11   -1    0    0    0    0  0.00000000000E+00  0.00000000000E+00  0.35740347158E-01  0.35744000000E-01  0.51099999109E-03 0.  1.
       11   -1    0    0    0    0 -0.00000000000E+00 -0.00000000000E+00 -0.35740347158E-01  0.35744000000E-01  0.51099999109E-03 0. -1.
       22    1    1    2    0    0  0.18672205527E-02 -0.77799390150E-02  0.34829866799E-01  0.35737005818E-01  0.00000000000E+00 0.  1.
  9000001    1    1    2    0    0 -0.18672205527E-02  0.77799390150E-02 -0.34829866799E-01  0.35750994182E-01  0.10000000475E-02 0. -1.
</event>
<event>
 4   0  0.4958067E-02  0.9118800E+02  0.7818609E-02  0.1379984E+01
      -11   -1    0    0    0    0  0.00000000000E+00  0.00000000000E+00  0.35740347158E-01  0.35744000000E-01  0.51099999109E-03 0. -1.
       11   -1    0    0    0    0 -0.00000000000E+00 -0.00000000000E+00 -0.35740347158E-01  0.35744000000E-01  0.51099999109E-03 0.  1.
       22    1    1    2    0    0 -0.15829861560E-02  0.31291685750E-02  0.35564533509E-01  0.35737005818E-01  0.00000000000E+00 0. -1.
  9000001    1    1    2    0    0  0.15829861560E-02 -0.31291685750E-02 -0.35564533509E-01  0.35750994182E-01  0.10000000475E-02 0.  1.
</event>
<event>
 4   0  0.4958067E-02  0.9118800E+02  0.7818609E-02  0.1379984E+01
      -11   -1    0    0    0    0  0.00000000000E+00  0.00000000000E+00  0.35740347158E-01  0.35744000000E-01  0.51099999109E-03 0. -1.
       11   -1    0    0    0    0 -0.00000000000E+00 -0.00000000000E+00 -0.35740347158E-01  0.35744000000E-01  0.51099999109E-03 0.  1.
       22    1    1    2    0    0 -0.84236173936E-03  0.75372843624E-02  0.34922963162E-01  0.35737005818E-01  0.00000000000E+00 0. -1.
  9000001    1    1    2    0    0  0.84236173936E-03 -0.75372843624E-02 -0.34922963162E-01  0.35750994182E-01  0.10000000475E-02 0.  1.
</event>
<event>
 4   0  0.4958067E-02  0.9118800E+02  0.7818609E-02  0.1379984E+01
      -11   -1    0    0    0    0  0.00000000000E+00  0.00000000000E+00  0.35740347158E-01  0.35744000000E-01  0.51099999109E-03 0.  1.
       11   -1    0    0    0    0 -0.00000000000E+00 -0.00000000000E+00 -0.35740347158E-01  0.35744000000E-01  0.51099999109E-03 0. -1.
       22    1    1    2    0    0  0.31842960671E-03 -0.33305487080E-02 -0.35580045429E-01  0.35737005818E-01  0.00000000000E+00 0. -1.
  9000001    1    1    2    0    0 -0.31842960671E-03  0.33305487080E-02  0.35580045429E-01  0.35750994182E-01  0.10000000475E-02 0.  1.
</event>
<event>
 4   0  0.4958067E-02  0.9118800E+02  0.7818609E-02  0.1379984E+01
      -11   -1    0    0    0    0  0.00000000000E+00  0.00000000000E+00  0.35740347158E-01  0.35744000000E-01  0.51099999109E-03 0.  1.
       11   -1    0    0    0    0 -0.00000000000E+00 -0.00000000000E+00 -0.35740347158E-01  0.35744000000E-01  0.51099999109E-03 0. -1.
       22    1    1    2    0    0  0.55515506579E-03 -0.47699604167E-02 -0.35412891231E-01  0.35737005818E-01  0.00000000000E+00 0. -1.
  9000001    1    1    2    0    0 -0.55515506579E-03  0.47699604167E-02  0.35412891231E-01  0.35750994182E-01  0.10000000475E-02 0.  1.
</event>
<event>
 4   0  0.4958067E-02  0.9118800E+02  0.7818609E-02  0.1379984E+01
      -11   -1    0    0    0    0  0.00000000000E+00  0.00000000000E+00  0.35740347158E-01  0.35744000000E-01  0.51099999109E-03 0.  1.
       11   -1    0    0    0    0 -0.00000000000E+00 -0.00000000000E+00 -0.35740347158E-01  0.35744000000E-01  0.51099999109E-03 0. -1.
       22    1    1    2    0    0 -0.33754668397E-01 -0.11490156930E-01  0.23942096867E-02  0.35737005818E-01  0.00000000000E+00 0.  1.
  9000001    1    1    2    0    0  0.33754668397E-01  0.11490156930E-01 -0.23942096867E-02  0.35750994182E-01  0.10000000475E-02 0. -1.
</event>
<event>
 4   0  0.4958067E-02  0.9118800E+02  0.7818609E-02  0.1379984E+01
      -11   -1    0    0    0    0  0.00000000000E+00  0.00000000000E+00  0.35740347158E-01  0.35744000000E-01  0.51099999109E-03 0.  1.
       11   -1    0    0    0    0 -0.00000000000E+00 -0.00000000000E+00 -0.35740347158E-01  0.35744000000E-01  0.51099999109E-03 0. -1.
       22    1    1    2    0    0 -0.51030614248E-03  0.74611116959E-02  0.34945743443E-01  0.35737005818E-01  0.00000000000E+00 0.  1.
  9000001    1    1    2    0    0  0.51030614248E-03 -0.74611116959E-02 -0.34945743443E-01  0.35750994182E-01  0.10000000475E-02 0. -1.
</event>
<event>
 4   0  0.4958067E-02  0.9118800E+02  0.7818609E-02  0.1379984E+01
      -11   -1    0    0    0    0  0.00000000000E+00  0.00000000000E+00  0.35740347158E-01  0.35744000000E-01  0.51099999109E-03 0.  1.
       11   -1    0    0    0    0 -0.00000000000E+00 -0.00000000000E+00 -0.35740347158E-01  0.35744000000E-01  0.51099999109E-03 0. -1.
       22    1    1    2    0    0 -0.64911172084E-03  0.33231336536E-02 -0.35576242376E-01  0.35737005818E-01  0.00000000000E+00 0. -1.
  9000001    1    1    2    0    0  0.64911172084E-03 -0.33231336536E-02  0.35576242376E-01  0.35750994182E-01  0.10000000475E-02 0.  1.
</event>
<event>
 4   0  0.4958067E-02  0.9118800E+02  0.7818609E-02  0.1379984E+01
      -11   -1    0    0    0    0  0.00000000000E+00  0.00000000000E+00  0.35740347158E-01  0.35744000000E-01  0.51099999109E-03 0.  1.
       11   -1    0    0    0    0 -0.00000000000E+00 -0.00000000000E+00 -0.35740347158E-01  0.35744000000E-01  0.51099999109E-03 0. -1.
       22    1    1    2    0    0 -0.22908082271E-01  0.25268286231E-01  0.10670851066E-01  0.35737005818E-01  0.00000000000E+00 0.  1.
  9000001    1    1    2    0    0  0.22908082271E-01 -0.25268286231E-01 -0.10670851066E-01  0.35750994182E-01  0.10000000475E-02 0. -1.
</event>
<event>
 4   0  0.4958067E-02  0.9118800E+02  0.7818609E-02  0.1379984E+01
      -11   -1    0    0    0    0  0.00000000000E+00  0.00000000000E+00  0.35740347158E-01  0.35744000000E-01  0.51099999109E-03 0.  1.
       11   -1    0    0    0    0 -0.00000000000E+00 -0.00000000000E+00 -0.35740347158E-01  0.35744000000E-01  0.51099999109E-03 0. -1.
       22    1    1    2    0    0  0.18709900551E-01  0.20121908357E-02  0.30381314887E-01  0.35737005818E-01  0.00000000000E+00 0.  1.
  9000001    1    1    2    0    0 -0.18709900551E-01 -0.20121908357E-02 -0.30381314887E-01  0.35750994182E-01  0.10000000475E-02 0. -1.
</event>
<event>
 4   0  0.4958067E-02  0.9118800E+02  0.7818609E-02  0.1379984E+01
      -11   -1    0    0    0    0  0.00000000000E+00  0.00000000000E+00  0.35740347158E-01  0.35744000000E-01  0.51099999109E-03 0. -1.
       11   -1    0    0    0    0 -0.00000000000E+00 -0.00000000000E+00 -0.35740347158E-01  0.35744000000E-01  0.51099999109E-03 0.  1.
       22    1    1    2    0    0  0.61224107612E-02  0.52208361710E-02 -0.34819427638E-01  0.35737005818E-01  0.00000000000E+00 0.  1.
  9000001    1    1    2    0    0 -0.61224107612E-02 -0.52208361710E-02  0.34819427638E-01  0.35750994182E-01  0.10000000475E-02 0. -1.
</event>
<event>
 4   0  0.4958067E-02  0.9118800E+02  0.7818609E-02  0.1379984E+01
      -11   -1    0    0    0    0  0.00000000000E+00  0.00000000000E+00  0.35740347158E-01  0.35744000000E-01  0.51099999109E-03 0. -1.
       11   -1    0    0    0    0 -0.00000000000E+00 -0.00000000000E+00 -0.35740347158E-01  0.35744000000E-01  0.51099999109E-03 0.  1.
       22    1    1    2    0    0 -0.47888692430E-02  0.35414039881E-01 -0.21469877180E-03  0.35737005818E-01  0.00000000000E+00 0.  1.
  9000001    1    1    2    0    0  0.47888692430E-02 -0.35414039881E-01  0.21469877180E-03  0.35750994182E-01  0.10000000475E-02 0. -1.
</event>
<event>
 4   0  0.4958067E-02  0.9118800E+02  0.7818609E-02  0.1379984E+01
      -11   -1    0    0    0    0  0.00000000000E+00  0.00000000000E+00  0.35740347158E-01  0.35744000000E-01  0.51099999109E-03 0. -1.
       11   -1    0    0    0    0 -0.00000000000E+00 -0.00000000000E+00 -0.35740347158E-01  0.35744000000E-01  0.51099999109E-03 0.  1.
       22    1    1    2    0    0  0.19134708713E-01  0.18719941908E-01  0.23676154297E-01  0.35737005818E-01  0.00000000000E+00 0. -1.
  9000001    1    1    2    0    0 -0.19134708713E-01 -0.18719941908E-01 -0.23676154297E-01  0.35750994182E-01  0.10000000475E-02 0.  1.
</event>
<event>
 4   0  0.4958067E-02  0.9118800E+02  0.7818609E-02  0.1379984E+01
      -11   -1    0    0    0    0  0.00000000000E+00  0.00000000000E+00  0.35740347158E-01  0.35744000000E-01  0.51099999109E-03 0. -1.
       11   -1    0    0    0    0 -0.00000000000E+00 -0.00000000000E+00 -0.35740347158E-01  0.35744000000E-01  0.51099999109E-03 0.  1.
       22    1    1    2    0    0 -0.13882855653E-02  0.70716112842E-02 -0.35002836484E-01  0.35737005818E-01  0.00000000000E+00 0.  1.
  9000001    1    1    2    0    0  0.13882855653E-02 -0.70716112842E-02  0.35002836484E-01  0.35750994182E-01  0.10000000475E-02 0. -1.
</event>
<event>
 4   0  0.4958067E-02  0.9118800E+02  0.7818609E-02  0.1379984E+01
      -11   -1    0    0    0    0  0.00000000000E+00  0.00000000000E+00  0.35740347158E-01  0.35744000000E-01  0.51099999109E-03 0.  1.
       11   -1    0    0    0    0 -0.00000000000E+00 -0.00000000000E+00 -0.35740347158E-01  0.35744000000E-01  0.51099999109E-03 0. -1.
       22    1    1    2    0    0 -0.11637341437E-01  0.14137994117E-01  0.30689134747E-01  0.35737005818E-01  0.00000000000E+00 0.  1.
  9000001    1    1    2    0    0  0.11637341437E-01 -0.14137994117E-01 -0.30689134747E-01  0.35750994182E-01  0.10000000475E-02 0. -1.
</event>
<event>
 4   0  0.4958067E-02  0.9118800E+02  0.7818609E-02  0.1379984E+01
      -11   -1    0    0    0    0  0.00000000000E+00  0.00000000000E+00  0.35740347158E-01  0.35744000000E-01  0.51099999109E-03 0. -1.
       11   -1    0    0    0    0 -0.00000000000E+00 -0.00000000000E+00 -0.35740347158E-01  0.35744000000E-01  0.51099999109E-03 0.  1.
       22    1    1    2    0    0 -0.27396820750E-01 -0.22828667144E-01  0.23237370940E-02  0.35737005818E-01  0.00000000000E+00 0.  1.
  9000001    1    1    2    0    0  0.27396820750E-01  0.22828667144E-01 -0.23237370940E-02  0.35750994182E-01  0.10000000475E-02 0. -1.
</event>
<event>
 4   0  0.4958067E-02  0.9118800E+02  0.7818609E-02  0.1379984E+01
      -11   -1    0    0    0    0  0.00000000000E+00  0.00000000000E+00  0.35740347158E-01  0.35744000000E-01  0.51099999109E-03 0. -1.
       11   -1    0    0    0    0 -0.00000000000E+00 -0.00000000000E+00 -0.35740347158E-01  0.35744000000E-01  0.51099999109E-03 0.  1.
       22    1    1    2    0    0 -0.21160037306E-01  0.17795764826E-02  0.28744034401E-01  0.35737005818E-01  0.00000000000E+00 0. -1.
  9000001    1    1    2    0    0  0.21160037306E-01 -0.17795764826E-02 -0.28744034401E-01  0.35750994182E-01  0.10000000475E-02 0.  1.
</event>
<event>
 4   0  0.4958067E-02  0.9118800E+02  0.7818609E-02  0.1379984E+01
      -11   -1    0    0    0    0  0.00000000000E+00  0.00000000000E+00  0.35740347158E-01  0.35744000000E-01  0.51099999109E-03 0. -1.
       11   -1    0    0    0    0 -0.00000000000E+00 -0.00000000000E+00 -0.35740347158E-01  0.35744000000E-01  0.51099999109E-03 0.  1.
       22    1    1    2    0    0 -0.13098288319E-01 -0.61394605136E-02 -0.32678363677E-01  0.35737005818E-01  0.00000000000E+00 0.  1.
  9000001    1    1    2    0    0  0.13098288319E-01  0.61394605136E-02  0.32678363677E-01  0.35750994182E-01  0.10000000475E-02 0. -1.
</event>
<event>
 4   0  0.4958067E-02  0.9118800E+02  0.7818609E-02  0.1379984E+01
      -11   -1    0    0    0    0  0.00000000000E+00  0.00000000000E+00  0.35740347158E-01  0.35744000000E-01  0.51099999109E-03 0.  1.
       11   -1    0    0    0    0 -0.00000000000E+00 -0.00000000000E+00 -0.35740347158E-01  0.35744000000E-01  0.51099999109E-03 0. -1.
       22    1    1    2    0    0 -0.40533384403E-02 -0.26886207884E-01  0.23191288407E-01  0.35737005818E-01  0.00000000000E+00 0.  1.
  9000001    1    1    2    0    0  0.40533384403E-02  0.26886207884E-01 -0.23191288407E-01  0.35750994182E-01  0.10000000475E-02 0. -1.
</event>
<event>
 4   0  0.4958067E-02  0.9118800E+02  0.7818609E-02  0.1379984E+01
      -11   -1    0    0    0    0  0.00000000000E+00  0.00000000000E+00  0.35740347158E-01  0.35744000000E-01  0.51099999109E-03 0.  1.
       11   -1    0    0    0    0 -0.00000000000E+00 -0.00000000000E+00 -0.35740347158E-01  0.35744000000E-01  0.51099999109E-03 0. -1.
       22    1    1    2    0    0 -0.22630857372E-01  0.26695891896E-01  0.72323741177E-02  0.35737005818E-01  0.00000000000E+00 0.  1.
  9000001    1    1    2    0    0  0.22630857372E-01 -0.26695891896E-01 -0.72323741177E-02  0.35750994182E-01  0.10000000475E-02 0. -1.
</event>
<event>
 4   0  0.4958067E-02  0.9118800E+02  0.7818609E-02  0.1379984E+01
      -11   -1    0    0    0    0  0.00000000000E+00  0.00000000000E+00  0.35740347158E-01  0.35744000000E-01  0.51099999109E-03 0. -1.
       11   -1    0    0    0    0 -0.00000000000E+00 -0.00000000000E+00 -0.35740347158E-01  0.35744000000E-01  0.51099999109E-03 0.  1.
       22    1    1    2    0    0  0.55785167114E-02 -0.31475526752E-02 -0.35158308383E-01  0.35737005818E-01  0.00000000000E+00 0.  1.
  9000001    1    1    2    0    0 -0.55785167114E-02  0.31475526752E-02  0.35158308383E-01  0.35750994182E-01  0.10000000475E-02 0. -1.
</event>
<event>
 4   0  0.4958067E-02  0.9118800E+02  0.7818609E-02  0.1379984E+01
      -11   -1    0    0    0    0  0.00000000000E+00  0.00000000000E+00  0.35740347158E-01  0.35744000000E-01  0.51099999109E-03 0. -1.
       11   -1    0    0    0    0 -0.00000000000E+00 -0.00000000000E+00 -0.35740347158E-01  0.35744000000E-01  0.51099999109E-03 0.  1.
       22    1    1    2    0    0  0.20872943702E-01  0.80114249198E-02 -0.27879578132E-01  0.35737005818E-01  0.00000000000E+00 0.  1.
  9000001    1    1    2    0    0 -0.20872943702E-01 -0.80114249198E-02  0.27879578132E-01  0.35750994182E-01  0.10000000475E-02 0. -1.
</event>
<event>
 4   0  0.4958067E-02  0.9118800E+02  0.7818609E-02  0.1379984E+01
      -11   -1    0    0    0    0  0.00000000000E+00  0.00000000000E+00  0.35740347158E-01  0.35744000000E-01  0.51099999109E-03 0.  1.
       11   -1    0    0    0    0 -0.00000000000E+00 -0.00000000000E+00 -0.35740347158E-01  0.35744000000E-01  0.51099999109E-03 0. -1.
       22    1    1    2    0    0  0.10116160422E-02  0.19193271304E-01 -0.30128533893E-01  0.35737005818E-01  0.00000000000E+00 0. -1.
  9000001    1    1    2    0    0 -0.10116160422E-02 -0.19193271304E-01  0.30128533893E-01  0.35750994182E-01  0.10000000475E-02 0.  1.
</event>
<event>
 4   0  0.4958067E-02  0.9118800E+02  0.7818609E-02  0.1379984E+01
      -11   -1    0    0    0    0  0.00000000000E+00  0.00000000000E+00  0.35740347158E-01  0.35744000000E-01  0.51099999109E-03 0.  1.
       11   -1    0    0    0    0 -0.00000000000E+00 -0.00000000000E+00 -0.35740347158E-01  0.35744000000E-01  0.51099999109E-03 0. -1.
       22    1    1    2    0    0  0.83232267084E-02  0.10649406384E-01  0.33082436816E-01  0.35737005818E-01  0.00000000000E+00 0.  1.
  9000001    1    1    2    0    0 -0.83232267084E-02 -0.10649406384E-01 -0.33082436816E-01  0.35750994182E-01  0.10000000475E-02 0. -1.
</event>
<event>
 4   0  0.4958067E-02  0.9118800E+02  0.7818609E-02  0.1379984E+01
      -11   -1    0    0    0    0  0.00000000000E+00  0.00000000000E+00  0.35740347158E-01  0.35744000000E-01  0.51099999109E-03 0. -1.
       11   -1    0    0    0    0 -0.00000000000E+00 -0.00000000000E+00 -0.35740347158E-01  0.35744000000E-01  0.51099999109E-03 0.  1.
       22    1    1    2    0    0 -0.34663674495E-02 -0.66946990636E-02 -0.34932776672E-01  0.35737005818E-01  0.00000000000E+00 0.  1.
  9000001    1    1    2    0    0  0.34663674495E-02  0.66946990636E-02  0.34932776672E-01  0.35750994182E-01  0.10000000475E-02 0. -1.
</event>
<event>
 4   0  0.4958067E-02  0.9118800E+02  0.7818609E-02  0.1379984E+01
      -11   -1    0    0    0    0  0.00000000000E+00  0.00000000000E+00  0.35740347158E-01  0.35744000000E-01  0.51099999109E-03 0. -1.
       11   -1    0    0    0    0 -0.00000000000E+00 -0.00000000000E+00 -0.35740347158E-01  0.35744000000E-01  0.51099999109E-03 0.  1.
       22    1    1    2    0    0  0.25033912097E-01  0.17862619648E-01  0.18203396642E-01  0.35737005818E-01  0.00000000000E+00 0. -1.
  9000001    1    1    2    0    0 -0.25033912097E-01 -0.17862619648E-01 -0.18203396642E-01  0.35750994182E-01  0.10000000475E-02 0.  1.
</event>
<event>
 4   0  0.4958067E-02  0.9118800E+02  0.7818609E-02  0.1379984E+01
      -11   -1    0    0    0    0  0.00000000000E+00  0.00000000000E+00  0.35740347158E-01  0.35744000000E-01  0.51099999109E-03 0. -1.
       11   -1    0    0    0    0 -0.00000000000E+00 -0.00000000000E+00 -0.35740347158E-01  0.35744000000E-01  0.51099999109E-03 0.  1.
       22    1    1    2    0    0  0.75543208313E-02  0.97049932747E-03  0.34915955561E-01  0.35737005818E-01  0.00000000000E+00 0. -1.
  9000001    1    1    2    0    0 -0.75543208313E-02 -0.97049932747E-03 -0.34915955561E-01  0.35750994182E-01  0.10000000475E-02 0.  1.
</event>
<event>
 4   0  0.4958067E-02  0.9118800E+02  0.7818609E-02  0.1379984E+01
      -11   -1    0    0    0    0  0.00000000000E+00  0.00000000000E+00  0.35740347158E-01  0.35744000000E-01  0.51099999109E-03 0. -1.
       11   -1    0    0    0    0 -0.00000000000E+00 -0.00000000000E+00 -0.35740347158E-01  0.35744000000E-01  0.51099999109E-03 0.  1.
       22    1    1    2    0    0  0.67773243275E-02  0.38025887858E-02  0.34881825903E-01  0.35737005818E-01  0.00000000000E+00 0. -1.
  9000001    1    1    2    0    0 -0.67773243275E-02 -0.38025887858E-02 -0.34881825903E-01  0.35750994182E-01  0.10000000475E-02 0.  1.
</event>
<event>
 4   0  0.4958067E-02  0.9118800E+02  0.7818609E-02  0.1379984E+01
      -11   -1    0    0    0    0  0.00000000000E+00  0.00000000000E+00  0.35740347158E-01  0.35744000000E-01  0.51099999109E-03 0.  1.
       11   -1    0    0    0    0 -0.00000000000E+00 -0.00000000000E+00 -0.35740347158E-01  0.35744000000E-01  0.51099999109E-03 0. -1.
       22    1    1    2    0    0 -0.71045459825E-03 -0.43390543543E-02  0.35465496563E-01  0.35737005818E-01  0.00000000000E+00 0.  1.
  9000001    1    1    2    0    0  0.71045459825E-03  0.43390543543E-02 -0.35465496563E-01  0.35750994182E-01  0.10000000475E-02 0. -1.
</event>
<event>
 4   0  0.4958067E-02  0.9118800E+02  0.7818609E-02  0.1379984E+01
      -11   -1    0    0    0    0  0.00000000000E+00  0.00000000000E+00  0.35740347158E-01  0.35744000000E-01  0.51099999109E-03 0. -1.
       11   -1    0    0    0    0 -0.00000000000E+00 -0.00000000000E+00 -0.35740347158E-01  0.35744000000E-01  0.51099999109E-03 0.  1.
       22    1    1    2    0    0 -0.38277992546E-02 -0.23009692038E-02  0.35456834016E-01  0.35737005818E-01  0.00000000000E+00 0. -1.
  9000001    1    1    2    0    0  0.38277992546E-02  0.23009692038E-02 -0.35456834016E-01  0.35750994182E-01  0.10000000475E-02 0.  1.
</event>
<event>
 4   0  0.4958067E-02  0.9118800E+02  0.7818609E-02  0.1379984E+01
      -11   -1    0    0    0    0  0.00000000000E+00  0.00000000000E+00  0.35740347158E-01  0.35744000000E-01  0.51099999109E-03 0. -1.
       11   -1    0    0    0    0 -0.00000000000E+00 -0.00000000000E+00 -0.35740347158E-01  0.35744000000E-01  0.51099999109E-03 0.  1.
       22    1    1    2    0    0  0.31134089558E-02 -0.84926007927E-02  0.34573342351E-01  0.35737005818E-01  0.00000000000E+00 0. -1.
  9000001    1    1    2    0    0 -0.31134089558E-02  0.84926007927E-02 -0.34573342351E-01  0.35750994182E-01  0.10000000475E-02 0.  1.
</event>
<event>
 4   0  0.4958067E-02  0.9118800E+02  0.7818609E-02  0.1379984E+01
      -11   -1    0    0    0    0  0.00000000000E+00  0.00000000000E+00  0.35740347158E-01  0.35744000000E-01  0.51099999109E-03 0.  1.
       11   -1    0    0    0    0 -0.00000000000E+00 -0.00000000000E+00 -0.35740347158E-01  0.35744000000E-01  0.51099999109E-03 0. -1.
       22    1    1    2    0    0  0.13647633758E-02  0.33126304914E-02  0.35556961133E-01  0.35737005818E-01  0.00000000000E+00 0.  1.
  9000001    1    1    2    0    0 -0.13647633758E-02 -0.33126304914E-02 -0.35556961133E-01  0.35750994182E-01  0.10000000475E-02 0. -1.
</event>
<event>
 4   0  0.4958067E-02  0.9118800E+02  0.7818609E-02  0.1379984E+01
      -11   -1    0    0    0    0  0.00000000000E+00  0.00000000000E+00  0.35740347158E-01  0.35744000000E-01  0.51099999109E-03 0.  1.
       11   -1    0    0    0    0 -0.00000000000E+00 -0.00000000000E+00 -0.35740347158E-01  0.35744000000E-01  0.51099999109E-03 0. -1.
       22    1    1    2    0    0  0.66437369057E-02 -0.42974263294E-02  0.34850056983E-01  0.35737005818E-01  0.00000000000E+00 0.  1.
  9000001    1    1    2    0    0 -0.66437369057E-02  0.42974263294E-02 -0.34850056983E-01  0.35750994182E-01  0.10000000475E-02 0. -1.
</event>
<event>
 4   0  0.4958067E-02  0.9118800E+02  0.7818609E-02  0.1379984E+01
      -11   -1    0    0    0    0  0.00000000000E+00  0.00000000000E+00  0.35740347158E-01  0.35744000000E-01  0.51099999109E-03 0.  1.
       11   -1    0    0    0    0 -0.00000000000E+00 -0.00000000000E+00 -0.35740347158E-01  0.35744000000E-01  0.51099999109E-03 0. -1.
       22    1    1    2    0    0 -0.79596407471E-02 -0.10180667670E-01  0.33318639075E-01  0.35737005818E-01  0.00000000000E+00 0.  1.
  9000001    1    1    2    0    0  0.79596407471E-02  0.10180667670E-01 -0.33318639075E-01  0.35750994182E-01  0.10000000475E-02 0. -1.
</event>
<event>
 4   0  0.4958067E-02  0.9118800E+02  0.7818609E-02  0.1379984E+01
      -11   -1    0    0    0    0  0.00000000000E+00  0.00000000000E+00  0.35740347158E-01  0.35744000000E-01  0.51099999109E-03 0.  1.
       11   -1    0    0    0    0 -0.00000000000E+00 -0.00000000000E+00 -0.35740347158E-01  0.35744000000E-01  0.51099999109E-03 0. -1.
       22    1    1    2    0    0  0.71996320828E-02 -0.15503996313E-01 -0.31383514479E-01  0.35737005818E-01  0.00000000000E+00 0. -1.
  9000001    1    1    2    0    0 -0.71996320828E-02  0.15503996313E-01  0.31383514479E-01  0.35750994182E-01  0.10000000475E-02 0.  1.
</event>
<event>
 4   0  0.4958067E-02  0.9118800E+02  0.7818609E-02  0.1379984E+01
      -11   -1    0    0    0    0  0.00000000000E+00  0.00000000000E+00  0.35740347158E-01  0.35744000000E-01  0.51099999109E-03 0. -1.
       11   -1    0    0    0    0 -0.00000000000E+00 -0.00000000000E+00 -0.35740347158E-01  0.35744000000E-01  0.51099999109E-03 0.  1.
       22    1    1    2    0    0 -0.42044552893E-02 -0.50422207909E-02 -0.35128793747E-01  0.35737005818E-01  0.00000000000E+00 0.  1.
  9000001    1    1    2    0    0  0.42044552893E-02  0.50422207909E-02  0.35128793747E-01  0.35750994182E-01  0.10000000475E-02 0. -1.
</event>
<event>
 4   0  0.4958067E-02  0.9118800E+02  0.7818609E-02  0.1379984E+01
      -11   -1    0    0    0    0  0.00000000000E+00  0.00000000000E+00  0.35740347158E-01  0.35744000000E-01  0.51099999109E-03 0. -1.
       11   -1    0    0    0    0 -0.00000000000E+00 -0.00000000000E+00 -0.35740347158E-01  0.35744000000E-01  0.51099999109E-03 0.  1.
       22    1    1    2    0    0 -0.13343947792E-01 -0.12652733545E-01 -0.30642796478E-01  0.35737005818E-01  0.00000000000E+00 0.  1.
  9000001    1    1    2    0    0  0.13343947792E-01  0.12652733545E-01  0.30642796478E-01  0.35750994182E-01  0.10000000475E-02 0. -1.
</event>
<event>
 4   0  0.4958067E-02  0.9118800E+02  0.7818609E-02  0.1379984E+01
      -11   -1    0    0    0    0  0.00000000000E+00  0.00000000000E+00  0.35740347158E-01  0.35744000000E-01  0.51099999109E-03 0. -1.
       11   -1    0    0    0    0 -0.00000000000E+00 -0.00000000000E+00 -0.35740347158E-01  0.35744000000E-01  0.51099999109E-03 0.  1.
       22    1    1    2    0    0  0.32104917597E-02  0.37787565143E-03 -0.35590497854E-01  0.35737005818E-01  0.00000000000E+00 0.  1.
  9000001    1    1    2    0    0 -0.32104917597E-02 -0.37787565143E-03  0.35590497854E-01  0.35750994182E-01  0.10000000475E-02 0. -1.
</event>
<event>
 4   0  0.4958067E-02  0.9118800E+02  0.7818609E-02  0.1379984E+01
      -11   -1    0    0    0    0  0.00000000000E+00  0.00000000000E+00  0.35740347158E-01  0.35744000000E-01  0.51099999109E-03 0. -1.
       11   -1    0    0    0    0 -0.00000000000E+00 -0.00000000000E+00 -0.35740347158E-01  0.35744000000E-01  0.51099999109E-03 0.  1.
       22    1    1    2    0    0  0.51641815856E-02 -0.21806162212E-02 -0.35294613276E-01  0.35737005818E-01  0.00000000000E+00 0.  1.
  9000001    1    1    2    0    0 -0.51641815856E-02  0.21806162212E-02  0.35294613276E-01  0.35750994182E-01  0.10000000475E-02 0. -1.
</event>
<event>
 4   0  0.4958067E-02  0.9118800E+02  0.7818609E-02  0.1379984E+01
      -11   -1    0    0    0    0  0.00000000000E+00  0.00000000000E+00  0.35740347158E-01  0.35744000000E-01  0.51099999109E-03 0. -1.
       11   -1    0    0    0    0 -0.00000000000E+00 -0.00000000000E+00 -0.35740347158E-01  0.35744000000E-01  0.51099999109E-03 0.  1.
       22    1    1    2    0    0  0.26503463489E-01  0.93090330570E-02  0.22091670637E-01  0.35737005818E-01  0.00000000000E+00 0. -1.
  9000001    1    1    2    0    0 -0.26503463489E-01 -0.93090330570E-02 -0.22091670637E-01  0.35750994182E-01  0.10000000475E-02 0.  1.
</event>
<event>
 4   0  0.4958067E-02  0.9118800E+02  0.7818609E-02  0.1379984E+01
      -11   -1    0    0    0    0  0.00000000000E+00  0.00000000000E+00  0.35740347158E-01  0.35744000000E-01  0.51099999109E-03 0. -1.
       11   -1    0    0    0    0 -0.00000000000E+00 -0.00000000000E+00 -0.35740347158E-01  0.35744000000E-01  0.51099999109E-03 0.  1.
       22    1    1    2    0    0  0.46122637163E-02 -0.97756312643E-03  0.35424638017E-01  0.35737005818E-01  0.00000000000E+00 0. -1.
  9000001    1    1    2    0    0 -0.46122637163E-02  0.97756312643E-03 -0.35424638017E-01  0.35750994182E-01  0.10000000475E-02 0.  1.
</event>
<event>
 4   0  0.4958067E-02  0.9118800E+02  0.7818609E-02  0.1379984E+01
      -11   -1    0    0    0    0  0.00000000000E+00  0.00000000000E+00  0.35740347158E-01  0.35744000000E-01  0.51099999109E-03 0.  1.
       11   -1    0    0    0    0 -0.00000000000E+00 -0.00000000000E+00 -0.35740347158E-01  0.35744000000E-01  0.51099999109E-03 0. -1.
       22    1    1    2    0    0 -0.27004449763E-01 -0.52494119097E-02  0.22810895477E-01  0.35737005818E-01  0.00000000000E+00 0.  1.
  9000001    1    1    2    0    0  0.27004449763E-01  0.52494119097E-02 -0.22810895477E-01  0.35750994182E-01  0.10000000475E-02 0. -1.
</event>
<event>
 4   0  0.4958067E-02  0.9118800E+02  0.7818609E-02  0.1379984E+01
      -11   -1    0    0    0    0  0.00000000000E+00  0.00000000000E+00  0.35740347158E-01  0.35744000000E-01  0.51099999109E-03 0.  1.
       11   -1    0    0    0    0 -0.00000000000E+00 -0.00000000000E+00 -0.35740347158E-01  0.35744000000E-01  0.51099999109E-03 0. -1.
       22    1    1    2    0    0 -0.65208947617E-02 -0.13799191799E-02  0.35109932205E-01  0.35737005818E-01  0.00000000000E+00 0.  1.
  9000001    1    1    2    0    0  0.65208947617E-02  0.13799191799E-02 -0.35109932205E-01  0.35750994182E-01  0.10000000475E-02 0. -1.
</event>
<event>
 4   0  0.4958067E-02  0.9118800E+02  0.7818609E-02  0.1379984E+01
      -11   -1    0    0    0    0  0.00000000000E+00  0.00000000000E+00  0.35740347158E-01  0.35744000000E-01  0.51099999109E-03 0.  1.
       11   -1    0    0    0    0 -0.00000000000E+00 -0.00000000000E+00 -0.35740347158E-01  0.35744000000E-01  0.51099999109E-03 0. -1.
       22    1    1    2    0    0  0.44183331130E-02  0.10352306799E-01 -0.33918161231E-01  0.35737005818E-01  0.00000000000E+00 0. -1.
  9000001    1    1    2    0    0 -0.44183331130E-02 -0.10352306799E-01  0.33918161231E-01  0.35750994182E-01  0.10000000475E-02 0.  1.
</event>
<event>
 4   0  0.4958067E-02  0.9118800E+02  0.7818609E-02  0.1379984E+01
      -11   -1    0    0    0    0  0.00000000000E+00  0.00000000000E+00  0.35740347158E-01  0.35744000000E-01  0.51099999109E-03 0.  1.
       11   -1    0    0    0    0 -0.00000000000E+00 -0.00000000000E+00 -0.35740347158E-01  0.35744000000E-01  0.51099999109E-03 0. -1.
       22    1    1    2    0    0 -0.26725070377E-01  0.16766393801E-01  0.16786668434E-01  0.35737005818E-01  0.00000000000E+00 0.  1.
  9000001    1    1    2    0    0  0.26725070377E-01 -0.16766393801E-01 -0.16786668434E-01  0.35750994182E-01  0.10000000475E-02 0. -1.
</event>
<event>
 4   0  0.4958067E-02  0.9118800E+02  0.7818609E-02  0.1379984E+01
      -11   -1    0    0    0    0  0.00000000000E+00  0.00000000000E+00  0.35740347158E-01  0.35744000000E-01  0.51099999109E-03 0.  1.
       11   -1    0    0    0    0 -0.00000000000E+00 -0.00000000000E+00 -0.35740347158E-01  0.35744000000E-01  0.51099999109E-03 0. -1.
       22    1    1    2    0    0 -0.18898530204E-02  0.28657672205E-01 -0.21267342670E-01  0.35737005818E-01  0.00000000000E+00 0. -1.
  9000001    1    1    2    0    0  0.18898530204E-02 -0.28657672205E-01  0.21267342670E-01  0.35750994182E-01  0.10000000475E-02 0.  1.
</event>
<event>
 4   0  0.4958067E-02  0.9118800E+02  0.7818609E-02  0.1379984E+01
      -11   -1    0    0    0    0  0.00000000000E+00  0.00000000000E+00  0.35740347158E-01  0.35744000000E-01  0.51099999109E-03 0. -1.
       11   -1    0    0    0    0 -0.00000000000E+00 -0.00000000000E+00 -0.35740347158E-01  0.35744000000E-01  0.51099999109E-03 0.  1.
       22    1    1    2    0    0 -0.22496323262E-01 -0.25934548268E-03  0.27766558383E-01  0.35737005818E-01  0.00000000000E+00 0. -1.
  9000001    1    1    2    0    0  0.22496323262E-01  0.25934548268E-03 -0.27766558383E-01  0.35750994182E-01  0.10000000475E-02 0.  1.
</event>
<event>
 4   0  0.4958067E-02  0.9118800E+02  0.7818609E-02  0.1379984E+01
      -11   -1    0    0    0    0  0.00000000000E+00  0.00000000000E+00  0.35740347158E-01  0.35744000000E-01  0.51099999109E-03 0.  1.
       11   -1    0    0    0    0 -0.00000000000E+00 -0.00000000000E+00 -0.35740347158E-01  0.35744000000E-01  0.51099999109E-03 0. -1.
       22    1    1    2    0    0  0.95863960819E-02  0.92260481958E-03 -0.34414871718E-01  0.35737005818E-01  0.00000000000E+00 0. -1.
  9000001    1    1    2    0    0 -0.95863960819E-02 -0.92260481958E-03  0.34414871718E-01  0.35750994182E-01  0.10000000475E-02 0.  1.
</event>
<event>
 4   0  0.4958067E-02  0.9118800E+02  0.7818609E-02  0.1379984E+01
      -11   -1    0    0    0    0  0.00000000000E+00  0.00000000000E+00  0.35740347158E-01  0.35744000000E-01  0.51099999109E-03 0.  1.
       11   -1    0    0    0    0 -0.00000000000E+00 -0.00000000000E+00 -0.35740347158E-01  0.35744000000E-01  0.51099999109E-03 0. -1.
       22    1    1    2    0    0 -0.75347305769E-02  0.10652561719E-01 -0.33269871488E-01  0.35737005818E-01  0.00000000000E+00 0. -1.
  9000001    1    1    2    0    0  0.75347305769E-02 -0.10652561719E-01  0.33269871488E-01  0.35750994182E-01  0.10000000475E-02 0.  1.
</event>
<event>
 4   0  0.4958067E-02  0.9118800E+02  0.7818609E-02  0.1379984E+01
      -11   -1    0    0    0    0  0.00000000000E+00  0.00000000000E+00  0.35740347158E-01  0.35744000000E-01  0.51099999109E-03 0. -1.
       11   -1    0    0    0    0 -0.00000000000E+00 -0.00000000000E+00 -0.35740347158E-01  0.35744000000E-01  0.51099999109E-03 0.  1.
       22    1    1    2    0    0  0.57656859819E-03  0.62575790469E-02 -0.35180162848E-01  0.35737005818E-01  0.00000000000E+00 0.  1.
  9000001    1    1    2    0    0 -0.57656859819E-03 -0.62575790469E-02  0.35180162848E-01  0.35750994182E-01  0.10000000475E-02 0. -1.
</event>
<event>
 4   0  0.4958067E-02  0.9118800E+02  0.7818609E-02  0.1379984E+01
      -11   -1    0    0    0    0  0.00000000000E+00  0.00000000000E+00  0.35740347158E-01  0.35744000000E-01  0.51099999109E-03 0.  1.
       11   -1    0    0    0    0 -0.00000000000E+00 -0.00000000000E+00 -0.35740347158E-01  0.35744000000E-01  0.51099999109E-03 0. -1.
       22    1    1    2    0    0  0.39242046260E-02 -0.42795584093E-02 -0.35262155106E-01  0.35737005818E-01  0.00000000000E+00 0. -1.
  9000001    1    1    2    0    0 -0.39242046260E-02  0.42795584093E-02  0.35262155106E-01  0.35750994182E-01  0.10000000475E-02 0.  1.
</event>
<event>
 4   0  0.4958067E-02  0.9118800E+02  0.7818609E-02  0.1379984E+01
      -11   -1    0    0    0    0  0.00000000000E+00  0.00000000000E+00  0.35740347158E-01  0.35744000000E-01  0.51099999109E-03 0.  1.
       11   -1    0    0    0    0 -0.00000000000E+00 -0.00000000000E+00 -0.35740347158E-01  0.35744000000E-01  0.51099999109E-03 0. -1.
       22    1    1    2    0    0  0.68147737851E-02  0.27622125048E-02 -0.34972312266E-01  0.35737005818E-01  0.00000000000E+00 0. -1.
  9000001    1    1    2    0    0 -0.68147737851E-02 -0.27622125048E-02  0.34972312266E-01  0.35750994182E-01  0.10000000475E-02 0.  1.
</event>
<event>
 4   0  0.4958067E-02  0.9118800E+02  0.7818609E-02  0.1379984E+01
      -11   -1    0    0    0    0  0.00000000000E+00  0.00000000000E+00  0.35740347158E-01  0.35744000000E-01  0.51099999109E-03 0.  1.
       11   -1    0    0    0    0 -0.00000000000E+00 -0.00000000000E+00 -0.35740347158E-01  0.35744000000E-01  0.51099999109E-03 0. -1.
       22    1    1    2    0    0 -0.10419503510E-01  0.78538476000E-02 -0.33269875403E-01  0.35737005818E-01  0.00000000000E+00 0. -1.
  9000001    1    1    2    0    0  0.10419503510E-01 -0.78538476000E-02  0.33269875403E-01  0.35750994182E-01  0.10000000475E-02 0.  1.
</event>
<event>
 4   0  0.4958067E-02  0.9118800E+02  0.7818609E-02  0.1379984E+01
      -11   -1    0    0    0    0  0.00000000000E+00  0.00000000000E+00  0.35740347158E-01  0.35744000000E-01  0.51099999109E-03 0. -1.
       11   -1    0    0    0    0 -0.00000000000E+00 -0.00000000000E+00 -0.35740347158E-01  0.35744000000E-01  0.51099999109E-03 0.  1.
       22    1    1    2    0    0  0.13766447076E-01  0.59142809389E-02 -0.32444410933E-01  0.35737005818E-01  0.00000000000E+00 0.  1.
  9000001    1    1    2    0    0 -0.13766447076E-01 -0.59142809389E-02  0.32444410933E-01  0.35750994182E-01  0.10000000475E-02 0. -1.
</event>
<event>
 4   0  0.4958067E-02  0.9118800E+02  0.7818609E-02  0.1379984E+01
      -11   -1    0    0    0    0  0.00000000000E+00  0.00000000000E+00  0.35740347158E-01  0.35744000000E-01  0.51099999109E-03 0.  1.
       11   -1    0    0    0    0 -0.00000000000E+00 -0.00000000000E+00 -0.35740347158E-01  0.35744000000E-01  0.51099999109E-03 0. -1.
       22    1    1    2    0    0  0.17368445735E-02  0.61644545081E-02 -0.35158447867E-01  0.35737005818E-01  0.00000000000E+00 0. -1.
  9000001    1    1    2    0    0 -0.17368445735E-02 -0.61644545081E-02  0.35158447867E-01  0.35750994182E-01  0.10000000475E-02 0.  1.
</event>
<event>
 4   0  0.4958067E-02  0.9118800E+02  0.7818609E-02  0.1379984E+01
      -11   -1    0    0    0    0  0.00000000000E+00  0.00000000000E+00  0.35740347158E-01  0.35744000000E-01  0.51099999109E-03 0. -1.
       11   -1    0    0    0    0 -0.00000000000E+00 -0.00000000000E+00 -0.35740347158E-01  0.35744000000E-01  0.51099999109E-03 0.  1.
       22    1    1    2    0    0 -0.23844655924E-01 -0.61222250898E-02  0.25905295379E-01  0.35737005818E-01  0.00000000000E+00 0. -1.
  9000001    1    1    2    0    0  0.23844655924E-01  0.61222250898E-02 -0.25905295379E-01  0.35750994182E-01  0.10000000475E-02 0.  1.
</event>
<event>
 4   0  0.4958067E-02  0.9118800E+02  0.7818609E-02  0.1379984E+01
      -11   -1    0    0    0    0  0.00000000000E+00  0.00000000000E+00  0.35740347158E-01  0.35744000000E-01  0.51099999109E-03 0.  1.
       11   -1    0    0    0    0 -0.00000000000E+00 -0.00000000000E+00 -0.35740347158E-01  0.35744000000E-01  0.51099999109E-03 0. -1.
       22    1    1    2    0    0 -0.18227509555E-01  0.28288076941E-01  0.12028141306E-01  0.35737005818E-01  0.00000000000E+00 0.  1.
  9000001    1    1    2    0    0  0.18227509555E-01 -0.28288076941E-01 -0.12028141306E-01  0.35750994182E-01  0.10000000475E-02 0. -1.
</event>
<event>
 4   0  0.4958067E-02  0.9118800E+02  0.7818609E-02  0.1379984E+01
      -11   -1    0    0    0    0  0.00000000000E+00  0.00000000000E+00  0.35740347158E-01  0.35744000000E-01  0.51099999109E-03 0. -1.
       11   -1    0    0    0    0 -0.00000000000E+00 -0.00000000000E+00 -0.35740347158E-01  0.35744000000E-01  0.51099999109E-03 0.  1.
       22    1    1    2    0    0  0.43977396646E-02  0.13931216673E-01  0.32614638933E-01  0.35737005818E-01  0.00000000000E+00 0. -1.
  9000001    1    1    2    0    0 -0.43977396646E-02 -0.13931216673E-01 -0.32614638933E-01  0.35750994182E-01  0.10000000475E-02 0.  1.
</event>
<event>
 4   0  0.4958067E-02  0.9118800E+02  0.7818609E-02  0.1379984E+01
      -11   -1    0    0    0    0  0.00000000000E+00  0.00000000000E+00  0.35740347158E-01  0.35744000000E-01  0.51099999109E-03 0. -1.
       11   -1    0    0    0    0 -0.00000000000E+00 -0.00000000000E+00 -0.35740347158E-01  0.35744000000E-01  0.51099999109E-03 0.  1.
       22    1    1    2    0    0  0.22291591785E-01 -0.19433768595E-01 -0.20063577915E-01  0.35737005818E-01  0.00000000000E+00 0.  1.
  9000001    1    1    2    0    0 -0.22291591785E-01  0.19433768595E-01  0.20063577915E-01  0.35750994182E-01  0.10000000475E-02 0. -1.
</event>
<event>
 4   0  0.4958067E-02  0.9118800E+02  0.7818609E-02  0.1379984E+01
      -11   -1    0    0    0    0  0.00000000000E+00  0.00000000000E+00  0.35740347158E-01  0.35744000000E-01  0.51099999109E-03 0. -1.
       11   -1    0    0    0    0 -0.00000000000E+00 -0.00000000000E+00 -0.35740347158E-01  0.35744000000E-01  0.51099999109E-03 0.  1.
       22    1    1    2    0    0  0.73241318766E-02  0.19598324244E-01  0.28972337910E-01  0.35737005818E-01  0.00000000000E+00 0. -1.
  9000001    1    1    2    0    0 -0.73241318766E-02 -0.19598324244E-01 -0.28972337910E-01  0.35750994182E-01  0.10000000475E-02 0.  1.
</event>
<event>
 4   0  0.4958067E-02  0.9118800E+02  0.7818609E-02  0.1379984E+01
      -11   -1    0    0    0    0  0.00000000000E+00  0.00000000000E+00  0.35740347158E-01  0.35744000000E-01  0.51099999109E-03 0. -1.
       11   -1    0    0    0    0 -0.00000000000E+00 -0.00000000000E+00 -0.35740347158E-01  0.35744000000E-01  0.51099999109E-03 0.  1.
       22    1    1    2    0    0  0.34046656303E-02 -0.37634321969E-03  0.35572464106E-01  0.35737005818E-01  0.00000000000E+00 0. -1.
  9000001    1    1    2    0    0 -0.34046656303E-02  0.37634321969E-03 -0.35572464106E-01  0.35750994182E-01  0.10000000475E-02 0.  1.
</event>
<event>
 4   0  0.4958067E-02  0.9118800E+02  0.7818609E-02  0.1379984E+01
      -11   -1    0    0    0    0  0.00000000000E+00  0.00000000000E+00  0.35740347158E-01  0.35744000000E-01  0.51099999109E-03 0. -1.
       11   -1    0    0    0    0 -0.00000000000E+00 -0.00000000000E+00 -0.35740347158E-01  0.35744000000E-01  0.51099999109E-03 0.  1.
       22    1    1    2    0    0 -0.55080483491E-02 -0.53849460409E-03 -0.35305877865E-01  0.35737005818E-01  0.00000000000E+00 0.  1.
  9000001    1    1    2    0    0  0.55080483491E-02  0.53849460409E-03  0.35305877865E-01  0.35750994182E-01  0.10000000475E-02 0. -1.
</event>
<event>
 4   0  0.4958067E-02  0.9118800E+02  0.7818609E-02  0.1379984E+01
      -11   -1    0    0    0    0  0.00000000000E+00  0.00000000000E+00  0.35740347158E-01  0.35744000000E-01  0.51099999109E-03 0.  1.
       11   -1    0    0    0    0 -0.00000000000E+00 -0.00000000000E+00 -0.35740347158E-01  0.35744000000E-01  0.51099999109E-03 0. -1.
       22    1    1    2    0    0 -0.16362526107E-03 -0.96237495718E-02 -0.34416424216E-01  0.35737005818E-01  0.00000000000E+00 0. -1.
  9000001    1    1    2    0    0  0.16362526107E-03  0.96237495718E-02  0.34416424216E-01  0.35750994182E-01  0.10000000475E-02 0.  1.
</event>
<event>
 4   0  0.4958067E-02  0.9118800E+02  0.7818609E-02  0.1379984E+01
      -11   -1    0    0    0    0  0.00000000000E+00  0.00000000000E+00  0.35740347158E-01  0.35744000000E-01  0.51099999109E-03 0.  1.
       11   -1    0    0    0    0 -0.00000000000E+00 -0.00000000000E+00 -0.35740347158E-01  0.35744000000E-01  0.51099999109E-03 0. -1.
       22    1    1    2    0    0  0.72359049030E-02 -0.15834144471E-02 -0.34960950556E-01  0.35737005818E-01  0.00000000000E+00 0. -1.
  9000001    1    1    2    0    0 -0.72359049030E-02  0.15834144471E-02  0.34960950556E-01  0.35750994182E-01  0.10000000475E-02 0.  1.
</event>
<event>
 4   0  0.4958067E-02  0.9118800E+02  0.7818609E-02  0.1379984E+01
      -11   -1    0    0    0    0  0.00000000000E+00  0.00000000000E+00  0.35740347158E-01  0.35744000000E-01  0.51099999109E-03 0. -1.
       11   -1    0    0    0    0 -0.00000000000E+00 -0.00000000000E+00 -0.35740347158E-01  0.35744000000E-01  0.51099999109E-03 0.  1.
       22    1    1    2    0    0 -0.29425088829E-01 -0.96959583443E-02  0.17812527166E-01  0.35737005818E-01  0.00000000000E+00 0. -1.
  9000001    1    1    2    0    0  0.29425088829E-01  0.96959583443E-02 -0.17812527166E-01  0.35750994182E-01  0.10000000475E-02 0.  1.
</event>
<event>
 4   0  0.4958067E-02  0.9118800E+02  0.7818609E-02  0.1379984E+01
      -11   -1    0    0    0    0  0.00000000000E+00  0.00000000000E+00  0.35740347158E-01  0.35744000000E-01  0.51099999109E-03 0. -1.
       11   -1    0    0    0    0 -0.00000000000E+00 -0.00000000000E+00 -0.35740347158E-01  0.35744000000E-01  0.51099999109E-03 0.  1.
       22    1    1    2    0    0 -0.11768218359E-01  0.30785207084E-02 -0.33603055394E-01  0.35737005818E-01  0.00000000000E+00 0.  1.
  9000001    1    1    2    0    0  0.11768218359E-01 -0.30785207084E-02  0.33603055394E-01  0.35750994182E-01  0.10000000475E-02 0. -1.
</event>
<event>
 4   0  0.4958067E-02  0.9118800E+02  0.7818609E-02  0.1379984E+01
      -11   -1    0    0    0    0  0.00000000000E+00  0.00000000000E+00  0.35740347158E-01  0.35744000000E-01  0.51099999109E-03 0.  1.
       11   -1    0    0    0    0 -0.00000000000E+00 -0.00000000000E+00 -0.35740347158E-01  0.35744000000E-01  0.51099999109E-03 0. -1.
       22    1    1    2    0    0 -0.19812514083E-01  0.22149528472E-02 -0.29659599702E-01  0.35737005818E-01  0.00000000000E+00 0. -1.
  9000001    1    1    2    0    0  0.19812514083E-01 -0.22149528472E-02  0.29659599702E-01  0.35750994182E-01  0.10000000475E-02 0.  1.
</event>
<event>
 4   0  0.4958067E-02  0.9118800E+02  0.7818609E-02  0.1379984E+01
      -11   -1    0    0    0    0  0.00000000000E+00  0.00000000000E+00  0.35740347158E-01  0.35744000000E-01  0.51099999109E-03 0.  1.
       11   -1    0    0    0    0 -0.00000000000E+00 -0.00000000000E+00 -0.35740347158E-01  0.35744000000E-01  0.51099999109E-03 0. -1.
       22    1    1    2    0    0  0.48980497602E-02 -0.15575258315E-02  0.35365474784E-01  0.35737005818E-01  0.00000000000E+00 0.  1.
  9000001    1    1    2    0    0 -0.48980497602E-02  0.15575258315E-02 -0.35365474784E-01  0.35750994182E-01  0.10000000475E-02 0. -1.
</event>
<event>
 4   0  0.4958067E-02  0.9118800E+02  0.7818609E-02  0.1379984E+01
      -11   -1    0    0    0    0  0.00000000000E+00  0.00000000000E+00  0.35740347158E-01  0.35744000000E-01  0.51099999109E-03 0.  1.
       11   -1    0    0    0    0 -0.00000000000E+00 -0.00000000000E+00 -0.35740347158E-01  0.35744000000E-01  0.51099999109E-03 0. -1.
       22    1    1    2    0    0  0.60720869715E-02  0.13519273523E-01 -0.32519111121E-01  0.35737005818E-01  0.00000000000E+00 0. -1.
  9000001    1    1    2    0    0 -0.60720869715E-02 -0.13519273523E-01  0.32519111121E-01  0.35750994182E-01  0.10000000475E-02 0.  1.
</event>
<event>
 4   0  0.4958067E-02  0.9118800E+02  0.7818609E-02  0.1379984E+01
      -11   -1    0    0    0    0  0.00000000000E+00  0.00000000000E+00  0.35740347158E-01  0.35744000000E-01  0.51099999109E-03 0.  1.
       11   -1    0    0    0    0 -0.00000000000E+00 -0.00000000000E+00 -0.35740347158E-01  0.35744000000E-01  0.51099999109E-03 0. -1.
       22    1    1    2    0    0  0.19364062638E-01  0.12998843451E-01 -0.27077605728E-01  0.35737005818E-01  0.00000000000E+00 0. -1.
  9000001    1    1    2    0    0 -0.19364062638E-01 -0.12998843451E-01  0.27077605728E-01  0.35750994182E-01  0.10000000475E-02 0.  1.
</event>
<event>
 4   0  0.4958067E-02  0.9118800E+02  0.7818609E-02  0.1379984E+01
      -11   -1    0    0    0    0  0.00000000000E+00  0.00000000000E+00  0.35740347158E-01  0.35744000000E-01  0.51099999109E-03 0.  1.
       11   -1    0    0    0    0 -0.00000000000E+00 -0.00000000000E+00 -0.35740347158E-01  0.35744000000E-01  0.51099999109E-03 0. -1.
       22    1    1    2    0    0 -0.66551329206E-03 -0.41083580097E-02  0.35493831456E-01  0.35737005818E-01  0.00000000000E+00 0.  1.
  9000001    1    1    2    0    0  0.66551329206E-03  0.41083580097E-02 -0.35493831456E-01  0.35750994182E-01  0.10000000475E-02 0. -1.
</event>
<event>
 4   0  0.4958067E-02  0.9118800E+02  0.7818609E-02  0.1379984E+01
      -11   -1    0    0    0    0  0.00000000000E+00  0.00000000000E+00  0.35740347158E-01  0.35744000000E-01  0.51099999109E-03 0.  1.
       11   -1    0    0    0    0 -0.00000000000E+00 -0.00000000000E+00 -0.35740347158E-01  0.35744000000E-01  0.51099999109E-03 0. -1.
       22    1    1    2    0    0 -0.15790812306E-01  0.28130150759E-01 -0.15377855827E-01  0.35737005818E-01  0.00000000000E+00 0. -1.
  9000001    1    1    2    0    0  0.15790812306E-01 -0.28130150759E-01  0.15377855827E-01  0.35750994182E-01  0.10000000475E-02 0.  1.
</event>
<event>
 4   0  0.4958067E-02  0.9118800E+02  0.7818609E-02  0.1379984E+01
      -11   -1    0    0    0    0  0.00000000000E+00  0.00000000000E+00  0.35740347158E-01  0.35744000000E-01  0.51099999109E-03 0. -1.
       11   -1    0    0    0    0 -0.00000000000E+00 -0.00000000000E+00 -0.35740347158E-01  0.35744000000E-01  0.51099999109E-03 0.  1.
       22    1    1    2    0    0 -0.22998322436E-01 -0.23205425855E-02  0.27254831353E-01  0.35737005818E-01  0.00000000000E+00 0. -1.
  9000001    1    1    2    0    0  0.22998322436E-01  0.23205425855E-02 -0.27254831353E-01  0.35750994182E-01  0.10000000475E-02 0.  1.
</event>
<event>
 4   0  0.4958067E-02  0.9118800E+02  0.7818609E-02  0.1379984E+01
      -11   -1    0    0    0    0  0.00000000000E+00  0.00000000000E+00  0.35740347158E-01  0.35744000000E-01  0.51099999109E-03 0. -1.
       11   -1    0    0    0    0 -0.00000000000E+00 -0.00000000000E+00 -0.35740347158E-01  0.35744000000E-01  0.51099999109E-03 0.  1.
       22    1    1    2    0    0  0.98159291708E-03  0.12818737638E-01 -0.33344415208E-01  0.35737005818E-01  0.00000000000E+00 0.  1.
  9000001    1    1    2    0    0 -0.98159291708E-03 -0.12818737638E-01  0.33344415208E-01  0.35750994182E-01  0.10000000475E-02 0. -1.
</event>
<event>
 4   0  0.4958067E-02  0.9118800E+02  0.7818609E-02  0.1379984E+01
      -11   -1    0    0    0    0  0.00000000000E+00  0.00000000000E+00  0.35740347158E-01  0.35744000000E-01  0.51099999109E-03 0.  1.
       11   -1    0    0    0    0 -0.00000000000E+00 -0.00000000000E+00 -0.35740347158E-01  0.35744000000E-01  0.51099999109E-03 0. -1.
       22    1    1    2    0    0  0.25316258433E-01 -0.60568390457E-02 -0.24485410852E-01  0.35737005818E-01  0.00000000000E+00 0. -1.
  9000001    1    1    2    0    0 -0.25316258433E-01  0.60568390457E-02  0.24485410852E-01  0.35750994182E-01  0.10000000475E-02 0.  1.
</event>
<event>
 4   0  0.4958067E-02  0.9118800E+02  0.7818609E-02  0.1379984E+01
      -11   -1    0    0    0    0  0.00000000000E+00  0.00000000000E+00  0.35740347158E-01  0.35744000000E-01  0.51099999109E-03 0.  1.
       11   -1    0    0    0    0 -0.00000000000E+00 -0.00000000000E+00 -0.35740347158E-01  0.35744000000E-01  0.51099999109E-03 0. -1.
       22    1    1    2    0    0 -0.65421433035E-03  0.96675725551E-02  0.34398308525E-01  0.35737005818E-01  0.00000000000E+00 0.  1.
  9000001    1    1    2    0    0  0.65421433035E-03 -0.96675725551E-02 -0.34398308525E-01  0.35750994182E-01  0.10000000475E-02 0. -1.
</event>
<event>
 4   0  0.4958067E-02  0.9118800E+02  0.7818609E-02  0.1379984E+01
      -11   -1    0    0    0    0  0.00000000000E+00  0.00000000000E+00  0.35740347158E-01  0.35744000000E-01  0.51099999109E-03 0.  1.
       11   -1    0    0    0    0 -0.00000000000E+00 -0.00000000000E+00 -0.35740347158E-01  0.35744000000E-01  0.51099999109E-03 0. -1.
       22    1    1    2    0    0  0.20124653511E-01  0.22520357868E-02  0.29445886652E-01  0.35737005818E-01  0.00000000000E+00 0.  1.
  9000001    1    1    2    0    0 -0.20124653511E-01 -0.22520357868E-02 -0.29445886652E-01  0.35750994182E-01  0.10000000475E-02 0. -1.
</event>
<event>
 4   0  0.4958067E-02  0.9118800E+02  0.7818609E-02  0.1379984E+01
      -11   -1    0    0    0    0  0.00000000000E+00  0.00000000000E+00  0.35740347158E-01  0.35744000000E-01  0.51099999109E-03 0. -1.
       11   -1    0    0    0    0 -0.00000000000E+00 -0.00000000000E+00 -0.35740347158E-01  0.35744000000E-01  0.51099999109E-03 0.  1.
       22    1    1    2    0    0 -0.16420063391E-01  0.19749021430E-01 -0.24849371334E-01  0.35737005818E-01  0.00000000000E+00 0.  1.
  9000001    1    1    2    0    0  0.16420063391E-01 -0.19749021430E-01  0.24849371334E-01  0.35750994182E-01  0.10000000475E-02 0. -1.
</event>
<event>
 4   0  0.4958067E-02  0.9118800E+02  0.7818609E-02  0.1379984E+01
      -11   -1    0    0    0    0  0.00000000000E+00  0.00000000000E+00  0.35740347158E-01  0.35744000000E-01  0.51099999109E-03 0. -1.
       11   -1    0    0    0    0 -0.00000000000E+00 -0.00000000000E+00 -0.35740347158E-01  0.35744000000E-01  0.51099999109E-03 0.  1.
       22    1    1    2    0    0  0.16494508874E-01  0.28669664979E-01  0.13532001768E-01  0.35737005818E-01  0.00000000000E+00 0. -1.
  9000001    1    1    2    0    0 -0.16494508874E-01 -0.28669664979E-01 -0.13532001768E-01  0.35750994182E-01  0.10000000475E-02 0.  1.
</event>
<event>
 4   0  0.4958067E-02  0.9118800E+02  0.7818609E-02  0.1379984E+01
      -11   -1    0    0    0    0  0.00000000000E+00  0.00000000000E+00  0.35740347158E-01  0.35744000000E-01  0.51099999109E-03 0. -1.
       11   -1    0    0    0    0 -0.00000000000E+00 -0.00000000000E+00 -0.35740347158E-01  0.35744000000E-01  0.51099999109E-03 0.  1.
       22    1    1    2    0    0 -0.11780005733E-03  0.15697428505E-01 -0.32104679509E-01  0.35737005818E-01  0.00000000000E+00 0.  1.
  9000001    1    1    2    0    0  0.11780005733E-03 -0.15697428505E-01  0.32104679509E-01  0.35750994182E-01  0.10000000475E-02 0. -1.
</event>
<event>
 4   0  0.4958067E-02  0.9118800E+02  0.7818609E-02  0.1379984E+01
      -11   -1    0    0    0    0  0.00000000000E+00  0.00000000000E+00  0.35740347158E-01  0.35744000000E-01  0.51099999109E-03 0.  1.
       11   -1    0    0    0    0 -0.00000000000E+00 -0.00000000000E+00 -0.35740347158E-01  0.35744000000E-01  0.51099999109E-03 0. -1.
       22    1    1    2    0    0  0.21823339374E-02  0.58085748244E-02 -0.35194196424E-01  0.35737005818E-01  0.00000000000E+00 0. -1.
  9000001    1    1    2    0    0 -0.21823339374E-02 -0.58085748244E-02  0.35194196424E-01  0.35750994182E-01  0.10000000475E-02 0.  1.
</event>
<event>
 4   0  0.4958067E-02  0.9118800E+02  0.7818609E-02  0.1379984E+01
      -11   -1    0    0    0    0  0.00000000000E+00  0.00000000000E+00  0.35740347158E-01  0.35744000000E-01  0.51099999109E-03 0. -1.
       11   -1    0    0    0    0 -0.00000000000E+00 -0.00000000000E+00 -0.35740347158E-01  0.35744000000E-01  0.51099999109E-03 0.  1.
       22    1    1    2    0    0 -0.20046403724E-01 -0.27946599201E-01  0.97089070306E-02  0.35737005818E-01  0.00000000000E+00 0. -1.
  9000001    1    1    2    0    0  0.20046403724E-01  0.27946599201E-01 -0.97089070306E-02  0.35750994182E-01  0.10000000475E-02 0.  1.
</event>
<event>
 4   0  0.4958067E-02  0.9118800E+02  0.7818609E-02  0.1379984E+01
      -11   -1    0    0    0    0  0.00000000000E+00  0.00000000000E+00  0.35740347158E-01  0.35744000000E-01  0.51099999109E-03 0.  1.
       11   -1    0    0    0    0 -0.00000000000E+00 -0.00000000000E+00 -0.35740347158E-01  0.35744000000E-01  0.51099999109E-03 0. -1.
       22    1    1    2    0    0  0.17024297221E-01 -0.37056018537E-02  0.31202169859E-01  0.35737005818E-01  0.00000000000E+00 0.  1.
  9000001    1    1    2    0    0 -0.17024297221E-01  0.37056018537E-02 -0.31202169859E-01  0.35750994182E-01  0.10000000475E-02 0. -1.
</event>
<event>
 4   0  0.4958067E-02  0.9118800E+02  0.7818609E-02  0.1379984E+01
      -11   -1    0    0    0    0  0.00000000000E+00  0.00000000000E+00  0.35740347158E-01  0.35744000000E-01  0.51099999109E-03 0. -1.
       11   -1    0    0    0    0 -0.00000000000E+00 -0.00000000000E+00 -0.35740347158E-01  0.35744000000E-01  0.51099999109E-03 0.  1.
       22    1    1    2    0    0  0.11535079400E-01  0.28459519682E-02 -0.33704244325E-01  0.35737005818E-01  0.00000000000E+00 0.  1.
  9000001    1    1    2    0    0 -0.11535079400E-01 -0.28459519682E-02  0.33704244325E-01  0.35750994182E-01  0.10000000475E-02 0. -1.
</event>
<event>
 4   0  0.4958067E-02  0.9118800E+02  0.7818609E-02  0.1379984E+01
      -11   -1    0    0    0    0  0.00000000000E+00  0.00000000000E+00  0.35740347158E-01  0.35744000000E-01  0.51099999109E-03 0. -1.
       11   -1    0    0    0    0 -0.00000000000E+00 -0.00000000000E+00 -0.35740347158E-01  0.35744000000E-01  0.51099999109E-03 0.  1.
       22    1    1    2    0    0  0.23048560086E-01  0.15699522139E-01 -0.22347762023E-01  0.35737005818E-01  0.00000000000E+00 0.  1.
  9000001    1    1    2    0    0 -0.23048560086E-01 -0.15699522139E-01  0.22347762023E-01  0.35750994182E-01  0.10000000475E-02 0. -1.
</event>
<event>
 4   0  0.4958067E-02  0.9118800E+02  0.7818609E-02  0.1379984E+01
      -11   -1    0    0    0    0  0.00000000000E+00  0.00000000000E+00  0.35740347158E-01  0.35744000000E-01  0.51099999109E-03 0. -1.
       11   -1    0    0    0    0 -0.00000000000E+00 -0.00000000000E+00 -0.35740347158E-01  0.35744000000E-01  0.51099999109E-03 0.  1.
       22    1    1    2    0    0 -0.18824898499E-02  0.30747745735E-02  0.35554684335E-01  0.35737005818E-01  0.00000000000E+00 0. -1.
  9000001    1    1    2    0    0  0.18824898499E-02 -0.30747745735E-02 -0.35554684335E-01  0.35750994182E-01  0.10000000475E-02 0.  1.
</event>
<event>
 4   0  0.4958067E-02  0.9118800E+02  0.7818609E-02  0.1379984E+01
      -11   -1    0    0    0    0  0.00000000000E+00  0.00000000000E+00  0.35740347158E-01  0.35744000000E-01  0.51099999109E-03 0.  1.
       11   -1    0    0    0    0 -0.00000000000E+00 -0.00000000000E+00 -0.35740347158E-01  0.35744000000E-01  0.51099999109E-03 0. -1.
       22    1    1    2    0    0  0.89489109621E-02 -0.89286057227E-03 -0.34586896037E-01  0.35737005818E-01  0.00000000000E+00 0. -1.
  9000001    1    1    2    0    0 -0.89489109621E-02  0.89286057227E-03  0.34586896037E-01  0.35750994182E-01  0.10000000475E-02 0.  1.
</event>
<event>
 4   0  0.4958067E-02  0.9118800E+02  0.7818609E-02  0.1379984E+01
      -11   -1    0    0    0    0  0.00000000000E+00  0.00000000000E+00  0.35740347158E-01  0.35744000000E-01  0.51099999109E-03 0.  1.
       11   -1    0    0    0    0 -0.00000000000E+00 -0.00000000000E+00 -0.35740347158E-01  0.35744000000E-01  0.51099999109E-03 0. -1.
       22    1    1    2    0    0  0.24630034718E-02  0.36010079732E-02  0.35469704543E-01  0.35737005818E-01  0.00000000000E+00 0.  1.
  9000001    1    1    2    0    0 -0.24630034718E-02 -0.36010079732E-02 -0.35469704543E-01  0.35750994182E-01  0.10000000475E-02 0. -1.
</event>
<event>
 4   0  0.4958067E-02  0.9118800E+02  0.7818609E-02  0.1379984E+01
      -11   -1    0    0    0    0  0.00000000000E+00  0.00000000000E+00  0.35740347158E-01  0.35744000000E-01  0.51099999109E-03 0. -1.
       11   -1    0    0    0    0 -0.00000000000E+00 -0.00000000000E+00 -0.35740347158E-01  0.35744000000E-01  0.51099999109E-03 0.  1.
       22    1    1    2    0    0 -0.11295198883E-01  0.15600488317E-01  0.30102771157E-01  0.35737005818E-01  0.00000000000E+00 0. -1.
  9000001    1    1    2    0    0  0.11295198883E-01 -0.15600488317E-01 -0.30102771157E-01  0.35750994182E-01  0.10000000475E-02 0.  1.
</event>
<event>
 4   0  0.4958067E-02  0.9118800E+02  0.7818609E-02  0.1379984E+01
      -11   -1    0    0    0    0  0.00000000000E+00  0.00000000000E+00  0.35740347158E-01  0.35744000000E-01  0.51099999109E-03 0.  1.
       11   -1    0    0    0    0 -0.00000000000E+00 -0.00000000000E+00 -0.35740347158E-01  0.35744000000E-01  0.51099999109E-03 0. -1.
       22    1    1    2    0    0 -0.96368446368E-02  0.14813994346E-01  0.31061396972E-01  0.35737005818E-01  0.00000000000E+00 0.  1.
  9000001    1    1    2    0    0  0.96368446368E-02 -0.14813994346E-01 -0.31061396972E-01  0.35750994182E-01  0.10000000475E-02 0. -1.
</event>
<event>
 4   0  0.4958067E-02  0.9118800E+02  0.7818609E-02  0.1379984E+01
      -11   -1    0    0    0    0  0.00000000000E+00  0.00000000000E+00  0.35740347158E-01  0.35744000000E-01  0.51099999109E-03 0. -1.
       11   -1    0    0    0    0 -0.00000000000E+00 -0.00000000000E+00 -0.35740347158E-01  0.35744000000E-01  0.51099999109E-03 0.  1.
       22    1    1    2    0    0 -0.31543501999E-02  0.30199341843E-02 -0.35469193072E-01  0.35737005818E-01  0.00000000000E+00 0.  1.
  9000001    1    1    2    0    0  0.31543501999E-02 -0.30199341843E-02  0.35469193072E-01  0.35750994182E-01  0.10000000475E-02 0. -1.
</event>
<event>
 4   0  0.4958067E-02  0.9118800E+02  0.7818609E-02  0.1379984E+01
      -11   -1    0    0    0    0  0.00000000000E+00  0.00000000000E+00  0.35740347158E-01  0.35744000000E-01  0.51099999109E-03 0. -1.
       11   -1    0    0    0    0 -0.00000000000E+00 -0.00000000000E+00 -0.35740347158E-01  0.35744000000E-01  0.51099999109E-03 0.  1.
       22    1    1    2    0    0 -0.53311966263E-02  0.27622690328E-02 -0.35228990863E-01  0.35737005818E-01  0.00000000000E+00 0.  1.
  9000001    1    1    2    0    0  0.53311966263E-02 -0.27622690328E-02  0.35228990863E-01  0.35750994182E-01  0.10000000475E-02 0. -1.
</event>
<event>
 4   0  0.4958067E-02  0.9118800E+02  0.7818609E-02  0.1379984E+01
      -11   -1    0    0    0    0  0.00000000000E+00  0.00000000000E+00  0.35740347158E-01  0.35744000000E-01  0.51099999109E-03 0. -1.
       11   -1    0    0    0    0 -0.00000000000E+00 -0.00000000000E+00 -0.35740347158E-01  0.35744000000E-01  0.51099999109E-03 0.  1.
       22    1    1    2    0    0 -0.11743240750E-01 -0.10144113415E-01 -0.32192030762E-01  0.35737005818E-01  0.00000000000E+00 0.  1.
  9000001    1    1    2    0    0  0.11743240750E-01  0.10144113415E-01  0.32192030762E-01  0.35750994182E-01  0.10000000475E-02 0. -1.
</event>
<event>
 4   0  0.4958067E-02  0.9118800E+02  0.7818609E-02  0.1379984E+01
      -11   -1    0    0    0    0  0.00000000000E+00  0.00000000000E+00  0.35740347158E-01  0.35744000000E-01  0.51099999109E-03 0. -1.
       11   -1    0    0    0    0 -0.00000000000E+00 -0.00000000000E+00 -0.35740347158E-01  0.35744000000E-01  0.51099999109E-03 0.  1.
       22    1    1    2    0    0 -0.15756178421E-02  0.43441888519E-02 -0.35436972733E-01  0.35737005818E-01  0.00000000000E+00 0.  1.
  9000001    1    1    2    0    0  0.15756178421E-02 -0.43441888519E-02  0.35436972733E-01  0.35750994182E-01  0.10000000475E-02 0. -1.
</event>
<event>
 4   0  0.4958067E-02  0.9118800E+02  0.7818609E-02  0.1379984E+01
      -11   -1    0    0    0    0  0.00000000000E+00  0.00000000000E+00  0.35740347158E-01  0.35744000000E-01  0.51099999109E-03 0.  1.
       11   -1    0    0    0    0 -0.00000000000E+00 -0.00000000000E+00 -0.35740347158E-01  0.35744000000E-01  0.51099999109E-03 0. -1.
       22    1    1    2    0    0 -0.31095641538E-02 -0.17279918122E-02 -0.35559502808E-01  0.35737005818E-01  0.00000000000E+00 0. -1.
  9000001    1    1    2    0    0  0.31095641538E-02  0.17279918122E-02  0.35559502808E-01  0.35750994182E-01  0.10000000475E-02 0.  1.
</event>
<event>
 4   0  0.4958067E-02  0.9118800E+02  0.7818609E-02  0.1379984E+01
      -11   -1    0    0    0    0  0.00000000000E+00  0.00000000000E+00  0.35740347158E-01  0.35744000000E-01  0.51099999109E-03 0.  1.
       11   -1    0    0    0    0 -0.00000000000E+00 -0.00000000000E+00 -0.35740347158E-01  0.35744000000E-01  0.51099999109E-03 0. -1.
       22    1    1    2    0    0 -0.27443992423E-02 -0.46578579055E-02  0.35325716092E-01  0.35737005818E-01  0.00000000000E+00 0.  1.
  9000001    1    1    2    0    0  0.27443992423E-02  0.46578579055E-02 -0.35325716092E-01  0.35750994182E-01  0.10000000475E-02 0. -1.
</event>
<event>
 4   0  0.4958067E-02  0.9118800E+02  0.7818609E-02  0.1379984E+01
      -11   -1    0    0    0    0  0.00000000000E+00  0.00000000000E+00  0.35740347158E-01  0.35744000000E-01  0.51099999109E-03 0.  1.
       11   -1    0    0    0    0 -0.00000000000E+00 -0.00000000000E+00 -0.35740347158E-01  0.35744000000E-01  0.51099999109E-03 0. -1.
       22    1    1    2    0    0 -0.42448949602E-02 -0.99021972357E-02  0.34074344331E-01  0.35737005818E-01  0.00000000000E+00 0.  1.
  9000001    1    1    2    0    0  0.42448949602E-02  0.99021972357E-02 -0.34074344331E-01  0.35750994182E-01  0.10000000475E-02 0. -1.
</event>
<event>
 4   0  0.4958067E-02  0.9118800E+02  0.7818609E-02  0.1379984E+01
      -11   -1    0    0    0    0  0.00000000000E+00  0.00000000000E+00  0.35740347158E-01  0.35744000000E-01  0.51099999109E-03 0.  1.
       11   -1    0    0    0    0 -0.00000000000E+00 -0.00000000000E+00 -0.35740347158E-01  0.35744000000E-01  0.51099999109E-03 0. -1.
       22    1    1    2    0    0 -0.23615160902E-01  0.61619877483E-02 -0.26105318758E-01  0.35737005818E-01  0.00000000000E+00 0. -1.
  9000001    1    1    2    0    0  0.23615160902E-01 -0.61619877483E-02  0.26105318758E-01  0.35750994182E-01  0.10000000475E-02 0.  1.
</event>
<event>
 4   0  0.4958067E-02  0.9118800E+02  0.7818609E-02  0.1379984E+01
      -11   -1    0    0    0    0  0.00000000000E+00  0.00000000000E+00  0.35740347158E-01  0.35744000000E-01  0.51099999109E-03 0. -1.
       11   -1    0    0    0    0 -0.00000000000E+00 -0.00000000000E+00 -0.35740347158E-01  0.35744000000E-01  0.51099999109E-03 0.  1.
       22    1    1    2    0    0  0.98426173027E-02 -0.30332603465E-02  0.34220692588E-01  0.35737005818E-01  0.00000000000E+00 0. -1.
  9000001    1    1    2    0    0 -0.98426173027E-02  0.30332603465E-02 -0.34220692588E-01  0.35750994182E-01  0.10000000475E-02 0.  1.
</event>
<event>
 4   0  0.4958067E-02  0.9118800E+02  0.7818609E-02  0.1379984E+01
      -11   -1    0    0    0    0  0.00000000000E+00  0.00000000000E+00  0.35740347158E-01  0.35744000000E-01  0.51099999109E-03 0. -1.
       11   -1    0    0    0    0 -0.00000000000E+00 -0.00000000000E+00 -0.35740347158E-01  0.35744000000E-01  0.51099999109E-03 0.  1.
       22    1    1    2    0    0  0.31639785243E-02  0.18952872308E-02 -0.35546177166E-01  0.35737005818E-01  0.00000000000E+00 0.  1.
  9000001    1    1    2    0    0 -0.31639785243E-02 -0.18952872308E-02  0.35546177166E-01  0.35750994182E-01  0.10000000475E-02 0. -1.
</event>
<event>
 4   0  0.4958067E-02  0.9118800E+02  0.7818609E-02  0.1379984E+01
      -11   -1    0    0    0    0  0.00000000000E+00  0.00000000000E+00  0.35740347158E-01  0.35744000000E-01  0.51099999109E-03 0. -1.
       11   -1    0    0    0    0 -0.00000000000E+00 -0.00000000000E+00 -0.35740347158E-01  0.35744000000E-01  0.51099999109E-03 0.  1.
       22    1    1    2    0    0 -0.52520715586E-02 -0.88954014231E-02 -0.34211418602E-01  0.35737005818E-01  0.00000000000E+00 0.  1.
  9000001    1    1    2    0    0  0.52520715586E-02  0.88954014231E-02  0.34211418602E-01  0.35750994182E-01  0.10000000475E-02 0. -1.
</event>
<event>
 4   0  0.4958067E-02  0.9118800E+02  0.7818609E-02  0.1379984E+01
      -11   -1    0    0    0    0  0.00000000000E+00  0.00000000000E+00  0.35740347158E-01  0.35744000000E-01  0.51099999109E-03 0.  1.
       11   -1    0    0    0    0 -0.00000000000E+00 -0.00000000000E+00 -0.35740347158E-01  0.35744000000E-01  0.51099999109E-03 0. -1.
       22    1    1    2    0    0 -0.11364396314E-01  0.16422061415E-02  0.33842092729E-01  0.35737005818E-01  0.00000000000E+00 0.  1.
  9000001    1    1    2    0    0  0.11364396314E-01 -0.16422061415E-02 -0.33842092729E-01  0.35750994182E-01  0.10000000475E-02 0. -1.
</event>
<event>
 4   0  0.4958067E-02  0.9118800E+02  0.7818609E-02  0.1379984E+01
      -11   -1    0    0    0    0  0.00000000000E+00  0.00000000000E+00  0.35740347158E-01  0.35744000000E-01  0.51099999109E-03 0.  1.
       11   -1    0    0    0    0 -0.00000000000E+00 -0.00000000000E+00 -0.35740347158E-01  0.35744000000E-01  0.51099999109E-03 0. -1.
       22    1    1    2    0    0  0.42806545192E-02  0.21899886284E-02 -0.35412053479E-01  0.35737005818E-01  0.00000000000E+00 0. -1.
  9000001    1    1    2    0    0 -0.42806545192E-02 -0.21899886284E-02  0.35412053479E-01  0.35750994182E-01  0.10000000475E-02 0.  1.
</event>
<event>
 4   0  0.4958067E-02  0.9118800E+02  0.7818609E-02  0.1379984E+01
      -11   -1    0    0    0    0  0.00000000000E+00  0.00000000000E+00  0.35740347158E-01  0.35744000000E-01  0.51099999109E-03 0. -1.
       11   -1    0    0    0    0 -0.00000000000E+00 -0.00000000000E+00 -0.35740347158E-01  0.35744000000E-01  0.51099999109E-03 0.  1.
       22    1    1    2    0    0  0.11370643194E-01 -0.26530807087E-02  0.33775778614E-01  0.35737005818E-01  0.00000000000E+00 0. -1.
  9000001    1    1    2    0    0 -0.11370643194E-01  0.26530807087E-02 -0.33775778614E-01  0.35750994182E-01  0.10000000475E-02 0.  1.
</event>
<event>
 4   0  0.4958067E-02  0.9118800E+02  0.7818609E-02  0.1379984E+01
      -11   -1    0    0    0    0  0.00000000000E+00  0.00000000000E+00  0.35740347158E-01  0.35744000000E-01  0.51099999109E-03 0.  1.
       11   -1    0    0    0    0 -0.00000000000E+00 -0.00000000000E+00 -0.35740347158E-01  0.35744000000E-01  0.51099999109E-03 0. -1.
       22    1    1    2    0    0  0.12995541682E-01 -0.35802834048E-02 -0.33097296748E-01  0.35737005818E-01  0.00000000000E+00 0. -1.
  9000001    1    1    2    0    0 -0.12995541682E-01  0.35802834048E-02  0.33097296748E-01  0.35750994182E-01  0.10000000475E-02 0.  1.
</event>
<event>
 4   0  0.4958067E-02  0.9118800E+02  0.7818609E-02  0.1379984E+01
      -11   -1    0    0    0    0  0.00000000000E+00  0.00000000000E+00  0.35740347158E-01  0.35744000000E-01  0.51099999109E-03 0. -1.
       11   -1    0    0    0    0 -0.00000000000E+00 -0.00000000000E+00 -0.35740347158E-01  0.35744000000E-01  0.51099999109E-03 0.  1.
       22    1    1    2    0    0 -0.59467326803E-03  0.15214214042E-01  0.32331217726E-01  0.35737005818E-01  0.00000000000E+00 0. -1.
  9000001    1    1    2    0    0  0.59467326803E-03 -0.15214214042E-01 -0.32331217726E-01  0.35750994182E-01  0.10000000475E-02 0.  1.
</event>
<event>
 4   0  0.4958067E-02  0.9118800E+02  0.7818609E-02  0.1379984E+01
      -11   -1    0    0    0    0  0.00000000000E+00  0.00000000000E+00  0.35740347158E-01  0.35744000000E-01  0.51099999109E-03 0. -1.
       11   -1    0    0    0    0 -0.00000000000E+00 -0.00000000000E+00 -0.35740347158E-01  0.35744000000E-01  0.51099999109E-03 0.  1.
       22    1    1    2    0    0 -0.11776393941E-01  0.62974724383E-02  0.33148031186E-01  0.35737005818E-01  0.00000000000E+00 0. -1.
  9000001    1    1    2    0    0  0.11776393941E-01 -0.62974724383E-02 -0.33148031186E-01  0.35750994182E-01  0.10000000475E-02 0.  1.
</event>
<event>
 4   0  0.4958067E-02  0.9118800E+02  0.7818609E-02  0.1379984E+01
      -11   -1    0    0    0    0  0.00000000000E+00  0.00000000000E+00  0.35740347158E-01  0.35744000000E-01  0.51099999109E-03 0. -1.
       11   -1    0    0    0    0 -0.00000000000E+00 -0.00000000000E+00 -0.35740347158E-01  0.35744000000E-01  0.51099999109E-03 0.  1.
       22    1    1    2    0    0 -0.23582794943E-02  0.16206836293E-01  0.31763352469E-01  0.35737005818E-01  0.00000000000E+00 0. -1.
  9000001    1    1    2    0    0  0.23582794943E-02 -0.16206836293E-01 -0.31763352469E-01  0.35750994182E-01  0.10000000475E-02 0.  1.
</event>
<event>
 4   0  0.4958067E-02  0.9118800E+02  0.7818609E-02  0.1379984E+01
      -11   -1    0    0    0    0  0.00000000000E+00  0.00000000000E+00  0.35740347158E-01  0.35744000000E-01  0.51099999109E-03 0. -1.
       11   -1    0    0    0    0 -0.00000000000E+00 -0.00000000000E+00 -0.35740347158E-01  0.35744000000E-01  0.51099999109E-03 0.  1.
       22    1    1    2    0    0  0.26387818509E-01  0.14809161732E-02 -0.24054594291E-01  0.35737005818E-01  0.00000000000E+00 0.  1.
  9000001    1    1    2    0    0 -0.26387818509E-01 -0.14809161732E-02  0.24054594291E-01  0.35750994182E-01  0.10000000475E-02 0. -1.
</event>
<event>
 4   0  0.4958067E-02  0.9118800E+02  0.7818609E-02  0.1379984E+01
      -11   -1    0    0    0    0  0.00000000000E+00  0.00000000000E+00  0.35740347158E-01  0.35744000000E-01  0.51099999109E-03 0. -1.
       11   -1    0    0    0    0 -0.00000000000E+00 -0.00000000000E+00 -0.35740347158E-01  0.35744000000E-01  0.51099999109E-03 0.  1.
       22    1    1    2    0    0 -0.38672237539E-02  0.19135756783E-02  0.35475574603E-01  0.35737005818E-01  0.00000000000E+00 0. -1.
  9000001    1    1    2    0    0  0.38672237539E-02 -0.19135756783E-02 -0.35475574603E-01  0.35750994182E-01  0.10000000475E-02 0.  1.
</event>
<event>
 4   0  0.4958067E-02  0.9118800E+02  0.7818609E-02  0.1379984E+01
      -11   -1    0    0    0    0  0.00000000000E+00  0.00000000000E+00  0.35740347158E-01  0.35744000000E-01  0.51099999109E-03 0. -1.
       11   -1    0    0    0    0 -0.00000000000E+00 -0.00000000000E+00 -0.35740347158E-01  0.35744000000E-01  0.51099999109E-03 0.  1.
       22    1    1    2    0    0 -0.42379698413E-02  0.12309348480E-01  0.33281423294E-01  0.35737005818E-01  0.00000000000E+00 0. -1.
  9000001    1    1    2    0    0  0.42379698413E-02 -0.12309348480E-01 -0.33281423294E-01  0.35750994182E-01  0.10000000475E-02 0.  1.
</event>
<event>
 4   0  0.4958067E-02  0.9118800E+02  0.7818609E-02  0.1379984E+01
      -11   -1    0    0    0    0  0.00000000000E+00  0.00000000000E+00  0.35740347158E-01  0.35744000000E-01  0.51099999109E-03 0. -1.
       11   -1    0    0    0    0 -0.00000000000E+00 -0.00000000000E+00 -0.35740347158E-01  0.35744000000E-01  0.51099999109E-03 0.  1.
       22    1    1    2    0    0 -0.21570297729E-02  0.77896237915E-02  0.34810954721E-01  0.35737005818E-01  0.00000000000E+00 0. -1.
  9000001    1    1    2    0    0  0.21570297729E-02 -0.77896237915E-02 -0.34810954721E-01  0.35750994182E-01  0.10000000475E-02 0.  1.
</event>
<event>
 4   0  0.4958067E-02  0.9118800E+02  0.7818609E-02  0.1379984E+01
      -11   -1    0    0    0    0  0.00000000000E+00  0.00000000000E+00  0.35740347158E-01  0.35744000000E-01  0.51099999109E-03 0. -1.
       11   -1    0    0    0    0 -0.00000000000E+00 -0.00000000000E+00 -0.35740347158E-01  0.35744000000E-01  0.51099999109E-03 0.  1.
       22    1    1    2    0    0 -0.10762130837E-01 -0.23889829692E-02  0.33994159573E-01  0.35737005818E-01  0.00000000000E+00 0. -1.
  9000001    1    1    2    0    0  0.10762130837E-01  0.23889829692E-02 -0.33994159573E-01  0.35750994182E-01  0.10000000475E-02 0.  1.
</event>
<event>
 4   0  0.4958067E-02  0.9118800E+02  0.7818609E-02  0.1379984E+01
      -11   -1    0    0    0    0  0.00000000000E+00  0.00000000000E+00  0.35740347158E-01  0.35744000000E-01  0.51099999109E-03 0.  1.
       11   -1    0    0    0    0 -0.00000000000E+00 -0.00000000000E+00 -0.35740347158E-01  0.35744000000E-01  0.51099999109E-03 0. -1.
       22    1    1    2    0    0 -0.13808272759E-01 -0.12071368968E-02  0.32939459753E-01  0.35737005818E-01  0.00000000000E+00 0.  1.
  9000001    1    1    2    0    0  0.13808272759E-01  0.12071368968E-02 -0.32939459753E-01  0.35750994182E-01  0.10000000475E-02 0. -1.
</event>
<event>
 4   0  0.4958067E-02  0.9118800E+02  0.7818609E-02  0.1379984E+01
      -11   -1    0    0    0    0  0.00000000000E+00  0.00000000000E+00  0.35740347158E-01  0.35744000000E-01  0.51099999109E-03 0.  1.
       11   -1    0    0    0    0 -0.00000000000E+00 -0.00000000000E+00 -0.35740347158E-01  0.35744000000E-01  0.51099999109E-03 0. -1.
       22    1    1    2    0    0  0.47119780607E-02  0.45766019079E-02 -0.35128130645E-01  0.35737005818E-01  0.00000000000E+00 0. -1.
  9000001    1    1    2    0    0 -0.47119780607E-02 -0.45766019079E-02  0.35128130645E-01  0.35750994182E-01  0.10000000475E-02 0.  1.
</event>
<event>
 4   0  0.4958067E-02  0.9118800E+02  0.7818609E-02  0.1379984E+01
      -11   -1    0    0    0    0  0.00000000000E+00  0.00000000000E+00  0.35740347158E-01  0.35744000000E-01  0.51099999109E-03 0. -1.
       11   -1    0    0    0    0 -0.00000000000E+00 -0.00000000000E+00 -0.35740347158E-01  0.35744000000E-01  0.51099999109E-03 0.  1.
       22    1    1    2    0    0  0.17542522644E-02 -0.21703943593E-01  0.28337166696E-01  0.35737005818E-01  0.00000000000E+00 0. -1.
  9000001    1    1    2    0    0 -0.17542522644E-02  0.21703943593E-01 -0.28337166696E-01  0.35750994182E-01  0.10000000475E-02 0.  1.
</event>
<event>
 4   0  0.4958067E-02  0.9118800E+02  0.7818609E-02  0.1379984E+01
      -11   -1    0    0    0    0  0.00000000000E+00  0.00000000000E+00  0.35740347158E-01  0.35744000000E-01  0.51099999109E-03 0.  1.
       11   -1    0    0    0    0 -0.00000000000E+00 -0.00000000000E+00 -0.35740347158E-01  0.35744000000E-01  0.51099999109E-03 0. -1.
       22    1    1    2    0    0 -0.44609161417E-02  0.13247179487E-02  0.35432738173E-01  0.35737005818E-01  0.00000000000E+00 0.  1.
  9000001    1    1    2    0    0  0.44609161417E-02 -0.13247179487E-02 -0.35432738173E-01  0.35750994182E-01  0.10000000475E-02 0. -1.
</event>
<event>
 4   0  0.4958067E-02  0.9118800E+02  0.7818609E-02  0.1379984E+01
      -11   -1    0    0    0    0  0.00000000000E+00  0.00000000000E+00  0.35740347158E-01  0.35744000000E-01  0.51099999109E-03 0.  1.
       11   -1    0    0    0    0 -0.00000000000E+00 -0.00000000000E+00 -0.35740347158E-01  0.35744000000E-01  0.51099999109E-03 0. -1.
       22    1    1    2    0    0  0.23793709121E-01 -0.10660718809E-01  0.24440582350E-01  0.35737005818E-01  0.00000000000E+00 0.  1.
  9000001    1    1    2    0    0 -0.23793709121E-01  0.10660718809E-01 -0.24440582350E-01  0.35750994182E-01  0.10000000475E-02 0. -1.
</event>
<event>
 4   0  0.4958067E-02  0.9118800E+02  0.7818609E-02  0.1379984E+01
      -11   -1    0    0    0    0  0.00000000000E+00  0.00000000000E+00  0.35740347158E-01  0.35744000000E-01  0.51099999109E-03 0.  1.
       11   -1    0    0    0    0 -0.00000000000E+00 -0.00000000000E+00 -0.35740347158E-01  0.35744000000E-01  0.51099999109E-03 0. -1.
       22    1    1    2    0    0 -0.58587031137E-02 -0.26301391281E-02  0.35155249265E-01  0.35737005818E-01  0.00000000000E+00 0.  1.
  9000001    1    1    2    0    0  0.58587031137E-02  0.26301391281E-02 -0.35155249265E-01  0.35750994182E-01  0.10000000475E-02 0. -1.
</event>
<event>
 4   0  0.4958067E-02  0.9118800E+02  0.7818609E-02  0.1379984E+01
      -11   -1    0    0    0    0  0.00000000000E+00  0.00000000000E+00  0.35740347158E-01  0.35744000000E-01  0.51099999109E-03 0.  1.
       11   -1    0    0    0    0 -0.00000000000E+00 -0.00000000000E+00 -0.35740347158E-01  0.35744000000E-01  0.51099999109E-03 0. -1.
       22    1    1    2    0    0 -0.25118810997E-02 -0.26009253347E-01 -0.24379146387E-01  0.35737005818E-01  0.00000000000E+00 0. -1.
  9000001    1    1    2    0    0  0.25118810997E-02  0.26009253347E-01  0.24379146387E-01  0.35750994182E-01  0.10000000475E-02 0.  1.
</event>
<event>
 4   0  0.4958067E-02  0.9118800E+02  0.7818609E-02  0.1379984E+01
      -11   -1    0    0    0    0  0.00000000000E+00  0.00000000000E+00  0.35740347158E-01  0.35744000000E-01  0.51099999109E-03 0.  1.
       11   -1    0    0    0    0 -0.00000000000E+00 -0.00000000000E+00 -0.35740347158E-01  0.35744000000E-01  0.51099999109E-03 0. -1.
       22    1    1    2    0    0 -0.44380199488E-02 -0.22194904958E-03  0.35459671493E-01  0.35737005818E-01  0.00000000000E+00 0.  1.
  9000001    1    1    2    0    0  0.44380199488E-02  0.22194904958E-03 -0.35459671493E-01  0.35750994182E-01  0.10000000475E-02 0. -1.
</event>
<event>
 4   0  0.4958067E-02  0.9118800E+02  0.7818609E-02  0.1379984E+01
      -11   -1    0    0    0    0  0.00000000000E+00  0.00000000000E+00  0.35740347158E-01  0.35744000000E-01  0.51099999109E-03 0. -1.
       11   -1    0    0    0    0 -0.00000000000E+00 -0.00000000000E+00 -0.35740347158E-01  0.35744000000E-01  0.51099999109E-03 0.  1.
       22    1    1    2    0    0  0.16769591733E-01 -0.21222875554E-01  0.23356025586E-01  0.35737005818E-01  0.00000000000E+00 0. -1.
  9000001    1    1    2    0    0 -0.16769591733E-01  0.21222875554E-01 -0.23356025586E-01  0.35750994182E-01  0.10000000475E-02 0.  1.
</event>
<event>
 4   0  0.4958067E-02  0.9118800E+02  0.7818609E-02  0.1379984E+01
      -11   -1    0    0    0    0  0.00000000000E+00  0.00000000000E+00  0.35740347158E-01  0.35744000000E-01  0.51099999109E-03 0. -1.
       11   -1    0    0    0    0 -0.00000000000E+00 -0.00000000000E+00 -0.35740347158E-01  0.35744000000E-01  0.51099999109E-03 0.  1.
       22    1    1    2    0    0 -0.82253263811E-02 -0.17992560384E-01  0.29761474453E-01  0.35737005818E-01  0.00000000000E+00 0. -1.
  9000001    1    1    2    0    0  0.82253263811E-02  0.17992560384E-01 -0.29761474453E-01  0.35750994182E-01  0.10000000475E-02 0.  1.
</event>
<event>
 4   0  0.4958067E-02  0.9118800E+02  0.7818609E-02  0.1379984E+01
      -11   -1    0    0    0    0  0.00000000000E+00  0.00000000000E+00  0.35740347158E-01  0.35744000000E-01  0.51099999109E-03 0. -1.
       11   -1    0    0    0    0 -0.00000000000E+00 -0.00000000000E+00 -0.35740347158E-01  0.35744000000E-01  0.51099999109E-03 0.  1.
       22    1    1    2    0    0  0.72337974143E-02  0.48101220440E-02 -0.34665090304E-01  0.35737005818E-01  0.00000000000E+00 0.  1.
  9000001    1    1    2    0    0 -0.72337974143E-02 -0.48101220440E-02  0.34665090304E-01  0.35750994182E-01  0.10000000475E-02 0. -1.
</event>
<event>
 4   0  0.4958067E-02  0.9118800E+02  0.7818609E-02  0.1379984E+01
      -11   -1    0    0    0    0  0.00000000000E+00  0.00000000000E+00  0.35740347158E-01  0.35744000000E-01  0.51099999109E-03 0.  1.
       11   -1    0    0    0    0 -0.00000000000E+00 -0.00000000000E+00 -0.35740347158E-01  0.35744000000E-01  0.51099999109E-03 0. -1.
       22    1    1    2    0    0  0.20820325174E-01  0.10976914333E-01  0.26891541352E-01  0.35737005818E-01  0.00000000000E+00 0.  1.
  9000001    1    1    2    0    0 -0.20820325174E-01 -0.10976914333E-01 -0.26891541352E-01  0.35750994182E-01  0.10000000475E-02 0. -1.
</event>
<event>
 4   0  0.4958067E-02  0.9118800E+02  0.7818609E-02  0.1379984E+01
      -11   -1    0    0    0    0  0.00000000000E+00  0.00000000000E+00  0.35740347158E-01  0.35744000000E-01  0.51099999109E-03 0. -1.
       11   -1    0    0    0    0 -0.00000000000E+00 -0.00000000000E+00 -0.35740347158E-01  0.35744000000E-01  0.51099999109E-03 0.  1.
       22    1    1    2    0    0 -0.53524030143E-02  0.25920916526E-01  0.24012318783E-01  0.35737005818E-01  0.00000000000E+00 0. -1.
  9000001    1    1    2    0    0  0.53524030143E-02 -0.25920916526E-01 -0.24012318783E-01  0.35750994182E-01  0.10000000475E-02 0.  1.
</event>
<event>
 4   0  0.4958067E-02  0.9118800E+02  0.7818609E-02  0.1379984E+01
      -11   -1    0    0    0    0  0.00000000000E+00  0.00000000000E+00  0.35740347158E-01  0.35744000000E-01  0.51099999109E-03 0. -1.
       11   -1    0    0    0    0 -0.00000000000E+00 -0.00000000000E+00 -0.35740347158E-01  0.35744000000E-01  0.51099999109E-03 0.  1.
       22    1    1    2    0    0  0.21480803478E-01  0.26250902830E-01 -0.11251611770E-01  0.35737005818E-01  0.00000000000E+00 0.  1.
  9000001    1    1    2    0    0 -0.21480803478E-01 -0.26250902830E-01  0.11251611770E-01  0.35750994182E-01  0.10000000475E-02 0. -1.
</event>
<event>
 4   0  0.4958067E-02  0.9118800E+02  0.7818609E-02  0.1379984E+01
      -11   -1    0    0    0    0  0.00000000000E+00  0.00000000000E+00  0.35740347158E-01  0.35744000000E-01  0.51099999109E-03 0.  1.
       11   -1    0    0    0    0 -0.00000000000E+00 -0.00000000000E+00 -0.35740347158E-01  0.35744000000E-01  0.51099999109E-03 0. -1.
       22    1    1    2    0    0  0.16971424255E-01 -0.23783184069E-01  0.20578253064E-01  0.35737005818E-01  0.00000000000E+00 0.  1.
  9000001    1    1    2    0    0 -0.16971424255E-01  0.23783184069E-01 -0.20578253064E-01  0.35750994182E-01  0.10000000475E-02 0. -1.
</event>
<event>
 4   0  0.4958067E-02  0.9118800E+02  0.7818609E-02  0.1379984E+01
      -11   -1    0    0    0    0  0.00000000000E+00  0.00000000000E+00  0.35740347158E-01  0.35744000000E-01  0.51099999109E-03 0. -1.
       11   -1    0    0    0    0 -0.00000000000E+00 -0.00000000000E+00 -0.35740347158E-01  0.35744000000E-01  0.51099999109E-03 0.  1.
       22    1    1    2    0    0  0.50813971195E-02 -0.25767561075E-01  0.24235217854E-01  0.35737005818E-01  0.00000000000E+00 0. -1.
  9000001    1    1    2    0    0 -0.50813971195E-02  0.25767561075E-01 -0.24235217854E-01  0.35750994182E-01  0.10000000475E-02 0.  1.
</event>
<event>
 4   0  0.4958067E-02  0.9118800E+02  0.7818609E-02  0.1379984E+01
      -11   -1    0    0    0    0  0.00000000000E+00  0.00000000000E+00  0.35740347158E-01  0.35744000000E-01  0.51099999109E-03 0. -1.
       11   -1    0    0    0    0 -0.00000000000E+00 -0.00000000000E+00 -0.35740347158E-01  0.35744000000E-01  0.51099999109E-03 0.  1.
       22    1    1    2    0    0  0.38682609326E-02  0.93342900307E-04  0.35526911340E-01  0.35737005818E-01  0.00000000000E+00 0. -1.
  9000001    1    1    2    0    0 -0.38682609326E-02 -0.93342900307E-04 -0.35526911340E-01  0.35750994182E-01  0.10000000475E-02 0.  1.
</event>
<event>
 4   0  0.4958067E-02  0.9118800E+02  0.7818609E-02  0.1379984E+01
      -11   -1    0    0    0    0  0.00000000000E+00  0.00000000000E+00  0.35740347158E-01  0.35744000000E-01  0.51099999109E-03 0. -1.
       11   -1    0    0    0    0 -0.00000000000E+00 -0.00000000000E+00 -0.35740347158E-01  0.35744000000E-01  0.51099999109E-03 0.  1.
       22    1    1    2    0    0  0.33552878668E-02  0.19402573975E-01 -0.29823074143E-01  0.35737005818E-01  0.00000000000E+00 0.  1.
  9000001    1    1    2    0    0 -0.33552878668E-02 -0.19402573975E-01  0.29823074143E-01  0.35750994182E-01  0.10000000475E-02 0. -1.
</event>
<event>
 4   0  0.4958067E-02  0.9118800E+02  0.7818609E-02  0.1379984E+01
      -11   -1    0    0    0    0  0.00000000000E+00  0.00000000000E+00  0.35740347158E-01  0.35744000000E-01  0.51099999109E-03 0. -1.
       11   -1    0    0    0    0 -0.00000000000E+00 -0.00000000000E+00 -0.35740347158E-01  0.35744000000E-01  0.51099999109E-03 0.  1.
       22    1    1    2    0    0 -0.65489612697E-02  0.76460259538E-02 -0.34289692012E-01  0.35737005818E-01  0.00000000000E+00 0.  1.
  9000001    1    1    2    0    0  0.65489612697E-02 -0.76460259538E-02  0.34289692012E-01  0.35750994182E-01  0.10000000475E-02 0. -1.
</event>
<event>
 4   0  0.4958067E-02  0.9118800E+02  0.7818609E-02  0.1379984E+01
      -11   -1    0    0    0    0  0.00000000000E+00  0.00000000000E+00  0.35740347158E-01  0.35744000000E-01  0.51099999109E-03 0.  1.
       11   -1    0    0    0    0 -0.00000000000E+00 -0.00000000000E+00 -0.35740347158E-01  0.35744000000E-01  0.51099999109E-03 0. -1.
       22    1    1    2    0    0  0.21934595605E-02  0.23657264361E-02 -0.35591089594E-01  0.35737005818E-01  0.00000000000E+00 0. -1.
  9000001    1    1    2    0    0 -0.21934595605E-02 -0.23657264361E-02  0.35591089594E-01  0.35750994182E-01  0.10000000475E-02 0.  1.
</event>
<event>
 4   0  0.4958067E-02  0.9118800E+02  0.7818609E-02  0.1379984E+01
      -11   -1    0    0    0    0  0.00000000000E+00  0.00000000000E+00  0.35740347158E-01  0.35744000000E-01  0.51099999109E-03 0.  1.
       11   -1    0    0    0    0 -0.00000000000E+00 -0.00000000000E+00 -0.35740347158E-01  0.35744000000E-01  0.51099999109E-03 0. -1.
       22    1    1    2    0    0 -0.67675878961E-03 -0.31030410724E-02 -0.35595599707E-01  0.35737005818E-01  0.00000000000E+00 0. -1.
  9000001    1    1    2    0    0  0.67675878961E-03  0.31030410724E-02  0.35595599707E-01  0.35750994182E-01  0.10000000475E-02 0.  1.
</event>
<event>
 4   0  0.4958067E-02  0.9118800E+02  0.7818609E-02  0.1379984E+01
      -11   -1    0    0    0    0  0.00000000000E+00  0.00000000000E+00  0.35740347158E-01  0.35744000000E-01  0.51099999109E-03 0.  1.
       11   -1    0    0    0    0 -0.00000000000E+00 -0.00000000000E+00 -0.35740347158E-01  0.35744000000E-01  0.51099999109E-03 0. -1.
       22    1    1    2    0    0 -0.98422684764E-02  0.19170686150E-01 -0.28508737759E-01  0.35737005818E-01  0.00000000000E+00 0. -1.
  9000001    1    1    2    0    0  0.98422684764E-02 -0.19170686150E-01  0.28508737759E-01  0.35750994182E-01  0.10000000475E-02 0.  1.
</event>
<event>
 4   0  0.4958067E-02  0.9118800E+02  0.7818609E-02  0.1379984E+01
      -11   -1    0    0    0    0  0.00000000000E+00  0.00000000000E+00  0.35740347158E-01  0.35744000000E-01  0.51099999109E-03 0.  1.
       11   -1    0    0    0    0 -0.00000000000E+00 -0.00000000000E+00 -0.35740347158E-01  0.35744000000E-01  0.51099999109E-03 0. -1.
       22    1    1    2    0    0  0.15618690501E-01 -0.22088943542E-01  0.23350988525E-01  0.35737005818E-01  0.00000000000E+00 0.  1.
  9000001    1    1    2    0    0 -0.15618690501E-01  0.22088943542E-01 -0.23350988525E-01  0.35750994182E-01  0.10000000475E-02 0. -1.
</event>
<event>
 4   0  0.4958067E-02  0.9118800E+02  0.7818609E-02  0.1379984E+01
      -11   -1    0    0    0    0  0.00000000000E+00  0.00000000000E+00  0.35740347158E-01  0.35744000000E-01  0.51099999109E-03 0.  1.
       11   -1    0    0    0    0 -0.00000000000E+00 -0.00000000000E+00 -0.35740347158E-01  0.35744000000E-01  0.51099999109E-03 0. -1.
       22    1    1    2    0    0 -0.59934458597E-02  0.39144819831E-02 -0.35012698017E-01  0.35737005818E-01  0.00000000000E+00 0. -1.
  9000001    1    1    2    0    0  0.59934458597E-02 -0.39144819831E-02  0.35012698017E-01  0.35750994182E-01  0.10000000475E-02 0.  1.
</event>
<event>
 4   0  0.4958067E-02  0.9118800E+02  0.7818609E-02  0.1379984E+01
      -11   -1    0    0    0    0  0.00000000000E+00  0.00000000000E+00  0.35740347158E-01  0.35744000000E-01  0.51099999109E-03 0. -1.
       11   -1    0    0    0    0 -0.00000000000E+00 -0.00000000000E+00 -0.35740347158E-01  0.35744000000E-01  0.51099999109E-03 0.  1.
       22    1    1    2    0    0  0.25258994820E-01 -0.61787185333E-03  0.25273207156E-01  0.35737005818E-01  0.00000000000E+00 0. -1.
  9000001    1    1    2    0    0 -0.25258994820E-01  0.61787185333E-03 -0.25273207156E-01  0.35750994182E-01  0.10000000475E-02 0.  1.
</event>
<event>
 4   0  0.4958067E-02  0.9118800E+02  0.7818609E-02  0.1379984E+01
      -11   -1    0    0    0    0  0.00000000000E+00  0.00000000000E+00  0.35740347158E-01  0.35744000000E-01  0.51099999109E-03 0.  1.
       11   -1    0    0    0    0 -0.00000000000E+00 -0.00000000000E+00 -0.35740347158E-01  0.35744000000E-01  0.51099999109E-03 0. -1.
       22    1    1    2    0    0 -0.44491216410E-02  0.32850623935E-01  0.13348236160E-01  0.35737005818E-01  0.00000000000E+00 0.  1.
  9000001    1    1    2    0    0  0.44491216410E-02 -0.32850623935E-01 -0.13348236160E-01  0.35750994182E-01  0.10000000475E-02 0. -1.
</event>
<event>
 4   0  0.4958067E-02  0.9118800E+02  0.7818609E-02  0.1379984E+01
      -11   -1    0    0    0    0  0.00000000000E+00  0.00000000000E+00  0.35740347158E-01  0.35744000000E-01  0.51099999109E-03 0. -1.
       11   -1    0    0    0    0 -0.00000000000E+00 -0.00000000000E+00 -0.35740347158E-01  0.35744000000E-01  0.51099999109E-03 0.  1.
       22    1    1    2    0    0  0.17070822017E-02  0.29596805392E-02 -0.35573301032E-01  0.35737005818E-01  0.00000000000E+00 0.  1.
  9000001    1    1    2    0    0 -0.17070822017E-02 -0.29596805392E-02  0.35573301032E-01  0.35750994182E-01  0.10000000475E-02 0. -1.
</event>
<event>
 4   0  0.4958067E-02  0.9118800E+02  0.7818609E-02  0.1379984E+01
      -11   -1    0    0    0    0  0.00000000000E+00  0.00000000000E+00  0.35740347158E-01  0.35744000000E-01  0.51099999109E-03 0. -1.
       11   -1    0    0    0    0 -0.00000000000E+00 -0.00000000000E+00 -0.35740347158E-01  0.35744000000E-01  0.51099999109E-03 0.  1.
       22    1    1    2    0    0 -0.20920481854E-01 -0.92124587209E-02 -0.27469940447E-01  0.35737005818E-01  0.00000000000E+00 0.  1.
  9000001    1    1    2    0    0  0.20920481854E-01  0.92124587209E-02  0.27469940447E-01  0.35750994182E-01  0.10000000475E-02 0. -1.
</event>
<event>
 4   0  0.4958067E-02  0.9118800E+02  0.7818609E-02  0.1379984E+01
      -11   -1    0    0    0    0  0.00000000000E+00  0.00000000000E+00  0.35740347158E-01  0.35744000000E-01  0.51099999109E-03 0.  1.
       11   -1    0    0    0    0 -0.00000000000E+00 -0.00000000000E+00 -0.35740347158E-01  0.35744000000E-01  0.51099999109E-03 0. -1.
       22    1    1    2    0    0  0.12282165956E-01 -0.24351030589E-01 -0.23093490285E-01  0.35737005818E-01  0.00000000000E+00 0. -1.
  9000001    1    1    2    0    0 -0.12282165956E-01  0.24351030589E-01  0.23093490285E-01  0.35750994182E-01  0.10000000475E-02 0.  1.
</event>
<event>
 4   0  0.4958067E-02  0.9118800E+02  0.7818609E-02  0.1379984E+01
      -11   -1    0    0    0    0  0.00000000000E+00  0.00000000000E+00  0.35740347158E-01  0.35744000000E-01  0.51099999109E-03 0.  1.
       11   -1    0    0    0    0 -0.00000000000E+00 -0.00000000000E+00 -0.35740347158E-01  0.35744000000E-01  0.51099999109E-03 0. -1.
       22    1    1    2    0    0 -0.12974282774E-02  0.42171242513E-02  0.35463588761E-01  0.35737005818E-01  0.00000000000E+00 0.  1.
  9000001    1    1    2    0    0  0.12974282774E-02 -0.42171242513E-02 -0.35463588761E-01  0.35750994182E-01  0.10000000475E-02 0. -1.
</event>
<event>
 4   0  0.4958067E-02  0.9118800E+02  0.7818609E-02  0.1379984E+01
      -11   -1    0    0    0    0  0.00000000000E+00  0.00000000000E+00  0.35740347158E-01  0.35744000000E-01  0.51099999109E-03 0.  1.
       11   -1    0    0    0    0 -0.00000000000E+00 -0.00000000000E+00 -0.35740347158E-01  0.35744000000E-01  0.51099999109E-03 0. -1.
       22    1    1    2    0    0  0.14123701469E-02 -0.46132809498E-02  0.35409835277E-01  0.35737005818E-01  0.00000000000E+00 0.  1.
  9000001    1    1    2    0    0 -0.14123701469E-02  0.46132809498E-02 -0.35409835277E-01  0.35750994182E-01  0.10000000475E-02 0. -1.
</event>
<event>
 4   0  0.4958067E-02  0.9118800E+02  0.7818609E-02  0.1379984E+01
      -11   -1    0    0    0    0  0.00000000000E+00  0.00000000000E+00  0.35740347158E-01  0.35744000000E-01  0.51099999109E-03 0. -1.
       11   -1    0    0    0    0 -0.00000000000E+00 -0.00000000000E+00 -0.35740347158E-01  0.35744000000E-01  0.51099999109E-03 0.  1.
       22    1    1    2    0    0  0.15087596076E-01 -0.34788085696E-02 -0.32208631148E-01  0.35737005818E-01  0.00000000000E+00 0.  1.
  9000001    1    1    2    0    0 -0.15087596076E-01  0.34788085696E-02  0.32208631148E-01  0.35750994182E-01  0.10000000475E-02 0. -1.
</event>
<event>
 4   0  0.4958067E-02  0.9118800E+02  0.7818609E-02  0.1379984E+01
      -11   -1    0    0    0    0  0.00000000000E+00  0.00000000000E+00  0.35740347158E-01  0.35744000000E-01  0.51099999109E-03 0.  1.
       11   -1    0    0    0    0 -0.00000000000E+00 -0.00000000000E+00 -0.35740347158E-01  0.35744000000E-01  0.51099999109E-03 0. -1.
       22    1    1    2    0    0 -0.31231718137E-02 -0.20318520670E-02  0.35542241908E-01  0.35737005818E-01  0.00000000000E+00 0.  1.
  9000001    1    1    2    0    0  0.31231718137E-02  0.20318520670E-02 -0.35542241908E-01  0.35750994182E-01  0.10000000475E-02 0. -1.
</event>
<event>
 4   0  0.4958067E-02  0.9118800E+02  0.7818609E-02  0.1379984E+01
      -11   -1    0    0    0    0  0.00000000000E+00  0.00000000000E+00  0.35740347158E-01  0.35744000000E-01  0.51099999109E-03 0.  1.
       11   -1    0    0    0    0 -0.00000000000E+00 -0.00000000000E+00 -0.35740347158E-01  0.35744000000E-01  0.51099999109E-03 0. -1.
       22    1    1    2    0    0 -0.12724852250E-01 -0.39296326798E-02 -0.33162775926E-01  0.35737005818E-01  0.00000000000E+00 0. -1.
  9000001    1    1    2    0    0  0.12724852250E-01  0.39296326798E-02  0.33162775926E-01  0.35750994182E-01  0.10000000475E-02 0.  1.
</event>
<event>
 4   0  0.4958067E-02  0.9118800E+02  0.7818609E-02  0.1379984E+01
      -11   -1    0    0    0    0  0.00000000000E+00  0.00000000000E+00  0.35740347158E-01  0.35744000000E-01  0.51099999109E-03 0.  1.
       11   -1    0    0    0    0 -0.00000000000E+00 -0.00000000000E+00 -0.35740347158E-01  0.35744000000E-01  0.51099999109E-03 0. -1.
       22    1    1    2    0    0  0.87787960604E-02 -0.22526886062E-02 -0.34568652254E-01  0.35737005818E-01  0.00000000000E+00 0. -1.
  9000001    1    1    2    0    0 -0.87787960604E-02  0.22526886062E-02  0.34568652254E-01  0.35750994182E-01  0.10000000475E-02 0.  1.
</event>
<event>
 4   0  0.4958067E-02  0.9118800E+02  0.7818609E-02  0.1379984E+01
      -11   -1    0    0    0    0  0.00000000000E+00  0.00000000000E+00  0.35740347158E-01  0.35744000000E-01  0.51099999109E-03 0.  1.
       11   -1    0    0    0    0 -0.00000000000E+00 -0.00000000000E+00 -0.35740347158E-01  0.35744000000E-01  0.51099999109E-03 0. -1.
       22    1    1    2    0    0 -0.19951058117E-01 -0.79960311673E-02 -0.28550873025E-01  0.35737005818E-01  0.00000000000E+00 0. -1.
  9000001    1    1    2    0    0  0.19951058117E-01  0.79960311673E-02  0.28550873025E-01  0.35750994182E-01  0.10000000475E-02 0.  1.
</event>
<event>
 4   0  0.4958067E-02  0.9118800E+02  0.7818609E-02  0.1379984E+01
      -11   -1    0    0    0    0  0.00000000000E+00  0.00000000000E+00  0.35740347158E-01  0.35744000000E-01  0.51099999109E-03 0. -1.
       11   -1    0    0    0    0 -0.00000000000E+00 -0.00000000000E+00 -0.35740347158E-01  0.35744000000E-01  0.51099999109E-03 0.  1.
       22    1    1    2    0    0 -0.95461856195E-02 -0.26641645511E-03  0.34437377183E-01  0.35737005818E-01  0.00000000000E+00 0. -1.
  9000001    1    1    2    0    0  0.95461856195E-02  0.26641645511E-03 -0.34437377183E-01  0.35750994182E-01  0.10000000475E-02 0.  1.
</event>
<event>
 4   0  0.4958067E-02  0.9118800E+02  0.7818609E-02  0.1379984E+01
      -11   -1    0    0    0    0  0.00000000000E+00  0.00000000000E+00  0.35740347158E-01  0.35744000000E-01  0.51099999109E-03 0. -1.
       11   -1    0    0    0    0 -0.00000000000E+00 -0.00000000000E+00 -0.35740347158E-01  0.35744000000E-01  0.51099999109E-03 0.  1.
       22    1    1    2    0    0 -0.17784663008E-01 -0.10127343291E-01  0.29296352408E-01  0.35737005818E-01  0.00000000000E+00 0. -1.
  9000001    1    1    2    0    0  0.17784663008E-01  0.10127343291E-01 -0.29296352408E-01  0.35750994182E-01  0.10000000475E-02 0.  1.
</event>
<event>
 4   0  0.4958067E-02  0.9118800E+02  0.7818609E-02  0.1379984E+01
      -11   -1    0    0    0    0  0.00000000000E+00  0.00000000000E+00  0.35740347158E-01  0.35744000000E-01  0.51099999109E-03 0. -1.
       11   -1    0    0    0    0 -0.00000000000E+00 -0.00000000000E+00 -0.35740347158E-01  0.35744000000E-01  0.51099999109E-03 0.  1.
       22    1    1    2    0    0  0.41715343669E-02 -0.35467494178E-01  0.13374388372E-02  0.35737005818E-01  0.00000000000E+00 0.  1.
  9000001    1    1    2    0    0 -0.41715343669E-02  0.35467494178E-01 -0.13374388372E-02  0.35750994182E-01  0.10000000475E-02 0. -1.
</event>
<event>
 4   0  0.4958067E-02  0.9118800E+02  0.7818609E-02  0.1379984E+01
      -11   -1    0    0    0    0  0.00000000000E+00  0.00000000000E+00  0.35740347158E-01  0.35744000000E-01  0.51099999109E-03 0.  1.
       11   -1    0    0    0    0 -0.00000000000E+00 -0.00000000000E+00 -0.35740347158E-01  0.35744000000E-01  0.51099999109E-03 0. -1.
       22    1    1    2    0    0 -0.74122998014E-02 -0.51901096393E-02  0.34572447967E-01  0.35737005818E-01  0.00000000000E+00 0.  1.
  9000001    1    1    2    0    0  0.74122998014E-02  0.51901096393E-02 -0.34572447967E-01  0.35750994182E-01  0.10000000475E-02 0. -1.
</event>
<event>
 4   0  0.4958067E-02  0.9118800E+02  0.7818609E-02  0.1379984E+01
      -11   -1    0    0    0    0  0.00000000000E+00  0.00000000000E+00  0.35740347158E-01  0.35744000000E-01  0.51099999109E-03 0.  1.
       11   -1    0    0    0    0 -0.00000000000E+00 -0.00000000000E+00 -0.35740347158E-01  0.35744000000E-01  0.51099999109E-03 0. -1.
       22    1    1    2    0    0  0.31190737621E-02  0.42703074119E-02 -0.35343591192E-01  0.35737005818E-01  0.00000000000E+00 0. -1.
  9000001    1    1    2    0    0 -0.31190737621E-02 -0.42703074119E-02  0.35343591192E-01  0.35750994182E-01  0.10000000475E-02 0.  1.
</event>
<event>
 4   0  0.4958067E-02  0.9118800E+02  0.7818609E-02  0.1379984E+01
      -11   -1    0    0    0    0  0.00000000000E+00  0.00000000000E+00  0.35740347158E-01  0.35744000000E-01  0.51099999109E-03 0.  1.
       11   -1    0    0    0    0 -0.00000000000E+00 -0.00000000000E+00 -0.35740347158E-01  0.35744000000E-01  0.51099999109E-03 0. -1.
       22    1    1    2    0    0 -0.28937797039E-01 -0.34104568568E-02 -0.20690729118E-01  0.35737005818E-01  0.00000000000E+00 0. -1.
  9000001    1    1    2    0    0  0.28937797039E-01  0.34104568568E-02  0.20690729118E-01  0.35750994182E-01  0.10000000475E-02 0.  1.
</event>
<event>
 4   0  0.4958067E-02  0.9118800E+02  0.7818609E-02  0.1379984E+01
      -11   -1    0    0    0    0  0.00000000000E+00  0.00000000000E+00  0.35740347158E-01  0.35744000000E-01  0.51099999109E-03 0.  1.
       11   -1    0    0    0    0 -0.00000000000E+00 -0.00000000000E+00 -0.35740347158E-01  0.35744000000E-01  0.51099999109E-03 0. -1.
       22    1    1    2    0    0  0.14045713464E-01  0.11498916072E-01 -0.30783541826E-01  0.35737005818E-01  0.00000000000E+00 0. -1.
  9000001    1    1    2    0    0 -0.14045713464E-01 -0.11498916072E-01  0.30783541826E-01  0.35750994182E-01  0.10000000475E-02 0.  1.
</event>
<event>
 4   0  0.4958067E-02  0.9118800E+02  0.7818609E-02  0.1379984E+01
      -11   -1    0    0    0    0  0.00000000000E+00  0.00000000000E+00  0.35740347158E-01  0.35744000000E-01  0.51099999109E-03 0.  1.
       11   -1    0    0    0    0 -0.00000000000E+00 -0.00000000000E+00 -0.35740347158E-01  0.35744000000E-01  0.51099999109E-03 0. -1.
       22    1    1    2    0    0  0.30474096786E-01 -0.98947436547E-02  0.15828994217E-01  0.35737005818E-01  0.00000000000E+00 0. -1.
  9000001    1    1    2    0    0 -0.30474096786E-01  0.98947436547E-02 -0.15828994217E-01  0.35750994182E-01  0.10000000475E-02 0.  1.
</event>
<event>
 4   0  0.4958067E-02  0.9118800E+02  0.7818609E-02  0.1379984E+01
      -11   -1    0    0    0    0  0.00000000000E+00  0.00000000000E+00  0.35740347158E-01  0.35744000000E-01  0.51099999109E-03 0. -1.
       11   -1    0    0    0    0 -0.00000000000E+00 -0.00000000000E+00 -0.35740347158E-01  0.35744000000E-01  0.51099999109E-03 0.  1.
       22    1    1    2    0    0 -0.53424454492E-03  0.34897805192E-01  0.76805833372E-02  0.35737005818E-01  0.00000000000E+00 0. -1.
  9000001    1    1    2    0    0  0.53424454492E-03 -0.34897805192E-01 -0.76805833372E-02  0.35750994182E-01  0.10000000475E-02 0.  1.
</event>
<event>
 4   0  0.4958067E-02  0.9118800E+02  0.7818609E-02  0.1379984E+01
      -11   -1    0    0    0    0  0.00000000000E+00  0.00000000000E+00  0.35740347158E-01  0.35744000000E-01  0.51099999109E-03 0.  1.
       11   -1    0    0    0    0 -0.00000000000E+00 -0.00000000000E+00 -0.35740347158E-01  0.35744000000E-01  0.51099999109E-03 0. -1.
       22    1    1    2    0    0 -0.11513675374E-01 -0.35148310796E-03  0.33829651548E-01  0.35737005818E-01  0.00000000000E+00 0.  1.
  9000001    1    1    2    0    0  0.11513675374E-01  0.35148310796E-03 -0.33829651548E-01  0.35750994182E-01  0.10000000475E-02 0. -1.
</event>
<event>
 4   0  0.4958067E-02  0.9118800E+02  0.7818609E-02  0.1379984E+01
      -11   -1    0    0    0    0  0.00000000000E+00  0.00000000000E+00  0.35740347158E-01  0.35744000000E-01  0.51099999109E-03 0. -1.
       11   -1    0    0    0    0 -0.00000000000E+00 -0.00000000000E+00 -0.35740347158E-01  0.35744000000E-01  0.51099999109E-03 0.  1.
       22    1    1    2    0    0 -0.10399889210E-01 -0.75486383957E-03  0.34181955326E-01  0.35737005818E-01  0.00000000000E+00 0. -1.
  9000001    1    1    2    0    0  0.10399889210E-01  0.75486383957E-03 -0.34181955326E-01  0.35750994182E-01  0.10000000475E-02 0.  1.
</event>
<event>
 4   0  0.4958067E-02  0.9118800E+02  0.7818609E-02  0.1379984E+01
      -11   -1    0    0    0    0  0.00000000000E+00  0.00000000000E+00  0.35740347158E-01  0.35744000000E-01  0.51099999109E-03 0.  1.
       11   -1    0    0    0    0 -0.00000000000E+00 -0.00000000000E+00 -0.35740347158E-01  0.35744000000E-01  0.51099999109E-03 0. -1.
       22    1    1    2    0    0  0.64140053479E-03 -0.18384797912E-01 -0.30638560605E-01  0.35737005818E-01  0.00000000000E+00 0. -1.
  9000001    1    1    2    0    0 -0.64140053479E-03  0.18384797912E-01  0.30638560605E-01  0.35750994182E-01  0.10000000475E-02 0.  1.
</event>
<event>
 4   0  0.4958067E-02  0.9118800E+02  0.7818609E-02  0.1379984E+01
      -11   -1    0    0    0    0  0.00000000000E+00  0.00000000000E+00  0.35740347158E-01  0.35744000000E-01  0.51099999109E-03 0.  1.
       11   -1    0    0    0    0 -0.00000000000E+00 -0.00000000000E+00 -0.35740347158E-01  0.35744000000E-01  0.51099999109E-03 0. -1.
       22    1    1    2    0    0 -0.22658600207E-02 -0.23022270752E-01  0.27239209105E-01  0.35737005818E-01  0.00000000000E+00 0.  1.
  9000001    1    1    2    0    0  0.22658600207E-02  0.23022270752E-01 -0.27239209105E-01  0.35750994182E-01  0.10000000475E-02 0. -1.
</event>
<event>
 4   0  0.4958067E-02  0.9118800E+02  0.7818609E-02  0.1379984E+01
      -11   -1    0    0    0    0  0.00000000000E+00  0.00000000000E+00  0.35740347158E-01  0.35744000000E-01  0.51099999109E-03 0. -1.
       11   -1    0    0    0    0 -0.00000000000E+00 -0.00000000000E+00 -0.35740347158E-01  0.35744000000E-01  0.51099999109E-03 0.  1.
       22    1    1    2    0    0  0.26272821122E-02  0.38199697196E-02 -0.35434994072E-01  0.35737005818E-01  0.00000000000E+00 0.  1.
  9000001    1    1    2    0    0 -0.26272821122E-02 -0.38199697196E-02  0.35434994072E-01  0.35750994182E-01  0.10000000475E-02 0. -1.
</event>
<event>
 4   0  0.4958067E-02  0.9118800E+02  0.7818609E-02  0.1379984E+01
      -11   -1    0    0    0    0  0.00000000000E+00  0.00000000000E+00  0.35740347158E-01  0.35744000000E-01  0.51099999109E-03 0. -1.
       11   -1    0    0    0    0 -0.00000000000E+00 -0.00000000000E+00 -0.35740347158E-01  0.35744000000E-01  0.51099999109E-03 0.  1.
       22    1    1    2    0    0  0.27054263610E-01  0.85371999294E-03 -0.23333914535E-01  0.35737005818E-01  0.00000000000E+00 0.  1.
  9000001    1    1    2    0    0 -0.27054263610E-01 -0.85371999294E-03  0.23333914535E-01  0.35750994182E-01  0.10000000475E-02 0. -1.
</event>
<event>
 4   0  0.4958067E-02  0.9118800E+02  0.7818609E-02  0.1379984E+01
      -11   -1    0    0    0    0  0.00000000000E+00  0.00000000000E+00  0.35740347158E-01  0.35744000000E-01  0.51099999109E-03 0.  1.
       11   -1    0    0    0    0 -0.00000000000E+00 -0.00000000000E+00 -0.35740347158E-01  0.35744000000E-01  0.51099999109E-03 0. -1.
       22    1    1    2    0    0 -0.54275176729E-02 -0.44419693848E-03 -0.35319659198E-01  0.35737005818E-01  0.00000000000E+00 0. -1.
  9000001    1    1    2    0    0  0.54275176729E-02  0.44419693848E-03  0.35319659198E-01  0.35750994182E-01  0.10000000475E-02 0.  1.
</event>
<event>
 4   0  0.4958067E-02  0.9118800E+02  0.7818609E-02  0.1379984E+01
      -11   -1    0    0    0    0  0.00000000000E+00  0.00000000000E+00  0.35740347158E-01  0.35744000000E-01  0.51099999109E-03 0. -1.
       11   -1    0    0    0    0 -0.00000000000E+00 -0.00000000000E+00 -0.35740347158E-01  0.35744000000E-01  0.51099999109E-03 0.  1.
       22    1    1    2    0    0 -0.20487921675E-02 -0.32763411860E-02 -0.35527477028E-01  0.35737005818E-01  0.00000000000E+00 0.  1.
  9000001    1    1    2    0    0  0.20487921675E-02  0.32763411860E-02  0.35527477028E-01  0.35750994182E-01  0.10000000475E-02 0. -1.
</event>
<event>
 4   0  0.4958067E-02  0.9118800E+02  0.7818609E-02  0.1379984E+01
      -11   -1    0    0    0    0  0.00000000000E+00  0.00000000000E+00  0.35740347158E-01  0.35744000000E-01  0.51099999109E-03 0.  1.
       11   -1    0    0    0    0 -0.00000000000E+00 -0.00000000000E+00 -0.35740347158E-01  0.35744000000E-01  0.51099999109E-03 0. -1.
       22    1    1    2    0    0 -0.65344634534E-02  0.16633015684E-01  0.30947975079E-01  0.35737005818E-01  0.00000000000E+00 0.  1.
  9000001    1    1    2    0    0  0.65344634534E-02 -0.16633015684E-01 -0.30947975079E-01  0.35750994182E-01  0.10000000475E-02 0. -1.
</event>
<event>
 4   0  0.4958067E-02  0.9118800E+02  0.7818609E-02  0.1379984E+01
      -11   -1    0    0    0    0  0.00000000000E+00  0.00000000000E+00  0.35740347158E-01  0.35744000000E-01  0.51099999109E-03 0.  1.
       11   -1    0    0    0    0 -0.00000000000E+00 -0.00000000000E+00 -0.35740347158E-01  0.35744000000E-01  0.51099999109E-03 0. -1.
       22    1    1    2    0    0 -0.94473211952E-02  0.18987046143E-01  0.28764105859E-01  0.35737005818E-01  0.00000000000E+00 0.  1.
  9000001    1    1    2    0    0  0.94473211952E-02 -0.18987046143E-01 -0.28764105859E-01  0.35750994182E-01  0.10000000475E-02 0. -1.
</event>
<event>
 4   0  0.4958067E-02  0.9118800E+02  0.7818609E-02  0.1379984E+01
      -11   -1    0    0    0    0  0.00000000000E+00  0.00000000000E+00  0.35740347158E-01  0.35744000000E-01  0.51099999109E-03 0.  1.
       11   -1    0    0    0    0 -0.00000000000E+00 -0.00000000000E+00 -0.35740347158E-01  0.35744000000E-01  0.51099999109E-03 0. -1.
       22    1    1    2    0    0 -0.75402507908E-02 -0.14804177895E-01 -0.31640393799E-01  0.35737005818E-01  0.00000000000E+00 0. -1.
  9000001    1    1    2    0    0  0.75402507908E-02  0.14804177895E-01  0.31640393799E-01  0.35750994182E-01  0.10000000475E-02 0.  1.
</event>
<event>
 4   0  0.4958067E-02  0.9118800E+02  0.7818609E-02  0.1379984E+01
      -11   -1    0    0    0    0  0.00000000000E+00  0.00000000000E+00  0.35740347158E-01  0.35744000000E-01  0.51099999109E-03 0. -1.
       11   -1    0    0    0    0 -0.00000000000E+00 -0.00000000000E+00 -0.35740347158E-01  0.35744000000E-01  0.51099999109E-03 0.  1.
       22    1    1    2    0    0  0.29655786157E-02  0.16842151440E-02 -0.35573899810E-01  0.35737005818E-01  0.00000000000E+00 0.  1.
  9000001    1    1    2    0    0 -0.29655786157E-02 -0.16842151440E-02  0.35573899810E-01  0.35750994182E-01  0.10000000475E-02 0. -1.
</event>
<event>
 4   0  0.4958067E-02  0.9118800E+02  0.7818609E-02  0.1379984E+01
      -11   -1    0    0    0    0  0.00000000000E+00  0.00000000000E+00  0.35740347158E-01  0.35744000000E-01  0.51099999109E-03 0. -1.
       11   -1    0    0    0    0 -0.00000000000E+00 -0.00000000000E+00 -0.35740347158E-01  0.35744000000E-01  0.51099999109E-03 0.  1.
       22    1    1    2    0    0 -0.28695042736E-01  0.15628498476E-01 -0.14473359757E-01  0.35737005818E-01  0.00000000000E+00 0.  1.
  9000001    1    1    2    0    0  0.28695042736E-01 -0.15628498476E-01  0.14473359757E-01  0.35750994182E-01  0.10000000475E-02 0. -1.
</event>
<event>
 4   0  0.4958067E-02  0.9118800E+02  0.7818609E-02  0.1379984E+01
      -11   -1    0    0    0    0  0.00000000000E+00  0.00000000000E+00  0.35740347158E-01  0.35744000000E-01  0.51099999109E-03 0. -1.
       11   -1    0    0    0    0 -0.00000000000E+00 -0.00000000000E+00 -0.35740347158E-01  0.35744000000E-01  0.51099999109E-03 0.  1.
       22    1    1    2    0    0  0.21596139579E-01 -0.16715147703E-01  0.23050904048E-01  0.35737005818E-01  0.00000000000E+00 0. -1.
  9000001    1    1    2    0    0 -0.21596139579E-01  0.16715147703E-01 -0.23050904048E-01  0.35750994182E-01  0.10000000475E-02 0.  1.
</event>
<event>
 4   0  0.4958067E-02  0.9118800E+02  0.7818609E-02  0.1379984E+01
      -11   -1    0    0    0    0  0.00000000000E+00  0.00000000000E+00  0.35740347158E-01  0.35744000000E-01  0.51099999109E-03 0. -1.
       11   -1    0    0    0    0 -0.00000000000E+00 -0.00000000000E+00 -0.35740347158E-01  0.35744000000E-01  0.51099999109E-03 0.  1.
       22    1    1    2    0    0 -0.12771564027E-01 -0.26748457187E-02 -0.33269594791E-01  0.35737005818E-01  0.00000000000E+00 0.  1.
  9000001    1    1    2    0    0  0.12771564027E-01  0.26748457187E-02  0.33269594791E-01  0.35750994182E-01  0.10000000475E-02 0. -1.
</event>
<event>
 4   0  0.4958067E-02  0.9118800E+02  0.7818609E-02  0.1379984E+01
      -11   -1    0    0    0    0  0.00000000000E+00  0.00000000000E+00  0.35740347158E-01  0.35744000000E-01  0.51099999109E-03 0.  1.
       11   -1    0    0    0    0 -0.00000000000E+00 -0.00000000000E+00 -0.35740347158E-01  0.35744000000E-01  0.51099999109E-03 0. -1.
       22    1    1    2    0    0  0.63028219567E-02  0.19854810489E-01 -0.29037811913E-01  0.35737005818E-01  0.00000000000E+00 0. -1.
  9000001    1    1    2    0    0 -0.63028219567E-02 -0.19854810489E-01  0.29037811913E-01  0.35750994182E-01  0.10000000475E-02 0.  1.
</event>
<event>
 4   0  0.4958067E-02  0.9118800E+02  0.7818609E-02  0.1379984E+01
      -11   -1    0    0    0    0  0.00000000000E+00  0.00000000000E+00  0.35740347158E-01  0.35744000000E-01  0.51099999109E-03 0. -1.
       11   -1    0    0    0    0 -0.00000000000E+00 -0.00000000000E+00 -0.35740347158E-01  0.35744000000E-01  0.51099999109E-03 0.  1.
       22    1    1    2    0    0 -0.24207819005E-01 -0.23334419531E-01  0.12108672472E-01  0.35737005818E-01  0.00000000000E+00 0.  1.
  9000001    1    1    2    0    0  0.24207819005E-01  0.23334419531E-01 -0.12108672472E-01  0.35750994182E-01  0.10000000475E-02 0. -1.
</event>
<event>
 4   0  0.4958067E-02  0.9118800E+02  0.7818609E-02  0.1379984E+01
      -11   -1    0    0    0    0  0.00000000000E+00  0.00000000000E+00  0.35740347158E-01  0.35744000000E-01  0.51099999109E-03 0.  1.
       11   -1    0    0    0    0 -0.00000000000E+00 -0.00000000000E+00 -0.35740347158E-01  0.35744000000E-01  0.51099999109E-03 0. -1.
       22    1    1    2    0    0  0.70171501197E-02  0.14807690425E-01  0.31758864799E-01  0.35737005818E-01  0.00000000000E+00 0.  1.
  9000001    1    1    2    0    0 -0.70171501197E-02 -0.14807690425E-01 -0.31758864799E-01  0.35750994182E-01  0.10000000475E-02 0. -1.
</event>
<event>
 4   0  0.4958067E-02  0.9118800E+02  0.7818609E-02  0.1379984E+01
      -11   -1    0    0    0    0  0.00000000000E+00  0.00000000000E+00  0.35740347158E-01  0.35744000000E-01  0.51099999109E-03 0. -1.
       11   -1    0    0    0    0 -0.00000000000E+00 -0.00000000000E+00 -0.35740347158E-01  0.35744000000E-01  0.51099999109E-03 0.  1.
       22    1    1    2    0    0 -0.10615504418E-01  0.42161661161E-02  0.33862495391E-01  0.35737005818E-01  0.00000000000E+00 0. -1.
  9000001    1    1    2    0    0  0.10615504418E-01 -0.42161661161E-02 -0.33862495391E-01  0.35750994182E-01  0.10000000475E-02 0.  1.
</event>
<event>
 4   0  0.4958067E-02  0.9118800E+02  0.7818609E-02  0.1379984E+01
      -11   -1    0    0    0    0  0.00000000000E+00  0.00000000000E+00  0.35740347158E-01  0.35744000000E-01  0.51099999109E-03 0.  1.
       11   -1    0    0    0    0 -0.00000000000E+00 -0.00000000000E+00 -0.35740347158E-01  0.35744000000E-01  0.51099999109E-03 0. -1.
       22    1    1    2    0    0 -0.70593701780E-02  0.69435579678E-02 -0.34337819970E-01  0.35737005818E-01  0.00000000000E+00 0. -1.
  9000001    1    1    2    0    0  0.70593701780E-02 -0.69435579678E-02  0.34337819970E-01  0.35750994182E-01  0.10000000475E-02 0.  1.
</event>
<event>
 4   0  0.4958067E-02  0.9118800E+02  0.7818609E-02  0.1379984E+01
      -11   -1    0    0    0    0  0.00000000000E+00  0.00000000000E+00  0.35740347158E-01  0.35744000000E-01  0.51099999109E-03 0. -1.
       11   -1    0    0    0    0 -0.00000000000E+00 -0.00000000000E+00 -0.35740347158E-01  0.35744000000E-01  0.51099999109E-03 0.  1.
       22    1    1    2    0    0  0.76649852515E-02 -0.20952433048E-02 -0.34842381398E-01  0.35737005818E-01  0.00000000000E+00 0.  1.
  9000001    1    1    2    0    0 -0.76649852515E-02  0.20952433048E-02  0.34842381398E-01  0.35750994182E-01  0.10000000475E-02 0. -1.
</event>
<event>
 4   0  0.4958067E-02  0.9118800E+02  0.7818609E-02  0.1379984E+01
      -11   -1    0    0    0    0  0.00000000000E+00  0.00000000000E+00  0.35740347158E-01  0.35744000000E-01  0.51099999109E-03 0. -1.
       11   -1    0    0    0    0 -0.00000000000E+00 -0.00000000000E+00 -0.35740347158E-01  0.35744000000E-01  0.51099999109E-03 0.  1.
       22    1    1    2    0    0 -0.18261283674E-02 -0.33288455326E-02 -0.35534738320E-01  0.35737005818E-01  0.00000000000E+00 0.  1.
  9000001    1    1    2    0    0  0.18261283674E-02  0.33288455326E-02  0.35534738320E-01  0.35750994182E-01  0.10000000475E-02 0. -1.
</event>
<event>
 4   0  0.4958067E-02  0.9118800E+02  0.7818609E-02  0.1379984E+01
      -11   -1    0    0    0    0  0.00000000000E+00  0.00000000000E+00  0.35740347158E-01  0.35744000000E-01  0.51099999109E-03 0.  1.
       11   -1    0    0    0    0 -0.00000000000E+00 -0.00000000000E+00 -0.35740347158E-01  0.35744000000E-01  0.51099999109E-03 0. -1.
       22    1    1    2    0    0  0.18653009852E-01 -0.22968519898E-02 -0.30396106318E-01  0.35737005818E-01  0.00000000000E+00 0. -1.
  9000001    1    1    2    0    0 -0.18653009852E-01  0.22968519898E-02  0.30396106318E-01  0.35750994182E-01  0.10000000475E-02 0.  1.
</event>
<event>
 4   0  0.4958067E-02  0.9118800E+02  0.7818609E-02  0.1379984E+01
      -11   -1    0    0    0    0  0.00000000000E+00  0.00000000000E+00  0.35740347158E-01  0.35744000000E-01  0.51099999109E-03 0. -1.
       11   -1    0    0    0    0 -0.00000000000E+00 -0.00000000000E+00 -0.35740347158E-01  0.35744000000E-01  0.51099999109E-03 0.  1.
       22    1    1    2    0    0  0.80382121899E-02  0.28172768320E-04  0.34821256955E-01  0.35737005818E-01  0.00000000000E+00 0. -1.
  9000001    1    1    2    0    0 -0.80382121899E-02 -0.28172768320E-04 -0.34821256955E-01  0.35750994182E-01  0.10000000475E-02 0.  1.
</event>
<event>
 4   0  0.4958067E-02  0.9118800E+02  0.7818609E-02  0.1379984E+01
      -11   -1    0    0    0    0  0.00000000000E+00  0.00000000000E+00  0.35740347158E-01  0.35744000000E-01  0.51099999109E-03 0. -1.
       11   -1    0    0    0    0 -0.00000000000E+00 -0.00000000000E+00 -0.35740347158E-01  0.35744000000E-01  0.51099999109E-03 0.  1.
       22    1    1    2    0    0  0.99431018744E-02  0.70052298503E-03 -0.34318764219E-01  0.35737005818E-01  0.00000000000E+00 0.  1.
  9000001    1    1    2    0    0 -0.99431018744E-02 -0.70052298503E-03  0.34318764219E-01  0.35750994182E-01  0.10000000475E-02 0. -1.
</event>
<event>
 4   0  0.4958067E-02  0.9118800E+02  0.7818609E-02  0.1379984E+01
      -11   -1    0    0    0    0  0.00000000000E+00  0.00000000000E+00  0.35740347158E-01  0.35744000000E-01  0.51099999109E-03 0.  1.
       11   -1    0    0    0    0 -0.00000000000E+00 -0.00000000000E+00 -0.35740347158E-01  0.35744000000E-01  0.51099999109E-03 0. -1.
       22    1    1    2    0    0  0.10509507752E-02 -0.32200222763E-02 -0.35576123227E-01  0.35737005818E-01  0.00000000000E+00 0. -1.
  9000001    1    1    2    0    0 -0.10509507752E-02  0.32200222763E-02  0.35576123227E-01  0.35750994182E-01  0.10000000475E-02 0.  1.
</event>
<event>
 4   0  0.4958067E-02  0.9118800E+02  0.7818609E-02  0.1379984E+01
      -11   -1    0    0    0    0  0.00000000000E+00  0.00000000000E+00  0.35740347158E-01  0.35744000000E-01  0.51099999109E-03 0.  1.
       11   -1    0    0    0    0 -0.00000000000E+00 -0.00000000000E+00 -0.35740347158E-01  0.35744000000E-01  0.51099999109E-03 0. -1.
       22    1    1    2    0    0  0.21442410849E-02 -0.47520695344E-02  0.35354683568E-01  0.35737005818E-01  0.00000000000E+00 0.  1.
  9000001    1    1    2    0    0 -0.21442410849E-02  0.47520695344E-02 -0.35354683568E-01  0.35750994182E-01  0.10000000475E-02 0. -1.
</event>
<event>
 4   0  0.4958067E-02  0.9118800E+02  0.7818609E-02  0.1379984E+01
      -11   -1    0    0    0    0  0.00000000000E+00  0.00000000000E+00  0.35740347158E-01  0.35744000000E-01  0.51099999109E-03 0. -1.
       11   -1    0    0    0    0 -0.00000000000E+00 -0.00000000000E+00 -0.35740347158E-01  0.35744000000E-01  0.51099999109E-03 0.  1.
       22    1    1    2    0    0 -0.65290085339E-02 -0.16756757317E-02  0.35095551617E-01  0.35737005818E-01  0.00000000000E+00 0. -1.
  9000001    1    1    2    0    0  0.65290085339E-02  0.16756757317E-02 -0.35095551617E-01  0.35750994182E-01  0.10000000475E-02 0.  1.
</event>
<event>
 4   0  0.4958067E-02  0.9118800E+02  0.7818609E-02  0.1379984E+01
      -11   -1    0    0    0    0  0.00000000000E+00  0.00000000000E+00  0.35740347158E-01  0.35744000000E-01  0.51099999109E-03 0.  1.
       11   -1    0    0    0    0 -0.00000000000E+00 -0.00000000000E+00 -0.35740347158E-01  0.35744000000E-01  0.51099999109E-03 0. -1.
       22    1    1    2    0    0  0.38301546656E-02 -0.13705887210E-02  0.35504717809E-01  0.35737005818E-01  0.00000000000E+00 0.  1.
  9000001    1    1    2    0    0 -0.38301546656E-02  0.13705887210E-02 -0.35504717809E-01  0.35750994182E-01  0.10000000475E-02 0. -1.
</event>
<event>
 4   0  0.4958067E-02  0.9118800E+02  0.7818609E-02  0.1379984E+01
      -11   -1    0    0    0    0  0.00000000000E+00  0.00000000000E+00  0.35740347158E-01  0.35744000000E-01  0.51099999109E-03 0. -1.
       11   -1    0    0    0    0 -0.00000000000E+00 -0.00000000000E+00 -0.35740347158E-01  0.35744000000E-01  0.51099999109E-03 0.  1.
       22    1    1    2    0    0 -0.12683141326E-02  0.51828530509E-02  0.35336425942E-01  0.35737005818E-01  0.00000000000E+00 0. -1.
  9000001    1    1    2    0    0  0.12683141326E-02 -0.51828530509E-02 -0.35336425942E-01  0.35750994182E-01  0.10000000475E-02 0.  1.
</event>
<event>
 4   0  0.4958067E-02  0.9118800E+02  0.7818609E-02  0.1379984E+01
      -11   -1    0    0    0    0  0.00000000000E+00  0.00000000000E+00  0.35740347158E-01  0.35744000000E-01  0.51099999109E-03 0.  1.
       11   -1    0    0    0    0 -0.00000000000E+00 -0.00000000000E+00 -0.35740347158E-01  0.35744000000E-01  0.51099999109E-03 0. -1.
       22    1    1    2    0    0  0.13146514027E-02 -0.29097165634E-01  0.20706526232E-01  0.35737005818E-01  0.00000000000E+00 0.  1.
  9000001    1    1    2    0    0 -0.13146514027E-02  0.29097165634E-01 -0.20706526232E-01  0.35750994182E-01  0.10000000475E-02 0. -1.
</event>
<event>
 4   0  0.4958067E-02  0.9118800E+02  0.7818609E-02  0.1379984E+01
      -11   -1    0    0    0    0  0.00000000000E+00  0.00000000000E+00  0.35740347158E-01  0.35744000000E-01  0.51099999109E-03 0.  1.
       11   -1    0    0    0    0 -0.00000000000E+00 -0.00000000000E+00 -0.35740347158E-01  0.35744000000E-01  0.51099999109E-03 0. -1.
       22    1    1    2    0    0 -0.51226376452E-02  0.27652936662E-02 -0.35259684051E-01  0.35737005818E-01  0.00000000000E+00 0. -1.
  9000001    1    1    2    0    0  0.51226376452E-02 -0.27652936662E-02  0.35259684051E-01  0.35750994182E-01  0.10000000475E-02 0.  1.
</event>
<event>
 4   0  0.4958067E-02  0.9118800E+02  0.7818609E-02  0.1379984E+01
      -11   -1    0    0    0    0  0.00000000000E+00  0.00000000000E+00  0.35740347158E-01  0.35744000000E-01  0.51099999109E-03 0. -1.
       11   -1    0    0    0    0 -0.00000000000E+00 -0.00000000000E+00 -0.35740347158E-01  0.35744000000E-01  0.51099999109E-03 0.  1.
       22    1    1    2    0    0 -0.17955809856E-01 -0.84653436470E-02  0.29716332785E-01  0.35737005818E-01  0.00000000000E+00 0. -1.
  9000001    1    1    2    0    0  0.17955809856E-01  0.84653436470E-02 -0.29716332785E-01  0.35750994182E-01  0.10000000475E-02 0.  1.
</event>
<event>
 4   0  0.4958067E-02  0.9118800E+02  0.7818609E-02  0.1379984E+01
      -11   -1    0    0    0    0  0.00000000000E+00  0.00000000000E+00  0.35740347158E-01  0.35744000000E-01  0.51099999109E-03 0. -1.
       11   -1    0    0    0    0 -0.00000000000E+00 -0.00000000000E+00 -0.35740347158E-01  0.35744000000E-01  0.51099999109E-03 0.  1.
       22    1    1    2    0    0  0.25875609096E-01  0.91989618429E-02 -0.22868439820E-01  0.35737005818E-01  0.00000000000E+00 0.  1.
  9000001    1    1    2    0    0 -0.25875609096E-01 -0.91989618429E-02  0.22868439820E-01  0.35750994182E-01  0.10000000475E-02 0. -1.
</event>
<event>
 4   0  0.4958067E-02  0.9118800E+02  0.7818609E-02  0.1379984E+01
      -11   -1    0    0    0    0  0.00000000000E+00  0.00000000000E+00  0.35740347158E-01  0.35744000000E-01  0.51099999109E-03 0.  1.
       11   -1    0    0    0    0 -0.00000000000E+00 -0.00000000000E+00 -0.35740347158E-01  0.35744000000E-01  0.51099999109E-03 0. -1.
       22    1    1    2    0    0 -0.64210309987E-02  0.15510459380E-01 -0.31548844600E-01  0.35737005818E-01  0.00000000000E+00 0. -1.
  9000001    1    1    2    0    0  0.64210309987E-02 -0.15510459380E-01  0.31548844600E-01  0.35750994182E-01  0.10000000475E-02 0.  1.
</event>
<event>
 4   0  0.4958067E-02  0.9118800E+02  0.7818609E-02  0.1379984E+01
      -11   -1    0    0    0    0  0.00000000000E+00  0.00000000000E+00  0.35740347158E-01  0.35744000000E-01  0.51099999109E-03 0. -1.
       11   -1    0    0    0    0 -0.00000000000E+00 -0.00000000000E+00 -0.35740347158E-01  0.35744000000E-01  0.51099999109E-03 0.  1.
       22    1    1    2    0    0  0.37439363103E-02  0.85086020263E-03  0.35530164124E-01  0.35737005818E-01  0.00000000000E+00 0. -1.
  9000001    1    1    2    0    0 -0.37439363103E-02 -0.85086020263E-03 -0.35530164124E-01  0.35750994182E-01  0.10000000475E-02 0.  1.
</event>
<event>
 4   0  0.4958067E-02  0.9118800E+02  0.7818609E-02  0.1379984E+01
      -11   -1    0    0    0    0  0.00000000000E+00  0.00000000000E+00  0.35740347158E-01  0.35744000000E-01  0.51099999109E-03 0. -1.
       11   -1    0    0    0    0 -0.00000000000E+00 -0.00000000000E+00 -0.35740347158E-01  0.35744000000E-01  0.51099999109E-03 0.  1.
       22    1    1    2    0    0  0.12167611215E-01 -0.53824643254E-02  0.33167934816E-01  0.35737005818E-01  0.00000000000E+00 0. -1.
  9000001    1    1    2    0    0 -0.12167611215E-01  0.53824643254E-02 -0.33167934816E-01  0.35750994182E-01  0.10000000475E-02 0.  1.
</event>
<event>
 4   0  0.4958067E-02  0.9118800E+02  0.7818609E-02  0.1379984E+01
      -11   -1    0    0    0    0  0.00000000000E+00  0.00000000000E+00  0.35740347158E-01  0.35744000000E-01  0.51099999109E-03 0. -1.
       11   -1    0    0    0    0 -0.00000000000E+00 -0.00000000000E+00 -0.35740347158E-01  0.35744000000E-01  0.51099999109E-03 0.  1.
       22    1    1    2    0    0  0.86360904280E-02 -0.26490125271E-01 -0.22379115043E-01  0.35737005818E-01  0.00000000000E+00 0.  1.
  9000001    1    1    2    0    0 -0.86360904280E-02  0.26490125271E-01  0.22379115043E-01  0.35750994182E-01  0.10000000475E-02 0. -1.
</event>
<event>
 4   0  0.4958067E-02  0.9118800E+02  0.7818609E-02  0.1379984E+01
      -11   -1    0    0    0    0  0.00000000000E+00  0.00000000000E+00  0.35740347158E-01  0.35744000000E-01  0.51099999109E-03 0.  1.
       11   -1    0    0    0    0 -0.00000000000E+00 -0.00000000000E+00 -0.35740347158E-01  0.35744000000E-01  0.51099999109E-03 0. -1.
       22    1    1    2    0    0  0.36028127978E-03 -0.47151925037E-02 -0.35422743286E-01  0.35737005818E-01  0.00000000000E+00 0. -1.
  9000001    1    1    2    0    0 -0.36028127978E-03  0.47151925037E-02  0.35422743286E-01  0.35750994182E-01  0.10000000475E-02 0.  1.
</event>
<event>
 4   0  0.4958067E-02  0.9118800E+02  0.7818609E-02  0.1379984E+01
      -11   -1    0    0    0    0  0.00000000000E+00  0.00000000000E+00  0.35740347158E-01  0.35744000000E-01  0.51099999109E-03 0. -1.
       11   -1    0    0    0    0 -0.00000000000E+00 -0.00000000000E+00 -0.35740347158E-01  0.35744000000E-01  0.51099999109E-03 0.  1.
       22    1    1    2    0    0 -0.58909943696E-02  0.36677397431E-02 -0.35056774743E-01  0.35737005818E-01  0.00000000000E+00 0.  1.
  9000001    1    1    2    0    0  0.58909943696E-02 -0.36677397431E-02  0.35056774743E-01  0.35750994182E-01  0.10000000475E-02 0. -1.
</event>
<event>
 4   0  0.4958067E-02  0.9118800E+02  0.7818609E-02  0.1379984E+01
      -11   -1    0    0    0    0  0.00000000000E+00  0.00000000000E+00  0.35740347158E-01  0.35744000000E-01  0.51099999109E-03 0. -1.
       11   -1    0    0    0    0 -0.00000000000E+00 -0.00000000000E+00 -0.35740347158E-01  0.35744000000E-01  0.51099999109E-03 0.  1.
       22    1    1    2    0    0  0.21105186798E-01  0.24248126791E-01  0.15611951263E-01  0.35737005818E-01  0.00000000000E+00 0. -1.
  9000001    1    1    2    0    0 -0.21105186798E-01 -0.24248126791E-01 -0.15611951263E-01  0.35750994182E-01  0.10000000475E-02 0.  1.
</event>
<event>
 4   0  0.4958067E-02  0.9118800E+02  0.7818609E-02  0.1379984E+01
      -11   -1    0    0    0    0  0.00000000000E+00  0.00000000000E+00  0.35740347158E-01  0.35744000000E-01  0.51099999109E-03 0. -1.
       11   -1    0    0    0    0 -0.00000000000E+00 -0.00000000000E+00 -0.35740347158E-01  0.35744000000E-01  0.51099999109E-03 0.  1.
       22    1    1    2    0    0  0.80597901211E-02 -0.19159479652E-01 -0.29070392284E-01  0.35737005818E-01  0.00000000000E+00 0.  1.
  9000001    1    1    2    0    0 -0.80597901211E-02  0.19159479652E-01  0.29070392284E-01  0.35750994182E-01  0.10000000475E-02 0. -1.
</event>
<event>
 4   0  0.4958067E-02  0.9118800E+02  0.7818609E-02  0.1379984E+01
      -11   -1    0    0    0    0  0.00000000000E+00  0.00000000000E+00  0.35740347158E-01  0.35744000000E-01  0.51099999109E-03 0.  1.
       11   -1    0    0    0    0 -0.00000000000E+00 -0.00000000000E+00 -0.35740347158E-01  0.35744000000E-01  0.51099999109E-03 0. -1.
       22    1    1    2    0    0  0.11161038717E-01 -0.98687393100E-02 -0.32483423220E-01  0.35737005818E-01  0.00000000000E+00 0. -1.
  9000001    1    1    2    0    0 -0.11161038717E-01  0.98687393100E-02  0.32483423220E-01  0.35750994182E-01  0.10000000475E-02 0.  1.
</event>
<event>
 4   0  0.4958067E-02  0.9118800E+02  0.7818609E-02  0.1379984E+01
      -11   -1    0    0    0    0  0.00000000000E+00  0.00000000000E+00  0.35740347158E-01  0.35744000000E-01  0.51099999109E-03 0. -1.
       11   -1    0    0    0    0 -0.00000000000E+00 -0.00000000000E+00 -0.35740347158E-01  0.35744000000E-01  0.51099999109E-03 0.  1.
       22    1    1    2    0    0  0.30152258043E-01  0.14787899056E-01 -0.12218549885E-01  0.35737005818E-01  0.00000000000E+00 0. -1.
  9000001    1    1    2    0    0 -0.30152258043E-01 -0.14787899056E-01  0.12218549885E-01  0.35750994182E-01  0.10000000475E-02 0.  1.
</event>
<event>
 4   0  0.4958067E-02  0.9118800E+02  0.7818609E-02  0.1379984E+01
      -11   -1    0    0    0    0  0.00000000000E+00  0.00000000000E+00  0.35740347158E-01  0.35744000000E-01  0.51099999109E-03 0. -1.
       11   -1    0    0    0    0 -0.00000000000E+00 -0.00000000000E+00 -0.35740347158E-01  0.35744000000E-01  0.51099999109E-03 0.  1.
       22    1    1    2    0    0  0.79002720882E-02  0.10095600511E-02  0.34838198494E-01  0.35737005818E-01  0.00000000000E+00 0. -1.
  9000001    1    1    2    0    0 -0.79002720882E-02 -0.10095600511E-02 -0.34838198494E-01  0.35750994182E-01  0.10000000475E-02 0.  1.
</event>
<event>
 4   0  0.4958067E-02  0.9118800E+02  0.7818609E-02  0.1379984E+01
      -11   -1    0    0    0    0  0.00000000000E+00  0.00000000000E+00  0.35740347158E-01  0.35744000000E-01  0.51099999109E-03 0.  1.
       11   -1    0    0    0    0 -0.00000000000E+00 -0.00000000000E+00 -0.35740347158E-01  0.35744000000E-01  0.51099999109E-03 0. -1.
       22    1    1    2    0    0 -0.97174999277E-02  0.56106596657E-03  0.34385883514E-01  0.35737005818E-01  0.00000000000E+00 0.  1.
  9000001    1    1    2    0    0  0.97174999277E-02 -0.56106596657E-03 -0.34385883514E-01  0.35750994182E-01  0.10000000475E-02 0. -1.
</event>
<event>
 4   0  0.4958067E-02  0.9118800E+02  0.7818609E-02  0.1379984E+01
      -11   -1    0    0    0    0  0.00000000000E+00  0.00000000000E+00  0.35740347158E-01  0.35744000000E-01  0.51099999109E-03 0. -1.
       11   -1    0    0    0    0 -0.00000000000E+00 -0.00000000000E+00 -0.35740347158E-01  0.35744000000E-01  0.51099999109E-03 0.  1.
       22    1    1    2    0    0 -0.34553608412E-02  0.45647168959E-02  0.35275450755E-01  0.35737005818E-01  0.00000000000E+00 0. -1.
  9000001    1    1    2    0    0  0.34553608412E-02 -0.45647168959E-02 -0.35275450755E-01  0.35750994182E-01  0.10000000475E-02 0.  1.
</event>
<event>
 4   0  0.4958067E-02  0.9118800E+02  0.7818609E-02  0.1379984E+01
      -11   -1    0    0    0    0  0.00000000000E+00  0.00000000000E+00  0.35740347158E-01  0.35744000000E-01  0.51099999109E-03 0. -1.
       11   -1    0    0    0    0 -0.00000000000E+00 -0.00000000000E+00 -0.35740347158E-01  0.35744000000E-01  0.51099999109E-03 0.  1.
       22    1    1    2    0    0 -0.82269503091E-03  0.45825409642E-02  0.35432429723E-01  0.35737005818E-01  0.00000000000E+00 0. -1.
  9000001    1    1    2    0    0  0.82269503091E-03 -0.45825409642E-02 -0.35432429723E-01  0.35750994182E-01  0.10000000475E-02 0.  1.
</event>
<event>
 4   0  0.4958067E-02  0.9118800E+02  0.7818609E-02  0.1379984E+01
      -11   -1    0    0    0    0  0.00000000000E+00  0.00000000000E+00  0.35740347158E-01  0.35744000000E-01  0.51099999109E-03 0.  1.
       11   -1    0    0    0    0 -0.00000000000E+00 -0.00000000000E+00 -0.35740347158E-01  0.35744000000E-01  0.51099999109E-03 0. -1.
       22    1    1    2    0    0 -0.45379210704E-02  0.84438819915E-03  0.35437661686E-01  0.35737005818E-01  0.00000000000E+00 0.  1.
  9000001    1    1    2    0    0  0.45379210704E-02 -0.84438819915E-03 -0.35437661686E-01  0.35750994182E-01  0.10000000475E-02 0. -1.
</event>
<event>
 4   0  0.4958067E-02  0.9118800E+02  0.7818609E-02  0.1379984E+01
      -11   -1    0    0    0    0  0.00000000000E+00  0.00000000000E+00  0.35740347158E-01  0.35744000000E-01  0.51099999109E-03 0. -1.
       11   -1    0    0    0    0 -0.00000000000E+00 -0.00000000000E+00 -0.35740347158E-01  0.35744000000E-01  0.51099999109E-03 0.  1.
       22    1    1    2    0    0  0.99883824294E-03 -0.88334159975E-02 -0.34613677482E-01  0.35737005818E-01  0.00000000000E+00 0.  1.
  9000001    1    1    2    0    0 -0.99883824294E-03  0.88334159975E-02  0.34613677482E-01  0.35750994182E-01  0.10000000475E-02 0. -1.
</event>
<event>
 4   0  0.4958067E-02  0.9118800E+02  0.7818609E-02  0.1379984E+01
      -11   -1    0    0    0    0  0.00000000000E+00  0.00000000000E+00  0.35740347158E-01  0.35744000000E-01  0.51099999109E-03 0.  1.
       11   -1    0    0    0    0 -0.00000000000E+00 -0.00000000000E+00 -0.35740347158E-01  0.35744000000E-01  0.51099999109E-03 0. -1.
       22    1    1    2    0    0 -0.17854297246E-01 -0.20585310816E-01  0.23121475588E-01  0.35737005818E-01  0.00000000000E+00 0.  1.
  9000001    1    1    2    0    0  0.17854297246E-01  0.20585310816E-01 -0.23121475588E-01  0.35750994182E-01  0.10000000475E-02 0. -1.
</event>
<event>
 4   0  0.4958067E-02  0.9118800E+02  0.7818609E-02  0.1379984E+01
      -11   -1    0    0    0    0  0.00000000000E+00  0.00000000000E+00  0.35740347158E-01  0.35744000000E-01  0.51099999109E-03 0. -1.
       11   -1    0    0    0    0 -0.00000000000E+00 -0.00000000000E+00 -0.35740347158E-01  0.35744000000E-01  0.51099999109E-03 0.  1.
       22    1    1    2    0    0  0.12038982292E-01 -0.16417740669E-01  0.29370976858E-01  0.35737005818E-01  0.00000000000E+00 0. -1.
  9000001    1    1    2    0    0 -0.12038982292E-01  0.16417740669E-01 -0.29370976858E-01  0.35750994182E-01  0.10000000475E-02 0.  1.
</event>
<event>
 4   0  0.4958067E-02  0.9118800E+02  0.7818609E-02  0.1379984E+01
      -11   -1    0    0    0    0  0.00000000000E+00  0.00000000000E+00  0.35740347158E-01  0.35744000000E-01  0.51099999109E-03 0. -1.
       11   -1    0    0    0    0 -0.00000000000E+00 -0.00000000000E+00 -0.35740347158E-01  0.35744000000E-01  0.51099999109E-03 0.  1.
       22    1    1    2    0    0 -0.26281470596E-01 -0.24062296351E-01 -0.27246619087E-02  0.35737005818E-01  0.00000000000E+00 0.  1.
  9000001    1    1    2    0    0  0.26281470596E-01  0.24062296351E-01  0.27246619087E-02  0.35750994182E-01  0.10000000475E-02 0. -1.
</event>
<event>
 4   0  0.4958067E-02  0.9118800E+02  0.7818609E-02  0.1379984E+01
      -11   -1    0    0    0    0  0.00000000000E+00  0.00000000000E+00  0.35740347158E-01  0.35744000000E-01  0.51099999109E-03 0.  1.
       11   -1    0    0    0    0 -0.00000000000E+00 -0.00000000000E+00 -0.35740347158E-01  0.35744000000E-01  0.51099999109E-03 0. -1.
       22    1    1    2    0    0  0.18381710871E-02 -0.29219726738E-02 -0.35569885966E-01  0.35737005818E-01  0.00000000000E+00 0. -1.
  9000001    1    1    2    0    0 -0.18381710871E-02  0.29219726738E-02  0.35569885966E-01  0.35750994182E-01  0.10000000475E-02 0.  1.
</event>
<event>
 4   0  0.4958067E-02  0.9118800E+02  0.7818609E-02  0.1379984E+01
      -11   -1    0    0    0    0  0.00000000000E+00  0.00000000000E+00  0.35740347158E-01  0.35744000000E-01  0.51099999109E-03 0. -1.
       11   -1    0    0    0    0 -0.00000000000E+00 -0.00000000000E+00 -0.35740347158E-01  0.35744000000E-01  0.51099999109E-03 0.  1.
       22    1    1    2    0    0  0.62168360338E-02 -0.47822626109E-02  0.34865663609E-01  0.35737005818E-01  0.00000000000E+00 0. -1.
  9000001    1    1    2    0    0 -0.62168360338E-02  0.47822626109E-02 -0.34865663609E-01  0.35750994182E-01  0.10000000475E-02 0.  1.
</event>
<event>
 4   0  0.4958067E-02  0.9118800E+02  0.7818609E-02  0.1379984E+01
      -11   -1    0    0    0    0  0.00000000000E+00  0.00000000000E+00  0.35740347158E-01  0.35744000000E-01  0.51099999109E-03 0. -1.
       11   -1    0    0    0    0 -0.00000000000E+00 -0.00000000000E+00 -0.35740347158E-01  0.35744000000E-01  0.51099999109E-03 0.  1.
       22    1    1    2    0    0  0.21614514865E-01 -0.17454203507E-01 -0.22478814737E-01  0.35737005818E-01  0.00000000000E+00 0.  1.
  9000001    1    1    2    0    0 -0.21614514865E-01  0.17454203507E-01  0.22478814737E-01  0.35750994182E-01  0.10000000475E-02 0. -1.
</event>
<event>
 4   0  0.4958067E-02  0.9118800E+02  0.7818609E-02  0.1379984E+01
      -11   -1    0    0    0    0  0.00000000000E+00  0.00000000000E+00  0.35740347158E-01  0.35744000000E-01  0.51099999109E-03 0.  1.
       11   -1    0    0    0    0 -0.00000000000E+00 -0.00000000000E+00 -0.35740347158E-01  0.35744000000E-01  0.51099999109E-03 0. -1.
       22    1    1    2    0    0 -0.12918160391E-01  0.43625026195E-02  0.33033669004E-01  0.35737005818E-01  0.00000000000E+00 0.  1.
  9000001    1    1    2    0    0  0.12918160391E-01 -0.43625026195E-02 -0.33033669004E-01  0.35750994182E-01  0.10000000475E-02 0. -1.
</event>
<event>
 4   0  0.4958067E-02  0.9118800E+02  0.7818609E-02  0.1379984E+01
      -11   -1    0    0    0    0  0.00000000000E+00  0.00000000000E+00  0.35740347158E-01  0.35744000000E-01  0.51099999109E-03 0. -1.
       11   -1    0    0    0    0 -0.00000000000E+00 -0.00000000000E+00 -0.35740347158E-01  0.35744000000E-01  0.51099999109E-03 0.  1.
       22    1    1    2    0    0  0.30775762155E-01  0.52889261334E-02 -0.17378530117E-01  0.35737005818E-01  0.00000000000E+00 0.  1.
  9000001    1    1    2    0    0 -0.30775762155E-01 -0.52889261334E-02  0.17378530117E-01  0.35750994182E-01  0.10000000475E-02 0. -1.
</event>
<event>
 4   0  0.4958067E-02  0.9118800E+02  0.7818609E-02  0.1379984E+01
      -11   -1    0    0    0    0  0.00000000000E+00  0.00000000000E+00  0.35740347158E-01  0.35744000000E-01  0.51099999109E-03 0.  1.
       11   -1    0    0    0    0 -0.00000000000E+00 -0.00000000000E+00 -0.35740347158E-01  0.35744000000E-01  0.51099999109E-03 0. -1.
       22    1    1    2    0    0 -0.49293406257E-02  0.12955922089E-02  0.35371692449E-01  0.35737005818E-01  0.00000000000E+00 0.  1.
  9000001    1    1    2    0    0  0.49293406257E-02 -0.12955922089E-02 -0.35371692449E-01  0.35750994182E-01  0.10000000475E-02 0. -1.
</event>
<event>
 4   0  0.4958067E-02  0.9118800E+02  0.7818609E-02  0.1379984E+01
      -11   -1    0    0    0    0  0.00000000000E+00  0.00000000000E+00  0.35740347158E-01  0.35744000000E-01  0.51099999109E-03 0.  1.
       11   -1    0    0    0    0 -0.00000000000E+00 -0.00000000000E+00 -0.35740347158E-01  0.35744000000E-01  0.51099999109E-03 0. -1.
       22    1    1    2    0    0 -0.19279222591E-01 -0.10523554696E-01 -0.28190423156E-01  0.35737005818E-01  0.00000000000E+00 0. -1.
  9000001    1    1    2    0    0  0.19279222591E-01  0.10523554696E-01  0.28190423156E-01  0.35750994182E-01  0.10000000475E-02 0.  1.
</event>
<event>
 4   0  0.4958067E-02  0.9118800E+02  0.7818609E-02  0.1379984E+01
      -11   -1    0    0    0    0  0.00000000000E+00  0.00000000000E+00  0.35740347158E-01  0.35744000000E-01  0.51099999109E-03 0. -1.
       11   -1    0    0    0    0 -0.00000000000E+00 -0.00000000000E+00 -0.35740347158E-01  0.35744000000E-01  0.51099999109E-03 0.  1.
       22    1    1    2    0    0 -0.24591822366E-02  0.17954326584E-02 -0.35607055890E-01  0.35737005818E-01  0.00000000000E+00 0.  1.
  9000001    1    1    2    0    0  0.24591822366E-02 -0.17954326584E-02  0.35607055890E-01  0.35750994182E-01  0.10000000475E-02 0. -1.
</event>
<event>
 4   0  0.4958067E-02  0.9118800E+02  0.7818609E-02  0.1379984E+01
      -11   -1    0    0    0    0  0.00000000000E+00  0.00000000000E+00  0.35740347158E-01  0.35744000000E-01  0.51099999109E-03 0. -1.
       11   -1    0    0    0    0 -0.00000000000E+00 -0.00000000000E+00 -0.35740347158E-01  0.35744000000E-01  0.51099999109E-03 0.  1.
       22    1    1    2    0    0 -0.13470019629E-01 -0.80799818592E-02 -0.32099938461E-01  0.35737005818E-01  0.00000000000E+00 0.  1.
  9000001    1    1    2    0    0  0.13470019629E-01  0.80799818592E-02  0.32099938461E-01  0.35750994182E-01  0.10000000475E-02 0. -1.
</event>
<event>
 4   0  0.4958067E-02  0.9118800E+02  0.7818609E-02  0.1379984E+01
      -11   -1    0    0    0    0  0.00000000000E+00  0.00000000000E+00  0.35740347158E-01  0.35744000000E-01  0.51099999109E-03 0. -1.
       11   -1    0    0    0    0 -0.00000000000E+00 -0.00000000000E+00 -0.35740347158E-01  0.35744000000E-01  0.51099999109E-03 0.  1.
       22    1    1    2    0    0  0.27678572569E-01 -0.92443068112E-02 -0.20629420666E-01  0.35737005818E-01  0.00000000000E+00 0.  1.
  9000001    1    1    2    0    0 -0.27678572569E-01  0.92443068112E-02  0.20629420666E-01  0.35750994182E-01  0.10000000475E-02 0. -1.
</event>
<event>
 4   0  0.4958067E-02  0.9118800E+02  0.7818609E-02  0.1379984E+01
      -11   -1    0    0    0    0  0.00000000000E+00  0.00000000000E+00  0.35740347158E-01  0.35744000000E-01  0.51099999109E-03 0.  1.
       11   -1    0    0    0    0 -0.00000000000E+00 -0.00000000000E+00 -0.35740347158E-01  0.35744000000E-01  0.51099999109E-03 0. -1.
       22    1    1    2    0    0  0.39124486763E-02  0.61943947206E-02 -0.34977933105E-01  0.35737005818E-01  0.00000000000E+00 0. -1.
  9000001    1    1    2    0    0 -0.39124486763E-02 -0.61943947206E-02  0.34977933105E-01  0.35750994182E-01  0.10000000475E-02 0.  1.
</event>
<event>
 4   0  0.4958067E-02  0.9118800E+02  0.7818609E-02  0.1379984E+01
      -11   -1    0    0    0    0  0.00000000000E+00  0.00000000000E+00  0.35740347158E-01  0.35744000000E-01  0.51099999109E-03 0. -1.
       11   -1    0    0    0    0 -0.00000000000E+00 -0.00000000000E+00 -0.35740347158E-01  0.35744000000E-01  0.51099999109E-03 0.  1.
       22    1    1    2    0    0  0.10025748810E-01  0.21354610131E-02  0.34235329003E-01  0.35737005818E-01  0.00000000000E+00 0. -1.
  9000001    1    1    2    0    0 -0.10025748810E-01 -0.21354610131E-02 -0.34235329003E-01  0.35750994182E-01  0.10000000475E-02 0.  1.
</event>
<event>
 4   0  0.4958067E-02  0.9118800E+02  0.7818609E-02  0.1379984E+01
      -11   -1    0    0    0    0  0.00000000000E+00  0.00000000000E+00  0.35740347158E-01  0.35744000000E-01  0.51099999109E-03 0.  1.
       11   -1    0    0    0    0 -0.00000000000E+00 -0.00000000000E+00 -0.35740347158E-01  0.35744000000E-01  0.51099999109E-03 0. -1.
       22    1    1    2    0    0 -0.80238923437E-02 -0.14902868156E-01  0.31474676444E-01  0.35737005818E-01  0.00000000000E+00 0.  1.
  9000001    1    1    2    0    0  0.80238923437E-02  0.14902868156E-01 -0.31474676444E-01  0.35750994182E-01  0.10000000475E-02 0. -1.
</event>
<event>
 4   0  0.4958067E-02  0.9118800E+02  0.7818609E-02  0.1379984E+01
      -11   -1    0    0    0    0  0.00000000000E+00  0.00000000000E+00  0.35740347158E-01  0.35744000000E-01  0.51099999109E-03 0.  1.
       11   -1    0    0    0    0 -0.00000000000E+00 -0.00000000000E+00 -0.35740347158E-01  0.35744000000E-01  0.51099999109E-03 0. -1.
       22    1    1    2    0    0 -0.12321299726E-01  0.20722121596E-02 -0.33481712840E-01  0.35737005818E-01  0.00000000000E+00 0. -1.
  9000001    1    1    2    0    0  0.12321299726E-01 -0.20722121596E-02  0.33481712840E-01  0.35750994182E-01  0.10000000475E-02 0.  1.
</event>
<event>
 4   0  0.4958067E-02  0.9118800E+02  0.7818609E-02  0.1379984E+01
      -11   -1    0    0    0    0  0.00000000000E+00  0.00000000000E+00  0.35740347158E-01  0.35744000000E-01  0.51099999109E-03 0. -1.
       11   -1    0    0    0    0 -0.00000000000E+00 -0.00000000000E+00 -0.35740347158E-01  0.35744000000E-01  0.51099999109E-03 0.  1.
       22    1    1    2    0    0  0.13278985219E-02 -0.27114298307E-02 -0.35609246252E-01  0.35737005818E-01  0.00000000000E+00 0.  1.
  9000001    1    1    2    0    0 -0.13278985219E-02  0.27114298307E-02  0.35609246252E-01  0.35750994182E-01  0.10000000475E-02 0. -1.
</event>
<event>
 4   0  0.4958067E-02  0.9118800E+02  0.7818609E-02  0.1379984E+01
      -11   -1    0    0    0    0  0.00000000000E+00  0.00000000000E+00  0.35740347158E-01  0.35744000000E-01  0.51099999109E-03 0.  1.
       11   -1    0    0    0    0 -0.00000000000E+00 -0.00000000000E+00 -0.35740347158E-01  0.35744000000E-01  0.51099999109E-03 0. -1.
       22    1    1    2    0    0 -0.19480541307E-01  0.15450453490E-01 -0.25669545812E-01  0.35737005818E-01  0.00000000000E+00 0. -1.
  9000001    1    1    2    0    0  0.19480541307E-01 -0.15450453490E-01  0.25669545812E-01  0.35750994182E-01  0.10000000475E-02 0.  1.
</event>
<event>
 4   0  0.4958067E-02  0.9118800E+02  0.7818609E-02  0.1379984E+01
      -11   -1    0    0    0    0  0.00000000000E+00  0.00000000000E+00  0.35740347158E-01  0.35744000000E-01  0.51099999109E-03 0. -1.
       11   -1    0    0    0    0 -0.00000000000E+00 -0.00000000000E+00 -0.35740347158E-01  0.35744000000E-01  0.51099999109E-03 0.  1.
       22    1    1    2    0    0 -0.61728264893E-02  0.20187293738E-02  0.35141919835E-01  0.35737005818E-01  0.00000000000E+00 0. -1.
  9000001    1    1    2    0    0  0.61728264893E-02 -0.20187293738E-02 -0.35141919835E-01  0.35750994182E-01  0.10000000475E-02 0.  1.
</event>
<event>
 4   0  0.4958067E-02  0.9118800E+02  0.7818609E-02  0.1379984E+01
      -11   -1    0    0    0    0  0.00000000000E+00  0.00000000000E+00  0.35740347158E-01  0.35744000000E-01  0.51099999109E-03 0. -1.
       11   -1    0    0    0    0 -0.00000000000E+00 -0.00000000000E+00 -0.35740347158E-01  0.35744000000E-01  0.51099999109E-03 0.  1.
       22    1    1    2    0    0 -0.15795882113E-01 -0.10400841603E-01  0.30322371067E-01  0.35737005818E-01  0.00000000000E+00 0. -1.
  9000001    1    1    2    0    0  0.15795882113E-01  0.10400841603E-01 -0.30322371067E-01  0.35750994182E-01  0.10000000475E-02 0.  1.
</event>
<event>
 4   0  0.4958067E-02  0.9118800E+02  0.7818609E-02  0.1379984E+01
      -11   -1    0    0    0    0  0.00000000000E+00  0.00000000000E+00  0.35740347158E-01  0.35744000000E-01  0.51099999109E-03 0.  1.
       11   -1    0    0    0    0 -0.00000000000E+00 -0.00000000000E+00 -0.35740347158E-01  0.35744000000E-01  0.51099999109E-03 0. -1.
       22    1    1    2    0    0 -0.47501229209E-02 -0.55741950337E-02 -0.34978540090E-01  0.35737005818E-01  0.00000000000E+00 0. -1.
  9000001    1    1    2    0    0  0.47501229209E-02  0.55741950337E-02  0.34978540090E-01  0.35750994182E-01  0.10000000475E-02 0.  1.
</event>
<event>
 4   0  0.4958067E-02  0.9118800E+02  0.7818609E-02  0.1379984E+01
      -11   -1    0    0    0    0  0.00000000000E+00  0.00000000000E+00  0.35740347158E-01  0.35744000000E-01  0.51099999109E-03 0. -1.
       11   -1    0    0    0    0 -0.00000000000E+00 -0.00000000000E+00 -0.35740347158E-01  0.35744000000E-01  0.51099999109E-03 0.  1.
       22    1    1    2    0    0 -0.48140001129E-02  0.12438382477E-02 -0.35389431391E-01  0.35737005818E-01  0.00000000000E+00 0.  1.
  9000001    1    1    2    0    0  0.48140001129E-02 -0.12438382477E-02  0.35389431391E-01  0.35750994182E-01  0.10000000475E-02 0. -1.
</event>
<event>
 4   0  0.4958067E-02  0.9118800E+02  0.7818609E-02  0.1379984E+01
      -11   -1    0    0    0    0  0.00000000000E+00  0.00000000000E+00  0.35740347158E-01  0.35744000000E-01  0.51099999109E-03 0.  1.
       11   -1    0    0    0    0 -0.00000000000E+00 -0.00000000000E+00 -0.35740347158E-01  0.35744000000E-01  0.51099999109E-03 0. -1.
       22    1    1    2    0    0 -0.19315276622E-01  0.29866947272E-01 -0.34668623487E-02  0.35737005818E-01  0.00000000000E+00 0. -1.
  9000001    1    1    2    0    0  0.19315276622E-01 -0.29866947272E-01  0.34668623487E-02  0.35750994182E-01  0.10000000475E-02 0.  1.
</event>
<event>
 4   0  0.4958067E-02  0.9118800E+02  0.7818609E-02  0.1379984E+01
      -11   -1    0    0    0    0  0.00000000000E+00  0.00000000000E+00  0.35740347158E-01  0.35744000000E-01  0.51099999109E-03 0.  1.
       11   -1    0    0    0    0 -0.00000000000E+00 -0.00000000000E+00 -0.35740347158E-01  0.35744000000E-01  0.51099999109E-03 0. -1.
       22    1    1    2    0    0  0.25533710618E-01 -0.20003112569E-01  0.15001289761E-01  0.35737005818E-01  0.00000000000E+00 0.  1.
  9000001    1    1    2    0    0 -0.25533710618E-01  0.20003112569E-01 -0.15001289761E-01  0.35750994182E-01  0.10000000475E-02 0. -1.
</event>
<event>
 4   0  0.4958067E-02  0.9118800E+02  0.7818609E-02  0.1379984E+01
      -11   -1    0    0    0    0  0.00000000000E+00  0.00000000000E+00  0.35740347158E-01  0.35744000000E-01  0.51099999109E-03 0.  1.
       11   -1    0    0    0    0 -0.00000000000E+00 -0.00000000000E+00 -0.35740347158E-01  0.35744000000E-01  0.51099999109E-03 0. -1.
       22    1    1    2    0    0  0.37180760578E-02 -0.22915619278E-02 -0.35469116697E-01  0.35737005818E-01  0.00000000000E+00 0. -1.
  9000001    1    1    2    0    0 -0.37180760578E-02  0.22915619278E-02  0.35469116697E-01  0.35750994182E-01  0.10000000475E-02 0.  1.
</event>
<event>
 4   0  0.4958067E-02  0.9118800E+02  0.7818609E-02  0.1379984E+01
      -11   -1    0    0    0    0  0.00000000000E+00  0.00000000000E+00  0.35740347158E-01  0.35744000000E-01  0.51099999109E-03 0. -1.
       11   -1    0    0    0    0 -0.00000000000E+00 -0.00000000000E+00 -0.35740347158E-01  0.35744000000E-01  0.51099999109E-03 0.  1.
       22    1    1    2    0    0 -0.72174692922E-02  0.94190744449E-03  0.34987919805E-01  0.35737005818E-01  0.00000000000E+00 0. -1.
  9000001    1    1    2    0    0  0.72174692922E-02 -0.94190744449E-03 -0.34987919805E-01  0.35750994182E-01  0.10000000475E-02 0.  1.
</event>
<event>
 4   0  0.4958067E-02  0.9118800E+02  0.7818609E-02  0.1379984E+01
      -11   -1    0    0    0    0  0.00000000000E+00  0.00000000000E+00  0.35740347158E-01  0.35744000000E-01  0.51099999109E-03 0.  1.
       11   -1    0    0    0    0 -0.00000000000E+00 -0.00000000000E+00 -0.35740347158E-01  0.35744000000E-01  0.51099999109E-03 0. -1.
       22    1    1    2    0    0  0.10735300123E-01  0.33319756593E-01 -0.71889315420E-02  0.35737005818E-01  0.00000000000E+00 0.  1.
  9000001    1    1    2    0    0 -0.10735300123E-01 -0.33319756593E-01  0.71889315420E-02  0.35750994182E-01  0.10000000475E-02 0. -1.
</event>
<event>
 4   0  0.4958067E-02  0.9118800E+02  0.7818609E-02  0.1379984E+01
      -11   -1    0    0    0    0  0.00000000000E+00  0.00000000000E+00  0.35740347158E-01  0.35744000000E-01  0.51099999109E-03 0. -1.
       11   -1    0    0    0    0 -0.00000000000E+00 -0.00000000000E+00 -0.35740347158E-01  0.35744000000E-01  0.51099999109E-03 0.  1.
       22    1    1    2    0    0  0.52682578326E-02  0.98636031752E-02 -0.33942427383E-01  0.35737005818E-01  0.00000000000E+00 0.  1.
  9000001    1    1    2    0    0 -0.52682578326E-02 -0.98636031752E-02  0.33942427383E-01  0.35750994182E-01  0.10000000475E-02 0. -1.
</event>
<event>
 4   0  0.4958067E-02  0.9118800E+02  0.7818609E-02  0.1379984E+01
      -11   -1    0    0    0    0  0.00000000000E+00  0.00000000000E+00  0.35740347158E-01  0.35744000000E-01  0.51099999109E-03 0.  1.
       11   -1    0    0    0    0 -0.00000000000E+00 -0.00000000000E+00 -0.35740347158E-01  0.35744000000E-01  0.51099999109E-03 0. -1.
       22    1    1    2    0    0 -0.86441313055E-02  0.11281717763E-01  0.32789257740E-01  0.35737005818E-01  0.00000000000E+00 0.  1.
  9000001    1    1    2    0    0  0.86441313055E-02 -0.11281717763E-01 -0.32789257740E-01  0.35750994182E-01  0.10000000475E-02 0. -1.
</event>
<event>
 4   0  0.4958067E-02  0.9118800E+02  0.7818609E-02  0.1379984E+01
      -11   -1    0    0    0    0  0.00000000000E+00  0.00000000000E+00  0.35740347158E-01  0.35744000000E-01  0.51099999109E-03 0.  1.
       11   -1    0    0    0    0 -0.00000000000E+00 -0.00000000000E+00 -0.35740347158E-01  0.35744000000E-01  0.51099999109E-03 0. -1.
       22    1    1    2    0    0 -0.17340642809E-01  0.19540491898E-02 -0.31186814258E-01  0.35737005818E-01  0.00000000000E+00 0. -1.
  9000001    1    1    2    0    0  0.17340642809E-01 -0.19540491898E-02  0.31186814258E-01  0.35750994182E-01  0.10000000475E-02 0.  1.
</event>
<event>
 4   0  0.4958067E-02  0.9118800E+02  0.7818609E-02  0.1379984E+01
      -11   -1    0    0    0    0  0.00000000000E+00  0.00000000000E+00  0.35740347158E-01  0.35744000000E-01  0.51099999109E-03 0. -1.
       11   -1    0    0    0    0 -0.00000000000E+00 -0.00000000000E+00 -0.35740347158E-01  0.35744000000E-01  0.51099999109E-03 0.  1.
       22    1    1    2    0    0 -0.80206295280E-02  0.27414980056E-03 -0.34824243405E-01  0.35737005818E-01  0.00000000000E+00 0.  1.
  9000001    1    1    2    0    0  0.80206295280E-02 -0.27414980056E-03  0.34824243405E-01  0.35750994182E-01  0.10000000475E-02 0. -1.
</event>
<event>
 4   0  0.4958067E-02  0.9118800E+02  0.7818609E-02  0.1379984E+01
      -11   -1    0    0    0    0  0.00000000000E+00  0.00000000000E+00  0.35740347158E-01  0.35744000000E-01  0.51099999109E-03 0. -1.
       11   -1    0    0    0    0 -0.00000000000E+00 -0.00000000000E+00 -0.35740347158E-01  0.35744000000E-01  0.51099999109E-03 0.  1.
       22    1    1    2    0    0 -0.60673759869E-02  0.13429823977E-03  0.35217928637E-01  0.35737005818E-01  0.00000000000E+00 0. -1.
  9000001    1    1    2    0    0  0.60673759869E-02 -0.13429823977E-03 -0.35217928637E-01  0.35750994182E-01  0.10000000475E-02 0.  1.
</event>
<event>
 4   0  0.4958067E-02  0.9118800E+02  0.7818609E-02  0.1379984E+01
      -11   -1    0    0    0    0  0.00000000000E+00  0.00000000000E+00  0.35740347158E-01  0.35744000000E-01  0.51099999109E-03 0.  1.
       11   -1    0    0    0    0 -0.00000000000E+00 -0.00000000000E+00 -0.35740347158E-01  0.35744000000E-01  0.51099999109E-03 0. -1.
       22    1    1    2    0    0 -0.12445006237E-02 -0.81503381230E-02 -0.34772931880E-01  0.35737005818E-01  0.00000000000E+00 0. -1.
  9000001    1    1    2    0    0  0.12445006237E-02  0.81503381230E-02  0.34772931880E-01  0.35750994182E-01  0.10000000475E-02 0.  1.
</event>
<event>
 4   0  0.4958067E-02  0.9118800E+02  0.7818609E-02  0.1379984E+01
      -11   -1    0    0    0    0  0.00000000000E+00  0.00000000000E+00  0.35740347158E-01  0.35744000000E-01  0.51099999109E-03 0. -1.
       11   -1    0    0    0    0 -0.00000000000E+00 -0.00000000000E+00 -0.35740347158E-01  0.35744000000E-01  0.51099999109E-03 0.  1.
       22    1    1    2    0    0  0.85042144067E-02 -0.45498063453E-02 -0.34410916646E-01  0.35737005818E-01  0.00000000000E+00 0.  1.
  9000001    1    1    2    0    0 -0.85042144067E-02  0.45498063453E-02  0.34410916646E-01  0.35750994182E-01  0.10000000475E-02 0. -1.
</event>
<event>
 4   0  0.4958067E-02  0.9118800E+02  0.7818609E-02  0.1379984E+01
      -11   -1    0    0    0    0  0.00000000000E+00  0.00000000000E+00  0.35740347158E-01  0.35744000000E-01  0.51099999109E-03 0.  1.
       11   -1    0    0    0    0 -0.00000000000E+00 -0.00000000000E+00 -0.35740347158E-01  0.35744000000E-01  0.51099999109E-03 0. -1.
       22    1    1    2    0    0  0.31695985020E-02  0.30640841623E-01  0.18117010097E-01  0.35737005818E-01  0.00000000000E+00 0.  1.
  9000001    1    1    2    0    0 -0.31695985020E-02 -0.30640841623E-01 -0.18117010097E-01  0.35750994182E-01  0.10000000475E-02 0. -1.
</event>
<event>
 4   0  0.4958067E-02  0.9118800E+02  0.7818609E-02  0.1379984E+01
      -11   -1    0    0    0    0  0.00000000000E+00  0.00000000000E+00  0.35740347158E-01  0.35744000000E-01  0.51099999109E-03 0. -1.
       11   -1    0    0    0    0 -0.00000000000E+00 -0.00000000000E+00 -0.35740347158E-01  0.35744000000E-01  0.51099999109E-03 0.  1.
       22    1    1    2    0    0  0.17030014235E-02 -0.54871976474E-02  0.35272142450E-01  0.35737005818E-01  0.00000000000E+00 0. -1.
  9000001    1    1    2    0    0 -0.17030014235E-02  0.54871976474E-02 -0.35272142450E-01  0.35750994182E-01  0.10000000475E-02 0.  1.
</event>
<event>
 4   0  0.4958067E-02  0.9118800E+02  0.7818609E-02  0.1379984E+01
      -11   -1    0    0    0    0  0.00000000000E+00  0.00000000000E+00  0.35740347158E-01  0.35744000000E-01  0.51099999109E-03 0.  1.
       11   -1    0    0    0    0 -0.00000000000E+00 -0.00000000000E+00 -0.35740347158E-01  0.35744000000E-01  0.51099999109E-03 0. -1.
       22    1    1    2    0    0  0.93333847748E-03 -0.27394944916E-01 -0.22929881317E-01  0.35737005818E-01  0.00000000000E+00 0.  1.
  9000001    1    1    2    0    0 -0.93333847748E-03  0.27394944916E-01  0.22929881317E-01  0.35750994182E-01  0.10000000475E-02 0. -1.
</event>
<event>
 4   0  0.4958067E-02  0.9118800E+02  0.7818609E-02  0.1379984E+01
      -11   -1    0    0    0    0  0.00000000000E+00  0.00000000000E+00  0.35740347158E-01  0.35744000000E-01  0.51099999109E-03 0.  1.
       11   -1    0    0    0    0 -0.00000000000E+00 -0.00000000000E+00 -0.35740347158E-01  0.35744000000E-01  0.51099999109E-03 0. -1.
       22    1    1    2    0    0  0.59421613679E-02  0.62757297153E-03 -0.35233938970E-01  0.35737005818E-01  0.00000000000E+00 0. -1.
  9000001    1    1    2    0    0 -0.59421613679E-02 -0.62757297153E-03  0.35233938970E-01  0.35750994182E-01  0.10000000475E-02 0.  1.
</event>
<event>
 4   0  0.4958067E-02  0.9118800E+02  0.7818609E-02  0.1379984E+01
      -11   -1    0    0    0    0  0.00000000000E+00  0.00000000000E+00  0.35740347158E-01  0.35744000000E-01  0.51099999109E-03 0. -1.
       11   -1    0    0    0    0 -0.00000000000E+00 -0.00000000000E+00 -0.35740347158E-01  0.35744000000E-01  0.51099999109E-03 0.  1.
       22    1    1    2    0    0 -0.77443418969E-02 -0.56806180056E-02 -0.34422221493E-01  0.35737005818E-01  0.00000000000E+00 0.  1.
  9000001    1    1    2    0    0  0.77443418969E-02  0.56806180056E-02  0.34422221493E-01  0.35750994182E-01  0.10000000475E-02 0. -1.
</event>
<event>
 4   0  0.4958067E-02  0.9118800E+02  0.7818609E-02  0.1379984E+01
      -11   -1    0    0    0    0  0.00000000000E+00  0.00000000000E+00  0.35740347158E-01  0.35744000000E-01  0.51099999109E-03 0.  1.
       11   -1    0    0    0    0 -0.00000000000E+00 -0.00000000000E+00 -0.35740347158E-01  0.35744000000E-01  0.51099999109E-03 0. -1.
       22    1    1    2    0    0  0.14008206589E-01  0.20005295769E-02 -0.32816179157E-01  0.35737005818E-01  0.00000000000E+00 0. -1.
  9000001    1    1    2    0    0 -0.14008206589E-01 -0.20005295769E-02  0.32816179157E-01  0.35750994182E-01  0.10000000475E-02 0.  1.
</event>
<event>
 4   0  0.4958067E-02  0.9118800E+02  0.7818609E-02  0.1379984E+01
      -11   -1    0    0    0    0  0.00000000000E+00  0.00000000000E+00  0.35740347158E-01  0.35744000000E-01  0.51099999109E-03 0.  1.
       11   -1    0    0    0    0 -0.00000000000E+00 -0.00000000000E+00 -0.35740347158E-01  0.35744000000E-01  0.51099999109E-03 0. -1.
       22    1    1    2    0    0 -0.17300436775E-03  0.16182175835E-01  0.31862844186E-01  0.35737005818E-01  0.00000000000E+00 0.  1.
  9000001    1    1    2    0    0  0.17300436775E-03 -0.16182175835E-01 -0.31862844186E-01  0.35750994182E-01  0.10000000475E-02 0. -1.
</event>
<event>
 4   0  0.4958067E-02  0.9118800E+02  0.7818609E-02  0.1379984E+01
      -11   -1    0    0    0    0  0.00000000000E+00  0.00000000000E+00  0.35740347158E-01  0.35744000000E-01  0.51099999109E-03 0. -1.
       11   -1    0    0    0    0 -0.00000000000E+00 -0.00000000000E+00 -0.35740347158E-01  0.35744000000E-01  0.51099999109E-03 0.  1.
       22    1    1    2    0    0  0.10211434269E-02  0.34126643674E-02 -0.35559029414E-01  0.35737005818E-01  0.00000000000E+00 0.  1.
  9000001    1    1    2    0    0 -0.10211434269E-02 -0.34126643674E-02  0.35559029414E-01  0.35750994182E-01  0.10000000475E-02 0. -1.
</event>
<event>
 4   0  0.4958067E-02  0.9118800E+02  0.7818609E-02  0.1379984E+01
      -11   -1    0    0    0    0  0.00000000000E+00  0.00000000000E+00  0.35740347158E-01  0.35744000000E-01  0.51099999109E-03 0. -1.
       11   -1    0    0    0    0 -0.00000000000E+00 -0.00000000000E+00 -0.35740347158E-01  0.35744000000E-01  0.51099999109E-03 0.  1.
       22    1    1    2    0    0 -0.36188608831E-02 -0.35009124268E-02  0.35380517845E-01  0.35737005818E-01  0.00000000000E+00 0. -1.
  9000001    1    1    2    0    0  0.36188608831E-02  0.35009124268E-02 -0.35380517845E-01  0.35750994182E-01  0.10000000475E-02 0.  1.
</event>
<event>
 4   0  0.4958067E-02  0.9118800E+02  0.7818609E-02  0.1379984E+01
      -11   -1    0    0    0    0  0.00000000000E+00  0.00000000000E+00  0.35740347158E-01  0.35744000000E-01  0.51099999109E-03 0.  1.
       11   -1    0    0    0    0 -0.00000000000E+00 -0.00000000000E+00 -0.35740347158E-01  0.35744000000E-01  0.51099999109E-03 0. -1.
       22    1    1    2    0    0 -0.38559957846E-02  0.22351148459E-02  0.35457991243E-01  0.35737005818E-01  0.00000000000E+00 0.  1.
  9000001    1    1    2    0    0  0.38559957846E-02 -0.22351148459E-02 -0.35457991243E-01  0.35750994182E-01  0.10000000475E-02 0. -1.
</event>
<event>
 4   0  0.4958067E-02  0.9118800E+02  0.7818609E-02  0.1379984E+01
      -11   -1    0    0    0    0  0.00000000000E+00  0.00000000000E+00  0.35740347158E-01  0.35744000000E-01  0.51099999109E-03 0.  1.
       11   -1    0    0    0    0 -0.00000000000E+00 -0.00000000000E+00 -0.35740347158E-01  0.35744000000E-01  0.51099999109E-03 0. -1.
       22    1    1    2    0    0 -0.57498793861E-02 -0.95687433170E-02  0.33948661583E-01  0.35737005818E-01  0.00000000000E+00 0.  1.
  9000001    1    1    2    0    0  0.57498793861E-02  0.95687433170E-02 -0.33948661583E-01  0.35750994182E-01  0.10000000475E-02 0. -1.
</event>
<event>
 4   0  0.4958067E-02  0.9118800E+02  0.7818609E-02  0.1379984E+01
      -11   -1    0    0    0    0  0.00000000000E+00  0.00000000000E+00  0.35740347158E-01  0.35744000000E-01  0.51099999109E-03 0.  1.
       11   -1    0    0    0    0 -0.00000000000E+00 -0.00000000000E+00 -0.35740347158E-01  0.35744000000E-01  0.51099999109E-03 0. -1.
       22    1    1    2    0    0  0.74642863646E-02  0.29671450864E-02  0.34822608518E-01  0.35737005818E-01  0.00000000000E+00 0.  1.
  9000001    1    1    2    0    0 -0.74642863646E-02 -0.29671450864E-02 -0.34822608518E-01  0.35750994182E-01  0.10000000475E-02 0. -1.
</event>
<event>
 4   0  0.4958067E-02  0.9118800E+02  0.7818609E-02  0.1379984E+01
      -11   -1    0    0    0    0  0.00000000000E+00  0.00000000000E+00  0.35740347158E-01  0.35744000000E-01  0.51099999109E-03 0.  1.
       11   -1    0    0    0    0 -0.00000000000E+00 -0.00000000000E+00 -0.35740347158E-01  0.35744000000E-01  0.51099999109E-03 0. -1.
       22    1    1    2    0    0  0.11959124584E-01  0.21063580772E-01  0.26276196245E-01  0.35737005818E-01  0.00000000000E+00 0.  1.
  9000001    1    1    2    0    0 -0.11959124584E-01 -0.21063580772E-01 -0.26276196245E-01  0.35750994182E-01  0.10000000475E-02 0. -1.
</event>
<event>
 4   0  0.4958067E-02  0.9118800E+02  0.7818609E-02  0.1379984E+01
      -11   -1    0    0    0    0  0.00000000000E+00  0.00000000000E+00  0.35740347158E-01  0.35744000000E-01  0.51099999109E-03 0.  1.
       11   -1    0    0    0    0 -0.00000000000E+00 -0.00000000000E+00 -0.35740347158E-01  0.35744000000E-01  0.51099999109E-03 0. -1.
       22    1    1    2    0    0 -0.16680214334E-01  0.11513712198E-01 -0.29433628150E-01  0.35737005818E-01  0.00000000000E+00 0. -1.
  9000001    1    1    2    0    0  0.16680214334E-01 -0.11513712198E-01  0.29433628150E-01  0.35750994182E-01  0.10000000475E-02 0.  1.
</event>
<event>
 4   0  0.4958067E-02  0.9118800E+02  0.7818609E-02  0.1379984E+01
      -11   -1    0    0    0    0  0.00000000000E+00  0.00000000000E+00  0.35740347158E-01  0.35744000000E-01  0.51099999109E-03 0.  1.
       11   -1    0    0    0    0 -0.00000000000E+00 -0.00000000000E+00 -0.35740347158E-01  0.35744000000E-01  0.51099999109E-03 0. -1.
       22    1    1    2    0    0 -0.92252098390E-02  0.18210604492E-01  0.29332626414E-01  0.35737005818E-01  0.00000000000E+00 0.  1.
  9000001    1    1    2    0    0  0.92252098390E-02 -0.18210604492E-01 -0.29332626414E-01  0.35750994182E-01  0.10000000475E-02 0. -1.
</event>
<event>
 4   0  0.4958067E-02  0.9118800E+02  0.7818609E-02  0.1379984E+01
      -11   -1    0    0    0    0  0.00000000000E+00  0.00000000000E+00  0.35740347158E-01  0.35744000000E-01  0.51099999109E-03 0. -1.
       11   -1    0    0    0    0 -0.00000000000E+00 -0.00000000000E+00 -0.35740347158E-01  0.35744000000E-01  0.51099999109E-03 0.  1.
       22    1    1    2    0    0 -0.81461870361E-02  0.16720619893E-01 -0.30515472994E-01  0.35737005818E-01  0.00000000000E+00 0.  1.
  9000001    1    1    2    0    0  0.81461870361E-02 -0.16720619893E-01  0.30515472994E-01  0.35750994182E-01  0.10000000475E-02 0. -1.
</event>
<event>
 4   0  0.4958067E-02  0.9118800E+02  0.7818609E-02  0.1379984E+01
      -11   -1    0    0    0    0  0.00000000000E+00  0.00000000000E+00  0.35740347158E-01  0.35744000000E-01  0.51099999109E-03 0.  1.
       11   -1    0    0    0    0 -0.00000000000E+00 -0.00000000000E+00 -0.35740347158E-01  0.35744000000E-01  0.51099999109E-03 0. -1.
       22    1    1    2    0    0 -0.20482932434E-03  0.31155389531E-02 -0.35600351780E-01  0.35737005818E-01  0.00000000000E+00 0. -1.
  9000001    1    1    2    0    0  0.20482932434E-03 -0.31155389531E-02  0.35600351780E-01  0.35750994182E-01  0.10000000475E-02 0.  1.
</event>
<event>
 4   0  0.4958067E-02  0.9118800E+02  0.7818609E-02  0.1379984E+01
      -11   -1    0    0    0    0  0.00000000000E+00  0.00000000000E+00  0.35740347158E-01  0.35744000000E-01  0.51099999109E-03 0. -1.
       11   -1    0    0    0    0 -0.00000000000E+00 -0.00000000000E+00 -0.35740347158E-01  0.35744000000E-01  0.51099999109E-03 0.  1.
       22    1    1    2    0    0  0.75136995339E-02  0.99803169160E-02 -0.33482401026E-01  0.35737005818E-01  0.00000000000E+00 0.  1.
  9000001    1    1    2    0    0 -0.75136995339E-02 -0.99803169160E-02  0.33482401026E-01  0.35750994182E-01  0.10000000475E-02 0. -1.
</event>
<event>
 4   0  0.4958067E-02  0.9118800E+02  0.7818609E-02  0.1379984E+01
      -11   -1    0    0    0    0  0.00000000000E+00  0.00000000000E+00  0.35740347158E-01  0.35744000000E-01  0.51099999109E-03 0. -1.
       11   -1    0    0    0    0 -0.00000000000E+00 -0.00000000000E+00 -0.35740347158E-01  0.35744000000E-01  0.51099999109E-03 0.  1.
       22    1    1    2    0    0 -0.58072773983E-02 -0.66968089430E-02  0.34620252224E-01  0.35737005818E-01  0.00000000000E+00 0. -1.
  9000001    1    1    2    0    0  0.58072773983E-02  0.66968089430E-02 -0.34620252224E-01  0.35750994182E-01  0.10000000475E-02 0.  1.
</event>
<event>
 4   0  0.4958067E-02  0.9118800E+02  0.7818609E-02  0.1379984E+01
      -11   -1    0    0    0    0  0.00000000000E+00  0.00000000000E+00  0.35740347158E-01  0.35744000000E-01  0.51099999109E-03 0. -1.
       11   -1    0    0    0    0 -0.00000000000E+00 -0.00000000000E+00 -0.35740347158E-01  0.35744000000E-01  0.51099999109E-03 0.  1.
       22    1    1    2    0    0 -0.53517652534E-02 -0.32948938927E-02 -0.35180049286E-01  0.35737005818E-01  0.00000000000E+00 0.  1.
  9000001    1    1    2    0    0  0.53517652534E-02  0.32948938927E-02  0.35180049286E-01  0.35750994182E-01  0.10000000475E-02 0. -1.
</event>
<event>
 4   0  0.4958067E-02  0.9118800E+02  0.7818609E-02  0.1379984E+01
      -11   -1    0    0    0    0  0.00000000000E+00  0.00000000000E+00  0.35740347158E-01  0.35744000000E-01  0.51099999109E-03 0. -1.
       11   -1    0    0    0    0 -0.00000000000E+00 -0.00000000000E+00 -0.35740347158E-01  0.35744000000E-01  0.51099999109E-03 0.  1.
       22    1    1    2    0    0 -0.21016724257E-02 -0.32061839272E-02  0.35530788656E-01  0.35737005818E-01  0.00000000000E+00 0. -1.
  9000001    1    1    2    0    0  0.21016724257E-02  0.32061839272E-02 -0.35530788656E-01  0.35750994182E-01  0.10000000475E-02 0.  1.
</event>
<event>
 4   0  0.4958067E-02  0.9118800E+02  0.7818609E-02  0.1379984E+01
      -11   -1    0    0    0    0  0.00000000000E+00  0.00000000000E+00  0.35740347158E-01  0.35744000000E-01  0.51099999109E-03 0.  1.
       11   -1    0    0    0    0 -0.00000000000E+00 -0.00000000000E+00 -0.35740347158E-01  0.35744000000E-01  0.51099999109E-03 0. -1.
       22    1    1    2    0    0 -0.43233504522E-02 -0.72691698466E-02  0.34721771203E-01  0.35737005818E-01  0.00000000000E+00 0.  1.
  9000001    1    1    2    0    0  0.43233504522E-02  0.72691698466E-02 -0.34721771203E-01  0.35750994182E-01  0.10000000475E-02 0. -1.
</event>
<event>
 4   0  0.4958067E-02  0.9118800E+02  0.7818609E-02  0.1379984E+01
      -11   -1    0    0    0    0  0.00000000000E+00  0.00000000000E+00  0.35740347158E-01  0.35744000000E-01  0.51099999109E-03 0. -1.
       11   -1    0    0    0    0 -0.00000000000E+00 -0.00000000000E+00 -0.35740347158E-01  0.35744000000E-01  0.51099999109E-03 0.  1.
       22    1    1    2    0    0 -0.19007767087E-01  0.13950309523E-01 -0.26855674250E-01  0.35737005818E-01  0.00000000000E+00 0.  1.
  9000001    1    1    2    0    0  0.19007767087E-01 -0.13950309523E-01  0.26855674250E-01  0.35750994182E-01  0.10000000475E-02 0. -1.
</event>
<event>
 4   0  0.4958067E-02  0.9118800E+02  0.7818609E-02  0.1379984E+01
      -11   -1    0    0    0    0  0.00000000000E+00  0.00000000000E+00  0.35740347158E-01  0.35744000000E-01  0.51099999109E-03 0. -1.
       11   -1    0    0    0    0 -0.00000000000E+00 -0.00000000000E+00 -0.35740347158E-01  0.35744000000E-01  0.51099999109E-03 0.  1.
       22    1    1    2    0    0 -0.17749908155E-02 -0.38639927149E-02  0.35483130538E-01  0.35737005818E-01  0.00000000000E+00 0. -1.
  9000001    1    1    2    0    0  0.17749908155E-02  0.38639927149E-02 -0.35483130538E-01  0.35750994182E-01  0.10000000475E-02 0.  1.
</event>
<event>
 4   0  0.4958067E-02  0.9118800E+02  0.7818609E-02  0.1379984E+01
      -11   -1    0    0    0    0  0.00000000000E+00  0.00000000000E+00  0.35740347158E-01  0.35744000000E-01  0.51099999109E-03 0. -1.
       11   -1    0    0    0    0 -0.00000000000E+00 -0.00000000000E+00 -0.35740347158E-01  0.35744000000E-01  0.51099999109E-03 0.  1.
       22    1    1    2    0    0 -0.35880347759E-02  0.11605950154E-01  0.33608949885E-01  0.35737005818E-01  0.00000000000E+00 0. -1.
  9000001    1    1    2    0    0  0.35880347759E-02 -0.11605950154E-01 -0.33608949885E-01  0.35750994182E-01  0.10000000475E-02 0.  1.
</event>
<event>
 4   0  0.4958067E-02  0.9118800E+02  0.7818609E-02  0.1379984E+01
      -11   -1    0    0    0    0  0.00000000000E+00  0.00000000000E+00  0.35740347158E-01  0.35744000000E-01  0.51099999109E-03 0. -1.
       11   -1    0    0    0    0 -0.00000000000E+00 -0.00000000000E+00 -0.35740347158E-01  0.35744000000E-01  0.51099999109E-03 0.  1.
       22    1    1    2    0    0  0.49041874981E-02 -0.21446018051E-01 -0.28162933789E-01  0.35737005818E-01  0.00000000000E+00 0.  1.
  9000001    1    1    2    0    0 -0.49041874981E-02  0.21446018051E-01  0.28162933789E-01  0.35750994182E-01  0.10000000475E-02 0. -1.
</event>
<event>
 4   0  0.4958067E-02  0.9118800E+02  0.7818609E-02  0.1379984E+01
      -11   -1    0    0    0    0  0.00000000000E+00  0.00000000000E+00  0.35740347158E-01  0.35744000000E-01  0.51099999109E-03 0.  1.
       11   -1    0    0    0    0 -0.00000000000E+00 -0.00000000000E+00 -0.35740347158E-01  0.35744000000E-01  0.51099999109E-03 0. -1.
       22    1    1    2    0    0  0.72412543361E-03  0.46130700834E-02  0.35430619690E-01  0.35737005818E-01  0.00000000000E+00 0.  1.
  9000001    1    1    2    0    0 -0.72412543361E-03 -0.46130700834E-02 -0.35430619690E-01  0.35750994182E-01  0.10000000475E-02 0. -1.
</event>
<event>
 4   0  0.4958067E-02  0.9118800E+02  0.7818609E-02  0.1379984E+01
      -11   -1    0    0    0    0  0.00000000000E+00  0.00000000000E+00  0.35740347158E-01  0.35744000000E-01  0.51099999109E-03 0.  1.
       11   -1    0    0    0    0 -0.00000000000E+00 -0.00000000000E+00 -0.35740347158E-01  0.35744000000E-01  0.51099999109E-03 0. -1.
       22    1    1    2    0    0 -0.30980542221E-02 -0.17071308043E-02 -0.35561515003E-01  0.35737005818E-01  0.00000000000E+00 0. -1.
  9000001    1    1    2    0    0  0.30980542221E-02  0.17071308043E-02  0.35561515003E-01  0.35750994182E-01  0.10000000475E-02 0.  1.
</event>
<event>
 4   0  0.4958067E-02  0.9118800E+02  0.7818609E-02  0.1379984E+01
      -11   -1    0    0    0    0  0.00000000000E+00  0.00000000000E+00  0.35740347158E-01  0.35744000000E-01  0.51099999109E-03 0.  1.
       11   -1    0    0    0    0 -0.00000000000E+00 -0.00000000000E+00 -0.35740347158E-01  0.35744000000E-01  0.51099999109E-03 0. -1.
       22    1    1    2    0    0 -0.18592402002E-02  0.46189124307E-02 -0.35388450923E-01  0.35737005818E-01  0.00000000000E+00 0. -1.
  9000001    1    1    2    0    0  0.18592402002E-02 -0.46189124307E-02  0.35388450923E-01  0.35750994182E-01  0.10000000475E-02 0.  1.
</event>
<event>
 4   0  0.4958067E-02  0.9118800E+02  0.7818609E-02  0.1379984E+01
      -11   -1    0    0    0    0  0.00000000000E+00  0.00000000000E+00  0.35740347158E-01  0.35744000000E-01  0.51099999109E-03 0.  1.
       11   -1    0    0    0    0 -0.00000000000E+00 -0.00000000000E+00 -0.35740347158E-01  0.35744000000E-01  0.51099999109E-03 0. -1.
       22    1    1    2    0    0 -0.15482882466E-02  0.27746380078E-01 -0.22469418793E-01  0.35737005818E-01  0.00000000000E+00 0. -1.
  9000001    1    1    2    0    0  0.15482882466E-02 -0.27746380078E-01  0.22469418793E-01  0.35750994182E-01  0.10000000475E-02 0.  1.
</event>
<event>
 4   0  0.4958067E-02  0.9118800E+02  0.7818609E-02  0.1379984E+01
      -11   -1    0    0    0    0  0.00000000000E+00  0.00000000000E+00  0.35740347158E-01  0.35744000000E-01  0.51099999109E-03 0. -1.
       11   -1    0    0    0    0 -0.00000000000E+00 -0.00000000000E+00 -0.35740347158E-01  0.35744000000E-01  0.51099999109E-03 0.  1.
       22    1    1    2    0    0  0.40868105136E-02  0.68031198852E-02 -0.34844642695E-01  0.35737005818E-01  0.00000000000E+00 0.  1.
  9000001    1    1    2    0    0 -0.40868105136E-02 -0.68031198852E-02  0.34844642695E-01  0.35750994182E-01  0.10000000475E-02 0. -1.
</event>
<event>
 4   0  0.4958067E-02  0.9118800E+02  0.7818609E-02  0.1379984E+01
      -11   -1    0    0    0    0  0.00000000000E+00  0.00000000000E+00  0.35740347158E-01  0.35744000000E-01  0.51099999109E-03 0.  1.
       11   -1    0    0    0    0 -0.00000000000E+00 -0.00000000000E+00 -0.35740347158E-01  0.35744000000E-01  0.51099999109E-03 0. -1.
       22    1    1    2    0    0 -0.40353559892E-02  0.45116100671E-02 -0.35220659584E-01  0.35737005818E-01  0.00000000000E+00 0. -1.
  9000001    1    1    2    0    0  0.40353559892E-02 -0.45116100671E-02  0.35220659584E-01  0.35750994182E-01  0.10000000475E-02 0.  1.
</event>
<event>
 4   0  0.4958067E-02  0.9118800E+02  0.7818609E-02  0.1379984E+01
      -11   -1    0    0    0    0  0.00000000000E+00  0.00000000000E+00  0.35740347158E-01  0.35744000000E-01  0.51099999109E-03 0. -1.
       11   -1    0    0    0    0 -0.00000000000E+00 -0.00000000000E+00 -0.35740347158E-01  0.35744000000E-01  0.51099999109E-03 0.  1.
       22    1    1    2    0    0  0.34962293763E-02 -0.38109826517E-02 -0.35360802822E-01  0.35737005818E-01  0.00000000000E+00 0.  1.
  9000001    1    1    2    0    0 -0.34962293763E-02  0.38109826517E-02  0.35360802822E-01  0.35750994182E-01  0.10000000475E-02 0. -1.
</event>
<event>
 4   0  0.4958067E-02  0.9118800E+02  0.7818609E-02  0.1379984E+01
      -11   -1    0    0    0    0  0.00000000000E+00  0.00000000000E+00  0.35740347158E-01  0.35744000000E-01  0.51099999109E-03 0. -1.
       11   -1    0    0    0    0 -0.00000000000E+00 -0.00000000000E+00 -0.35740347158E-01  0.35744000000E-01  0.51099999109E-03 0.  1.
       22    1    1    2    0    0  0.81491612540E-02 -0.10977692701E-01 -0.33018404242E-01  0.35737005818E-01  0.00000000000E+00 0.  1.
  9000001    1    1    2    0    0 -0.81491612540E-02  0.10977692701E-01  0.33018404242E-01  0.35750994182E-01  0.10000000475E-02 0. -1.
</event>
<event>
 4   0  0.4958067E-02  0.9118800E+02  0.7818609E-02  0.1379984E+01
      -11   -1    0    0    0    0  0.00000000000E+00  0.00000000000E+00  0.35740347158E-01  0.35744000000E-01  0.51099999109E-03 0. -1.
       11   -1    0    0    0    0 -0.00000000000E+00 -0.00000000000E+00 -0.35740347158E-01  0.35744000000E-01  0.51099999109E-03 0.  1.
       22    1    1    2    0    0  0.24201155537E-01 -0.22825068736E-01 -0.13055799200E-01  0.35737005818E-01  0.00000000000E+00 0.  1.
  9000001    1    1    2    0    0 -0.24201155537E-01  0.22825068736E-01  0.13055799200E-01  0.35750994182E-01  0.10000000475E-02 0. -1.
</event>
<event>
 4   0  0.4958067E-02  0.9118800E+02  0.7818609E-02  0.1379984E+01
      -11   -1    0    0    0    0  0.00000000000E+00  0.00000000000E+00  0.35740347158E-01  0.35744000000E-01  0.51099999109E-03 0. -1.
       11   -1    0    0    0    0 -0.00000000000E+00 -0.00000000000E+00 -0.35740347158E-01  0.35744000000E-01  0.51099999109E-03 0.  1.
       22    1    1    2    0    0 -0.26885380696E-02 -0.24973210031E-02  0.35548118596E-01  0.35737005818E-01  0.00000000000E+00 0. -1.
  9000001    1    1    2    0    0  0.26885380696E-02  0.24973210031E-02 -0.35548118596E-01  0.35750994182E-01  0.10000000475E-02 0.  1.
</event>
<event>
 4   0  0.4958067E-02  0.9118800E+02  0.7818609E-02  0.1379984E+01
      -11   -1    0    0    0    0  0.00000000000E+00  0.00000000000E+00  0.35740347158E-01  0.35744000000E-01  0.51099999109E-03 0. -1.
       11   -1    0    0    0    0 -0.00000000000E+00 -0.00000000000E+00 -0.35740347158E-01  0.35744000000E-01  0.51099999109E-03 0.  1.
       22    1    1    2    0    0  0.13672310577E-01 -0.11800975403E-01 -0.30837290541E-01  0.35737005818E-01  0.00000000000E+00 0.  1.
  9000001    1    1    2    0    0 -0.13672310577E-01  0.11800975403E-01  0.30837290541E-01  0.35750994182E-01  0.10000000475E-02 0. -1.
</event>
<event>
 4   0  0.4958067E-02  0.9118800E+02  0.7818609E-02  0.1379984E+01
      -11   -1    0    0    0    0  0.00000000000E+00  0.00000000000E+00  0.35740347158E-01  0.35744000000E-01  0.51099999109E-03 0.  1.
       11   -1    0    0    0    0 -0.00000000000E+00 -0.00000000000E+00 -0.35740347158E-01  0.35744000000E-01  0.51099999109E-03 0. -1.
       22    1    1    2    0    0 -0.11550664320E-01 -0.41299413014E-02  0.33565746282E-01  0.35737005818E-01  0.00000000000E+00 0.  1.
  9000001    1    1    2    0    0  0.11550664320E-01  0.41299413014E-02 -0.33565746282E-01  0.35750994182E-01  0.10000000475E-02 0. -1.
</event>
<event>
 4   0  0.4958067E-02  0.9118800E+02  0.7818609E-02  0.1379984E+01
      -11   -1    0    0    0    0  0.00000000000E+00  0.00000000000E+00  0.35740347158E-01  0.35744000000E-01  0.51099999109E-03 0. -1.
       11   -1    0    0    0    0 -0.00000000000E+00 -0.00000000000E+00 -0.35740347158E-01  0.35744000000E-01  0.51099999109E-03 0.  1.
       22    1    1    2    0    0  0.27349136940E-03 -0.56100666061E-02  0.35292859618E-01  0.35737005818E-01  0.00000000000E+00 0. -1.
  9000001    1    1    2    0    0 -0.27349136940E-03  0.56100666061E-02 -0.35292859618E-01  0.35750994182E-01  0.10000000475E-02 0.  1.
</event>
<event>
 4   0  0.4958067E-02  0.9118800E+02  0.7818609E-02  0.1379984E+01
      -11   -1    0    0    0    0  0.00000000000E+00  0.00000000000E+00  0.35740347158E-01  0.35744000000E-01  0.51099999109E-03 0. -1.
       11   -1    0    0    0    0 -0.00000000000E+00 -0.00000000000E+00 -0.35740347158E-01  0.35744000000E-01  0.51099999109E-03 0.  1.
       22    1    1    2    0    0 -0.12033538659E-02 -0.51528842179E-02  0.35343080066E-01  0.35737005818E-01  0.00000000000E+00 0. -1.
  9000001    1    1    2    0    0  0.12033538659E-02  0.51528842179E-02 -0.35343080066E-01  0.35750994182E-01  0.10000000475E-02 0.  1.
</event>
<event>
 4   0  0.4958067E-02  0.9118800E+02  0.7818609E-02  0.1379984E+01
      -11   -1    0    0    0    0  0.00000000000E+00  0.00000000000E+00  0.35740347158E-01  0.35744000000E-01  0.51099999109E-03 0. -1.
       11   -1    0    0    0    0 -0.00000000000E+00 -0.00000000000E+00 -0.35740347158E-01  0.35744000000E-01  0.51099999109E-03 0.  1.
       22    1    1    2    0    0 -0.44703660016E-02  0.11176752532E-03  0.35456126702E-01  0.35737005818E-01  0.00000000000E+00 0. -1.
  9000001    1    1    2    0    0  0.44703660016E-02 -0.11176752532E-03 -0.35456126702E-01  0.35750994182E-01  0.10000000475E-02 0.  1.
</event>
<event>
 4   0  0.4958067E-02  0.9118800E+02  0.7818609E-02  0.1379984E+01
      -11   -1    0    0    0    0  0.00000000000E+00  0.00000000000E+00  0.35740347158E-01  0.35744000000E-01  0.51099999109E-03 0. -1.
       11   -1    0    0    0    0 -0.00000000000E+00 -0.00000000000E+00 -0.35740347158E-01  0.35744000000E-01  0.51099999109E-03 0.  1.
       22    1    1    2    0    0  0.89643357052E-02  0.33807303727E-01  0.73376075765E-02  0.35737005818E-01  0.00000000000E+00 0. -1.
  9000001    1    1    2    0    0 -0.89643357052E-02 -0.33807303727E-01 -0.73376075765E-02  0.35750994182E-01  0.10000000475E-02 0.  1.
</event>
<event>
 4   0  0.4958067E-02  0.9118800E+02  0.7818609E-02  0.1379984E+01
      -11   -1    0    0    0    0  0.00000000000E+00  0.00000000000E+00  0.35740347158E-01  0.35744000000E-01  0.51099999109E-03 0. -1.
       11   -1    0    0    0    0 -0.00000000000E+00 -0.00000000000E+00 -0.35740347158E-01  0.35744000000E-01  0.51099999109E-03 0.  1.
       22    1    1    2    0    0 -0.11791225606E-01  0.13277329924E-01 -0.31013111641E-01  0.35737005818E-01  0.00000000000E+00 0.  1.
  9000001    1    1    2    0    0  0.11791225606E-01 -0.13277329924E-01  0.31013111641E-01  0.35750994182E-01  0.10000000475E-02 0. -1.
</event>
<event>
 4   0  0.4958067E-02  0.9118800E+02  0.7818609E-02  0.1379984E+01
      -11   -1    0    0    0    0  0.00000000000E+00  0.00000000000E+00  0.35740347158E-01  0.35744000000E-01  0.51099999109E-03 0. -1.
       11   -1    0    0    0    0 -0.00000000000E+00 -0.00000000000E+00 -0.35740347158E-01  0.35744000000E-01  0.51099999109E-03 0.  1.
       22    1    1    2    0    0  0.22093821162E-02 -0.10244550267E-01  0.34165792913E-01  0.35737005818E-01  0.00000000000E+00 0. -1.
  9000001    1    1    2    0    0 -0.22093821162E-02  0.10244550267E-01 -0.34165792913E-01  0.35750994182E-01  0.10000000475E-02 0.  1.
</event>
<event>
 4   0  0.4958067E-02  0.9118800E+02  0.7818609E-02  0.1379984E+01
      -11   -1    0    0    0    0  0.00000000000E+00  0.00000000000E+00  0.35740347158E-01  0.35744000000E-01  0.51099999109E-03 0.  1.
       11   -1    0    0    0    0 -0.00000000000E+00 -0.00000000000E+00 -0.35740347158E-01  0.35744000000E-01  0.51099999109E-03 0. -1.
       22    1    1    2    0    0 -0.46610079917E-02  0.14812021215E-01  0.32187149872E-01  0.35737005818E-01  0.00000000000E+00 0.  1.
  9000001    1    1    2    0    0  0.46610079917E-02 -0.14812021215E-01 -0.32187149872E-01  0.35750994182E-01  0.10000000475E-02 0. -1.
</event>
<event>
 4   0  0.4958067E-02  0.9118800E+02  0.7818609E-02  0.1379984E+01
      -11   -1    0    0    0    0  0.00000000000E+00  0.00000000000E+00  0.35740347158E-01  0.35744000000E-01  0.51099999109E-03 0. -1.
       11   -1    0    0    0    0 -0.00000000000E+00 -0.00000000000E+00 -0.35740347158E-01  0.35744000000E-01  0.51099999109E-03 0.  1.
       22    1    1    2    0    0  0.16312653199E-01  0.89515689980E-03 -0.31784109624E-01  0.35737005818E-01  0.00000000000E+00 0.  1.
  9000001    1    1    2    0    0 -0.16312653199E-01 -0.89515689980E-03  0.31784109624E-01  0.35750994182E-01  0.10000000475E-02 0. -1.
</event>
<event>
 4   0  0.4958067E-02  0.9118800E+02  0.7818609E-02  0.1379984E+01
      -11   -1    0    0    0    0  0.00000000000E+00  0.00000000000E+00  0.35740347158E-01  0.35744000000E-01  0.51099999109E-03 0. -1.
       11   -1    0    0    0    0 -0.00000000000E+00 -0.00000000000E+00 -0.35740347158E-01  0.35744000000E-01  0.51099999109E-03 0.  1.
       22    1    1    2    0    0 -0.64645084630E-02  0.38092905120E-02  0.34940421019E-01  0.35737005818E-01  0.00000000000E+00 0. -1.
  9000001    1    1    2    0    0  0.64645084630E-02 -0.38092905120E-02 -0.34940421019E-01  0.35750994182E-01  0.10000000475E-02 0.  1.
</event>
<event>
 4   0  0.4958067E-02  0.9118800E+02  0.7818609E-02  0.1379984E+01
      -11   -1    0    0    0    0  0.00000000000E+00  0.00000000000E+00  0.35740347158E-01  0.35744000000E-01  0.51099999109E-03 0. -1.
       11   -1    0    0    0    0 -0.00000000000E+00 -0.00000000000E+00 -0.35740347158E-01  0.35744000000E-01  0.51099999109E-03 0.  1.
       22    1    1    2    0    0 -0.18183576636E-01  0.56829973108E-02 -0.30235652253E-01  0.35737005818E-01  0.00000000000E+00 0.  1.
  9000001    1    1    2    0    0  0.18183576636E-01 -0.56829973108E-02  0.30235652253E-01  0.35750994182E-01  0.10000000475E-02 0. -1.
</event>
<event>
 4   0  0.4958067E-02  0.9118800E+02  0.7818609E-02  0.1379984E+01
      -11   -1    0    0    0    0  0.00000000000E+00  0.00000000000E+00  0.35740347158E-01  0.35744000000E-01  0.51099999109E-03 0. -1.
       11   -1    0    0    0    0 -0.00000000000E+00 -0.00000000000E+00 -0.35740347158E-01  0.35744000000E-01  0.51099999109E-03 0.  1.
       22    1    1    2    0    0 -0.25202879349E-02  0.23154718396E-02  0.35572746925E-01  0.35737005818E-01  0.00000000000E+00 0. -1.
  9000001    1    1    2    0    0  0.25202879349E-02 -0.23154718396E-02 -0.35572746925E-01  0.35750994182E-01  0.10000000475E-02 0.  1.
</event>
<event>
 4   0  0.4958067E-02  0.9118800E+02  0.7818609E-02  0.1379984E+01
      -11   -1    0    0    0    0  0.00000000000E+00  0.00000000000E+00  0.35740347158E-01  0.35744000000E-01  0.51099999109E-03 0. -1.
       11   -1    0    0    0    0 -0.00000000000E+00 -0.00000000000E+00 -0.35740347158E-01  0.35744000000E-01  0.51099999109E-03 0.  1.
       22    1    1    2    0    0 -0.46314611933E-02  0.15143749804E-01 -0.32036697613E-01  0.35737005818E-01  0.00000000000E+00 0.  1.
  9000001    1    1    2    0    0  0.46314611933E-02 -0.15143749804E-01  0.32036697613E-01  0.35750994182E-01  0.10000000475E-02 0. -1.
</event>
<event>
 4   0  0.4958067E-02  0.9118800E+02  0.7818609E-02  0.1379984E+01
      -11   -1    0    0    0    0  0.00000000000E+00  0.00000000000E+00  0.35740347158E-01  0.35744000000E-01  0.51099999109E-03 0.  1.
       11   -1    0    0    0    0 -0.00000000000E+00 -0.00000000000E+00 -0.35740347158E-01  0.35744000000E-01  0.51099999109E-03 0. -1.
       22    1    1    2    0    0  0.23550975808E-01 -0.18457441896E-01  0.19539906909E-01  0.35737005818E-01  0.00000000000E+00 0. -1.
  9000001    1    1    2    0    0 -0.23550975808E-01  0.18457441896E-01 -0.19539906909E-01  0.35750994182E-01  0.10000000475E-02 0.  1.
</event>
<event>
 4   0  0.4958067E-02  0.9118800E+02  0.7818609E-02  0.1379984E+01
      -11   -1    0    0    0    0  0.00000000000E+00  0.00000000000E+00  0.35740347158E-01  0.35744000000E-01  0.51099999109E-03 0.  1.
       11   -1    0    0    0    0 -0.00000000000E+00 -0.00000000000E+00 -0.35740347158E-01  0.35744000000E-01  0.51099999109E-03 0. -1.
       22    1    1    2    0    0  0.35644553555E-01 -0.80440154846E-03  0.24397386906E-02  0.35737005818E-01  0.00000000000E+00 0.  1.
  9000001    1    1    2    0    0 -0.35644553555E-01  0.80440154846E-03 -0.24397386906E-02  0.35750994182E-01  0.10000000475E-02 0. -1.
</event>
<event>
 4   0  0.4958067E-02  0.9118800E+02  0.7818609E-02  0.1379984E+01
      -11   -1    0    0    0    0  0.00000000000E+00  0.00000000000E+00  0.35740347158E-01  0.35744000000E-01  0.51099999109E-03 0.  1.
       11   -1    0    0    0    0 -0.00000000000E+00 -0.00000000000E+00 -0.35740347158E-01  0.35744000000E-01  0.51099999109E-03 0. -1.
       22    1    1    2    0    0 -0.30902936751E-02  0.13705983349E-01 -0.32859240562E-01  0.35737005818E-01  0.00000000000E+00 0. -1.
  9000001    1    1    2    0    0  0.30902936751E-02 -0.13705983349E-01  0.32859240562E-01  0.35750994182E-01  0.10000000475E-02 0.  1.
</event>
<event>
 4   0  0.4958067E-02  0.9118800E+02  0.7818609E-02  0.1379984E+01
      -11   -1    0    0    0    0  0.00000000000E+00  0.00000000000E+00  0.35740347158E-01  0.35744000000E-01  0.51099999109E-03 0. -1.
       11   -1    0    0    0    0 -0.00000000000E+00 -0.00000000000E+00 -0.35740347158E-01  0.35744000000E-01  0.51099999109E-03 0.  1.
       22    1    1    2    0    0 -0.16014893580E-01 -0.48550170767E-03 -0.31944030061E-01  0.35737005818E-01  0.00000000000E+00 0.  1.
  9000001    1    1    2    0    0  0.16014893580E-01  0.48550170767E-03  0.31944030061E-01  0.35750994182E-01  0.10000000475E-02 0. -1.
</event>
<event>
 4   0  0.4958067E-02  0.9118800E+02  0.7818609E-02  0.1379984E+01
      -11   -1    0    0    0    0  0.00000000000E+00  0.00000000000E+00  0.35740347158E-01  0.35744000000E-01  0.51099999109E-03 0. -1.
       11   -1    0    0    0    0 -0.00000000000E+00 -0.00000000000E+00 -0.35740347158E-01  0.35744000000E-01  0.51099999109E-03 0.  1.
       22    1    1    2    0    0  0.25709536641E-01 -0.38421984649E-02  0.24523271020E-01  0.35737005818E-01  0.00000000000E+00 0. -1.
  9000001    1    1    2    0    0 -0.25709536641E-01  0.38421984649E-02 -0.24523271020E-01  0.35750994182E-01  0.10000000475E-02 0.  1.
</event>
<event>
 4   0  0.4958067E-02  0.9118800E+02  0.7818609E-02  0.1379984E+01
      -11   -1    0    0    0    0  0.00000000000E+00  0.00000000000E+00  0.35740347158E-01  0.35744000000E-01  0.51099999109E-03 0.  1.
       11   -1    0    0    0    0 -0.00000000000E+00 -0.00000000000E+00 -0.35740347158E-01  0.35744000000E-01  0.51099999109E-03 0.  1.
       22    1    1    2    0    0 -0.24833022902E-02  0.31372772009E-02 -0.35512311758E-01  0.35737005818E-01  0.00000000000E+00 0.  1.
  9000001    1    1    2    0    0  0.24833022902E-02 -0.31372772009E-02  0.35512311758E-01  0.35750994182E-01  0.10000000475E-02 0.  1.
</event>
<event>
 4   0  0.4958067E-02  0.9118800E+02  0.7818609E-02  0.1379984E+01
      -11   -1    0    0    0    0  0.00000000000E+00  0.00000000000E+00  0.35740347158E-01  0.35744000000E-01  0.51099999109E-03 0. -1.
       11   -1    0    0    0    0 -0.00000000000E+00 -0.00000000000E+00 -0.35740347158E-01  0.35744000000E-01  0.51099999109E-03 0.  1.
       22    1    1    2    0    0  0.17668108714E-01 -0.15193139940E-02 -0.31026814279E-01  0.35737005818E-01  0.00000000000E+00 0.  1.
  9000001    1    1    2    0    0 -0.17668108714E-01  0.15193139940E-02  0.31026814279E-01  0.35750994182E-01  0.10000000475E-02 0. -1.
</event>
<event>
 4   0  0.4958067E-02  0.9118800E+02  0.7818609E-02  0.1379984E+01
      -11   -1    0    0    0    0  0.00000000000E+00  0.00000000000E+00  0.35740347158E-01  0.35744000000E-01  0.51099999109E-03 0. -1.
       11   -1    0    0    0    0 -0.00000000000E+00 -0.00000000000E+00 -0.35740347158E-01  0.35744000000E-01  0.51099999109E-03 0.  1.
       22    1    1    2    0    0  0.16525015317E-02 -0.26123704641E-02  0.35603066499E-01  0.35737005818E-01  0.00000000000E+00 0. -1.
  9000001    1    1    2    0    0 -0.16525015317E-02  0.26123704641E-02 -0.35603066499E-01  0.35750994182E-01  0.10000000475E-02 0.  1.
</event>
<event>
 4   0  0.4958067E-02  0.9118800E+02  0.7818609E-02  0.1379984E+01
      -11   -1    0    0    0    0  0.00000000000E+00  0.00000000000E+00  0.35740347158E-01  0.35744000000E-01  0.51099999109E-03 0. -1.
       11   -1    0    0    0    0 -0.00000000000E+00 -0.00000000000E+00 -0.35740347158E-01  0.35744000000E-01  0.51099999109E-03 0.  1.
       22    1    1    2    0    0 -0.59265652522E-02 -0.24774009846E-01 -0.25065072219E-01  0.35737005818E-01  0.00000000000E+00 0.  1.
  9000001    1    1    2    0    0  0.59265652522E-02  0.24774009846E-01  0.25065072219E-01  0.35750994182E-01  0.10000000475E-02 0. -1.
</event>
<event>
 4   0  0.4958067E-02  0.9118800E+02  0.7818609E-02  0.1379984E+01
      -11   -1    0    0    0    0  0.00000000000E+00  0.00000000000E+00  0.35740347158E-01  0.35744000000E-01  0.51099999109E-03 0. -1.
       11   -1    0    0    0    0 -0.00000000000E+00 -0.00000000000E+00 -0.35740347158E-01  0.35744000000E-01  0.51099999109E-03 0.  1.
       22    1    1    2    0    0 -0.30748552047E-01 -0.18190056608E-01 -0.88429205886E-03  0.35737005818E-01  0.00000000000E+00 0.  1.
  9000001    1    1    2    0    0  0.30748552047E-01  0.18190056608E-01  0.88429205886E-03  0.35750994182E-01  0.10000000475E-02 0. -1.
</event>
<event>
 4   0  0.4958067E-02  0.9118800E+02  0.7818609E-02  0.1379984E+01
      -11   -1    0    0    0    0  0.00000000000E+00  0.00000000000E+00  0.35740347158E-01  0.35744000000E-01  0.51099999109E-03 0. -1.
       11   -1    0    0    0    0 -0.00000000000E+00 -0.00000000000E+00 -0.35740347158E-01  0.35744000000E-01  0.51099999109E-03 0.  1.
       22    1    1    2    0    0 -0.43420826443E-02  0.51044164086E-02  0.35103060213E-01  0.35737005818E-01  0.00000000000E+00 0. -1.
  9000001    1    1    2    0    0  0.43420826443E-02 -0.51044164086E-02 -0.35103060213E-01  0.35750994182E-01  0.10000000475E-02 0.  1.
</event>
<event>
 4   0  0.4958067E-02  0.9118800E+02  0.7818609E-02  0.1379984E+01
      -11   -1    0    0    0    0  0.00000000000E+00  0.00000000000E+00  0.35740347158E-01  0.35744000000E-01  0.51099999109E-03 0.  1.
       11   -1    0    0    0    0 -0.00000000000E+00 -0.00000000000E+00 -0.35740347158E-01  0.35744000000E-01  0.51099999109E-03 0. -1.
       22    1    1    2    0    0  0.61212609452E-03 -0.42481317742E-02 -0.35478335121E-01  0.35737005818E-01  0.00000000000E+00 0. -1.
  9000001    1    1    2    0    0 -0.61212609452E-03  0.42481317742E-02  0.35478335121E-01  0.35750994182E-01  0.10000000475E-02 0.  1.
</event>
<event>
 4   0  0.4958067E-02  0.9118800E+02  0.7818609E-02  0.1379984E+01
      -11   -1    0    0    0    0  0.00000000000E+00  0.00000000000E+00  0.35740347158E-01  0.35744000000E-01  0.51099999109E-03 0. -1.
       11   -1    0    0    0    0 -0.00000000000E+00 -0.00000000000E+00 -0.35740347158E-01  0.35744000000E-01  0.51099999109E-03 0.  1.
       22    1    1    2    0    0 -0.14181268691E-01  0.27340917637E-01  0.18124553124E-01  0.35737005818E-01  0.00000000000E+00 0. -1.
  9000001    1    1    2    0    0  0.14181268691E-01 -0.27340917637E-01 -0.18124553124E-01  0.35750994182E-01  0.10000000475E-02 0.  1.
</event>
<event>
 4   0  0.4958067E-02  0.9118800E+02  0.7818609E-02  0.1379984E+01
      -11   -1    0    0    0    0  0.00000000000E+00  0.00000000000E+00  0.35740347158E-01  0.35744000000E-01  0.51099999109E-03 0. -1.
       11   -1    0    0    0    0 -0.00000000000E+00 -0.00000000000E+00 -0.35740347158E-01  0.35744000000E-01  0.51099999109E-03 0.  1.
       22    1    1    2    0    0  0.55594433006E-02  0.39264416454E-02  0.35082890860E-01  0.35737005818E-01  0.00000000000E+00 0. -1.
  9000001    1    1    2    0    0 -0.55594433006E-02 -0.39264416454E-02 -0.35082890860E-01  0.35750994182E-01  0.10000000475E-02 0.  1.
</event>
<event>
 4   0  0.4958067E-02  0.9118800E+02  0.7818609E-02  0.1379984E+01
      -11   -1    0    0    0    0  0.00000000000E+00  0.00000000000E+00  0.35740347158E-01  0.35744000000E-01  0.51099999109E-03 0.  1.
       11   -1    0    0    0    0 -0.00000000000E+00 -0.00000000000E+00 -0.35740347158E-01  0.35744000000E-01  0.51099999109E-03 0. -1.
       22    1    1    2    0    0  0.22462437509E-02 -0.39299697926E-02  0.35449165171E-01  0.35737005818E-01  0.00000000000E+00 0.  1.
  9000001    1    1    2    0    0 -0.22462437509E-02  0.39299697926E-02 -0.35449165171E-01  0.35750994182E-01  0.10000000475E-02 0. -1.
</event>
<event>
 4   0  0.4958067E-02  0.9118800E+02  0.7818609E-02  0.1379984E+01
      -11   -1    0    0    0    0  0.00000000000E+00  0.00000000000E+00  0.35740347158E-01  0.35744000000E-01  0.51099999109E-03 0.  1.
       11   -1    0    0    0    0 -0.00000000000E+00 -0.00000000000E+00 -0.35740347158E-01  0.35744000000E-01  0.51099999109E-03 0. -1.
       22    1    1    2    0    0  0.20632047972E-01 -0.22779852655E-01  0.18235418679E-01  0.35737005818E-01  0.00000000000E+00 0.  1.
  9000001    1    1    2    0    0 -0.20632047972E-01  0.22779852655E-01 -0.18235418679E-01  0.35750994182E-01  0.10000000475E-02 0. -1.
</event>
<event>
 4   0  0.4958067E-02  0.9118800E+02  0.7818609E-02  0.1379984E+01
      -11   -1    0    0    0    0  0.00000000000E+00  0.00000000000E+00  0.35740347158E-01  0.35744000000E-01  0.51099999109E-03 0.  1.
       11   -1    0    0    0    0 -0.00000000000E+00 -0.00000000000E+00 -0.35740347158E-01  0.35744000000E-01  0.51099999109E-03 0. -1.
       22    1    1    2    0    0  0.14039612801E-01 -0.94315192813E-02 -0.31481253173E-01  0.35737005818E-01  0.00000000000E+00 0. -1.
  9000001    1    1    2    0    0 -0.14039612801E-01  0.94315192813E-02  0.31481253173E-01  0.35750994182E-01  0.10000000475E-02 0.  1.
</event>
<event>
 4   0  0.4958067E-02  0.9118800E+02  0.7818609E-02  0.1379984E+01
      -11   -1    0    0    0    0  0.00000000000E+00  0.00000000000E+00  0.35740347158E-01  0.35744000000E-01  0.51099999109E-03 0. -1.
       11   -1    0    0    0    0 -0.00000000000E+00 -0.00000000000E+00 -0.35740347158E-01  0.35744000000E-01  0.51099999109E-03 0.  1.
       22    1    1    2    0    0 -0.28188521517E-02  0.25970534813E-02 -0.35530873485E-01  0.35737005818E-01  0.00000000000E+00 0.  1.
  9000001    1    1    2    0    0  0.28188521517E-02 -0.25970534813E-02  0.35530873485E-01  0.35750994182E-01  0.10000000475E-02 0. -1.
</event>
<event>
 4   0  0.4958067E-02  0.9118800E+02  0.7818609E-02  0.1379984E+01
      -11   -1    0    0    0    0  0.00000000000E+00  0.00000000000E+00  0.35740347158E-01  0.35744000000E-01  0.51099999109E-03 0.  1.
       11   -1    0    0    0    0 -0.00000000000E+00 -0.00000000000E+00 -0.35740347158E-01  0.35744000000E-01  0.51099999109E-03 0. -1.
       22    1    1    2    0    0 -0.19099017249E-02 -0.68889551038E-02  0.35014684889E-01  0.35737005818E-01  0.00000000000E+00 0.  1.
  9000001    1    1    2    0    0  0.19099017249E-02  0.68889551038E-02 -0.35014684889E-01  0.35750994182E-01  0.10000000475E-02 0. -1.
</event>
<event>
 4   0  0.4958067E-02  0.9118800E+02  0.7818609E-02  0.1379984E+01
      -11   -1    0    0    0    0  0.00000000000E+00  0.00000000000E+00  0.35740347158E-01  0.35744000000E-01  0.51099999109E-03 0.  1.
       11   -1    0    0    0    0 -0.00000000000E+00 -0.00000000000E+00 -0.35740347158E-01  0.35744000000E-01  0.51099999109E-03 0. -1.
       22    1    1    2    0    0 -0.17262205670E-02  0.69764722017E-02 -0.35006893365E-01  0.35737005818E-01  0.00000000000E+00 0. -1.
  9000001    1    1    2    0    0  0.17262205670E-02 -0.69764722017E-02  0.35006893365E-01  0.35750994182E-01  0.10000000475E-02 0.  1.
</event>
<event>
 4   0  0.4958067E-02  0.9118800E+02  0.7818609E-02  0.1379984E+01
      -11   -1    0    0    0    0  0.00000000000E+00  0.00000000000E+00  0.35740347158E-01  0.35744000000E-01  0.51099999109E-03 0.  1.
       11   -1    0    0    0    0 -0.00000000000E+00 -0.00000000000E+00 -0.35740347158E-01  0.35744000000E-01  0.51099999109E-03 0. -1.
       22    1    1    2    0    0 -0.11014549280E-01  0.53730893272E-02  0.33569974681E-01  0.35737005818E-01  0.00000000000E+00 0.  1.
  9000001    1    1    2    0    0  0.11014549280E-01 -0.53730893272E-02 -0.33569974681E-01  0.35750994182E-01  0.10000000475E-02 0. -1.
</event>
<event>
 4   0  0.4958067E-02  0.9118800E+02  0.7818609E-02  0.1379984E+01
      -11   -1    0    0    0    0  0.00000000000E+00  0.00000000000E+00  0.35740347158E-01  0.35744000000E-01  0.51099999109E-03 0.  1.
       11   -1    0    0    0    0 -0.00000000000E+00 -0.00000000000E+00 -0.35740347158E-01  0.35744000000E-01  0.51099999109E-03 0. -1.
       22    1    1    2    0    0  0.50964942284E-02 -0.51195601410E-02  0.34999277641E-01  0.35737005818E-01  0.00000000000E+00 0.  1.
  9000001    1    1    2    0    0 -0.50964942284E-02  0.51195601410E-02 -0.34999277641E-01  0.35750994182E-01  0.10000000475E-02 0. -1.
</event>
<event>
 4   0  0.4958067E-02  0.9118800E+02  0.7818609E-02  0.1379984E+01
      -11   -1    0    0    0    0  0.00000000000E+00  0.00000000000E+00  0.35740347158E-01  0.35744000000E-01  0.51099999109E-03 0.  1.
       11   -1    0    0    0    0 -0.00000000000E+00 -0.00000000000E+00 -0.35740347158E-01  0.35744000000E-01  0.51099999109E-03 0. -1.
       22    1    1    2    0    0  0.63897894869E-02 -0.48684188664E-02  0.34822444959E-01  0.35737005818E-01  0.00000000000E+00 0.  1.
  9000001    1    1    2    0    0 -0.63897894869E-02  0.48684188664E-02 -0.34822444959E-01  0.35750994182E-01  0.10000000475E-02 0. -1.
</event>
<event>
 4   0  0.4958067E-02  0.9118800E+02  0.7818609E-02  0.1379984E+01
      -11   -1    0    0    0    0  0.00000000000E+00  0.00000000000E+00  0.35740347158E-01  0.35744000000E-01  0.51099999109E-03 0.  1.
       11   -1    0    0    0    0 -0.00000000000E+00 -0.00000000000E+00 -0.35740347158E-01  0.35744000000E-01  0.51099999109E-03 0. -1.
       22    1    1    2    0    0 -0.19913409368E-01 -0.16817795235E-02 -0.29627037142E-01  0.35737005818E-01  0.00000000000E+00 0. -1.
  9000001    1    1    2    0    0  0.19913409368E-01  0.16817795235E-02  0.29627037142E-01  0.35750994182E-01  0.10000000475E-02 0.  1.
</event>
<event>
 4   0  0.4958067E-02  0.9118800E+02  0.7818609E-02  0.1379984E+01
      -11   -1    0    0    0    0  0.00000000000E+00  0.00000000000E+00  0.35740347158E-01  0.35744000000E-01  0.51099999109E-03 0. -1.
       11   -1    0    0    0    0 -0.00000000000E+00 -0.00000000000E+00 -0.35740347158E-01  0.35744000000E-01  0.51099999109E-03 0.  1.
       22    1    1    2    0    0  0.10047789667E-01  0.27417762101E-01 -0.20601986047E-01  0.35737005818E-01  0.00000000000E+00 0.  1.
  9000001    1    1    2    0    0 -0.10047789667E-01 -0.27417762101E-01  0.20601986047E-01  0.35750994182E-01  0.10000000475E-02 0. -1.
</event>
<event>
 4   0  0.4958067E-02  0.9118800E+02  0.7818609E-02  0.1379984E+01
      -11   -1    0    0    0    0  0.00000000000E+00  0.00000000000E+00  0.35740347158E-01  0.35744000000E-01  0.51099999109E-03 0. -1.
       11   -1    0    0    0    0 -0.00000000000E+00 -0.00000000000E+00 -0.35740347158E-01  0.35744000000E-01  0.51099999109E-03 0.  1.
       22    1    1    2    0    0 -0.36717974629E-02 -0.99721518845E-03  0.35533885942E-01  0.35737005818E-01  0.00000000000E+00 0. -1.
  9000001    1    1    2    0    0  0.36717974629E-02  0.99721518845E-03 -0.35533885942E-01  0.35750994182E-01  0.10000000475E-02 0.  1.
</event>
<event>
 4   0  0.4958067E-02  0.9118800E+02  0.7818609E-02  0.1379984E+01
      -11   -1    0    0    0    0  0.00000000000E+00  0.00000000000E+00  0.35740347158E-01  0.35744000000E-01  0.51099999109E-03 0. -1.
       11   -1    0    0    0    0 -0.00000000000E+00 -0.00000000000E+00 -0.35740347158E-01  0.35744000000E-01  0.51099999109E-03 0.  1.
       22    1    1    2    0    0  0.30112789389E-02 -0.34414580885E-02 -0.35443224321E-01  0.35737005818E-01  0.00000000000E+00 0.  1.
  9000001    1    1    2    0    0 -0.30112789389E-02  0.34414580885E-02  0.35443224321E-01  0.35750994182E-01  0.10000000475E-02 0. -1.
</event>
<event>
 4   0  0.4958067E-02  0.9118800E+02  0.7818609E-02  0.1379984E+01
      -11   -1    0    0    0    0  0.00000000000E+00  0.00000000000E+00  0.35740347158E-01  0.35744000000E-01  0.51099999109E-03 0. -1.
       11   -1    0    0    0    0 -0.00000000000E+00 -0.00000000000E+00 -0.35740347158E-01  0.35744000000E-01  0.51099999109E-03 0.  1.
       22    1    1    2    0    0 -0.16448451538E-02  0.90867129907E-02  0.34523321340E-01  0.35737005818E-01  0.00000000000E+00 0. -1.
  9000001    1    1    2    0    0  0.16448451538E-02 -0.90867129907E-02 -0.34523321340E-01  0.35750994182E-01  0.10000000475E-02 0.  1.
</event>
<event>
 4   0  0.4958067E-02  0.9118800E+02  0.7818609E-02  0.1379984E+01
      -11   -1    0    0    0    0  0.00000000000E+00  0.00000000000E+00  0.35740347158E-01  0.35744000000E-01  0.51099999109E-03 0. -1.
       11   -1    0    0    0    0 -0.00000000000E+00 -0.00000000000E+00 -0.35740347158E-01  0.35744000000E-01  0.51099999109E-03 0.  1.
       22    1    1    2    0    0 -0.27787615339E-02  0.15531655921E-01 -0.32065241829E-01  0.35737005818E-01  0.00000000000E+00 0.  1.
  9000001    1    1    2    0    0  0.27787615339E-02 -0.15531655921E-01  0.32065241829E-01  0.35750994182E-01  0.10000000475E-02 0. -1.
</event>
<event>
 4   0  0.4958067E-02  0.9118800E+02  0.7818609E-02  0.1379984E+01
      -11   -1    0    0    0    0  0.00000000000E+00  0.00000000000E+00  0.35740347158E-01  0.35744000000E-01  0.51099999109E-03 0. -1.
       11   -1    0    0    0    0 -0.00000000000E+00 -0.00000000000E+00 -0.35740347158E-01  0.35744000000E-01  0.51099999109E-03 0.  1.
       22    1    1    2    0    0  0.16108483415E-02  0.26475213412E-02 -0.35602378899E-01  0.35737005818E-01  0.00000000000E+00 0.  1.
  9000001    1    1    2    0    0 -0.16108483415E-02 -0.26475213412E-02  0.35602378899E-01  0.35750994182E-01  0.10000000475E-02 0. -1.
</event>
<event>
 4   0  0.4958067E-02  0.9118800E+02  0.7818609E-02  0.1379984E+01
      -11   -1    0    0    0    0  0.00000000000E+00  0.00000000000E+00  0.35740347158E-01  0.35744000000E-01  0.51099999109E-03 0.  1.
       11   -1    0    0    0    0 -0.00000000000E+00 -0.00000000000E+00 -0.35740347158E-01  0.35744000000E-01  0.51099999109E-03 0. -1.
       22    1    1    2    0    0 -0.21127131572E-01  0.84503290698E-02 -0.27556665891E-01  0.35737005818E-01  0.00000000000E+00 0. -1.
  9000001    1    1    2    0    0  0.21127131572E-01 -0.84503290698E-02  0.27556665891E-01  0.35750994182E-01  0.10000000475E-02 0.  1.
</event>
<event>
 4   0  0.4958067E-02  0.9118800E+02  0.7818609E-02  0.1379984E+01
      -11   -1    0    0    0    0  0.00000000000E+00  0.00000000000E+00  0.35740347158E-01  0.35744000000E-01  0.51099999109E-03 0.  1.
       11   -1    0    0    0    0 -0.00000000000E+00 -0.00000000000E+00 -0.35740347158E-01  0.35744000000E-01  0.51099999109E-03 0. -1.
       22    1    1    2    0    0  0.44001567292E-02  0.53934905618E-02  0.35052567170E-01  0.35737005818E-01  0.00000000000E+00 0.  1.
  9000001    1    1    2    0    0 -0.44001567292E-02 -0.53934905618E-02 -0.35052567170E-01  0.35750994182E-01  0.10000000475E-02 0. -1.
</event>
<event>
 4   0  0.4958067E-02  0.9118800E+02  0.7818609E-02  0.1379984E+01
      -11   -1    0    0    0    0  0.00000000000E+00  0.00000000000E+00  0.35740347158E-01  0.35744000000E-01  0.51099999109E-03 0.  1.
       11   -1    0    0    0    0 -0.00000000000E+00 -0.00000000000E+00 -0.35740347158E-01  0.35744000000E-01  0.51099999109E-03 0. -1.
       22    1    1    2    0    0  0.41194162926E-02 -0.74630476570E-03 -0.35490942837E-01  0.35737005818E-01  0.00000000000E+00 0. -1.
  9000001    1    1    2    0    0 -0.41194162926E-02  0.74630476570E-03  0.35490942837E-01  0.35750994182E-01  0.10000000475E-02 0.  1.
</event>
<event>
 4   0  0.4958067E-02  0.9118800E+02  0.7818609E-02  0.1379984E+01
      -11   -1    0    0    0    0  0.00000000000E+00  0.00000000000E+00  0.35740347158E-01  0.35744000000E-01  0.51099999109E-03 0.  1.
       11   -1    0    0    0    0 -0.00000000000E+00 -0.00000000000E+00 -0.35740347158E-01  0.35744000000E-01  0.51099999109E-03 0. -1.
       22    1    1    2    0    0  0.15529122356E-01  0.31227193901E-01 -0.78001477398E-02  0.35737005818E-01  0.00000000000E+00 0.  1.
  9000001    1    1    2    0    0 -0.15529122356E-01 -0.31227193901E-01  0.78001477398E-02  0.35750994182E-01  0.10000000475E-02 0. -1.
</event>
<event>
 4   0  0.4958067E-02  0.9118800E+02  0.7818609E-02  0.1379984E+01
      -11   -1    0    0    0    0  0.00000000000E+00  0.00000000000E+00  0.35740347158E-01  0.35744000000E-01  0.51099999109E-03 0. -1.
       11   -1    0    0    0    0 -0.00000000000E+00 -0.00000000000E+00 -0.35740347158E-01  0.35744000000E-01  0.51099999109E-03 0.  1.
       22    1    1    2    0    0 -0.13580703405E-01  0.14496380019E-01  0.29707794368E-01  0.35737005818E-01  0.00000000000E+00 0. -1.
  9000001    1    1    2    0    0  0.13580703405E-01 -0.14496380019E-01 -0.29707794368E-01  0.35750994182E-01  0.10000000475E-02 0.  1.
</event>
<event>
 4   0  0.4958067E-02  0.9118800E+02  0.7818609E-02  0.1379984E+01
      -11   -1    0    0    0    0  0.00000000000E+00  0.00000000000E+00  0.35740347158E-01  0.35744000000E-01  0.51099999109E-03 0.  1.
       11   -1    0    0    0    0 -0.00000000000E+00 -0.00000000000E+00 -0.35740347158E-01  0.35744000000E-01  0.51099999109E-03 0. -1.
       22    1    1    2    0    0 -0.59719090828E-02  0.22010735165E-01 -0.27513586176E-01  0.35737005818E-01  0.00000000000E+00 0. -1.
  9000001    1    1    2    0    0  0.59719090828E-02 -0.22010735165E-01  0.27513586176E-01  0.35750994182E-01  0.10000000475E-02 0.  1.
</event>
<event>
 4   0  0.4958067E-02  0.9118800E+02  0.7818609E-02  0.1379984E+01
      -11   -1    0    0    0    0  0.00000000000E+00  0.00000000000E+00  0.35740347158E-01  0.35744000000E-01  0.51099999109E-03 0. -1.
       11   -1    0    0    0    0 -0.00000000000E+00 -0.00000000000E+00 -0.35740347158E-01  0.35744000000E-01  0.51099999109E-03 0.  1.
       22    1    1    2    0    0 -0.21459867365E-01 -0.13505779737E-01 -0.25183359411E-01  0.35737005818E-01  0.00000000000E+00 0.  1.
  9000001    1    1    2    0    0  0.21459867365E-01  0.13505779737E-01  0.25183359411E-01  0.35750994182E-01  0.10000000475E-02 0. -1.
</event>
<event>
 4   0  0.4958067E-02  0.9118800E+02  0.7818609E-02  0.1379984E+01
      -11   -1    0    0    0    0  0.00000000000E+00  0.00000000000E+00  0.35740347158E-01  0.35744000000E-01  0.51099999109E-03 0.  1.
       11   -1    0    0    0    0 -0.00000000000E+00 -0.00000000000E+00 -0.35740347158E-01  0.35744000000E-01  0.51099999109E-03 0. -1.
       22    1    1    2    0    0 -0.14369185329E-02 -0.28581939124E-02 -0.35593532805E-01  0.35737005818E-01  0.00000000000E+00 0. -1.
  9000001    1    1    2    0    0  0.14369185329E-02  0.28581939124E-02  0.35593532805E-01  0.35750994182E-01  0.10000000475E-02 0.  1.
</event>
<event>
 4   0  0.4958067E-02  0.9118800E+02  0.7818609E-02  0.1379984E+01
      -11   -1    0    0    0    0  0.00000000000E+00  0.00000000000E+00  0.35740347158E-01  0.35744000000E-01  0.51099999109E-03 0.  1.
       11   -1    0    0    0    0 -0.00000000000E+00 -0.00000000000E+00 -0.35740347158E-01  0.35744000000E-01  0.51099999109E-03 0. -1.
       22    1    1    2    0    0  0.77458831738E-03  0.80817769440E-02  0.34802564262E-01  0.35737005818E-01  0.00000000000E+00 0.  1.
  9000001    1    1    2    0    0 -0.77458831738E-03 -0.80817769440E-02 -0.34802564262E-01  0.35750994182E-01  0.10000000475E-02 0. -1.
</event>
<event>
 4   0  0.4958067E-02  0.9118800E+02  0.7818609E-02  0.1379984E+01
      -11   -1    0    0    0    0  0.00000000000E+00  0.00000000000E+00  0.35740347158E-01  0.35744000000E-01  0.51099999109E-03 0. -1.
       11   -1    0    0    0    0 -0.00000000000E+00 -0.00000000000E+00 -0.35740347158E-01  0.35744000000E-01  0.51099999109E-03 0.  1.
       22    1    1    2    0    0 -0.91530551785E-02  0.12602536193E-01 -0.32164129823E-01  0.35737005818E-01  0.00000000000E+00 0.  1.
  9000001    1    1    2    0    0  0.91530551785E-02 -0.12602536193E-01  0.32164129823E-01  0.35750994182E-01  0.10000000475E-02 0. -1.
</event>
<event>
 4   0  0.4958067E-02  0.9118800E+02  0.7818609E-02  0.1379984E+01
      -11   -1    0    0    0    0  0.00000000000E+00  0.00000000000E+00  0.35740347158E-01  0.35744000000E-01  0.51099999109E-03 0.  1.
       11   -1    0    0    0    0 -0.00000000000E+00 -0.00000000000E+00 -0.35740347158E-01  0.35744000000E-01  0.51099999109E-03 0. -1.
       22    1    1    2    0    0 -0.18077217346E-01  0.29726542647E-01  0.81658104412E-02  0.35737005818E-01  0.00000000000E+00 0. -1.
  9000001    1    1    2    0    0  0.18077217346E-01 -0.29726542647E-01 -0.81658104412E-02  0.35750994182E-01  0.10000000475E-02 0.  1.
</event>
<event>
 4   0  0.4958067E-02  0.9118800E+02  0.7818609E-02  0.1379984E+01
      -11   -1    0    0    0    0  0.00000000000E+00  0.00000000000E+00  0.35740347158E-01  0.35744000000E-01  0.51099999109E-03 0. -1.
       11   -1    0    0    0    0 -0.00000000000E+00 -0.00000000000E+00 -0.35740347158E-01  0.35744000000E-01  0.51099999109E-03 0.  1.
       22    1    1    2    0    0  0.22485772404E-01  0.25857802489E-01 -0.10143849107E-01  0.35737005818E-01  0.00000000000E+00 0.  1.
  9000001    1    1    2    0    0 -0.22485772404E-01 -0.25857802489E-01  0.10143849107E-01  0.35750994182E-01  0.10000000475E-02 0. -1.
</event>
<event>
 4   0  0.4958067E-02  0.9118800E+02  0.7818609E-02  0.1379984E+01
      -11   -1    0    0    0    0  0.00000000000E+00  0.00000000000E+00  0.35740347158E-01  0.35744000000E-01  0.51099999109E-03 0. -1.
       11   -1    0    0    0    0 -0.00000000000E+00 -0.00000000000E+00 -0.35740347158E-01  0.35744000000E-01  0.51099999109E-03 0.  1.
       22    1    1    2    0    0  0.45500408981E-02 -0.92580113204E-03  0.35434074067E-01  0.35737005818E-01  0.00000000000E+00 0. -1.
  9000001    1    1    2    0    0 -0.45500408981E-02  0.92580113204E-03 -0.35434074067E-01  0.35750994182E-01  0.10000000475E-02 0.  1.
</event>
<event>
 4   0  0.4958067E-02  0.9118800E+02  0.7818609E-02  0.1379984E+01
      -11   -1    0    0    0    0  0.00000000000E+00  0.00000000000E+00  0.35740347158E-01  0.35744000000E-01  0.51099999109E-03 0.  1.
       11   -1    0    0    0    0 -0.00000000000E+00 -0.00000000000E+00 -0.35740347158E-01  0.35744000000E-01  0.51099999109E-03 0. -1.
       22    1    1    2    0    0  0.15486747994E-02 -0.12540133509E-01  0.33428733790E-01  0.35737005818E-01  0.00000000000E+00 0.  1.
  9000001    1    1    2    0    0 -0.15486747994E-02  0.12540133509E-01 -0.33428733790E-01  0.35750994182E-01  0.10000000475E-02 0. -1.
</event>
<event>
 4   0  0.4958067E-02  0.9118800E+02  0.7818609E-02  0.1379984E+01
      -11   -1    0    0    0    0  0.00000000000E+00  0.00000000000E+00  0.35740347158E-01  0.35744000000E-01  0.51099999109E-03 0.  1.
       11   -1    0    0    0    0 -0.00000000000E+00 -0.00000000000E+00 -0.35740347158E-01  0.35744000000E-01  0.51099999109E-03 0. -1.
       22    1    1    2    0    0 -0.11794313958E-02 -0.48561178642E-02 -0.35385882012E-01  0.35737005818E-01  0.00000000000E+00 0. -1.
  9000001    1    1    2    0    0  0.11794313958E-02  0.48561178642E-02  0.35385882012E-01  0.35750994182E-01  0.10000000475E-02 0.  1.
</event>
<event>
 4   0  0.4958067E-02  0.9118800E+02  0.7818609E-02  0.1379984E+01
      -11   -1    0    0    0    0  0.00000000000E+00  0.00000000000E+00  0.35740347158E-01  0.35744000000E-01  0.51099999109E-03 0. -1.
       11   -1    0    0    0    0 -0.00000000000E+00 -0.00000000000E+00 -0.35740347158E-01  0.35744000000E-01  0.51099999109E-03 0.  1.
       22    1    1    2    0    0 -0.54213847681E-02 -0.86906195861E-02  0.34237629931E-01  0.35737005818E-01  0.00000000000E+00 0. -1.
  9000001    1    1    2    0    0  0.54213847681E-02  0.86906195861E-02 -0.34237629931E-01  0.35750994182E-01  0.10000000475E-02 0.  1.
</event>
<event>
 4   0  0.4958067E-02  0.9118800E+02  0.7818609E-02  0.1379984E+01
      -11   -1    0    0    0    0  0.00000000000E+00  0.00000000000E+00  0.35740347158E-01  0.35744000000E-01  0.51099999109E-03 0.  1.
       11   -1    0    0    0    0 -0.00000000000E+00 -0.00000000000E+00 -0.35740347158E-01  0.35744000000E-01  0.51099999109E-03 0. -1.
       22    1    1    2    0    0  0.38569026698E-02 -0.10408131477E-01  0.33969525840E-01  0.35737005818E-01  0.00000000000E+00 0.  1.
  9000001    1    1    2    0    0 -0.38569026698E-02  0.10408131477E-01 -0.33969525840E-01  0.35750994182E-01  0.10000000475E-02 0. -1.
</event>
<event>
 4   0  0.4958067E-02  0.9118800E+02  0.7818609E-02  0.1379984E+01
      -11   -1    0    0    0    0  0.00000000000E+00  0.00000000000E+00  0.35740347158E-01  0.35744000000E-01  0.51099999109E-03 0. -1.
       11   -1    0    0    0    0 -0.00000000000E+00 -0.00000000000E+00 -0.35740347158E-01  0.35744000000E-01  0.51099999109E-03 0.  1.
       22    1    1    2    0    0  0.33918810631E-02 -0.35539475708E-01  0.16044918499E-02  0.35737005818E-01  0.00000000000E+00 0.  1.
  9000001    1    1    2    0    0 -0.33918810631E-02  0.35539475708E-01 -0.16044918499E-02  0.35750994182E-01  0.10000000475E-02 0. -1.
</event>
<event>
 4   0  0.4958067E-02  0.9118800E+02  0.7818609E-02  0.1379984E+01
      -11   -1    0    0    0    0  0.00000000000E+00  0.00000000000E+00  0.35740347158E-01  0.35744000000E-01  0.51099999109E-03 0.  1.
       11   -1    0    0    0    0 -0.00000000000E+00 -0.00000000000E+00 -0.35740347158E-01  0.35744000000E-01  0.51099999109E-03 0. -1.
       22    1    1    2    0    0 -0.63291416855E-02 -0.78028670335E-02  0.34295638447E-01  0.35737005818E-01  0.00000000000E+00 0.  1.
  9000001    1    1    2    0    0  0.63291416855E-02  0.78028670335E-02 -0.34295638447E-01  0.35750994182E-01  0.10000000475E-02 0. -1.
</event>
<event>
 4   0  0.4958067E-02  0.9118800E+02  0.7818609E-02  0.1379984E+01
      -11   -1    0    0    0    0  0.00000000000E+00  0.00000000000E+00  0.35740347158E-01  0.35744000000E-01  0.51099999109E-03 0. -1.
       11   -1    0    0    0    0 -0.00000000000E+00 -0.00000000000E+00 -0.35740347158E-01  0.35744000000E-01  0.51099999109E-03 0.  1.
       22    1    1    2    0    0 -0.35593277581E-02 -0.78104262319E-03 -0.35550734777E-01  0.35737005818E-01  0.00000000000E+00 0.  1.
  9000001    1    1    2    0    0  0.35593277581E-02  0.78104262319E-03  0.35550734777E-01  0.35750994182E-01  0.10000000475E-02 0. -1.
</event>
<event>
 4   0  0.4958067E-02  0.9118800E+02  0.7818609E-02  0.1379984E+01
      -11   -1    0    0    0    0  0.00000000000E+00  0.00000000000E+00  0.35740347158E-01  0.35744000000E-01  0.51099999109E-03 0.  1.
       11   -1    0    0    0    0 -0.00000000000E+00 -0.00000000000E+00 -0.35740347158E-01  0.35744000000E-01  0.51099999109E-03 0. -1.
       22    1    1    2    0    0 -0.20382516001E-01  0.22549376805E-01  0.18793941365E-01  0.35737005818E-01  0.00000000000E+00 0.  1.
  9000001    1    1    2    0    0  0.20382516001E-01 -0.22549376805E-01 -0.18793941365E-01  0.35750994182E-01  0.10000000475E-02 0. -1.
</event>
<event>
 4   0  0.4958067E-02  0.9118800E+02  0.7818609E-02  0.1379984E+01
      -11   -1    0    0    0    0  0.00000000000E+00  0.00000000000E+00  0.35740347158E-01  0.35744000000E-01  0.51099999109E-03 0.  1.
       11   -1    0    0    0    0 -0.00000000000E+00 -0.00000000000E+00 -0.35740347158E-01  0.35744000000E-01  0.51099999109E-03 0. -1.
       22    1    1    2    0    0  0.11846421249E-01  0.12419593789E-01  0.31345646884E-01  0.35737005818E-01  0.00000000000E+00 0.  1.
  9000001    1    1    2    0    0 -0.11846421249E-01 -0.12419593789E-01 -0.31345646884E-01  0.35750994182E-01  0.10000000475E-02 0. -1.
</event>
<event>
 4   0  0.4958067E-02  0.9118800E+02  0.7818609E-02  0.1379984E+01
      -11   -1    0    0    0    0  0.00000000000E+00  0.00000000000E+00  0.35740347158E-01  0.35744000000E-01  0.51099999109E-03 0. -1.
       11   -1    0    0    0    0 -0.00000000000E+00 -0.00000000000E+00 -0.35740347158E-01  0.35744000000E-01  0.51099999109E-03 0.  1.
       22    1    1    2    0    0  0.54348012860E-02 -0.19770102650E-01  0.29270113786E-01  0.35737005818E-01  0.00000000000E+00 0. -1.
  9000001    1    1    2    0    0 -0.54348012860E-02  0.19770102650E-01 -0.29270113786E-01  0.35750994182E-01  0.10000000475E-02 0.  1.
</event>
<event>
 4   0  0.4958067E-02  0.9118800E+02  0.7818609E-02  0.1379984E+01
      -11   -1    0    0    0    0  0.00000000000E+00  0.00000000000E+00  0.35740347158E-01  0.35744000000E-01  0.51099999109E-03 0.  1.
       11   -1    0    0    0    0 -0.00000000000E+00 -0.00000000000E+00 -0.35740347158E-01  0.35744000000E-01  0.51099999109E-03 0. -1.
       22    1    1    2    0    0 -0.16162078782E-01  0.20652337374E-01  0.24277597807E-01  0.35737005818E-01  0.00000000000E+00 0.  1.
  9000001    1    1    2    0    0  0.16162078782E-01 -0.20652337374E-01 -0.24277597807E-01  0.35750994182E-01  0.10000000475E-02 0. -1.
</event>
<event>
 4   0  0.4958067E-02  0.9118800E+02  0.7818609E-02  0.1379984E+01
      -11   -1    0    0    0    0  0.00000000000E+00  0.00000000000E+00  0.35740347158E-01  0.35744000000E-01  0.51099999109E-03 0.  1.
       11   -1    0    0    0    0 -0.00000000000E+00 -0.00000000000E+00 -0.35740347158E-01  0.35744000000E-01  0.51099999109E-03 0. -1.
       22    1    1    2    0    0  0.40384169723E-02 -0.20816682256E-02 -0.35447022874E-01  0.35737005818E-01  0.00000000000E+00 0. -1.
  9000001    1    1    2    0    0 -0.40384169723E-02  0.20816682256E-02  0.35447022874E-01  0.35750994182E-01  0.10000000475E-02 0.  1.
</event>
<event>
 4   0  0.4958067E-02  0.9118800E+02  0.7818609E-02  0.1379984E+01
      -11   -1    0    0    0    0  0.00000000000E+00  0.00000000000E+00  0.35740347158E-01  0.35744000000E-01  0.51099999109E-03 0. -1.
       11   -1    0    0    0    0 -0.00000000000E+00 -0.00000000000E+00 -0.35740347158E-01  0.35744000000E-01  0.51099999109E-03 0.  1.
       22    1    1    2    0    0 -0.34991198565E-02  0.24334891728E-01  0.25936514602E-01  0.35737005818E-01  0.00000000000E+00 0. -1.
  9000001    1    1    2    0    0  0.34991198565E-02 -0.24334891728E-01 -0.25936514602E-01  0.35750994182E-01  0.10000000475E-02 0.  1.
</event>
<event>
 4   0  0.4958067E-02  0.9118800E+02  0.7818609E-02  0.1379984E+01
      -11   -1    0    0    0    0  0.00000000000E+00  0.00000000000E+00  0.35740347158E-01  0.35744000000E-01  0.51099999109E-03 0.  1.
       11   -1    0    0    0    0 -0.00000000000E+00 -0.00000000000E+00 -0.35740347158E-01  0.35744000000E-01  0.51099999109E-03 0. -1.
       22    1    1    2    0    0 -0.54200669263E-02 -0.24485669143E-02 -0.35238629080E-01  0.35737005818E-01  0.00000000000E+00 0. -1.
  9000001    1    1    2    0    0  0.54200669263E-02  0.24485669143E-02  0.35238629080E-01  0.35750994182E-01  0.10000000475E-02 0.  1.
</event>
<event>
 4   0  0.4958067E-02  0.9118800E+02  0.7818609E-02  0.1379984E+01
      -11   -1    0    0    0    0  0.00000000000E+00  0.00000000000E+00  0.35740347158E-01  0.35744000000E-01  0.51099999109E-03 0. -1.
       11   -1    0    0    0    0 -0.00000000000E+00 -0.00000000000E+00 -0.35740347158E-01  0.35744000000E-01  0.51099999109E-03 0.  1.
       22    1    1    2    0    0 -0.66200681967E-02 -0.39927226785E-02 -0.34890778833E-01  0.35737005818E-01  0.00000000000E+00 0.  1.
  9000001    1    1    2    0    0  0.66200681967E-02  0.39927226785E-02  0.34890778833E-01  0.35750994182E-01  0.10000000475E-02 0. -1.
</event>
<event>
 4   0  0.4958067E-02  0.9118800E+02  0.7818609E-02  0.1379984E+01
      -11   -1    0    0    0    0  0.00000000000E+00  0.00000000000E+00  0.35740347158E-01  0.35744000000E-01  0.51099999109E-03 0.  1.
       11   -1    0    0    0    0 -0.00000000000E+00 -0.00000000000E+00 -0.35740347158E-01  0.35744000000E-01  0.51099999109E-03 0. -1.
       22    1    1    2    0    0 -0.31023901113E-02 -0.96869627002E-02  0.34258889563E-01  0.35737005818E-01  0.00000000000E+00 0.  1.
  9000001    1    1    2    0    0  0.31023901113E-02  0.96869627002E-02 -0.34258889563E-01  0.35750994182E-01  0.10000000475E-02 0. -1.
</event>
<event>
 4   0  0.4958067E-02  0.9118800E+02  0.7818609E-02  0.1379984E+01
      -11   -1    0    0    0    0  0.00000000000E+00  0.00000000000E+00  0.35740347158E-01  0.35744000000E-01  0.51099999109E-03 0.  1.
       11   -1    0    0    0    0 -0.00000000000E+00 -0.00000000000E+00 -0.35740347158E-01  0.35744000000E-01  0.51099999109E-03 0. -1.
       22    1    1    2    0    0  0.33331725583E-02 -0.92519672352E-03 -0.35569193927E-01  0.35737005818E-01  0.00000000000E+00 0. -1.
  9000001    1    1    2    0    0 -0.33331725583E-02  0.92519672352E-03  0.35569193927E-01  0.35750994182E-01  0.10000000475E-02 0.  1.
</event>
<event>
 4   0  0.4958067E-02  0.9118800E+02  0.7818609E-02  0.1379984E+01
      -11   -1    0    0    0    0  0.00000000000E+00  0.00000000000E+00  0.35740347158E-01  0.35744000000E-01  0.51099999109E-03 0. -1.
       11   -1    0    0    0    0 -0.00000000000E+00 -0.00000000000E+00 -0.35740347158E-01  0.35744000000E-01  0.51099999109E-03 0.  1.
       22    1    1    2    0    0 -0.48802974876E-02 -0.23465567984E-02 -0.35324353533E-01  0.35737005818E-01  0.00000000000E+00 0.  1.
  9000001    1    1    2    0    0  0.48802974876E-02  0.23465567984E-02  0.35324353533E-01  0.35750994182E-01  0.10000000475E-02 0. -1.
</event>
<event>
 4   0  0.4958067E-02  0.9118800E+02  0.7818609E-02  0.1379984E+01
      -11   -1    0    0    0    0  0.00000000000E+00  0.00000000000E+00  0.35740347158E-01  0.35744000000E-01  0.51099999109E-03 0. -1.
       11   -1    0    0    0    0 -0.00000000000E+00 -0.00000000000E+00 -0.35740347158E-01  0.35744000000E-01  0.51099999109E-03 0.  1.
       22    1    1    2    0    0 -0.79189537771E-02  0.84724673670E-02 -0.33802974021E-01  0.35737005818E-01  0.00000000000E+00 0.  1.
  9000001    1    1    2    0    0  0.79189537771E-02 -0.84724673670E-02  0.33802974021E-01  0.35750994182E-01  0.10000000475E-02 0. -1.
</event>
<event>
 4   0  0.4958067E-02  0.9118800E+02  0.7818609E-02  0.1379984E+01
      -11   -1    0    0    0    0  0.00000000000E+00  0.00000000000E+00  0.35740347158E-01  0.35744000000E-01  0.51099999109E-03 0. -1.
       11   -1    0    0    0    0 -0.00000000000E+00 -0.00000000000E+00 -0.35740347158E-01  0.35744000000E-01  0.51099999109E-03 0.  1.
       22    1    1    2    0    0 -0.11852137807E-01 -0.37189775261E-02  0.33508649935E-01  0.35737005818E-01  0.00000000000E+00 0. -1.
  9000001    1    1    2    0    0  0.11852137807E-01  0.37189775261E-02 -0.33508649935E-01  0.35750994182E-01  0.10000000475E-02 0.  1.
</event>
<event>
 4   0  0.4958067E-02  0.9118800E+02  0.7818609E-02  0.1379984E+01
      -11   -1    0    0    0    0  0.00000000000E+00  0.00000000000E+00  0.35740347158E-01  0.35744000000E-01  0.51099999109E-03 0. -1.
       11   -1    0    0    0    0 -0.00000000000E+00 -0.00000000000E+00 -0.35740347158E-01  0.35744000000E-01  0.51099999109E-03 0.  1.
       22    1    1    2    0    0 -0.82095157610E-03  0.30386432576E-02 -0.35598121728E-01  0.35737005818E-01  0.00000000000E+00 0.  1.
  9000001    1    1    2    0    0  0.82095157610E-03 -0.30386432576E-02  0.35598121728E-01  0.35750994182E-01  0.10000000475E-02 0. -1.
</event>
<event>
 4   0  0.4958067E-02  0.9118800E+02  0.7818609E-02  0.1379984E+01
      -11   -1    0    0    0    0  0.00000000000E+00  0.00000000000E+00  0.35740347158E-01  0.35744000000E-01  0.51099999109E-03 0. -1.
       11   -1    0    0    0    0 -0.00000000000E+00 -0.00000000000E+00 -0.35740347158E-01  0.35744000000E-01  0.51099999109E-03 0.  1.
       22    1    1    2    0    0 -0.14623075833E-04  0.48089834533E-02  0.35411961950E-01  0.35737005818E-01  0.00000000000E+00 0. -1.
  9000001    1    1    2    0    0  0.14623075833E-04 -0.48089834533E-02 -0.35411961950E-01  0.35750994182E-01  0.10000000475E-02 0.  1.
</event>
<event>
 4   0  0.4958067E-02  0.9118800E+02  0.7818609E-02  0.1379984E+01
      -11   -1    0    0    0    0  0.00000000000E+00  0.00000000000E+00  0.35740347158E-01  0.35744000000E-01  0.51099999109E-03 0.  1.
       11   -1    0    0    0    0 -0.00000000000E+00 -0.00000000000E+00 -0.35740347158E-01  0.35744000000E-01  0.51099999109E-03 0. -1.
       22    1    1    2    0    0  0.85056170104E-02  0.19397550135E-02  0.34655813576E-01  0.35737005818E-01  0.00000000000E+00 0.  1.
  9000001    1    1    2    0    0 -0.85056170104E-02 -0.19397550135E-02 -0.34655813576E-01  0.35750994182E-01  0.10000000475E-02 0. -1.
</event>
<event>
 4   0  0.4958067E-02  0.9118800E+02  0.7818609E-02  0.1379984E+01
      -11   -1    0    0    0    0  0.00000000000E+00  0.00000000000E+00  0.35740347158E-01  0.35744000000E-01  0.51099999109E-03 0. -1.
       11   -1    0    0    0    0 -0.00000000000E+00 -0.00000000000E+00 -0.35740347158E-01  0.35744000000E-01  0.51099999109E-03 0.  1.
       22    1    1    2    0    0 -0.16232492579E-01  0.54936008219E-02 -0.31360167722E-01  0.35737005818E-01  0.00000000000E+00 0.  1.
  9000001    1    1    2    0    0  0.16232492579E-01 -0.54936008219E-02  0.31360167722E-01  0.35750994182E-01  0.10000000475E-02 0. -1.
</event>
<event>
 4   0  0.4958067E-02  0.9118800E+02  0.7818609E-02  0.1379984E+01
      -11   -1    0    0    0    0  0.00000000000E+00  0.00000000000E+00  0.35740347158E-01  0.35744000000E-01  0.51099999109E-03 0.  1.
       11   -1    0    0    0    0 -0.00000000000E+00 -0.00000000000E+00 -0.35740347158E-01  0.35744000000E-01  0.51099999109E-03 0. -1.
       22    1    1    2    0    0  0.73878833691E-02  0.12110423810E-01  0.32800768274E-01  0.35737005818E-01  0.00000000000E+00 0.  1.
  9000001    1    1    2    0    0 -0.73878833691E-02 -0.12110423810E-01 -0.32800768274E-01  0.35750994182E-01  0.10000000475E-02 0. -1.
</event>
<event>
 4   0  0.4958067E-02  0.9118800E+02  0.7818609E-02  0.1379984E+01
      -11   -1    0    0    0    0  0.00000000000E+00  0.00000000000E+00  0.35740347158E-01  0.35744000000E-01  0.51099999109E-03 0. -1.
       11   -1    0    0    0    0 -0.00000000000E+00 -0.00000000000E+00 -0.35740347158E-01  0.35744000000E-01  0.51099999109E-03 0.  1.
       22    1    1    2    0    0  0.67548227110E-02  0.32935781969E-01  0.12113637816E-01  0.35737005818E-01  0.00000000000E+00 0. -1.
  9000001    1    1    2    0    0 -0.67548227110E-02 -0.32935781969E-01 -0.12113637816E-01  0.35750994182E-01  0.10000000475E-02 0.  1.
</event>
<event>
 4   0  0.4958067E-02  0.9118800E+02  0.7818609E-02  0.1379984E+01
      -11   -1    0    0    0    0  0.00000000000E+00  0.00000000000E+00  0.35740347158E-01  0.35744000000E-01  0.51099999109E-03 0. -1.
       11   -1    0    0    0    0 -0.00000000000E+00 -0.00000000000E+00 -0.35740347158E-01  0.35744000000E-01  0.51099999109E-03 0.  1.
       22    1    1    2    0    0 -0.83555134048E-02  0.10874272903E-01 -0.33001048005E-01  0.35737005818E-01  0.00000000000E+00 0.  1.
  9000001    1    1    2    0    0  0.83555134048E-02 -0.10874272903E-01  0.33001048005E-01  0.35750994182E-01  0.10000000475E-02 0. -1.
</event>
<event>
 4   0  0.4958067E-02  0.9118800E+02  0.7818609E-02  0.1379984E+01
      -11   -1    0    0    0    0  0.00000000000E+00  0.00000000000E+00  0.35740347158E-01  0.35744000000E-01  0.51099999109E-03 0.  1.
       11   -1    0    0    0    0 -0.00000000000E+00 -0.00000000000E+00 -0.35740347158E-01  0.35744000000E-01  0.51099999109E-03 0. -1.
       22    1    1    2    0    0  0.99699838638E-02 -0.32071204673E-01  0.12213551384E-01  0.35737005818E-01  0.00000000000E+00 0.  1.
  9000001    1    1    2    0    0 -0.99699838638E-02  0.32071204673E-01 -0.12213551384E-01  0.35750994182E-01  0.10000000475E-02 0. -1.
</event>
<event>
 4   0  0.4958067E-02  0.9118800E+02  0.7818609E-02  0.1379984E+01
      -11   -1    0    0    0    0  0.00000000000E+00  0.00000000000E+00  0.35740347158E-01  0.35744000000E-01  0.51099999109E-03 0. -1.
       11   -1    0    0    0    0 -0.00000000000E+00 -0.00000000000E+00 -0.35740347158E-01  0.35744000000E-01  0.51099999109E-03 0.  1.
       22    1    1    2    0    0  0.50963061886E-02 -0.37567818494E-03  0.35369762708E-01  0.35737005818E-01  0.00000000000E+00 0. -1.
  9000001    1    1    2    0    0 -0.50963061886E-02  0.37567818494E-03 -0.35369762708E-01  0.35750994182E-01  0.10000000475E-02 0.  1.
</event>
<event>
 4   0  0.4958067E-02  0.9118800E+02  0.7818609E-02  0.1379984E+01
      -11   -1    0    0    0    0  0.00000000000E+00  0.00000000000E+00  0.35740347158E-01  0.35744000000E-01  0.51099999109E-03 0. -1.
       11   -1    0    0    0    0 -0.00000000000E+00 -0.00000000000E+00 -0.35740347158E-01  0.35744000000E-01  0.51099999109E-03 0.  1.
       22    1    1    2    0    0  0.69334206683E-02  0.20763907488E-01  0.28247502695E-01  0.35737005818E-01  0.00000000000E+00 0. -1.
  9000001    1    1    2    0    0 -0.69334206683E-02 -0.20763907488E-01 -0.28247502695E-01  0.35750994182E-01  0.10000000475E-02 0.  1.
</event>
<event>
 4   0  0.4958067E-02  0.9118800E+02  0.7818609E-02  0.1379984E+01
      -11   -1    0    0    0    0  0.00000000000E+00  0.00000000000E+00  0.35740347158E-01  0.35744000000E-01  0.51099999109E-03 0. -1.
       11   -1    0    0    0    0 -0.00000000000E+00 -0.00000000000E+00 -0.35740347158E-01  0.35744000000E-01  0.51099999109E-03 0.  1.
       22    1    1    2    0    0  0.62439476032E-02  0.12645344235E-02  0.35164579564E-01  0.35737005818E-01  0.00000000000E+00 0. -1.
  9000001    1    1    2    0    0 -0.62439476032E-02 -0.12645344235E-02 -0.35164579564E-01  0.35750994182E-01  0.10000000475E-02 0.  1.
</event>
<event>
 4   0  0.4958067E-02  0.9118800E+02  0.7818609E-02  0.1379984E+01
      -11   -1    0    0    0    0  0.00000000000E+00  0.00000000000E+00  0.35740347158E-01  0.35744000000E-01  0.51099999109E-03 0. -1.
       11   -1    0    0    0    0 -0.00000000000E+00 -0.00000000000E+00 -0.35740347158E-01  0.35744000000E-01  0.51099999109E-03 0.  1.
       22    1    1    2    0    0  0.11496518264E-02  0.45401011698E-02 -0.35428792908E-01  0.35737005818E-01  0.00000000000E+00 0.  1.
  9000001    1    1    2    0    0 -0.11496518264E-02 -0.45401011698E-02  0.35428792908E-01  0.35750994182E-01  0.10000000475E-02 0. -1.
</event>
<event>
 4   0  0.4958067E-02  0.9118800E+02  0.7818609E-02  0.1379984E+01
      -11   -1    0    0    0    0  0.00000000000E+00  0.00000000000E+00  0.35740347158E-01  0.35744000000E-01  0.51099999109E-03 0.  1.
       11   -1    0    0    0    0 -0.00000000000E+00 -0.00000000000E+00 -0.35740347158E-01  0.35744000000E-01  0.51099999109E-03 0. -1.
       22    1    1    2    0    0 -0.86249224321E-02  0.71096434777E-03  0.34673315786E-01  0.35737005818E-01  0.00000000000E+00 0.  1.
  9000001    1    1    2    0    0  0.86249224321E-02 -0.71096434777E-03 -0.34673315786E-01  0.35750994182E-01  0.10000000475E-02 0. -1.
</event>
<event>
 4   0  0.4958067E-02  0.9118800E+02  0.7818609E-02  0.1379984E+01
      -11   -1    0    0    0    0  0.00000000000E+00  0.00000000000E+00  0.35740347158E-01  0.35744000000E-01  0.51099999109E-03 0. -1.
       11   -1    0    0    0    0 -0.00000000000E+00 -0.00000000000E+00 -0.35740347158E-01  0.35744000000E-01  0.51099999109E-03 0.  1.
       22    1    1    2    0    0 -0.44572083376E-02  0.13636126361E-02 -0.35431729273E-01  0.35737005818E-01  0.00000000000E+00 0.  1.
  9000001    1    1    2    0    0  0.44572083376E-02 -0.13636126361E-02  0.35431729273E-01  0.35750994182E-01  0.10000000475E-02 0. -1.
</event>
<event>
 4   0  0.4958067E-02  0.9118800E+02  0.7818609E-02  0.1379984E+01
      -11   -1    0    0    0    0  0.00000000000E+00  0.00000000000E+00  0.35740347158E-01  0.35744000000E-01  0.51099999109E-03 0. -1.
       11   -1    0    0    0    0 -0.00000000000E+00 -0.00000000000E+00 -0.35740347158E-01  0.35744000000E-01  0.51099999109E-03 0.  1.
       22    1    1    2    0    0  0.15348599433E-01 -0.32169205470E-01 -0.25877209555E-02  0.35737005818E-01  0.00000000000E+00 0.  1.
  9000001    1    1    2    0    0 -0.15348599433E-01  0.32169205470E-01  0.25877209555E-02  0.35750994182E-01  0.10000000475E-02 0. -1.
</event>
<event>
 4   0  0.4958067E-02  0.9118800E+02  0.7818609E-02  0.1379984E+01
      -11   -1    0    0    0    0  0.00000000000E+00  0.00000000000E+00  0.35740347158E-01  0.35744000000E-01  0.51099999109E-03 0.  1.
       11   -1    0    0    0    0 -0.00000000000E+00 -0.00000000000E+00 -0.35740347158E-01  0.35744000000E-01  0.51099999109E-03 0. -1.
       22    1    1    2    0    0  0.64708592575E-02  0.75888128877E-02  0.34317218481E-01  0.35737005818E-01  0.00000000000E+00 0.  1.
  9000001    1    1    2    0    0 -0.64708592575E-02 -0.75888128877E-02 -0.34317218481E-01  0.35750994182E-01  0.10000000475E-02 0. -1.
</event>
<event>
 4   0  0.4958067E-02  0.9118800E+02  0.7818609E-02  0.1379984E+01
      -11   -1    0    0    0    0  0.00000000000E+00  0.00000000000E+00  0.35740347158E-01  0.35744000000E-01  0.51099999109E-03 0. -1.
       11   -1    0    0    0    0 -0.00000000000E+00 -0.00000000000E+00 -0.35740347158E-01  0.35744000000E-01  0.51099999109E-03 0.  1.
       22    1    1    2    0    0 -0.95729232459E-02 -0.25004970194E-02  0.34340067560E-01  0.35737005818E-01  0.00000000000E+00 0. -1.
  9000001    1    1    2    0    0  0.95729232459E-02  0.25004970194E-02 -0.34340067560E-01  0.35750994182E-01  0.10000000475E-02 0.  1.
</event>
<event>
 4   0  0.4958067E-02  0.9118800E+02  0.7818609E-02  0.1379984E+01
      -11   -1    0    0    0    0  0.00000000000E+00  0.00000000000E+00  0.35740347158E-01  0.35744000000E-01  0.51099999109E-03 0. -1.
       11   -1    0    0    0    0 -0.00000000000E+00 -0.00000000000E+00 -0.35740347158E-01  0.35744000000E-01  0.51099999109E-03 0.  1.
       22    1    1    2    0    0  0.27025726038E-01 -0.11575413149E-01 -0.20316336467E-01  0.35737005818E-01  0.00000000000E+00 0.  1.
  9000001    1    1    2    0    0 -0.27025726038E-01  0.11575413149E-01  0.20316336467E-01  0.35750994182E-01  0.10000000475E-02 0. -1.
</event>
<event>
 4   0  0.4958067E-02  0.9118800E+02  0.7818609E-02  0.1379984E+01
      -11   -1    0    0    0    0  0.00000000000E+00  0.00000000000E+00  0.35740347158E-01  0.35744000000E-01  0.51099999109E-03 0.  1.
       11   -1    0    0    0    0 -0.00000000000E+00 -0.00000000000E+00 -0.35740347158E-01  0.35744000000E-01  0.51099999109E-03 0. -1.
       22    1    1    2    0    0 -0.12218559907E-01 -0.60467193902E-02 -0.33034490510E-01  0.35737005818E-01  0.00000000000E+00 0. -1.
  9000001    1    1    2    0    0  0.12218559907E-01  0.60467193902E-02  0.33034490510E-01  0.35750994182E-01  0.10000000475E-02 0.  1.
</event>
<event>
 4   0  0.4958067E-02  0.9118800E+02  0.7818609E-02  0.1379984E+01
      -11   -1    0    0    0    0  0.00000000000E+00  0.00000000000E+00  0.35740347158E-01  0.35744000000E-01  0.51099999109E-03 0.  1.
       11   -1    0    0    0    0 -0.00000000000E+00 -0.00000000000E+00 -0.35740347158E-01  0.35744000000E-01  0.51099999109E-03 0. -1.
       22    1    1    2    0    0 -0.57465694080E-02 -0.16072869156E-03  0.35271584756E-01  0.35737005818E-01  0.00000000000E+00 0.  1.
  9000001    1    1    2    0    0  0.57465694080E-02  0.16072869156E-03 -0.35271584756E-01  0.35750994182E-01  0.10000000475E-02 0. -1.
</event>
<event>
 4   0  0.4958067E-02  0.9118800E+02  0.7818609E-02  0.1379984E+01
      -11   -1    0    0    0    0  0.00000000000E+00  0.00000000000E+00  0.35740347158E-01  0.35744000000E-01  0.51099999109E-03 0.  1.
       11   -1    0    0    0    0 -0.00000000000E+00 -0.00000000000E+00 -0.35740347158E-01  0.35744000000E-01  0.51099999109E-03 0. -1.
       22    1    1    2    0    0  0.64928731456E-02 -0.18543149166E-01 -0.29851763804E-01  0.35737005818E-01  0.00000000000E+00 0. -1.
  9000001    1    1    2    0    0 -0.64928731456E-02  0.18543149166E-01  0.29851763804E-01  0.35750994182E-01  0.10000000475E-02 0.  1.
</event>
<event>
 4   0  0.4958067E-02  0.9118800E+02  0.7818609E-02  0.1379984E+01
      -11   -1    0    0    0    0  0.00000000000E+00  0.00000000000E+00  0.35740347158E-01  0.35744000000E-01  0.51099999109E-03 0. -1.
       11   -1    0    0    0    0 -0.00000000000E+00 -0.00000000000E+00 -0.35740347158E-01  0.35744000000E-01  0.51099999109E-03 0.  1.
       22    1    1    2    0    0 -0.12378364052E-01  0.16913094281E-02  0.33482072228E-01  0.35737005818E-01  0.00000000000E+00 0. -1.
  9000001    1    1    2    0    0  0.12378364052E-01 -0.16913094281E-02 -0.33482072228E-01  0.35750994182E-01  0.10000000475E-02 0.  1.
</event>
<event>
 4   0  0.4958067E-02  0.9118800E+02  0.7818609E-02  0.1379984E+01
      -11   -1    0    0    0    0  0.00000000000E+00  0.00000000000E+00  0.35740347158E-01  0.35744000000E-01  0.51099999109E-03 0. -1.
       11   -1    0    0    0    0 -0.00000000000E+00 -0.00000000000E+00 -0.35740347158E-01  0.35744000000E-01  0.51099999109E-03 0.  1.
       22    1    1    2    0    0 -0.30180387046E-01 -0.32571463051E-02  0.18859183985E-01  0.35737005818E-01  0.00000000000E+00 0. -1.
  9000001    1    1    2    0    0  0.30180387046E-01  0.32571463051E-02 -0.18859183985E-01  0.35750994182E-01  0.10000000475E-02 0.  1.
</event>
<event>
 4   0  0.4958067E-02  0.9118800E+02  0.7818609E-02  0.1379984E+01
      -11   -1    0    0    0    0  0.00000000000E+00  0.00000000000E+00  0.35740347158E-01  0.35744000000E-01  0.51099999109E-03 0.  1.
       11   -1    0    0    0    0 -0.00000000000E+00 -0.00000000000E+00 -0.35740347158E-01  0.35744000000E-01  0.51099999109E-03 0. -1.
       22    1    1    2    0    0 -0.19341015535E-01 -0.28112503236E-03  0.30049620159E-01  0.35737005818E-01  0.00000000000E+00 0.  1.
  9000001    1    1    2    0    0  0.19341015535E-01  0.28112503236E-03 -0.30049620159E-01  0.35750994182E-01  0.10000000475E-02 0. -1.
</event>
<event>
 4   0  0.4958067E-02  0.9118800E+02  0.7818609E-02  0.1379984E+01
      -11   -1    0    0    0    0  0.00000000000E+00  0.00000000000E+00  0.35740347158E-01  0.35744000000E-01  0.51099999109E-03 0. -1.
       11   -1    0    0    0    0 -0.00000000000E+00 -0.00000000000E+00 -0.35740347158E-01  0.35744000000E-01  0.51099999109E-03 0.  1.
       22    1    1    2    0    0  0.81059681583E-02 -0.17225015968E-01 -0.30244432380E-01  0.35737005818E-01  0.00000000000E+00 0. -1.
  9000001    1    1    2    0    0 -0.81059681583E-02  0.17225015968E-01  0.30244432380E-01  0.35750994182E-01  0.10000000475E-02 0.  1.
</event>
<event>
 4   0  0.4958067E-02  0.9118800E+02  0.7818609E-02  0.1379984E+01
      -11   -1    0    0    0    0  0.00000000000E+00  0.00000000000E+00  0.35740347158E-01  0.35744000000E-01  0.51099999109E-03 0. -1.
       11   -1    0    0    0    0 -0.00000000000E+00 -0.00000000000E+00 -0.35740347158E-01  0.35744000000E-01  0.51099999109E-03 0.  1.
       22    1    1    2    0    0  0.26047720408E-01 -0.65367332135E-02 -0.23577976277E-01  0.35737005818E-01  0.00000000000E+00 0.  1.
  9000001    1    1    2    0    0 -0.26047720408E-01  0.65367332135E-02  0.23577976277E-01  0.35750994182E-01  0.10000000475E-02 0. -1.
</event>
<event>
 4   0  0.4958067E-02  0.9118800E+02  0.7818609E-02  0.1379984E+01
      -11   -1    0    0    0    0  0.00000000000E+00  0.00000000000E+00  0.35740347158E-01  0.35744000000E-01  0.51099999109E-03 0.  1.
       11   -1    0    0    0    0 -0.00000000000E+00 -0.00000000000E+00 -0.35740347158E-01  0.35744000000E-01  0.51099999109E-03 0. -1.
       22    1    1    2    0    0  0.31599021035E-01 -0.10038996308E-02 -0.16662161925E-01  0.35737005818E-01  0.00000000000E+00 0. -1.
  9000001    1    1    2    0    0 -0.31599021035E-01  0.10038996308E-02  0.16662161925E-01  0.35750994182E-01  0.10000000475E-02 0.  1.
</event>
<event>
 4   0  0.4958067E-02  0.9118800E+02  0.7818609E-02  0.1379984E+01
      -11   -1    0    0    0    0  0.00000000000E+00  0.00000000000E+00  0.35740347158E-01  0.35744000000E-01  0.51099999109E-03 0.  1.
       11   -1    0    0    0    0 -0.00000000000E+00 -0.00000000000E+00 -0.35740347158E-01  0.35744000000E-01  0.51099999109E-03 0. -1.
       22    1    1    2    0    0  0.28985564507E-02 -0.90866729437E-02 -0.34440736493E-01  0.35737005818E-01  0.00000000000E+00 0. -1.
  9000001    1    1    2    0    0 -0.28985564507E-02  0.90866729437E-02  0.34440736493E-01  0.35750994182E-01  0.10000000475E-02 0.  1.
</event>
<event>
 4   0  0.4958067E-02  0.9118800E+02  0.7818609E-02  0.1379984E+01
      -11   -1    0    0    0    0  0.00000000000E+00  0.00000000000E+00  0.35740347158E-01  0.35744000000E-01  0.51099999109E-03 0.  1.
       11   -1    0    0    0    0 -0.00000000000E+00 -0.00000000000E+00 -0.35740347158E-01  0.35744000000E-01  0.51099999109E-03 0. -1.
       22    1    1    2    0    0 -0.30876734792E-01  0.10925258860E-02 -0.17960156475E-01  0.35737005818E-01  0.00000000000E+00 0. -1.
  9000001    1    1    2    0    0  0.30876734792E-01 -0.10925258860E-02  0.17960156475E-01  0.35750994182E-01  0.10000000475E-02 0.  1.
</event>
<event>
 4   0  0.4958067E-02  0.9118800E+02  0.7818609E-02  0.1379984E+01
      -11   -1    0    0    0    0  0.00000000000E+00  0.00000000000E+00  0.35740347158E-01  0.35744000000E-01  0.51099999109E-03 0. -1.
       11   -1    0    0    0    0 -0.00000000000E+00 -0.00000000000E+00 -0.35740347158E-01  0.35744000000E-01  0.51099999109E-03 0.  1.
       22    1    1    2    0    0 -0.92587335848E-03 -0.35124626520E-02  0.35551919069E-01  0.35737005818E-01  0.00000000000E+00 0. -1.
  9000001    1    1    2    0    0  0.92587335848E-03  0.35124626520E-02 -0.35551919069E-01  0.35750994182E-01  0.10000000475E-02 0.  1.
</event>
<event>
 4   0  0.4958067E-02  0.9118800E+02  0.7818609E-02  0.1379984E+01
      -11   -1    0    0    0    0  0.00000000000E+00  0.00000000000E+00  0.35740347158E-01  0.35744000000E-01  0.51099999109E-03 0. -1.
       11   -1    0    0    0    0 -0.00000000000E+00 -0.00000000000E+00 -0.35740347158E-01  0.35744000000E-01  0.51099999109E-03 0.  1.
       22    1    1    2    0    0  0.10204441935E-01 -0.73255301374E-02 -0.33456532365E-01  0.35737005818E-01  0.00000000000E+00 0.  1.
  9000001    1    1    2    0    0 -0.10204441935E-01  0.73255301374E-02  0.33456532365E-01  0.35750994182E-01  0.10000000475E-02 0. -1.
</event>
<event>
 4   0  0.4958067E-02  0.9118800E+02  0.7818609E-02  0.1379984E+01
      -11   -1    0    0    0    0  0.00000000000E+00  0.00000000000E+00  0.35740347158E-01  0.35744000000E-01  0.51099999109E-03 0. -1.
       11   -1    0    0    0    0 -0.00000000000E+00 -0.00000000000E+00 -0.35740347158E-01  0.35744000000E-01  0.51099999109E-03 0.  1.
       22    1    1    2    0    0  0.55570413677E-02  0.25569699656E-02  0.35209583649E-01  0.35737005818E-01  0.00000000000E+00 0. -1.
  9000001    1    1    2    0    0 -0.55570413677E-02 -0.25569699656E-02 -0.35209583649E-01  0.35750994182E-01  0.10000000475E-02 0.  1.
</event>
<event>
 4   0  0.4958067E-02  0.9118800E+02  0.7818609E-02  0.1379984E+01
      -11   -1    0    0    0    0  0.00000000000E+00  0.00000000000E+00  0.35740347158E-01  0.35744000000E-01  0.51099999109E-03 0.  1.
       11   -1    0    0    0    0 -0.00000000000E+00 -0.00000000000E+00 -0.35740347158E-01  0.35744000000E-01  0.51099999109E-03 0. -1.
       22    1    1    2    0    0 -0.42250290372E-02 -0.19866608978E-02  0.35430719623E-01  0.35737005818E-01  0.00000000000E+00 0.  1.
  9000001    1    1    2    0    0  0.42250290372E-02  0.19866608978E-02 -0.35430719623E-01  0.35750994182E-01  0.10000000475E-02 0. -1.
</event>
<event>
 4   0  0.4958067E-02  0.9118800E+02  0.7818609E-02  0.1379984E+01
      -11   -1    0    0    0    0  0.00000000000E+00  0.00000000000E+00  0.35740347158E-01  0.35744000000E-01  0.51099999109E-03 0. -1.
       11   -1    0    0    0    0 -0.00000000000E+00 -0.00000000000E+00 -0.35740347158E-01  0.35744000000E-01  0.51099999109E-03 0.  1.
       22    1    1    2    0    0 -0.26290394131E-02  0.71996383346E-02  0.34905399933E-01  0.35737005818E-01  0.00000000000E+00 0. -1.
  9000001    1    1    2    0    0  0.26290394131E-02 -0.71996383346E-02 -0.34905399933E-01  0.35750994182E-01  0.10000000475E-02 0.  1.
</event>
<event>
 4   0  0.4958067E-02  0.9118800E+02  0.7818609E-02  0.1379984E+01
      -11   -1    0    0    0    0  0.00000000000E+00  0.00000000000E+00  0.35740347158E-01  0.35744000000E-01  0.51099999109E-03 0.  1.
       11   -1    0    0    0    0 -0.00000000000E+00 -0.00000000000E+00 -0.35740347158E-01  0.35744000000E-01  0.51099999109E-03 0. -1.
       22    1    1    2    0    0 -0.69127710029E-02 -0.26062236276E-01 -0.23454360410E-01  0.35737005818E-01  0.00000000000E+00 0. -1.
  9000001    1    1    2    0    0  0.69127710029E-02  0.26062236276E-01  0.23454360410E-01  0.35750994182E-01  0.10000000475E-02 0.  1.
</event>
<event>
 4   0  0.4958067E-02  0.9118800E+02  0.7818609E-02  0.1379984E+01
      -11   -1    0    0    0    0  0.00000000000E+00  0.00000000000E+00  0.35740347158E-01  0.35744000000E-01  0.51099999109E-03 0.  1.
       11   -1    0    0    0    0 -0.00000000000E+00 -0.00000000000E+00 -0.35740347158E-01  0.35744000000E-01  0.51099999109E-03 0. -1.
       22    1    1    2    0    0 -0.13696198801E-01  0.33291368223E-02  0.32839984338E-01  0.35737005818E-01  0.00000000000E+00 0.  1.
  9000001    1    1    2    0    0  0.13696198801E-01 -0.33291368223E-02 -0.32839984338E-01  0.35750994182E-01  0.10000000475E-02 0. -1.
</event>
<event>
 4   0  0.4958067E-02  0.9118800E+02  0.7818609E-02  0.1379984E+01
      -11   -1    0    0    0    0  0.00000000000E+00  0.00000000000E+00  0.35740347158E-01  0.35744000000E-01  0.51099999109E-03 0. -1.
       11   -1    0    0    0    0 -0.00000000000E+00 -0.00000000000E+00 -0.35740347158E-01  0.35744000000E-01  0.51099999109E-03 0.  1.
       22    1    1    2    0    0  0.62576266345E-02 -0.69479037117E-02  0.34492061808E-01  0.35737005818E-01  0.00000000000E+00 0. -1.
  9000001    1    1    2    0    0 -0.62576266345E-02  0.69479037117E-02 -0.34492061808E-01  0.35750994182E-01  0.10000000475E-02 0.  1.
</event>
<event>
 4   0  0.4958067E-02  0.9118800E+02  0.7818609E-02  0.1379984E+01
      -11   -1    0    0    0    0  0.00000000000E+00  0.00000000000E+00  0.35740347158E-01  0.35744000000E-01  0.51099999109E-03 0. -1.
       11   -1    0    0    0    0 -0.00000000000E+00 -0.00000000000E+00 -0.35740347158E-01  0.35744000000E-01  0.51099999109E-03 0.  1.
       22    1    1    2    0    0  0.30195206745E-02 -0.64055075965E-02  0.35028353547E-01  0.35737005818E-01  0.00000000000E+00 0. -1.
  9000001    1    1    2    0    0 -0.30195206745E-02  0.64055075965E-02 -0.35028353547E-01  0.35750994182E-01  0.10000000475E-02 0.  1.
</event>
