<event>
 4   0  0.4892667E-02  0.9118800E+02  0.7818609E-02  0.1379984E+01
      -11   -1    0    0    0    0  0.00000000000E+00  0.00000000000E+00  0.35740347158E-01  0.35744000000E-01  0.51099999109E-03 0. -1.
       11   -1    0    0    0    0 -0.00000000000E+00 -0.00000000000E+00 -0.35740347158E-01  0.35744000000E-01  0.51099999109E-03 0.  1.
       22    1    1    2    0    0 -0.19559630945E-01  0.46090495964E-02  0.29551837235E-01  0.35737005818E-01  0.00000000000E+00 0. -1.
  9000001    1    1    2    0    0  0.19559630945E-01 -0.46090495964E-02 -0.29551837235E-01  0.35750994182E-01  0.10000000475E-02 0.  1.
</event>
<event>
 4   0  0.4892667E-02  0.9118800E+02  0.7818609E-02  0.1379984E+01
      -11   -1    0    0    0    0  0.00000000000E+00  0.00000000000E+00  0.35740347158E-01  0.35744000000E-01  0.51099999109E-03 0. -1.
       11   -1    0    0    0    0 -0.00000000000E+00 -0.00000000000E+00 -0.35740347158E-01  0.35744000000E-01  0.51099999109E-03 0.  1.
       22    1    1    2    0    0  0.29612703284E-01 -0.57645248854E-02 -0.19157025915E-01  0.35737005818E-01  0.00000000000E+00 0.  1.
  9000001    1    1    2    0    0 -0.29612703284E-01  0.57645248854E-02  0.19157025915E-01  0.35750994182E-01  0.10000000475E-02 0. -1.
</event>
<event>
 4   0  0.4892667E-02  0.9118800E+02  0.7818609E-02  0.1379984E+01
      -11   -1    0    0    0    0  0.00000000000E+00  0.00000000000E+00  0.35740347158E-01  0.35744000000E-01  0.51099999109E-03 0.  1.
       11   -1    0    0    0    0 -0.00000000000E+00 -0.00000000000E+00 -0.35740347158E-01  0.35744000000E-01  0.51099999109E-03 0. -1.
       22    1    1    2    0    0  0.67539984466E-02 -0.28567973297E-01  0.20381069440E-01  0.35737005818E-01  0.00000000000E+00 0.  1.
  9000001    1    1    2    0    0 -0.67539984466E-02  0.28567973297E-01 -0.20381069440E-01  0.35750994182E-01  0.10000000475E-02 0. -1.
</event>
<event>
 4   0  0.4892667E-02  0.9118800E+02  0.7818609E-02  0.1379984E+01
      -11   -1    0    0    0    0  0.00000000000E+00  0.00000000000E+00  0.35740347158E-01  0.35744000000E-01  0.51099999109E-03 0. -1.
       11   -1    0    0    0    0 -0.00000000000E+00 -0.00000000000E+00 -0.35740347158E-01  0.35744000000E-01  0.51099999109E-03 0.  1.
       22    1    1    2    0    0 -0.33487142909E-01 -0.88065031672E-02  0.88425305575E-02  0.35737005818E-01  0.00000000000E+00 0. -1.
  9000001    1    1    2    0    0  0.33487142909E-01  0.88065031672E-02 -0.88425305575E-02  0.35750994182E-01  0.10000000475E-02 0.  1.
</event>
<event>
 4   0  0.4892667E-02  0.9118800E+02  0.7818609E-02  0.1379984E+01
      -11   -1    0    0    0    0  0.00000000000E+00  0.00000000000E+00  0.35740347158E-01  0.35744000000E-01  0.51099999109E-03 0. -1.
       11   -1    0    0    0    0 -0.00000000000E+00 -0.00000000000E+00 -0.35740347158E-01  0.35744000000E-01  0.51099999109E-03 0.  1.
       22    1    1    2    0    0 -0.12073961431E-01  0.50720049315E-02  0.33250982034E-01  0.35737005818E-01  0.00000000000E+00 0. -1.
  9000001    1    1    2    0    0  0.12073961431E-01 -0.50720049315E-02 -0.33250982034E-01  0.35750994182E-01  0.10000000475E-02 0.  1.
</event>
<event>
 4   0  0.4892667E-02  0.9118800E+02  0.7818609E-02  0.1379984E+01
      -11   -1    0    0    0    0  0.00000000000E+00  0.00000000000E+00  0.35740347158E-01  0.35744000000E-01  0.51099999109E-03 0.  1.
       11   -1    0    0    0    0 -0.00000000000E+00 -0.00000000000E+00 -0.35740347158E-01  0.35744000000E-01  0.51099999109E-03 0. -1.
       22    1    1    2    0    0  0.19623548120E-01  0.20222942176E-01 -0.21979139060E-01  0.35737005818E-01  0.00000000000E+00 0. -1.
  9000001    1    1    2    0    0 -0.19623548120E-01 -0.20222942176E-01  0.21979139060E-01  0.35750994182E-01  0.10000000475E-02 0.  1.
</event>
<event>
 4   0  0.4892667E-02  0.9118800E+02  0.7818609E-02  0.1379984E+01
      -11   -1    0    0    0    0  0.00000000000E+00  0.00000000000E+00  0.35740347158E-01  0.35744000000E-01  0.51099999109E-03 0.  1.
       11   -1    0    0    0    0 -0.00000000000E+00 -0.00000000000E+00 -0.35740347158E-01  0.35744000000E-01  0.51099999109E-03 0. -1.
       22    1    1    2    0    0  0.33397434516E-02 -0.53696716181E-03 -0.35576556393E-01  0.35737005818E-01  0.00000000000E+00 0. -1.
  9000001    1    1    2    0    0 -0.33397434516E-02  0.53696716181E-03  0.35576556393E-01  0.35750994182E-01  0.10000000475E-02 0.  1.
</event>
<event>
 4   0  0.4892667E-02  0.9118800E+02  0.7818609E-02  0.1379984E+01
      -11   -1    0    0    0    0  0.00000000000E+00  0.00000000000E+00  0.35740347158E-01  0.35744000000E-01  0.51099999109E-03 0.  1.
       11   -1    0    0    0    0 -0.00000000000E+00 -0.00000000000E+00 -0.35740347158E-01  0.35744000000E-01  0.51099999109E-03 0. -1.
       22    1    1    2    0    0 -0.11501133918E-02 -0.47139024965E-02  0.35406072181E-01  0.35737005818E-01  0.00000000000E+00 0.  1.
  9000001    1    1    2    0    0  0.11501133918E-02  0.47139024965E-02 -0.35406072181E-01  0.35750994182E-01  0.10000000475E-02 0. -1.
</event>
<event>
 4   0  0.4892667E-02  0.9118800E+02  0.7818609E-02  0.1379984E+01
      -11   -1    0    0    0    0  0.00000000000E+00  0.00000000000E+00  0.35740347158E-01  0.35744000000E-01  0.51099999109E-03 0. -1.
       11   -1    0    0    0    0 -0.00000000000E+00 -0.00000000000E+00 -0.35740347158E-01  0.35744000000E-01  0.51099999109E-03 0.  1.
       22    1    1    2    0    0  0.46730618667E-03 -0.32281711232E-02 -0.35587836700E-01  0.35737005818E-01  0.00000000000E+00 0.  1.
  9000001    1    1    2    0    0 -0.46730618667E-03  0.32281711232E-02  0.35587836700E-01  0.35750994182E-01  0.10000000475E-02 0. -1.
</event>
<event>
 4   0  0.4892667E-02  0.9118800E+02  0.7818609E-02  0.1379984E+01
      -11   -1    0    0    0    0  0.00000000000E+00  0.00000000000E+00  0.35740347158E-01  0.35744000000E-01  0.51099999109E-03 0.  1.
       11   -1    0    0    0    0 -0.00000000000E+00 -0.00000000000E+00 -0.35740347158E-01  0.35744000000E-01  0.51099999109E-03 0. -1.
       22    1    1    2    0    0  0.18029429956E-02  0.58768046173E-02 -0.35204348438E-01  0.35737005818E-01  0.00000000000E+00 0. -1.
  9000001    1    1    2    0    0 -0.18029429956E-02 -0.58768046173E-02  0.35204348438E-01  0.35750994182E-01  0.10000000475E-02 0.  1.
</event>
<event>
 4   0  0.4892667E-02  0.9118800E+02  0.7818609E-02  0.1379984E+01
      -11   -1    0    0    0    0  0.00000000000E+00  0.00000000000E+00  0.35740347158E-01  0.35744000000E-01  0.51099999109E-03 0.  1.
       11   -1    0    0    0    0 -0.00000000000E+00 -0.00000000000E+00 -0.35740347158E-01  0.35744000000E-01  0.51099999109E-03 0. -1.
       22    1    1    2    0    0 -0.10052716680E-02 -0.22014022726E-01  0.28133713178E-01  0.35737005818E-01  0.00000000000E+00 0.  1.
  9000001    1    1    2    0    0  0.10052716680E-02  0.22014022726E-01 -0.28133713178E-01  0.35750994182E-01  0.10000000475E-02 0. -1.
</event>
<event>
 4   0  0.4892667E-02  0.9118800E+02  0.7818609E-02  0.1379984E+01
      -11   -1    0    0    0    0  0.00000000000E+00  0.00000000000E+00  0.35740347158E-01  0.35744000000E-01  0.51099999109E-03 0.  1.
       11   -1    0    0    0    0 -0.00000000000E+00 -0.00000000000E+00 -0.35740347158E-01  0.35744000000E-01  0.51099999109E-03 0. -1.
       22    1    1    2    0    0  0.10261878596E-01  0.34355919774E-02  0.34059127122E-01  0.35737005818E-01  0.00000000000E+00 0.  1.
  9000001    1    1    2    0    0 -0.10261878596E-01 -0.34355919774E-02 -0.34059127122E-01  0.35750994182E-01  0.10000000475E-02 0. -1.
</event>
<event>
 4   0  0.4892667E-02  0.9118800E+02  0.7818609E-02  0.1379984E+01
      -11   -1    0    0    0    0  0.00000000000E+00  0.00000000000E+00  0.35740347158E-01  0.35744000000E-01  0.51099999109E-03 0. -1.
       11   -1    0    0    0    0 -0.00000000000E+00 -0.00000000000E+00 -0.35740347158E-01  0.35744000000E-01  0.51099999109E-03 0.  1.
       22    1    1    2    0    0 -0.25924650253E-02  0.19063000681E-01 -0.30116684994E-01  0.35737005818E-01  0.00000000000E+00 0.  1.
  9000001    1    1    2    0    0  0.25924650253E-02 -0.19063000681E-01  0.30116684994E-01  0.35750994182E-01  0.10000000475E-02 0. -1.
</event>
<event>
 4   0  0.4892667E-02  0.9118800E+02  0.7818609E-02  0.1379984E+01
      -11   -1    0    0    0    0  0.00000000000E+00  0.00000000000E+00  0.35740347158E-01  0.35744000000E-01  0.51099999109E-03 0. -1.
       11   -1    0    0    0    0 -0.00000000000E+00 -0.00000000000E+00 -0.35740347158E-01  0.35744000000E-01  0.51099999109E-03 0.  1.
       22    1    1    2    0    0 -0.13654764499E-01 -0.23897647281E-01 -0.22794373117E-01  0.35737005818E-01  0.00000000000E+00 0.  1.
  9000001    1    1    2    0    0  0.13654764499E-01  0.23897647281E-01  0.22794373117E-01  0.35750994182E-01  0.10000000475E-02 0. -1.
</event>
<event>
 4   0  0.4892667E-02  0.9118800E+02  0.7818609E-02  0.1379984E+01
      -11   -1    0    0    0    0  0.00000000000E+00  0.00000000000E+00  0.35740347158E-01  0.35744000000E-01  0.51099999109E-03 0. -1.
       11   -1    0    0    0    0 -0.00000000000E+00 -0.00000000000E+00 -0.35740347158E-01  0.35744000000E-01  0.51099999109E-03 0.  1.
       22    1    1    2    0    0 -0.59248875788E-02  0.12687787561E-03 -0.35242207565E-01  0.35737005818E-01  0.00000000000E+00 0.  1.
  9000001    1    1    2    0    0  0.59248875788E-02 -0.12687787561E-03  0.35242207565E-01  0.35750994182E-01  0.10000000475E-02 0. -1.
</event>
<event>
 4   0  0.4892667E-02  0.9118800E+02  0.7818609E-02  0.1379984E+01
      -11   -1    0    0    0    0  0.00000000000E+00  0.00000000000E+00  0.35740347158E-01  0.35744000000E-01  0.51099999109E-03 0.  1.
       11   -1    0    0    0    0 -0.00000000000E+00 -0.00000000000E+00 -0.35740347158E-01  0.35744000000E-01  0.51099999109E-03 0. -1.
       22    1    1    2    0    0  0.44846368095E-03  0.57113752705E-02  0.35274816197E-01  0.35737005818E-01  0.00000000000E+00 0.  1.
  9000001    1    1    2    0    0 -0.44846368095E-03 -0.57113752705E-02 -0.35274816197E-01  0.35750994182E-01  0.10000000475E-02 0. -1.
</event>
<event>
 4   0  0.4892667E-02  0.9118800E+02  0.7818609E-02  0.1379984E+01
      -11   -1    0    0    0    0  0.00000000000E+00  0.00000000000E+00  0.35740347158E-01  0.35744000000E-01  0.51099999109E-03 0. -1.
       11   -1    0    0    0    0 -0.00000000000E+00 -0.00000000000E+00 -0.35740347158E-01  0.35744000000E-01  0.51099999109E-03 0.  1.
       22    1    1    2    0    0  0.11487118133E-01 -0.29033458000E-02  0.33715727562E-01  0.35737005818E-01  0.00000000000E+00 0. -1.
  9000001    1    1    2    0    0 -0.11487118133E-01  0.29033458000E-02 -0.33715727562E-01  0.35750994182E-01  0.10000000475E-02 0.  1.
</event>
<event>
 4   0  0.4892667E-02  0.9118800E+02  0.7818609E-02  0.1379984E+01
      -11   -1    0    0    0    0  0.00000000000E+00  0.00000000000E+00  0.35740347158E-01  0.35744000000E-01  0.51099999109E-03 0.  1.
       11   -1    0    0    0    0 -0.00000000000E+00 -0.00000000000E+00 -0.35740347158E-01  0.35744000000E-01  0.51099999109E-03 0. -1.
       22    1    1    2    0    0  0.51668701247E-02  0.37522602730E-02 -0.35161876810E-01  0.35737005818E-01  0.00000000000E+00 0. -1.
  9000001    1    1    2    0    0 -0.51668701247E-02 -0.37522602730E-02  0.35161876810E-01  0.35750994182E-01  0.10000000475E-02 0.  1.
</event>
<event>
 4   0  0.4892667E-02  0.9118800E+02  0.7818609E-02  0.1379984E+01
      -11   -1    0    0    0    0  0.00000000000E+00  0.00000000000E+00  0.35740347158E-01  0.35744000000E-01  0.51099999109E-03 0. -1.
       11   -1    0    0    0    0 -0.00000000000E+00 -0.00000000000E+00 -0.35740347158E-01  0.35744000000E-01  0.51099999109E-03 0.  1.
       22    1    1    2    0    0 -0.54850966862E-02  0.35218762932E-01  0.25857371737E-02  0.35737005818E-01  0.00000000000E+00 0.  1.
  9000001    1    1    2    0    0  0.54850966862E-02 -0.35218762932E-01 -0.25857371737E-02  0.35750994182E-01  0.10000000475E-02 0. -1.
</event>
<event>
 4   0  0.4892667E-02  0.9118800E+02  0.7818609E-02  0.1379984E+01
      -11   -1    0    0    0    0  0.00000000000E+00  0.00000000000E+00  0.35740347158E-01  0.35744000000E-01  0.51099999109E-03 0.  1.
       11   -1    0    0    0    0 -0.00000000000E+00 -0.00000000000E+00 -0.35740347158E-01  0.35744000000E-01  0.51099999109E-03 0. -1.
       22    1    1    2    0    0  0.13554898278E-01  0.10878441539E-01 -0.31225915955E-01  0.35737005818E-01  0.00000000000E+00 0. -1.
  9000001    1    1    2    0    0 -0.13554898278E-01 -0.10878441539E-01  0.31225915955E-01  0.35750994182E-01  0.10000000475E-02 0.  1.
</event>
<event>
 4   0  0.4892667E-02  0.9118800E+02  0.7818609E-02  0.1379984E+01
      -11   -1    0    0    0    0  0.00000000000E+00  0.00000000000E+00  0.35740347158E-01  0.35744000000E-01  0.51099999109E-03 0.  1.
       11   -1    0    0    0    0 -0.00000000000E+00 -0.00000000000E+00 -0.35740347158E-01  0.35744000000E-01  0.51099999109E-03 0. -1.
       22    1    1    2    0    0  0.72127023571E-04  0.36984456820E-02  0.35545040190E-01  0.35737005818E-01  0.00000000000E+00 0.  1.
  9000001    1    1    2    0    0 -0.72127023571E-04 -0.36984456820E-02 -0.35545040190E-01  0.35750994182E-01  0.10000000475E-02 0. -1.
</event>
<event>
 4   0  0.4892667E-02  0.9118800E+02  0.7818609E-02  0.1379984E+01
      -11   -1    0    0    0    0  0.00000000000E+00  0.00000000000E+00  0.35740347158E-01  0.35744000000E-01  0.51099999109E-03 0.  1.
       11   -1    0    0    0    0 -0.00000000000E+00 -0.00000000000E+00 -0.35740347158E-01  0.35744000000E-01  0.51099999109E-03 0. -1.
       22    1    1    2    0    0  0.98150655101E-02  0.24021968830E-02 -0.34278674479E-01  0.35737005818E-01  0.00000000000E+00 0. -1.
  9000001    1    1    2    0    0 -0.98150655101E-02 -0.24021968830E-02  0.34278674479E-01  0.35750994182E-01  0.10000000475E-02 0.  1.
</event>
<event>
 4   0  0.4892667E-02  0.9118800E+02  0.7818609E-02  0.1379984E+01
      -11   -1    0    0    0    0  0.00000000000E+00  0.00000000000E+00  0.35740347158E-01  0.35744000000E-01  0.51099999109E-03 0. -1.
       11   -1    0    0    0    0 -0.00000000000E+00 -0.00000000000E+00 -0.35740347158E-01  0.35744000000E-01  0.51099999109E-03 0.  1.
       22    1    1    2    0    0 -0.20578412700E-01 -0.18755644305E-01 -0.22402864155E-01  0.35737005818E-01  0.00000000000E+00 0.  1.
  9000001    1    1    2    0    0  0.20578412700E-01  0.18755644305E-01  0.22402864155E-01  0.35750994182E-01  0.10000000475E-02 0. -1.
</event>
<event>
 4   0  0.4892667E-02  0.9118800E+02  0.7818609E-02  0.1379984E+01
      -11   -1    0    0    0    0  0.00000000000E+00  0.00000000000E+00  0.35740347158E-01  0.35744000000E-01  0.51099999109E-03 0.  1.
       11   -1    0    0    0    0 -0.00000000000E+00 -0.00000000000E+00 -0.35740347158E-01  0.35744000000E-01  0.51099999109E-03 0. -1.
       22    1    1    2    0    0 -0.27541872112E-01 -0.22287561671E-01  0.46736987743E-02  0.35737005818E-01  0.00000000000E+00 0.  1.
  9000001    1    1    2    0    0  0.27541872112E-01  0.22287561671E-01 -0.46736987743E-02  0.35750994182E-01  0.10000000475E-02 0. -1.
</event>
<event>
 4   0  0.4892667E-02  0.9118800E+02  0.7818609E-02  0.1379984E+01
      -11   -1    0    0    0    0  0.00000000000E+00  0.00000000000E+00  0.35740347158E-01  0.35744000000E-01  0.51099999109E-03 0.  1.
       11   -1    0    0    0    0 -0.00000000000E+00 -0.00000000000E+00 -0.35740347158E-01  0.35744000000E-01  0.51099999109E-03 0. -1.
       22    1    1    2    0    0 -0.16742833771E-02  0.45317040845E-02 -0.35408953926E-01  0.35737005818E-01  0.00000000000E+00 0. -1.
  9000001    1    1    2    0    0  0.16742833771E-02 -0.45317040845E-02  0.35408953926E-01  0.35750994182E-01  0.10000000475E-02 0.  1.
</event>
<event>
 4   0  0.4892667E-02  0.9118800E+02  0.7818609E-02  0.1379984E+01
      -11   -1    0    0    0    0  0.00000000000E+00  0.00000000000E+00  0.35740347158E-01  0.35744000000E-01  0.51099999109E-03 0. -1.
       11   -1    0    0    0    0 -0.00000000000E+00 -0.00000000000E+00 -0.35740347158E-01  0.35744000000E-01  0.51099999109E-03 0.  1.
       22    1    1    2    0    0 -0.63041345785E-02 -0.18940101582E-03 -0.35176065717E-01  0.35737005818E-01  0.00000000000E+00 0.  1.
  9000001    1    1    2    0    0  0.63041345785E-02  0.18940101582E-03  0.35176065717E-01  0.35750994182E-01  0.10000000475E-02 0. -1.
</event>
<event>
 4   0  0.4892667E-02  0.9118800E+02  0.7818609E-02  0.1379984E+01
      -11   -1    0    0    0    0  0.00000000000E+00  0.00000000000E+00  0.35740347158E-01  0.35744000000E-01  0.51099999109E-03 0.  1.
       11   -1    0    0    0    0 -0.00000000000E+00 -0.00000000000E+00 -0.35740347158E-01  0.35744000000E-01  0.51099999109E-03 0. -1.
       22    1    1    2    0    0  0.10685331778E-01  0.27572694512E-02  0.33990509482E-01  0.35737005818E-01  0.00000000000E+00 0.  1.
  9000001    1    1    2    0    0 -0.10685331778E-01 -0.27572694512E-02 -0.33990509482E-01  0.35750994182E-01  0.10000000475E-02 0. -1.
</event>
<event>
 4   0  0.4892667E-02  0.9118800E+02  0.7818609E-02  0.1379984E+01
      -11   -1    0    0    0    0  0.00000000000E+00  0.00000000000E+00  0.35740347158E-01  0.35744000000E-01  0.51099999109E-03 0. -1.
       11   -1    0    0    0    0 -0.00000000000E+00 -0.00000000000E+00 -0.35740347158E-01  0.35744000000E-01  0.51099999109E-03 0.  1.
       22    1    1    2    0    0 -0.67333746881E-03 -0.30702528991E-02 -0.35598507675E-01  0.35737005818E-01  0.00000000000E+00 0.  1.
  9000001    1    1    2    0    0  0.67333746881E-03  0.30702528991E-02  0.35598507675E-01  0.35750994182E-01  0.10000000475E-02 0. -1.
</event>
<event>
 4   0  0.4892667E-02  0.9118800E+02  0.7818609E-02  0.1379984E+01
      -11   -1    0    0    0    0  0.00000000000E+00  0.00000000000E+00  0.35740347158E-01  0.35744000000E-01  0.51099999109E-03 0.  1.
       11   -1    0    0    0    0 -0.00000000000E+00 -0.00000000000E+00 -0.35740347158E-01  0.35744000000E-01  0.51099999109E-03 0. -1.
       22    1    1    2    0    0  0.50674577735E-02  0.83095354653E-04  0.35375804609E-01  0.35737005818E-01  0.00000000000E+00 0.  1.
  9000001    1    1    2    0    0 -0.50674577735E-02 -0.83095354653E-04 -0.35375804609E-01  0.35750994182E-01  0.10000000475E-02 0. -1.
</event>
<event>
 4   0  0.4892667E-02  0.9118800E+02  0.7818609E-02  0.1379984E+01
      -11   -1    0    0    0    0  0.00000000000E+00  0.00000000000E+00  0.35740347158E-01  0.35744000000E-01  0.51099999109E-03 0.  1.
       11   -1    0    0    0    0 -0.00000000000E+00 -0.00000000000E+00 -0.35740347158E-01  0.35744000000E-01  0.51099999109E-03 0. -1.
       22    1    1    2    0    0  0.21296800924E-01  0.19539768433E-02  0.28631483192E-01  0.35737005818E-01  0.00000000000E+00 0.  1.
  9000001    1    1    2    0    0 -0.21296800924E-01 -0.19539768433E-02 -0.28631483192E-01  0.35750994182E-01  0.10000000475E-02 0. -1.
</event>
<event>
 4   0  0.4892667E-02  0.9118800E+02  0.7818609E-02  0.1379984E+01
      -11   -1    0    0    0    0  0.00000000000E+00  0.00000000000E+00  0.35740347158E-01  0.35744000000E-01  0.51099999109E-03 0. -1.
       11   -1    0    0    0    0 -0.00000000000E+00 -0.00000000000E+00 -0.35740347158E-01  0.35744000000E-01  0.51099999109E-03 0.  1.
       22    1    1    2    0    0 -0.79558556554E-02  0.12321756241E-01 -0.32588529712E-01  0.35737005818E-01  0.00000000000E+00 0.  1.
  9000001    1    1    2    0    0  0.79558556554E-02 -0.12321756241E-01  0.32588529712E-01  0.35750994182E-01  0.10000000475E-02 0. -1.
</event>
<event>
 4   0  0.4892667E-02  0.9118800E+02  0.7818609E-02  0.1379984E+01
      -11   -1    0    0    0    0  0.00000000000E+00  0.00000000000E+00  0.35740347158E-01  0.35744000000E-01  0.51099999109E-03 0.  1.
       11   -1    0    0    0    0 -0.00000000000E+00 -0.00000000000E+00 -0.35740347158E-01  0.35744000000E-01  0.51099999109E-03 0. -1.
       22    1    1    2    0    0 -0.18000840468E-01 -0.96860877589E-02  0.29313529833E-01  0.35737005818E-01  0.00000000000E+00 0.  1.
  9000001    1    1    2    0    0  0.18000840468E-01  0.96860877589E-02 -0.29313529833E-01  0.35750994182E-01  0.10000000475E-02 0. -1.
</event>
<event>
 4   0  0.4892667E-02  0.9118800E+02  0.7818609E-02  0.1379984E+01
      -11   -1    0    0    0    0  0.00000000000E+00  0.00000000000E+00  0.35740347158E-01  0.35744000000E-01  0.51099999109E-03 0.  1.
       11   -1    0    0    0    0 -0.00000000000E+00 -0.00000000000E+00 -0.35740347158E-01  0.35744000000E-01  0.51099999109E-03 0. -1.
       22    1    1    2    0    0  0.30477258239E-02  0.46341392760E-03  0.35603794737E-01  0.35737005818E-01  0.00000000000E+00 0.  1.
  9000001    1    1    2    0    0 -0.30477258239E-02 -0.46341392760E-03 -0.35603794737E-01  0.35750994182E-01  0.10000000475E-02 0. -1.
</event>
<event>
 4   0  0.4892667E-02  0.9118800E+02  0.7818609E-02  0.1379984E+01
      -11   -1    0    0    0    0  0.00000000000E+00  0.00000000000E+00  0.35740347158E-01  0.35744000000E-01  0.51099999109E-03 0.  1.
       11   -1    0    0    0    0 -0.00000000000E+00 -0.00000000000E+00 -0.35740347158E-01  0.35744000000E-01  0.51099999109E-03 0. -1.
       22    1    1    2    0    0 -0.21585017893E-02 -0.16276120677E-01  0.31742122654E-01  0.35737005818E-01  0.00000000000E+00 0.  1.
  9000001    1    1    2    0    0  0.21585017893E-02  0.16276120677E-01 -0.31742122654E-01  0.35750994182E-01  0.10000000475E-02 0. -1.
</event>
<event>
 4   0  0.4892667E-02  0.9118800E+02  0.7818609E-02  0.1379984E+01
      -11   -1    0    0    0    0  0.00000000000E+00  0.00000000000E+00  0.35740347158E-01  0.35744000000E-01  0.51099999109E-03 0.  1.
       11   -1    0    0    0    0 -0.00000000000E+00 -0.00000000000E+00 -0.35740347158E-01  0.35744000000E-01  0.51099999109E-03 0. -1.
       22    1    1    2    0    0  0.70702148430E-02  0.11511269802E-02 -0.35011720232E-01  0.35737005818E-01  0.00000000000E+00 0. -1.
  9000001    1    1    2    0    0 -0.70702148430E-02 -0.11511269802E-02  0.35011720232E-01  0.35750994182E-01  0.10000000475E-02 0.  1.
</event>
<event>
 4   0  0.4892667E-02  0.9118800E+02  0.7818609E-02  0.1379984E+01
      -11   -1    0    0    0    0  0.00000000000E+00  0.00000000000E+00  0.35740347158E-01  0.35744000000E-01  0.51099999109E-03 0.  1.
       11   -1    0    0    0    0 -0.00000000000E+00 -0.00000000000E+00 -0.35740347158E-01  0.35744000000E-01  0.51099999109E-03 0. -1.
       22    1    1    2    0    0  0.20123747080E-02 -0.28524384214E-02 -0.35566100826E-01  0.35737005818E-01  0.00000000000E+00 0. -1.
  9000001    1    1    2    0    0 -0.20123747080E-02  0.28524384214E-02  0.35566100826E-01  0.35750994182E-01  0.10000000475E-02 0.  1.
</event>
<event>
 4   0  0.4892667E-02  0.9118800E+02  0.7818609E-02  0.1379984E+01
      -11   -1    0    0    0    0  0.00000000000E+00  0.00000000000E+00  0.35740347158E-01  0.35744000000E-01  0.51099999109E-03 0.  1.
       11   -1    0    0    0    0 -0.00000000000E+00 -0.00000000000E+00 -0.35740347158E-01  0.35744000000E-01  0.51099999109E-03 0. -1.
       22    1    1    2    0    0  0.31215436585E-02 -0.35083777772E-02  0.35427120056E-01  0.35737005818E-01  0.00000000000E+00 0.  1.
  9000001    1    1    2    0    0 -0.31215436585E-02  0.35083777772E-02 -0.35427120056E-01  0.35750994182E-01  0.10000000475E-02 0. -1.
</event>
<event>
 4   0  0.4892667E-02  0.9118800E+02  0.7818609E-02  0.1379984E+01
      -11   -1    0    0    0    0  0.00000000000E+00  0.00000000000E+00  0.35740347158E-01  0.35744000000E-01  0.51099999109E-03 0.  1.
       11   -1    0    0    0    0 -0.00000000000E+00 -0.00000000000E+00 -0.35740347158E-01  0.35744000000E-01  0.51099999109E-03 0. -1.
       22    1    1    2    0    0  0.10075432837E-01 -0.51332157485E-02  0.33900875123E-01  0.35737005818E-01  0.00000000000E+00 0.  1.
  9000001    1    1    2    0    0 -0.10075432837E-01  0.51332157485E-02 -0.33900875123E-01  0.35750994182E-01  0.10000000475E-02 0. -1.
</event>
<event>
 4   0  0.4892667E-02  0.9118800E+02  0.7818609E-02  0.1379984E+01
      -11   -1    0    0    0    0  0.00000000000E+00  0.00000000000E+00  0.35740347158E-01  0.35744000000E-01  0.51099999109E-03 0. -1.
       11   -1    0    0    0    0 -0.00000000000E+00 -0.00000000000E+00 -0.35740347158E-01  0.35744000000E-01  0.51099999109E-03 0.  1.
       22    1    1    2    0    0  0.23860405622E-02 -0.20868320756E-02  0.35596144836E-01  0.35737005818E-01  0.00000000000E+00 0. -1.
  9000001    1    1    2    0    0 -0.23860405622E-02  0.20868320756E-02 -0.35596144836E-01  0.35750994182E-01  0.10000000475E-02 0.  1.
</event>
<event>
 4   0  0.4892667E-02  0.9118800E+02  0.7818609E-02  0.1379984E+01
      -11   -1    0    0    0    0  0.00000000000E+00  0.00000000000E+00  0.35740347158E-01  0.35744000000E-01  0.51099999109E-03 0.  1.
       11   -1    0    0    0    0 -0.00000000000E+00 -0.00000000000E+00 -0.35740347158E-01  0.35744000000E-01  0.51099999109E-03 0. -1.
       22    1    1    2    0    0  0.38649441818E-02  0.57782795031E-02  0.35054347481E-01  0.35737005818E-01  0.00000000000E+00 0.  1.
  9000001    1    1    2    0    0 -0.38649441818E-02 -0.57782795031E-02 -0.35054347481E-01  0.35750994182E-01  0.10000000475E-02 0. -1.
</event>
<event>
 4   0  0.4892667E-02  0.9118800E+02  0.7818609E-02  0.1379984E+01
      -11   -1    0    0    0    0  0.00000000000E+00  0.00000000000E+00  0.35740347158E-01  0.35744000000E-01  0.51099999109E-03 0. -1.
       11   -1    0    0    0    0 -0.00000000000E+00 -0.00000000000E+00 -0.35740347158E-01  0.35744000000E-01  0.51099999109E-03 0.  1.
       22    1    1    2    0    0 -0.20681747396E-01 -0.60460310800E-02  0.28510426473E-01  0.35737005818E-01  0.00000000000E+00 0. -1.
  9000001    1    1    2    0    0  0.20681747396E-01  0.60460310800E-02 -0.28510426473E-01  0.35750994182E-01  0.10000000475E-02 0.  1.
</event>
<event>
 4   0  0.4892667E-02  0.9118800E+02  0.7818609E-02  0.1379984E+01
      -11   -1    0    0    0    0  0.00000000000E+00  0.00000000000E+00  0.35740347158E-01  0.35744000000E-01  0.51099999109E-03 0.  1.
       11   -1    0    0    0    0 -0.00000000000E+00 -0.00000000000E+00 -0.35740347158E-01  0.35744000000E-01  0.51099999109E-03 0. -1.
       22    1    1    2    0    0 -0.50869377474E-02 -0.25038995287E-01  0.24986103423E-01  0.35737005818E-01  0.00000000000E+00 0.  1.
  9000001    1    1    2    0    0  0.50869377474E-02  0.25038995287E-01 -0.24986103423E-01  0.35750994182E-01  0.10000000475E-02 0. -1.
</event>
<event>
 4   0  0.4892667E-02  0.9118800E+02  0.7818609E-02  0.1379984E+01
      -11   -1    0    0    0    0  0.00000000000E+00  0.00000000000E+00  0.35740347158E-01  0.35744000000E-01  0.51099999109E-03 0. -1.
       11   -1    0    0    0    0 -0.00000000000E+00 -0.00000000000E+00 -0.35740347158E-01  0.35744000000E-01  0.51099999109E-03 0.  1.
       22    1    1    2    0    0  0.66663912522E-02 -0.37948944523E-02  0.34904033988E-01  0.35737005818E-01  0.00000000000E+00 0. -1.
  9000001    1    1    2    0    0 -0.66663912522E-02  0.37948944523E-02 -0.34904033988E-01  0.35750994182E-01  0.10000000475E-02 0.  1.
</event>
<event>
 4   0  0.4892667E-02  0.9118800E+02  0.7818609E-02  0.1379984E+01
      -11   -1    0    0    0    0  0.00000000000E+00  0.00000000000E+00  0.35740347158E-01  0.35744000000E-01  0.51099999109E-03 0.  1.
       11   -1    0    0    0    0 -0.00000000000E+00 -0.00000000000E+00 -0.35740347158E-01  0.35744000000E-01  0.51099999109E-03 0. -1.
       22    1    1    2    0    0  0.46413000423E-02  0.19845198200E-02  0.35378716764E-01  0.35737005818E-01  0.00000000000E+00 0.  1.
  9000001    1    1    2    0    0 -0.46413000423E-02 -0.19845198200E-02 -0.35378716764E-01  0.35750994182E-01  0.10000000475E-02 0. -1.
</event>
<event>
 4   0  0.4892667E-02  0.9118800E+02  0.7818609E-02  0.1379984E+01
      -11   -1    0    0    0    0  0.00000000000E+00  0.00000000000E+00  0.35740347158E-01  0.35744000000E-01  0.51099999109E-03 0. -1.
       11   -1    0    0    0    0 -0.00000000000E+00 -0.00000000000E+00 -0.35740347158E-01  0.35744000000E-01  0.51099999109E-03 0.  1.
       22    1    1    2    0    0  0.63457836642E-02 -0.79521845362E-03  0.35160094456E-01  0.35737005818E-01  0.00000000000E+00 0. -1.
  9000001    1    1    2    0    0 -0.63457836642E-02  0.79521845362E-03 -0.35160094456E-01  0.35750994182E-01  0.10000000475E-02 0.  1.
</event>
<event>
 4   0  0.4892667E-02  0.9118800E+02  0.7818609E-02  0.1379984E+01
      -11   -1    0    0    0    0  0.00000000000E+00  0.00000000000E+00  0.35740347158E-01  0.35744000000E-01  0.51099999109E-03 0. -1.
       11   -1    0    0    0    0 -0.00000000000E+00 -0.00000000000E+00 -0.35740347158E-01  0.35744000000E-01  0.51099999109E-03 0.  1.
       22    1    1    2    0    0  0.34896498473E-02  0.85493603615E-02  0.34523388684E-01  0.35737005818E-01  0.00000000000E+00 0. -1.
  9000001    1    1    2    0    0 -0.34896498473E-02 -0.85493603615E-02 -0.34523388684E-01  0.35750994182E-01  0.10000000475E-02 0.  1.
</event>
<event>
 4   0  0.4892667E-02  0.9118800E+02  0.7818609E-02  0.1379984E+01
      -11   -1    0    0    0    0  0.00000000000E+00  0.00000000000E+00  0.35740347158E-01  0.35744000000E-01  0.51099999109E-03 0. -1.
       11   -1    0    0    0    0 -0.00000000000E+00 -0.00000000000E+00 -0.35740347158E-01  0.35744000000E-01  0.51099999109E-03 0.  1.
       22    1    1    2    0    0 -0.64637625821E-02  0.12385705391E-02  0.35125764065E-01  0.35737005818E-01  0.00000000000E+00 0. -1.
  9000001    1    1    2    0    0  0.64637625821E-02 -0.12385705391E-02 -0.35125764065E-01  0.35750994182E-01  0.10000000475E-02 0.  1.
</event>
<event>
 4   0  0.4892667E-02  0.9118800E+02  0.7818609E-02  0.1379984E+01
      -11   -1    0    0    0    0  0.00000000000E+00  0.00000000000E+00  0.35740347158E-01  0.35744000000E-01  0.51099999109E-03 0.  1.
       11   -1    0    0    0    0 -0.00000000000E+00 -0.00000000000E+00 -0.35740347158E-01  0.35744000000E-01  0.51099999109E-03 0. -1.
       22    1    1    2    0    0 -0.73127809603E-02 -0.14972836856E-02 -0.34948747632E-01  0.35737005818E-01  0.00000000000E+00 0. -1.
  9000001    1    1    2    0    0  0.73127809603E-02  0.14972836856E-02  0.34948747632E-01  0.35750994182E-01  0.10000000475E-02 0.  1.
</event>
<event>
 4   0  0.4892667E-02  0.9118800E+02  0.7818609E-02  0.1379984E+01
      -11   -1    0    0    0    0  0.00000000000E+00  0.00000000000E+00  0.35740347158E-01  0.35744000000E-01  0.51099999109E-03 0.  1.
       11   -1    0    0    0    0 -0.00000000000E+00 -0.00000000000E+00 -0.35740347158E-01  0.35744000000E-01  0.51099999109E-03 0. -1.
       22    1    1    2    0    0 -0.54351731327E-02 -0.13457005432E-02 -0.35295631004E-01  0.35737005818E-01  0.00000000000E+00 0. -1.
  9000001    1    1    2    0    0  0.54351731327E-02  0.13457005432E-02  0.35295631004E-01  0.35750994182E-01  0.10000000475E-02 0.  1.
</event>
<event>
 4   0  0.4892667E-02  0.9118800E+02  0.7818609E-02  0.1379984E+01
      -11   -1    0    0    0    0  0.00000000000E+00  0.00000000000E+00  0.35740347158E-01  0.35744000000E-01  0.51099999109E-03 0. -1.
       11   -1    0    0    0    0 -0.00000000000E+00 -0.00000000000E+00 -0.35740347158E-01  0.35744000000E-01  0.51099999109E-03 0.  1.
       22    1    1    2    0    0  0.11146707281E-01 -0.17597151007E-02 -0.33908522593E-01  0.35737005818E-01  0.00000000000E+00 0.  1.
  9000001    1    1    2    0    0 -0.11146707281E-01  0.17597151007E-02  0.33908522593E-01  0.35750994182E-01  0.10000000475E-02 0. -1.
</event>
<event>
 4   0  0.4892667E-02  0.9118800E+02  0.7818609E-02  0.1379984E+01
      -11   -1    0    0    0    0  0.00000000000E+00  0.00000000000E+00  0.35740347158E-01  0.35744000000E-01  0.51099999109E-03 0.  1.
       11   -1    0    0    0    0 -0.00000000000E+00 -0.00000000000E+00 -0.35740347158E-01  0.35744000000E-01  0.51099999109E-03 0. -1.
       22    1    1    2    0    0 -0.87378708016E-02  0.34640538489E-01 -0.90348875556E-03  0.35737005818E-01  0.00000000000E+00 0. -1.
  9000001    1    1    2    0    0  0.87378708016E-02 -0.34640538489E-01  0.90348875556E-03  0.35750994182E-01  0.10000000475E-02 0.  1.
</event>
<event>
 4   0  0.4892667E-02  0.9118800E+02  0.7818609E-02  0.1379984E+01
      -11   -1    0    0    0    0  0.00000000000E+00  0.00000000000E+00  0.35740347158E-01  0.35744000000E-01  0.51099999109E-03 0.  1.
       11   -1    0    0    0    0 -0.00000000000E+00 -0.00000000000E+00 -0.35740347158E-01  0.35744000000E-01  0.51099999109E-03 0. -1.
       22    1    1    2    0    0  0.10572824165E-01 -0.27463583418E-01  0.20275614908E-01  0.35737005818E-01  0.00000000000E+00 0. -1.
  9000001    1    1    2    0    0 -0.10572824165E-01  0.27463583418E-01 -0.20275614908E-01  0.35750994182E-01  0.10000000475E-02 0.  1.
</event>
<event>
 4   0  0.4892667E-02  0.9118800E+02  0.7818609E-02  0.1379984E+01
      -11   -1    0    0    0    0  0.00000000000E+00  0.00000000000E+00  0.35740347158E-01  0.35744000000E-01  0.51099999109E-03 0. -1.
       11   -1    0    0    0    0 -0.00000000000E+00 -0.00000000000E+00 -0.35740347158E-01  0.35744000000E-01  0.51099999109E-03 0.  1.
       22    1    1    2    0    0  0.70898455705E-02 -0.17093588209E-01  0.30572486271E-01  0.35737005818E-01  0.00000000000E+00 0. -1.
  9000001    1    1    2    0    0 -0.70898455705E-02  0.17093588209E-01 -0.30572486271E-01  0.35750994182E-01  0.10000000475E-02 0.  1.
</event>
<event>
 4   0  0.4892667E-02  0.9118800E+02  0.7818609E-02  0.1379984E+01
      -11   -1    0    0    0    0  0.00000000000E+00  0.00000000000E+00  0.35740347158E-01  0.35744000000E-01  0.51099999109E-03 0. -1.
       11   -1    0    0    0    0 -0.00000000000E+00 -0.00000000000E+00 -0.35740347158E-01  0.35744000000E-01  0.51099999109E-03 0.  1.
       22    1    1    2    0    0  0.47041251395E-02  0.21729302402E-01  0.27979317516E-01  0.35737005818E-01  0.00000000000E+00 0. -1.
  9000001    1    1    2    0    0 -0.47041251395E-02 -0.21729302402E-01 -0.27979317516E-01  0.35750994182E-01  0.10000000475E-02 0.  1.
</event>
<event>
 4   0  0.4892667E-02  0.9118800E+02  0.7818609E-02  0.1379984E+01
      -11   -1    0    0    0    0  0.00000000000E+00  0.00000000000E+00  0.35740347158E-01  0.35744000000E-01  0.51099999109E-03 0. -1.
       11   -1    0    0    0    0 -0.00000000000E+00 -0.00000000000E+00 -0.35740347158E-01  0.35744000000E-01  0.51099999109E-03 0.  1.
       22    1    1    2    0    0 -0.27294822089E-03 -0.69411368028E-02 -0.35055380529E-01  0.35737005818E-01  0.00000000000E+00 0.  1.
  9000001    1    1    2    0    0  0.27294822089E-03  0.69411368028E-02  0.35055380529E-01  0.35750994182E-01  0.10000000475E-02 0. -1.
</event>
<event>
 4   0  0.4892667E-02  0.9118800E+02  0.7818609E-02  0.1379984E+01
      -11   -1    0    0    0    0  0.00000000000E+00  0.00000000000E+00  0.35740347158E-01  0.35744000000E-01  0.51099999109E-03 0.  1.
       11   -1    0    0    0    0 -0.00000000000E+00 -0.00000000000E+00 -0.35740347158E-01  0.35744000000E-01  0.51099999109E-03 0. -1.
       22    1    1    2    0    0 -0.17111280554E-01  0.30766600157E-01  0.61444265347E-02  0.35737005818E-01  0.00000000000E+00 0. -1.
  9000001    1    1    2    0    0  0.17111280554E-01 -0.30766600157E-01 -0.61444265347E-02  0.35750994182E-01  0.10000000475E-02 0.  1.
</event>
<event>
 4   0  0.4892667E-02  0.9118800E+02  0.7818609E-02  0.1379984E+01
      -11   -1    0    0    0    0  0.00000000000E+00  0.00000000000E+00  0.35740347158E-01  0.35744000000E-01  0.51099999109E-03 0.  1.
       11   -1    0    0    0    0 -0.00000000000E+00 -0.00000000000E+00 -0.35740347158E-01  0.35744000000E-01  0.51099999109E-03 0. -1.
       22    1    1    2    0    0  0.13132613331E-01  0.70062294658E-02  0.32489702994E-01  0.35737005818E-01  0.00000000000E+00 0.  1.
  9000001    1    1    2    0    0 -0.13132613331E-01 -0.70062294658E-02 -0.32489702994E-01  0.35750994182E-01  0.10000000475E-02 0. -1.
</event>
<event>
 4   0  0.4892667E-02  0.9118800E+02  0.7818609E-02  0.1379984E+01
      -11   -1    0    0    0    0  0.00000000000E+00  0.00000000000E+00  0.35740347158E-01  0.35744000000E-01  0.51099999109E-03 0. -1.
       11   -1    0    0    0    0 -0.00000000000E+00 -0.00000000000E+00 -0.35740347158E-01  0.35744000000E-01  0.51099999109E-03 0.  1.
       22    1    1    2    0    0 -0.14180422354E-01 -0.95710020221E-02 -0.31375868546E-01  0.35737005818E-01  0.00000000000E+00 0.  1.
  9000001    1    1    2    0    0  0.14180422354E-01  0.95710020221E-02  0.31375868546E-01  0.35750994182E-01  0.10000000475E-02 0. -1.
</event>
<event>
 4   0  0.4892667E-02  0.9118800E+02  0.7818609E-02  0.1379984E+01
      -11   -1    0    0    0    0  0.00000000000E+00  0.00000000000E+00  0.35740347158E-01  0.35744000000E-01  0.51099999109E-03 0.  1.
       11   -1    0    0    0    0 -0.00000000000E+00 -0.00000000000E+00 -0.35740347158E-01  0.35744000000E-01  0.51099999109E-03 0. -1.
       22    1    1    2    0    0  0.55475901388E-02 -0.70472251873E-02  0.34593271682E-01  0.35737005818E-01  0.00000000000E+00 0.  1.
  9000001    1    1    2    0    0 -0.55475901388E-02  0.70472251873E-02 -0.34593271682E-01  0.35750994182E-01  0.10000000475E-02 0. -1.
</event>
<event>
 4   0  0.4892667E-02  0.9118800E+02  0.7818609E-02  0.1379984E+01
      -11   -1    0    0    0    0  0.00000000000E+00  0.00000000000E+00  0.35740347158E-01  0.35744000000E-01  0.51099999109E-03 0. -1.
       11   -1    0    0    0    0 -0.00000000000E+00 -0.00000000000E+00 -0.35740347158E-01  0.35744000000E-01  0.51099999109E-03 0.  1.
       22    1    1    2    0    0 -0.26599924792E-02  0.23699053669E-02 -0.35558987239E-01  0.35737005818E-01  0.00000000000E+00 0.  1.
  9000001    1    1    2    0    0  0.26599924792E-02 -0.23699053669E-02  0.35558987239E-01  0.35750994182E-01  0.10000000475E-02 0. -1.
</event>
<event>
 4   0  0.4892667E-02  0.9118800E+02  0.7818609E-02  0.1379984E+01
      -11   -1    0    0    0    0  0.00000000000E+00  0.00000000000E+00  0.35740347158E-01  0.35744000000E-01  0.51099999109E-03 0. -1.
       11   -1    0    0    0    0 -0.00000000000E+00 -0.00000000000E+00 -0.35740347158E-01  0.35744000000E-01  0.51099999109E-03 0.  1.
       22    1    1    2    0    0 -0.33947758683E-01  0.84629062221E-02  0.72844000145E-02  0.35737005818E-01  0.00000000000E+00 0. -1.
  9000001    1    1    2    0    0  0.33947758683E-01 -0.84629062221E-02 -0.72844000145E-02  0.35750994182E-01  0.10000000475E-02 0.  1.
</event>
<event>
 4   0  0.4892667E-02  0.9118800E+02  0.7818609E-02  0.1379984E+01
      -11   -1    0    0    0    0  0.00000000000E+00  0.00000000000E+00  0.35740347158E-01  0.35744000000E-01  0.51099999109E-03 0.  1.
       11   -1    0    0    0    0 -0.00000000000E+00 -0.00000000000E+00 -0.35740347158E-01  0.35744000000E-01  0.51099999109E-03 0. -1.
       22    1    1    2    0    0  0.90256715699E-03 -0.12331143054E-01 -0.33530014440E-01  0.35737005818E-01  0.00000000000E+00 0. -1.
  9000001    1    1    2    0    0 -0.90256715699E-03  0.12331143054E-01  0.33530014440E-01  0.35750994182E-01  0.10000000475E-02 0.  1.
</event>
<event>
 4   0  0.4892667E-02  0.9118800E+02  0.7818609E-02  0.1379984E+01
      -11   -1    0    0    0    0  0.00000000000E+00  0.00000000000E+00  0.35740347158E-01  0.35744000000E-01  0.51099999109E-03 0. -1.
       11   -1    0    0    0    0 -0.00000000000E+00 -0.00000000000E+00 -0.35740347158E-01  0.35744000000E-01  0.51099999109E-03 0.  1.
       22    1    1    2    0    0  0.15304400494E-02  0.40877316213E-02 -0.35469448661E-01  0.35737005818E-01  0.00000000000E+00 0.  1.
  9000001    1    1    2    0    0 -0.15304400494E-02 -0.40877316213E-02  0.35469448661E-01  0.35750994182E-01  0.10000000475E-02 0. -1.
</event>
<event>
 4   0  0.4892667E-02  0.9118800E+02  0.7818609E-02  0.1379984E+01
      -11   -1    0    0    0    0  0.00000000000E+00  0.00000000000E+00  0.35740347158E-01  0.35744000000E-01  0.51099999109E-03 0.  1.
       11   -1    0    0    0    0 -0.00000000000E+00 -0.00000000000E+00 -0.35740347158E-01  0.35744000000E-01  0.51099999109E-03 0. -1.
       22    1    1    2    0    0 -0.25279022343E-02 -0.82883994712E-02  0.34670531138E-01  0.35737005818E-01  0.00000000000E+00 0.  1.
  9000001    1    1    2    0    0  0.25279022343E-02  0.82883994712E-02 -0.34670531138E-01  0.35750994182E-01  0.10000000475E-02 0. -1.
</event>
<event>
 4   0  0.4892667E-02  0.9118800E+02  0.7818609E-02  0.1379984E+01
      -11   -1    0    0    0    0  0.00000000000E+00  0.00000000000E+00  0.35740347158E-01  0.35744000000E-01  0.51099999109E-03 0. -1.
       11   -1    0    0    0    0 -0.00000000000E+00 -0.00000000000E+00 -0.35740347158E-01  0.35744000000E-01  0.51099999109E-03 0.  1.
       22    1    1    2    0    0  0.56437455923E-02  0.19626102166E-02 -0.35233930830E-01  0.35737005818E-01  0.00000000000E+00 0.  1.
  9000001    1    1    2    0    0 -0.56437455923E-02 -0.19626102166E-02  0.35233930830E-01  0.35750994182E-01  0.10000000475E-02 0. -1.
</event>
<event>
 4   0  0.4892667E-02  0.9118800E+02  0.7818609E-02  0.1379984E+01
      -11   -1    0    0    0    0  0.00000000000E+00  0.00000000000E+00  0.35740347158E-01  0.35744000000E-01  0.51099999109E-03 0. -1.
       11   -1    0    0    0    0 -0.00000000000E+00 -0.00000000000E+00 -0.35740347158E-01  0.35744000000E-01  0.51099999109E-03 0.  1.
       22    1    1    2    0    0 -0.27485004352E-02 -0.20869200427E-02  0.35569988684E-01  0.35737005818E-01  0.00000000000E+00 0. -1.
  9000001    1    1    2    0    0  0.27485004352E-02  0.20869200427E-02 -0.35569988684E-01  0.35750994182E-01  0.10000000475E-02 0.  1.
</event>
<event>
 4   0  0.4892667E-02  0.9118800E+02  0.7818609E-02  0.1379984E+01
      -11   -1    0    0    0    0  0.00000000000E+00  0.00000000000E+00  0.35740347158E-01  0.35744000000E-01  0.51099999109E-03 0.  1.
       11   -1    0    0    0    0 -0.00000000000E+00 -0.00000000000E+00 -0.35740347158E-01  0.35744000000E-01  0.51099999109E-03 0. -1.
       22    1    1    2    0    0  0.67863863935E-04  0.46431200307E-02  0.35434029065E-01  0.35737005818E-01  0.00000000000E+00 0.  1.
  9000001    1    1    2    0    0 -0.67863863935E-04 -0.46431200307E-02 -0.35434029065E-01  0.35750994182E-01  0.10000000475E-02 0. -1.
</event>
<event>
 4   0  0.4892667E-02  0.9118800E+02  0.7818609E-02  0.1379984E+01
      -11   -1    0    0    0    0  0.00000000000E+00  0.00000000000E+00  0.35740347158E-01  0.35744000000E-01  0.51099999109E-03 0. -1.
       11   -1    0    0    0    0 -0.00000000000E+00 -0.00000000000E+00 -0.35740347158E-01  0.35744000000E-01  0.51099999109E-03 0.  1.
       22    1    1    2    0    0  0.33419586843E-01  0.10138757306E-01 -0.75809234554E-02  0.35737005818E-01  0.00000000000E+00 0. -1.
  9000001    1    1    2    0    0 -0.33419586843E-01 -0.10138757306E-01  0.75809234554E-02  0.35750994182E-01  0.10000000475E-02 0.  1.
</event>
<event>
 4   0  0.4892667E-02  0.9118800E+02  0.7818609E-02  0.1379984E+01
      -11   -1    0    0    0    0  0.00000000000E+00  0.00000000000E+00  0.35740347158E-01  0.35744000000E-01  0.51099999109E-03 0.  1.
       11   -1    0    0    0    0 -0.00000000000E+00 -0.00000000000E+00 -0.35740347158E-01  0.35744000000E-01  0.51099999109E-03 0. -1.
       22    1    1    2    0    0  0.32416864706E-02 -0.50849477107E-02 -0.35224542019E-01  0.35737005818E-01  0.00000000000E+00 0. -1.
  9000001    1    1    2    0    0 -0.32416864706E-02  0.50849477107E-02  0.35224542019E-01  0.35750994182E-01  0.10000000475E-02 0.  1.
</event>
<event>
 4   0  0.4892667E-02  0.9118800E+02  0.7818609E-02  0.1379984E+01
      -11   -1    0    0    0    0  0.00000000000E+00  0.00000000000E+00  0.35740347158E-01  0.35744000000E-01  0.51099999109E-03 0. -1.
       11   -1    0    0    0    0 -0.00000000000E+00 -0.00000000000E+00 -0.35740347158E-01  0.35744000000E-01  0.51099999109E-03 0.  1.
       22    1    1    2    0    0 -0.19741135008E-01  0.20409860710E-02  0.29719615565E-01  0.35737005818E-01  0.00000000000E+00 0. -1.
  9000001    1    1    2    0    0  0.19741135008E-01 -0.20409860710E-02 -0.29719615565E-01  0.35750994182E-01  0.10000000475E-02 0.  1.
</event>
<event>
 4   0  0.4892667E-02  0.9118800E+02  0.7818609E-02  0.1379984E+01
      -11   -1    0    0    0    0  0.00000000000E+00  0.00000000000E+00  0.35740347158E-01  0.35744000000E-01  0.51099999109E-03 0.  1.
       11   -1    0    0    0    0 -0.00000000000E+00 -0.00000000000E+00 -0.35740347158E-01  0.35744000000E-01  0.51099999109E-03 0. -1.
       22    1    1    2    0    0 -0.24202922079E-01  0.83840389681E-02  0.24921076186E-01  0.35737005818E-01  0.00000000000E+00 0.  1.
  9000001    1    1    2    0    0  0.24202922079E-01 -0.83840389681E-02 -0.24921076186E-01  0.35750994182E-01  0.10000000475E-02 0. -1.
</event>
<event>
 4   0  0.4892667E-02  0.9118800E+02  0.7818609E-02  0.1379984E+01
      -11   -1    0    0    0    0  0.00000000000E+00  0.00000000000E+00  0.35740347158E-01  0.35744000000E-01  0.51099999109E-03 0.  1.
       11   -1    0    0    0    0 -0.00000000000E+00 -0.00000000000E+00 -0.35740347158E-01  0.35744000000E-01  0.51099999109E-03 0. -1.
       22    1    1    2    0    0  0.18080717633E-01  0.12811082379E-01  0.28037428609E-01  0.35737005818E-01  0.00000000000E+00 0.  1.
  9000001    1    1    2    0    0 -0.18080717633E-01 -0.12811082379E-01 -0.28037428609E-01  0.35750994182E-01  0.10000000475E-02 0. -1.
</event>
<event>
 4   0  0.4892667E-02  0.9118800E+02  0.7818609E-02  0.1379984E+01
      -11   -1    0    0    0    0  0.00000000000E+00  0.00000000000E+00  0.35740347158E-01  0.35744000000E-01  0.51099999109E-03 0.  1.
       11   -1    0    0    0    0 -0.00000000000E+00 -0.00000000000E+00 -0.35740347158E-01  0.35744000000E-01  0.51099999109E-03 0. -1.
       22    1    1    2    0    0 -0.31596726913E-01 -0.13946681398E-01  0.91798971258E-02  0.35737005818E-01  0.00000000000E+00 0.  1.
  9000001    1    1    2    0    0  0.31596726913E-01  0.13946681398E-01 -0.91798971258E-02  0.35750994182E-01  0.10000000475E-02 0. -1.
</event>
<event>
 4   0  0.4892667E-02  0.9118800E+02  0.7818609E-02  0.1379984E+01
      -11   -1    0    0    0    0  0.00000000000E+00  0.00000000000E+00  0.35740347158E-01  0.35744000000E-01  0.51099999109E-03 0.  1.
       11   -1    0    0    0    0 -0.00000000000E+00 -0.00000000000E+00 -0.35740347158E-01  0.35744000000E-01  0.51099999109E-03 0. -1.
       22    1    1    2    0    0 -0.85368360354E-02  0.29998139418E-01 -0.17446135584E-01  0.35737005818E-01  0.00000000000E+00 0. -1.
  9000001    1    1    2    0    0  0.85368360354E-02 -0.29998139418E-01  0.17446135584E-01  0.35750994182E-01  0.10000000475E-02 0.  1.
</event>
<event>
 4   0  0.4892667E-02  0.9118800E+02  0.7818609E-02  0.1379984E+01
      -11   -1    0    0    0    0  0.00000000000E+00  0.00000000000E+00  0.35740347158E-01  0.35744000000E-01  0.51099999109E-03 0.  1.
       11   -1    0    0    0    0 -0.00000000000E+00 -0.00000000000E+00 -0.35740347158E-01  0.35744000000E-01  0.51099999109E-03 0. -1.
       22    1    1    2    0    0  0.36335034377E-02 -0.60681642693E-02  0.35030110192E-01  0.35737005818E-01  0.00000000000E+00 0.  1.
  9000001    1    1    2    0    0 -0.36335034377E-02  0.60681642693E-02 -0.35030110192E-01  0.35750994182E-01  0.10000000475E-02 0. -1.
</event>
<event>
 4   0  0.4892667E-02  0.9118800E+02  0.7818609E-02  0.1379984E+01
      -11   -1    0    0    0    0  0.00000000000E+00  0.00000000000E+00  0.35740347158E-01  0.35744000000E-01  0.51099999109E-03 0.  1.
       11   -1    0    0    0    0 -0.00000000000E+00 -0.00000000000E+00 -0.35740347158E-01  0.35744000000E-01  0.51099999109E-03 0. -1.
       22    1    1    2    0    0 -0.86091317420E-02 -0.27764301668E-01 -0.20788458057E-01  0.35737005818E-01  0.00000000000E+00 0. -1.
  9000001    1    1    2    0    0  0.86091317420E-02  0.27764301668E-01  0.20788458057E-01  0.35750994182E-01  0.10000000475E-02 0.  1.
</event>
<event>
 4   0  0.4892667E-02  0.9118800E+02  0.7818609E-02  0.1379984E+01
      -11   -1    0    0    0    0  0.00000000000E+00  0.00000000000E+00  0.35740347158E-01  0.35744000000E-01  0.51099999109E-03 0. -1.
       11   -1    0    0    0    0 -0.00000000000E+00 -0.00000000000E+00 -0.35740347158E-01  0.35744000000E-01  0.51099999109E-03 0.  1.
       22    1    1    2    0    0  0.28078034061E-01  0.40023861764E-02 -0.21742550288E-01  0.35737005818E-01  0.00000000000E+00 0.  1.
  9000001    1    1    2    0    0 -0.28078034061E-01 -0.40023861764E-02  0.21742550288E-01  0.35750994182E-01  0.10000000475E-02 0. -1.
</event>
<event>
 4   0  0.4892667E-02  0.9118800E+02  0.7818609E-02  0.1379984E+01
      -11   -1    0    0    0    0  0.00000000000E+00  0.00000000000E+00  0.35740347158E-01  0.35744000000E-01  0.51099999109E-03 0.  1.
       11   -1    0    0    0    0 -0.00000000000E+00 -0.00000000000E+00 -0.35740347158E-01  0.35744000000E-01  0.51099999109E-03 0. -1.
       22    1    1    2    0    0  0.16879051984E-01 -0.40503099473E-02  0.31238216632E-01  0.35737005818E-01  0.00000000000E+00 0.  1.
  9000001    1    1    2    0    0 -0.16879051984E-01  0.40503099473E-02 -0.31238216632E-01  0.35750994182E-01  0.10000000475E-02 0. -1.
</event>
<event>
 4   0  0.4892667E-02  0.9118800E+02  0.7818609E-02  0.1379984E+01
      -11   -1    0    0    0    0  0.00000000000E+00  0.00000000000E+00  0.35740347158E-01  0.35744000000E-01  0.51099999109E-03 0. -1.
       11   -1    0    0    0    0 -0.00000000000E+00 -0.00000000000E+00 -0.35740347158E-01  0.35744000000E-01  0.51099999109E-03 0.  1.
       22    1    1    2    0    0  0.29274878932E-02  0.15594219248E-02 -0.35582743047E-01  0.35737005818E-01  0.00000000000E+00 0.  1.
  9000001    1    1    2    0    0 -0.29274878932E-02 -0.15594219248E-02  0.35582743047E-01  0.35750994182E-01  0.10000000475E-02 0. -1.
</event>
<event>
 4   0  0.4892667E-02  0.9118800E+02  0.7818609E-02  0.1379984E+01
      -11   -1    0    0    0    0  0.00000000000E+00  0.00000000000E+00  0.35740347158E-01  0.35744000000E-01  0.51099999109E-03 0.  1.
       11   -1    0    0    0    0 -0.00000000000E+00 -0.00000000000E+00 -0.35740347158E-01  0.35744000000E-01  0.51099999109E-03 0. -1.
       22    1    1    2    0    0 -0.76414674341E-02 -0.35291091849E-03  0.34908695395E-01  0.35737005818E-01  0.00000000000E+00 0.  1.
  9000001    1    1    2    0    0  0.76414674341E-02  0.35291091849E-03 -0.34908695395E-01  0.35750994182E-01  0.10000000475E-02 0. -1.
</event>
<event>
 4   0  0.4892667E-02  0.9118800E+02  0.7818609E-02  0.1379984E+01
      -11   -1    0    0    0    0  0.00000000000E+00  0.00000000000E+00  0.35740347158E-01  0.35744000000E-01  0.51099999109E-03 0. -1.
       11   -1    0    0    0    0 -0.00000000000E+00 -0.00000000000E+00 -0.35740347158E-01  0.35744000000E-01  0.51099999109E-03 0.  1.
       22    1    1    2    0    0  0.12888200162E-01 -0.26016177017E-02  0.33230399739E-01  0.35737005818E-01  0.00000000000E+00 0. -1.
  9000001    1    1    2    0    0 -0.12888200162E-01  0.26016177017E-02 -0.33230399739E-01  0.35750994182E-01  0.10000000475E-02 0.  1.
</event>
<event>
 4   0  0.4892667E-02  0.9118800E+02  0.7818609E-02  0.1379984E+01
      -11   -1    0    0    0    0  0.00000000000E+00  0.00000000000E+00  0.35740347158E-01  0.35744000000E-01  0.51099999109E-03 0. -1.
       11   -1    0    0    0    0 -0.00000000000E+00 -0.00000000000E+00 -0.35740347158E-01  0.35744000000E-01  0.51099999109E-03 0.  1.
       22    1    1    2    0    0  0.34582152915E-02 -0.94057519153E-03  0.35556850960E-01  0.35737005818E-01  0.00000000000E+00 0. -1.
  9000001    1    1    2    0    0 -0.34582152915E-02  0.94057519153E-03 -0.35556850960E-01  0.35750994182E-01  0.10000000475E-02 0.  1.
</event>
<event>
 4   0  0.4892667E-02  0.9118800E+02  0.7818609E-02  0.1379984E+01
      -11   -1    0    0    0    0  0.00000000000E+00  0.00000000000E+00  0.35740347158E-01  0.35744000000E-01  0.51099999109E-03 0.  1.
       11   -1    0    0    0    0 -0.00000000000E+00 -0.00000000000E+00 -0.35740347158E-01  0.35744000000E-01  0.51099999109E-03 0. -1.
       22    1    1    2    0    0  0.72947663631E-02  0.59914487751E-02  0.34467702421E-01  0.35737005818E-01  0.00000000000E+00 0.  1.
  9000001    1    1    2    0    0 -0.72947663631E-02 -0.59914487751E-02 -0.34467702421E-01  0.35750994182E-01  0.10000000475E-02 0. -1.
</event>
<event>
 4   0  0.4892667E-02  0.9118800E+02  0.7818609E-02  0.1379984E+01
      -11   -1    0    0    0    0  0.00000000000E+00  0.00000000000E+00  0.35740347158E-01  0.35744000000E-01  0.51099999109E-03 0.  1.
       11   -1    0    0    0    0 -0.00000000000E+00 -0.00000000000E+00 -0.35740347158E-01  0.35744000000E-01  0.51099999109E-03 0. -1.
       22    1    1    2    0    0 -0.18680879354E-01 -0.26261566948E-02  0.30352292046E-01  0.35737005818E-01  0.00000000000E+00 0.  1.
  9000001    1    1    2    0    0  0.18680879354E-01  0.26261566948E-02 -0.30352292046E-01  0.35750994182E-01  0.10000000475E-02 0. -1.
</event>
<event>
 4   0  0.4892667E-02  0.9118800E+02  0.7818609E-02  0.1379984E+01
      -11   -1    0    0    0    0  0.00000000000E+00  0.00000000000E+00  0.35740347158E-01  0.35744000000E-01  0.51099999109E-03 0. -1.
       11   -1    0    0    0    0 -0.00000000000E+00 -0.00000000000E+00 -0.35740347158E-01  0.35744000000E-01  0.51099999109E-03 0.  1.
       22    1    1    2    0    0  0.89334505059E-03 -0.31380701737E-02  0.35587751194E-01  0.35737005818E-01  0.00000000000E+00 0. -1.
  9000001    1    1    2    0    0 -0.89334505059E-03  0.31380701737E-02 -0.35587751194E-01  0.35750994182E-01  0.10000000475E-02 0.  1.
</event>
<event>
 4   0  0.4892667E-02  0.9118800E+02  0.7818609E-02  0.1379984E+01
      -11   -1    0    0    0    0  0.00000000000E+00  0.00000000000E+00  0.35740347158E-01  0.35744000000E-01  0.51099999109E-03 0. -1.
       11   -1    0    0    0    0 -0.00000000000E+00 -0.00000000000E+00 -0.35740347158E-01  0.35744000000E-01  0.51099999109E-03 0.  1.
       22    1    1    2    0    0  0.29641273870E-02 -0.61255524587E-02 -0.35083117603E-01  0.35737005818E-01  0.00000000000E+00 0.  1.
  9000001    1    1    2    0    0 -0.29641273870E-02  0.61255524587E-02  0.35083117603E-01  0.35750994182E-01  0.10000000475E-02 0. -1.
</event>
<event>
 4   0  0.4892667E-02  0.9118800E+02  0.7818609E-02  0.1379984E+01
      -11   -1    0    0    0    0  0.00000000000E+00  0.00000000000E+00  0.35740347158E-01  0.35744000000E-01  0.51099999109E-03 0.  1.
       11   -1    0    0    0    0 -0.00000000000E+00 -0.00000000000E+00 -0.35740347158E-01  0.35744000000E-01  0.51099999109E-03 0. -1.
       22    1    1    2    0    0 -0.24475702534E-02 -0.43560888076E-02  0.35385978509E-01  0.35737005818E-01  0.00000000000E+00 0.  1.
  9000001    1    1    2    0    0  0.24475702534E-02  0.43560888076E-02 -0.35385978509E-01  0.35750994182E-01  0.10000000475E-02 0. -1.
</event>
<event>
 4   0  0.4892667E-02  0.9118800E+02  0.7818609E-02  0.1379984E+01
      -11   -1    0    0    0    0  0.00000000000E+00  0.00000000000E+00  0.35740347158E-01  0.35744000000E-01  0.51099999109E-03 0. -1.
       11   -1    0    0    0    0 -0.00000000000E+00 -0.00000000000E+00 -0.35740347158E-01  0.35744000000E-01  0.51099999109E-03 0.  1.
       22    1    1    2    0    0 -0.24355816582E-01  0.16142932893E-01  0.20575069893E-01  0.35737005818E-01  0.00000000000E+00 0. -1.
  9000001    1    1    2    0    0  0.24355816582E-01 -0.16142932893E-01 -0.20575069893E-01  0.35750994182E-01  0.10000000475E-02 0.  1.
</event>
<event>
 4   0  0.4892667E-02  0.9118800E+02  0.7818609E-02  0.1379984E+01
      -11   -1    0    0    0    0  0.00000000000E+00  0.00000000000E+00  0.35740347158E-01  0.35744000000E-01  0.51099999109E-03 0.  1.
       11   -1    0    0    0    0 -0.00000000000E+00 -0.00000000000E+00 -0.35740347158E-01  0.35744000000E-01  0.51099999109E-03 0. -1.
       22    1    1    2    0    0 -0.35537273667E-01 -0.29294192153E-02  0.23778705215E-02  0.35737005818E-01  0.00000000000E+00 0.  1.
  9000001    1    1    2    0    0  0.35537273667E-01  0.29294192153E-02 -0.23778705215E-02  0.35750994182E-01  0.10000000475E-02 0. -1.
</event>
<event>
 4   0  0.4892667E-02  0.9118800E+02  0.7818609E-02  0.1379984E+01
      -11   -1    0    0    0    0  0.00000000000E+00  0.00000000000E+00  0.35740347158E-01  0.35744000000E-01  0.51099999109E-03 0. -1.
       11   -1    0    0    0    0 -0.00000000000E+00 -0.00000000000E+00 -0.35740347158E-01  0.35744000000E-01  0.51099999109E-03 0.  1.
       22    1    1    2    0    0  0.31514790846E-01 -0.16813360448E-01  0.11235894570E-02  0.35737005818E-01  0.00000000000E+00 0. -1.
  9000001    1    1    2    0    0 -0.31514790846E-01  0.16813360448E-01 -0.11235894570E-02  0.35750994182E-01  0.10000000475E-02 0.  1.
</event>
<event>
 4   0  0.4892667E-02  0.9118800E+02  0.7818609E-02  0.1379984E+01
      -11   -1    0    0    0    0  0.00000000000E+00  0.00000000000E+00  0.35740347158E-01  0.35744000000E-01  0.51099999109E-03 0. -1.
       11   -1    0    0    0    0 -0.00000000000E+00 -0.00000000000E+00 -0.35740347158E-01  0.35744000000E-01  0.51099999109E-03 0.  1.
       22    1    1    2    0    0 -0.30032610990E-01 -0.19189309026E-01 -0.26355798467E-02  0.35737005818E-01  0.00000000000E+00 0. -1.
  9000001    1    1    2    0    0  0.30032610990E-01  0.19189309026E-01  0.26355798467E-02  0.35750994182E-01  0.10000000475E-02 0.  1.
</event>
<event>
 4   0  0.4892667E-02  0.9118800E+02  0.7818609E-02  0.1379984E+01
      -11   -1    0    0    0    0  0.00000000000E+00  0.00000000000E+00  0.35740347158E-01  0.35744000000E-01  0.51099999109E-03 0. -1.
       11   -1    0    0    0    0 -0.00000000000E+00 -0.00000000000E+00 -0.35740347158E-01  0.35744000000E-01  0.51099999109E-03 0.  1.
       22    1    1    2    0    0  0.17880457524E-02  0.83666977134E-02  0.34697764289E-01  0.35737005818E-01  0.00000000000E+00 0. -1.
  9000001    1    1    2    0    0 -0.17880457524E-02 -0.83666977134E-02 -0.34697764289E-01  0.35750994182E-01  0.10000000475E-02 0.  1.
</event>
<event>
 4   0  0.4892667E-02  0.9118800E+02  0.7818609E-02  0.1379984E+01
      -11   -1    0    0    0    0  0.00000000000E+00  0.00000000000E+00  0.35740347158E-01  0.35744000000E-01  0.51099999109E-03 0.  1.
       11   -1    0    0    0    0 -0.00000000000E+00 -0.00000000000E+00 -0.35740347158E-01  0.35744000000E-01  0.51099999109E-03 0. -1.
       22    1    1    2    0    0  0.89534846368E-02  0.98751302022E-02  0.33157962863E-01  0.35737005818E-01  0.00000000000E+00 0.  1.
  9000001    1    1    2    0    0 -0.89534846368E-02 -0.98751302022E-02 -0.33157962863E-01  0.35750994182E-01  0.10000000475E-02 0. -1.
</event>
<event>
 4   0  0.4892667E-02  0.9118800E+02  0.7818609E-02  0.1379984E+01
      -11   -1    0    0    0    0  0.00000000000E+00  0.00000000000E+00  0.35740347158E-01  0.35744000000E-01  0.51099999109E-03 0. -1.
       11   -1    0    0    0    0 -0.00000000000E+00 -0.00000000000E+00 -0.35740347158E-01  0.35744000000E-01  0.51099999109E-03 0.  1.
       22    1    1    2    0    0  0.23211141216E-02 -0.20578215332E-02  0.35602126125E-01  0.35737005818E-01  0.00000000000E+00 0. -1.
  9000001    1    1    2    0    0 -0.23211141216E-02  0.20578215332E-02 -0.35602126125E-01  0.35750994182E-01  0.10000000475E-02 0.  1.
</event>
<event>
 4   0  0.4892667E-02  0.9118800E+02  0.7818609E-02  0.1379984E+01
      -11   -1    0    0    0    0  0.00000000000E+00  0.00000000000E+00  0.35740347158E-01  0.35744000000E-01  0.51099999109E-03 0. -1.
       11   -1    0    0    0    0 -0.00000000000E+00 -0.00000000000E+00 -0.35740347158E-01  0.35744000000E-01  0.51099999109E-03 0.  1.
       22    1    1    2    0    0  0.35779568501E-02 -0.37374034399E-02  0.35360481122E-01  0.35737005818E-01  0.00000000000E+00 0. -1.
  9000001    1    1    2    0    0 -0.35779568501E-02  0.37374034399E-02 -0.35360481122E-01  0.35750994182E-01  0.10000000475E-02 0.  1.
</event>
<event>
 4   0  0.4892667E-02  0.9118800E+02  0.7818609E-02  0.1379984E+01
      -11   -1    0    0    0    0  0.00000000000E+00  0.00000000000E+00  0.35740347158E-01  0.35744000000E-01  0.51099999109E-03 0.  1.
       11   -1    0    0    0    0 -0.00000000000E+00 -0.00000000000E+00 -0.35740347158E-01  0.35744000000E-01  0.51099999109E-03 0. -1.
       22    1    1    2    0    0  0.10293836653E-01  0.90189882744E-05  0.34222367401E-01  0.35737005818E-01  0.00000000000E+00 0.  1.
  9000001    1    1    2    0    0 -0.10293836653E-01 -0.90189882744E-05 -0.34222367401E-01  0.35750994182E-01  0.10000000475E-02 0. -1.
</event>
<event>
 4   0  0.4892667E-02  0.9118800E+02  0.7818609E-02  0.1379984E+01
      -11   -1    0    0    0    0  0.00000000000E+00  0.00000000000E+00  0.35740347158E-01  0.35744000000E-01  0.51099999109E-03 0. -1.
       11   -1    0    0    0    0 -0.00000000000E+00 -0.00000000000E+00 -0.35740347158E-01  0.35744000000E-01  0.51099999109E-03 0.  1.
       22    1    1    2    0    0  0.38449804619E-02 -0.37874201054E-02 -0.35327116484E-01  0.35737005818E-01  0.00000000000E+00 0.  1.
  9000001    1    1    2    0    0 -0.38449804619E-02  0.37874201054E-02  0.35327116484E-01  0.35750994182E-01  0.10000000475E-02 0. -1.
</event>
<event>
 4   0  0.4892667E-02  0.9118800E+02  0.7818609E-02  0.1379984E+01
      -11   -1    0    0    0    0  0.00000000000E+00  0.00000000000E+00  0.35740347158E-01  0.35744000000E-01  0.51099999109E-03 0.  1.
       11   -1    0    0    0    0 -0.00000000000E+00 -0.00000000000E+00 -0.35740347158E-01  0.35744000000E-01  0.51099999109E-03 0. -1.
       22    1    1    2    0    0 -0.30967563155E-01  0.75714015872E-02 -0.16149845049E-01  0.35737005818E-01  0.00000000000E+00 0. -1.
  9000001    1    1    2    0    0  0.30967563155E-01 -0.75714015872E-02  0.16149845049E-01  0.35750994182E-01  0.10000000475E-02 0.  1.
</event>
<event>
 4   0  0.4892667E-02  0.9118800E+02  0.7818609E-02  0.1379984E+01
      -11   -1    0    0    0    0  0.00000000000E+00  0.00000000000E+00  0.35740347158E-01  0.35744000000E-01  0.51099999109E-03 0.  1.
       11   -1    0    0    0    0 -0.00000000000E+00 -0.00000000000E+00 -0.35740347158E-01  0.35744000000E-01  0.51099999109E-03 0. -1.
       22    1    1    2    0    0  0.19366115618E-01 -0.41103286720E-02  0.29752182255E-01  0.35737005818E-01  0.00000000000E+00 0.  1.
  9000001    1    1    2    0    0 -0.19366115618E-01  0.41103286720E-02 -0.29752182255E-01  0.35750994182E-01  0.10000000475E-02 0. -1.
</event>
<event>
 4   0  0.4892667E-02  0.9118800E+02  0.7818609E-02  0.1379984E+01
      -11   -1    0    0    0    0  0.00000000000E+00  0.00000000000E+00  0.35740347158E-01  0.35744000000E-01  0.51099999109E-03 0. -1.
       11   -1    0    0    0    0 -0.00000000000E+00 -0.00000000000E+00 -0.35740347158E-01  0.35744000000E-01  0.51099999109E-03 0.  1.
       22    1    1    2    0    0 -0.25299802692E-01  0.17199176075E-01  0.18472734258E-01  0.35737005818E-01  0.00000000000E+00 0. -1.
  9000001    1    1    2    0    0  0.25299802692E-01 -0.17199176075E-01 -0.18472734258E-01  0.35750994182E-01  0.10000000475E-02 0.  1.
</event>
<event>
 4   0  0.4892667E-02  0.9118800E+02  0.7818609E-02  0.1379984E+01
      -11   -1    0    0    0    0  0.00000000000E+00  0.00000000000E+00  0.35740347158E-01  0.35744000000E-01  0.51099999109E-03 0. -1.
       11   -1    0    0    0    0 -0.00000000000E+00 -0.00000000000E+00 -0.35740347158E-01  0.35744000000E-01  0.51099999109E-03 0.  1.
       22    1    1    2    0    0  0.10223668380E-01  0.68403172401E-02 -0.33553244996E-01  0.35737005818E-01  0.00000000000E+00 0.  1.
  9000001    1    1    2    0    0 -0.10223668380E-01 -0.68403172401E-02  0.33553244996E-01  0.35750994182E-01  0.10000000475E-02 0. -1.
</event>
<event>
 4   0  0.4892667E-02  0.9118800E+02  0.7818609E-02  0.1379984E+01
      -11   -1    0    0    0    0  0.00000000000E+00  0.00000000000E+00  0.35740347158E-01  0.35744000000E-01  0.51099999109E-03 0.  1.
       11   -1    0    0    0    0 -0.00000000000E+00 -0.00000000000E+00 -0.35740347158E-01  0.35744000000E-01  0.51099999109E-03 0. -1.
       22    1    1    2    0    0  0.84931987701E-03  0.32153708631E-02  0.35581928430E-01  0.35737005818E-01  0.00000000000E+00 0.  1.
  9000001    1    1    2    0    0 -0.84931987701E-03 -0.32153708631E-02 -0.35581928430E-01  0.35750994182E-01  0.10000000475E-02 0. -1.
</event>
<event>
 4   0  0.4892667E-02  0.9118800E+02  0.7818609E-02  0.1379984E+01
      -11   -1    0    0    0    0  0.00000000000E+00  0.00000000000E+00  0.35740347158E-01  0.35744000000E-01  0.51099999109E-03 0.  1.
       11   -1    0    0    0    0 -0.00000000000E+00 -0.00000000000E+00 -0.35740347158E-01  0.35744000000E-01  0.51099999109E-03 0. -1.
       22    1    1    2    0    0 -0.31973763661E-01 -0.47136057103E-02  0.15251030897E-01  0.35737005818E-01  0.00000000000E+00 0.  1.
  9000001    1    1    2    0    0  0.31973763661E-01  0.47136057103E-02 -0.15251030897E-01  0.35750994182E-01  0.10000000475E-02 0. -1.
</event>
<event>
 4   0  0.4892667E-02  0.9118800E+02  0.7818609E-02  0.1379984E+01
      -11   -1    0    0    0    0  0.00000000000E+00  0.00000000000E+00  0.35740347158E-01  0.35744000000E-01  0.51099999109E-03 0.  1.
       11   -1    0    0    0    0 -0.00000000000E+00 -0.00000000000E+00 -0.35740347158E-01  0.35744000000E-01  0.51099999109E-03 0. -1.
       22    1    1    2    0    0  0.56136401736E-02  0.26326542779E-01  0.23506036973E-01  0.35737005818E-01  0.00000000000E+00 0.  1.
  9000001    1    1    2    0    0 -0.56136401736E-02 -0.26326542779E-01 -0.23506036973E-01  0.35750994182E-01  0.10000000475E-02 0. -1.
</event>
<event>
 4   0  0.4892667E-02  0.9118800E+02  0.7818609E-02  0.1379984E+01
      -11   -1    0    0    0    0  0.00000000000E+00  0.00000000000E+00  0.35740347158E-01  0.35744000000E-01  0.51099999109E-03 0.  1.
       11   -1    0    0    0    0 -0.00000000000E+00 -0.00000000000E+00 -0.35740347158E-01  0.35744000000E-01  0.51099999109E-03 0. -1.
       22    1    1    2    0    0  0.40718334845E-02  0.76154416892E-02 -0.34677929650E-01  0.35737005818E-01  0.00000000000E+00 0. -1.
  9000001    1    1    2    0    0 -0.40718334845E-02 -0.76154416892E-02  0.34677929650E-01  0.35750994182E-01  0.10000000475E-02 0.  1.
</event>
<event>
 4   0  0.4892667E-02  0.9118800E+02  0.7818609E-02  0.1379984E+01
      -11   -1    0    0    0    0  0.00000000000E+00  0.00000000000E+00  0.35740347158E-01  0.35744000000E-01  0.51099999109E-03 0. -1.
       11   -1    0    0    0    0 -0.00000000000E+00 -0.00000000000E+00 -0.35740347158E-01  0.35744000000E-01  0.51099999109E-03 0.  1.
       22    1    1    2    0    0 -0.18128716169E-01  0.46397344560E-02 -0.30445953740E-01  0.35737005818E-01  0.00000000000E+00 0.  1.
  9000001    1    1    2    0    0  0.18128716169E-01 -0.46397344560E-02  0.30445953740E-01  0.35750994182E-01  0.10000000475E-02 0. -1.
</event>
<event>
 4   0  0.4892667E-02  0.9118800E+02  0.7818609E-02  0.1379984E+01
      -11   -1    0    0    0    0  0.00000000000E+00  0.00000000000E+00  0.35740347158E-01  0.35744000000E-01  0.51099999109E-03 0. -1.
       11   -1    0    0    0    0 -0.00000000000E+00 -0.00000000000E+00 -0.35740347158E-01  0.35744000000E-01  0.51099999109E-03 0.  1.
       22    1    1    2    0    0 -0.18957640402E-01 -0.27102428469E-01 -0.13535133036E-01  0.35737005818E-01  0.00000000000E+00 0. -1.
  9000001    1    1    2    0    0  0.18957640402E-01  0.27102428469E-01  0.13535133036E-01  0.35750994182E-01  0.10000000475E-02 0.  1.
</event>
<event>
 4   0  0.4892667E-02  0.9118800E+02  0.7818609E-02  0.1379984E+01
      -11   -1    0    0    0    0  0.00000000000E+00  0.00000000000E+00  0.35740347158E-01  0.35744000000E-01  0.51099999109E-03 0.  1.
       11   -1    0    0    0    0 -0.00000000000E+00 -0.00000000000E+00 -0.35740347158E-01  0.35744000000E-01  0.51099999109E-03 0. -1.
       22    1    1    2    0    0 -0.10158324782E-01 -0.48382975072E-02  0.33919506184E-01  0.35737005818E-01  0.00000000000E+00 0.  1.
  9000001    1    1    2    0    0  0.10158324782E-01  0.48382975072E-02 -0.33919506184E-01  0.35750994182E-01  0.10000000475E-02 0. -1.
</event>
<event>
 4   0  0.4892667E-02  0.9118800E+02  0.7818609E-02  0.1379984E+01
      -11   -1    0    0    0    0  0.00000000000E+00  0.00000000000E+00  0.35740347158E-01  0.35744000000E-01  0.51099999109E-03 0. -1.
       11   -1    0    0    0    0 -0.00000000000E+00 -0.00000000000E+00 -0.35740347158E-01  0.35744000000E-01  0.51099999109E-03 0.  1.
       22    1    1    2    0    0  0.10762180176E-02 -0.32081632977E-02  0.35576439225E-01  0.35737005818E-01  0.00000000000E+00 0. -1.
  9000001    1    1    2    0    0 -0.10762180176E-02  0.32081632977E-02 -0.35576439225E-01  0.35750994182E-01  0.10000000475E-02 0.  1.
</event>
<event>
 4   0  0.4892667E-02  0.9118800E+02  0.7818609E-02  0.1379984E+01
      -11   -1    0    0    0    0  0.00000000000E+00  0.00000000000E+00  0.35740347158E-01  0.35744000000E-01  0.51099999109E-03 0. -1.
       11   -1    0    0    0    0 -0.00000000000E+00 -0.00000000000E+00 -0.35740347158E-01  0.35744000000E-01  0.51099999109E-03 0.  1.
       22    1    1    2    0    0  0.67538997692E-02 -0.44159064008E-03  0.35090218302E-01  0.35737005818E-01  0.00000000000E+00 0. -1.
  9000001    1    1    2    0    0 -0.67538997692E-02  0.44159064008E-03 -0.35090218302E-01  0.35750994182E-01  0.10000000475E-02 0.  1.
</event>
<event>
 4   0  0.4892667E-02  0.9118800E+02  0.7818609E-02  0.1379984E+01
      -11   -1    0    0    0    0  0.00000000000E+00  0.00000000000E+00  0.35740347158E-01  0.35744000000E-01  0.51099999109E-03 0.  1.
       11   -1    0    0    0    0 -0.00000000000E+00 -0.00000000000E+00 -0.35740347158E-01  0.35744000000E-01  0.51099999109E-03 0. -1.
       22    1    1    2    0    0 -0.10787636926E-01 -0.32262833974E-01 -0.10948516722E-01  0.35737005818E-01  0.00000000000E+00 0. -1.
  9000001    1    1    2    0    0  0.10787636926E-01  0.32262833974E-01  0.10948516722E-01  0.35750994182E-01  0.10000000475E-02 0.  1.
</event>
<event>
 4   0  0.4892667E-02  0.9118800E+02  0.7818609E-02  0.1379984E+01
      -11   -1    0    0    0    0  0.00000000000E+00  0.00000000000E+00  0.35740347158E-01  0.35744000000E-01  0.51099999109E-03 0. -1.
       11   -1    0    0    0    0 -0.00000000000E+00 -0.00000000000E+00 -0.35740347158E-01  0.35744000000E-01  0.51099999109E-03 0.  1.
       22    1    1    2    0    0  0.15502530417E-01 -0.10406304471E-01  0.30471527083E-01  0.35737005818E-01  0.00000000000E+00 0. -1.
  9000001    1    1    2    0    0 -0.15502530417E-01  0.10406304471E-01 -0.30471527083E-01  0.35750994182E-01  0.10000000475E-02 0.  1.
</event>
<event>
 4   0  0.4892667E-02  0.9118800E+02  0.7818609E-02  0.1379984E+01
      -11   -1    0    0    0    0  0.00000000000E+00  0.00000000000E+00  0.35740347158E-01  0.35744000000E-01  0.51099999109E-03 0.  1.
       11   -1    0    0    0    0 -0.00000000000E+00 -0.00000000000E+00 -0.35740347158E-01  0.35744000000E-01  0.51099999109E-03 0. -1.
       22    1    1    2    0    0 -0.10001532091E-01 -0.78593954333E-02 -0.33396599290E-01  0.35737005818E-01  0.00000000000E+00 0. -1.
  9000001    1    1    2    0    0  0.10001532091E-01  0.78593954333E-02  0.33396599290E-01  0.35750994182E-01  0.10000000475E-02 0.  1.
</event>
<event>
 4   0  0.4892667E-02  0.9118800E+02  0.7818609E-02  0.1379984E+01
      -11   -1    0    0    0    0  0.00000000000E+00  0.00000000000E+00  0.35740347158E-01  0.35744000000E-01  0.51099999109E-03 0. -1.
       11   -1    0    0    0    0 -0.00000000000E+00 -0.00000000000E+00 -0.35740347158E-01  0.35744000000E-01  0.51099999109E-03 0.  1.
       22    1    1    2    0    0 -0.27319206148E-02 -0.18039292013E-02 -0.35586739582E-01  0.35737005818E-01  0.00000000000E+00 0.  1.
  9000001    1    1    2    0    0  0.27319206148E-02  0.18039292013E-02  0.35586739582E-01  0.35750994182E-01  0.10000000475E-02 0. -1.
</event>
<event>
 4   0  0.4892667E-02  0.9118800E+02  0.7818609E-02  0.1379984E+01
      -11   -1    0    0    0    0  0.00000000000E+00  0.00000000000E+00  0.35740347158E-01  0.35744000000E-01  0.51099999109E-03 0.  1.
       11   -1    0    0    0    0 -0.00000000000E+00 -0.00000000000E+00 -0.35740347158E-01  0.35744000000E-01  0.51099999109E-03 0. -1.
       22    1    1    2    0    0  0.97515836854E-02 -0.10308354303E-01  0.32799055353E-01  0.35737005818E-01  0.00000000000E+00 0.  1.
  9000001    1    1    2    0    0 -0.97515836854E-02  0.10308354303E-01 -0.32799055353E-01  0.35750994182E-01  0.10000000475E-02 0. -1.
</event>
<event>
 4   0  0.4892667E-02  0.9118800E+02  0.7818609E-02  0.1379984E+01
      -11   -1    0    0    0    0  0.00000000000E+00  0.00000000000E+00  0.35740347158E-01  0.35744000000E-01  0.51099999109E-03 0. -1.
       11   -1    0    0    0    0 -0.00000000000E+00 -0.00000000000E+00 -0.35740347158E-01  0.35744000000E-01  0.51099999109E-03 0.  1.
       22    1    1    2    0    0 -0.74578194197E-02 -0.15969420212E-01 -0.31088456579E-01  0.35737005818E-01  0.00000000000E+00 0.  1.
  9000001    1    1    2    0    0  0.74578194197E-02  0.15969420212E-01  0.31088456579E-01  0.35750994182E-01  0.10000000475E-02 0. -1.
</event>
<event>
 4   0  0.4892667E-02  0.9118800E+02  0.7818609E-02  0.1379984E+01
      -11   -1    0    0    0    0  0.00000000000E+00  0.00000000000E+00  0.35740347158E-01  0.35744000000E-01  0.51099999109E-03 0.  1.
       11   -1    0    0    0    0 -0.00000000000E+00 -0.00000000000E+00 -0.35740347158E-01  0.35744000000E-01  0.51099999109E-03 0. -1.
       22    1    1    2    0    0  0.74690935221E-02  0.54366946893E-02  0.34522291026E-01  0.35737005818E-01  0.00000000000E+00 0.  1.
  9000001    1    1    2    0    0 -0.74690935221E-02 -0.54366946893E-02 -0.34522291026E-01  0.35750994182E-01  0.10000000475E-02 0. -1.
</event>
<event>
 4   0  0.4892667E-02  0.9118800E+02  0.7818609E-02  0.1379984E+01
      -11   -1    0    0    0    0  0.00000000000E+00  0.00000000000E+00  0.35740347158E-01  0.35744000000E-01  0.51099999109E-03 0. -1.
       11   -1    0    0    0    0 -0.00000000000E+00 -0.00000000000E+00 -0.35740347158E-01  0.35744000000E-01  0.51099999109E-03 0.  1.
       22    1    1    2    0    0  0.27845335139E-02  0.25525930030E-02  0.35536801023E-01  0.35737005818E-01  0.00000000000E+00 0. -1.
  9000001    1    1    2    0    0 -0.27845335139E-02 -0.25525930030E-02 -0.35536801023E-01  0.35750994182E-01  0.10000000475E-02 0.  1.
</event>
<event>
 4   0  0.4892667E-02  0.9118800E+02  0.7818609E-02  0.1379984E+01
      -11   -1    0    0    0    0  0.00000000000E+00  0.00000000000E+00  0.35740347158E-01  0.35744000000E-01  0.51099999109E-03 0. -1.
       11   -1    0    0    0    0 -0.00000000000E+00 -0.00000000000E+00 -0.35740347158E-01  0.35744000000E-01  0.51099999109E-03 0.  1.
       22    1    1    2    0    0  0.52570042483E-02 -0.31798647666E-02  0.35204913738E-01  0.35737005818E-01  0.00000000000E+00 0. -1.
  9000001    1    1    2    0    0 -0.52570042483E-02  0.31798647666E-02 -0.35204913738E-01  0.35750994182E-01  0.10000000475E-02 0.  1.
</event>
<event>
 4   0  0.4892667E-02  0.9118800E+02  0.7818609E-02  0.1379984E+01
      -11   -1    0    0    0    0  0.00000000000E+00  0.00000000000E+00  0.35740347158E-01  0.35744000000E-01  0.51099999109E-03 0.  1.
       11   -1    0    0    0    0 -0.00000000000E+00 -0.00000000000E+00 -0.35740347158E-01  0.35744000000E-01  0.51099999109E-03 0. -1.
       22    1    1    2    0    0  0.21994066401E-01 -0.50763910618E-02  0.27706044139E-01  0.35737005818E-01  0.00000000000E+00 0.  1.
  9000001    1    1    2    0    0 -0.21994066401E-01  0.50763910618E-02 -0.27706044139E-01  0.35750994182E-01  0.10000000475E-02 0. -1.
</event>
<event>
 4   0  0.4892667E-02  0.9118800E+02  0.7818609E-02  0.1379984E+01
      -11   -1    0    0    0    0  0.00000000000E+00  0.00000000000E+00  0.35740347158E-01  0.35744000000E-01  0.51099999109E-03 0.  1.
       11   -1    0    0    0    0 -0.00000000000E+00 -0.00000000000E+00 -0.35740347158E-01  0.35744000000E-01  0.51099999109E-03 0. -1.
       22    1    1    2    0    0 -0.13665087798E-01 -0.11975871832E-01 -0.30772998785E-01  0.35737005818E-01  0.00000000000E+00 0. -1.
  9000001    1    1    2    0    0  0.13665087798E-01  0.11975871832E-01  0.30772998785E-01  0.35750994182E-01  0.10000000475E-02 0.  1.
</event>
<event>
 4   0  0.4892667E-02  0.9118800E+02  0.7818609E-02  0.1379984E+01
      -11   -1    0    0    0    0  0.00000000000E+00  0.00000000000E+00  0.35740347158E-01  0.35744000000E-01  0.51099999109E-03 0. -1.
       11   -1    0    0    0    0 -0.00000000000E+00 -0.00000000000E+00 -0.35740347158E-01  0.35744000000E-01  0.51099999109E-03 0.  1.
       22    1    1    2    0    0  0.21391181097E-01 -0.28243932172E-02 -0.28488133654E-01  0.35737005818E-01  0.00000000000E+00 0.  1.
  9000001    1    1    2    0    0 -0.21391181097E-01  0.28243932172E-02  0.28488133654E-01  0.35750994182E-01  0.10000000475E-02 0. -1.
</event>
<event>
 4   0  0.4892667E-02  0.9118800E+02  0.7818609E-02  0.1379984E+01
      -11   -1    0    0    0    0  0.00000000000E+00  0.00000000000E+00  0.35740347158E-01  0.35744000000E-01  0.51099999109E-03 0. -1.
       11   -1    0    0    0    0 -0.00000000000E+00 -0.00000000000E+00 -0.35740347158E-01  0.35744000000E-01  0.51099999109E-03 0.  1.
       22    1    1    2    0    0  0.11036078962E-03  0.39864117850E-02  0.35513799099E-01  0.35737005818E-01  0.00000000000E+00 0. -1.
  9000001    1    1    2    0    0 -0.11036078962E-03 -0.39864117850E-02 -0.35513799099E-01  0.35750994182E-01  0.10000000475E-02 0.  1.
</event>
<event>
 4   0  0.4892667E-02  0.9118800E+02  0.7818609E-02  0.1379984E+01
      -11   -1    0    0    0    0  0.00000000000E+00  0.00000000000E+00  0.35740347158E-01  0.35744000000E-01  0.51099999109E-03 0.  1.
       11   -1    0    0    0    0 -0.00000000000E+00 -0.00000000000E+00 -0.35740347158E-01  0.35744000000E-01  0.51099999109E-03 0. -1.
       22    1    1    2    0    0 -0.18553981433E-01  0.19965812254E-02  0.30477811950E-01  0.35737005818E-01  0.00000000000E+00 0.  1.
  9000001    1    1    2    0    0  0.18553981433E-01 -0.19965812254E-02 -0.30477811950E-01  0.35750994182E-01  0.10000000475E-02 0. -1.
</event>
<event>
 4   0  0.4892667E-02  0.9118800E+02  0.7818609E-02  0.1379984E+01
      -11   -1    0    0    0    0  0.00000000000E+00  0.00000000000E+00  0.35740347158E-01  0.35744000000E-01  0.51099999109E-03 0. -1.
       11   -1    0    0    0    0 -0.00000000000E+00 -0.00000000000E+00 -0.35740347158E-01  0.35744000000E-01  0.51099999109E-03 0.  1.
       22    1    1    2    0    0  0.30255386994E-01  0.38869502914E-02 -0.18618183588E-01  0.35737005818E-01  0.00000000000E+00 0.  1.
  9000001    1    1    2    0    0 -0.30255386994E-01 -0.38869502914E-02  0.18618183588E-01  0.35750994182E-01  0.10000000475E-02 0. -1.
</event>
<event>
 4   0  0.4892667E-02  0.9118800E+02  0.7818609E-02  0.1379984E+01
      -11   -1    0    0    0    0  0.00000000000E+00  0.00000000000E+00  0.35740347158E-01  0.35744000000E-01  0.51099999109E-03 0.  1.
       11   -1    0    0    0    0 -0.00000000000E+00 -0.00000000000E+00 -0.35740347158E-01  0.35744000000E-01  0.51099999109E-03 0. -1.
       22    1    1    2    0    0 -0.13640281694E-01  0.12434313596E-02  0.33008032032E-01  0.35737005818E-01  0.00000000000E+00 0.  1.
  9000001    1    1    2    0    0  0.13640281694E-01 -0.12434313596E-02 -0.33008032032E-01  0.35750994182E-01  0.10000000475E-02 0. -1.
</event>
<event>
 4   0  0.4892667E-02  0.9118800E+02  0.7818609E-02  0.1379984E+01
      -11   -1    0    0    0    0  0.00000000000E+00  0.00000000000E+00  0.35740347158E-01  0.35744000000E-01  0.51099999109E-03 0.  1.
       11   -1    0    0    0    0 -0.00000000000E+00 -0.00000000000E+00 -0.35740347158E-01  0.35744000000E-01  0.51099999109E-03 0. -1.
       22    1    1    2    0    0  0.32153229621E-01  0.65790367566E-02 -0.14142831583E-01  0.35737005818E-01  0.00000000000E+00 0. -1.
  9000001    1    1    2    0    0 -0.32153229621E-01 -0.65790367566E-02  0.14142831583E-01  0.35750994182E-01  0.10000000475E-02 0.  1.
</event>
<event>
 4   0  0.4892667E-02  0.9118800E+02  0.7818609E-02  0.1379984E+01
      -11   -1    0    0    0    0  0.00000000000E+00  0.00000000000E+00  0.35740347158E-01  0.35744000000E-01  0.51099999109E-03 0.  1.
       11   -1    0    0    0    0 -0.00000000000E+00 -0.00000000000E+00 -0.35740347158E-01  0.35744000000E-01  0.51099999109E-03 0. -1.
       22    1    1    2    0    0 -0.33954933480E-01  0.60027305458E-02  0.93895315755E-02  0.35737005818E-01  0.00000000000E+00 0. -1.
  9000001    1    1    2    0    0  0.33954933480E-01 -0.60027305458E-02 -0.93895315755E-02  0.35750994182E-01  0.10000000475E-02 0.  1.
</event>
<event>
 4   0  0.4892667E-02  0.9118800E+02  0.7818609E-02  0.1379984E+01
      -11   -1    0    0    0    0  0.00000000000E+00  0.00000000000E+00  0.35740347158E-01  0.35744000000E-01  0.51099999109E-03 0.  1.
       11   -1    0    0    0    0 -0.00000000000E+00 -0.00000000000E+00 -0.35740347158E-01  0.35744000000E-01  0.51099999109E-03 0. -1.
       22    1    1    2    0    0 -0.80930822365E-02  0.17625653733E-02  0.34763903234E-01  0.35737005818E-01  0.00000000000E+00 0.  1.
  9000001    1    1    2    0    0  0.80930822365E-02 -0.17625653733E-02 -0.34763903234E-01  0.35750994182E-01  0.10000000475E-02 0. -1.
</event>
<event>
 4   0  0.4892667E-02  0.9118800E+02  0.7818609E-02  0.1379984E+01
      -11   -1    0    0    0    0  0.00000000000E+00  0.00000000000E+00  0.35740347158E-01  0.35744000000E-01  0.51099999109E-03 0. -1.
       11   -1    0    0    0    0 -0.00000000000E+00 -0.00000000000E+00 -0.35740347158E-01  0.35744000000E-01  0.51099999109E-03 0.  1.
       22    1    1    2    0    0  0.96076080532E-02  0.53420267728E-02  0.34004267413E-01  0.35737005818E-01  0.00000000000E+00 0. -1.
  9000001    1    1    2    0    0 -0.96076080532E-02 -0.53420267728E-02 -0.34004267413E-01  0.35750994182E-01  0.10000000475E-02 0.  1.
</event>
<event>
 4   0  0.4892667E-02  0.9118800E+02  0.7818609E-02  0.1379984E+01
      -11   -1    0    0    0    0  0.00000000000E+00  0.00000000000E+00  0.35740347158E-01  0.35744000000E-01  0.51099999109E-03 0.  1.
       11   -1    0    0    0    0 -0.00000000000E+00 -0.00000000000E+00 -0.35740347158E-01  0.35744000000E-01  0.51099999109E-03 0. -1.
       22    1    1    2    0    0  0.11088322262E-01  0.77592647882E-02  0.33075315633E-01  0.35737005818E-01  0.00000000000E+00 0.  1.
  9000001    1    1    2    0    0 -0.11088322262E-01 -0.77592647882E-02 -0.33075315633E-01  0.35750994182E-01  0.10000000475E-02 0. -1.
</event>
<event>
 4   0  0.4892667E-02  0.9118800E+02  0.7818609E-02  0.1379984E+01
      -11   -1    0    0    0    0  0.00000000000E+00  0.00000000000E+00  0.35740347158E-01  0.35744000000E-01  0.51099999109E-03 0. -1.
       11   -1    0    0    0    0 -0.00000000000E+00 -0.00000000000E+00 -0.35740347158E-01  0.35744000000E-01  0.51099999109E-03 0.  1.
       22    1    1    2    0    0 -0.18811794854E-02  0.32174784533E-01  0.15439494450E-01  0.35737005818E-01  0.00000000000E+00 0. -1.
  9000001    1    1    2    0    0  0.18811794854E-02 -0.32174784533E-01 -0.15439494450E-01  0.35750994182E-01  0.10000000475E-02 0.  1.
</event>
<event>
 4   0  0.4892667E-02  0.9118800E+02  0.7818609E-02  0.1379984E+01
      -11   -1    0    0    0    0  0.00000000000E+00  0.00000000000E+00  0.35740347158E-01  0.35744000000E-01  0.51099999109E-03 0. -1.
       11   -1    0    0    0    0 -0.00000000000E+00 -0.00000000000E+00 -0.35740347158E-01  0.35744000000E-01  0.51099999109E-03 0.  1.
       22    1    1    2    0    0  0.10038603614E-01 -0.77629922680E-02 -0.33408022590E-01  0.35737005818E-01  0.00000000000E+00 0.  1.
  9000001    1    1    2    0    0 -0.10038603614E-01  0.77629922680E-02  0.33408022590E-01  0.35750994182E-01  0.10000000475E-02 0. -1.
</event>
<event>
 4   0  0.4892667E-02  0.9118800E+02  0.7818609E-02  0.1379984E+01
      -11   -1    0    0    0    0  0.00000000000E+00  0.00000000000E+00  0.35740347158E-01  0.35744000000E-01  0.51099999109E-03 0. -1.
       11   -1    0    0    0    0 -0.00000000000E+00 -0.00000000000E+00 -0.35740347158E-01  0.35744000000E-01  0.51099999109E-03 0.  1.
       22    1    1    2    0    0 -0.99263787305E-03 -0.32358113143E-02  0.35576365470E-01  0.35737005818E-01  0.00000000000E+00 0. -1.
  9000001    1    1    2    0    0  0.99263787305E-03  0.32358113143E-02 -0.35576365470E-01  0.35750994182E-01  0.10000000475E-02 0.  1.
</event>
<event>
 4   0  0.4892667E-02  0.9118800E+02  0.7818609E-02  0.1379984E+01
      -11   -1    0    0    0    0  0.00000000000E+00  0.00000000000E+00  0.35740347158E-01  0.35744000000E-01  0.51099999109E-03 0. -1.
       11   -1    0    0    0    0 -0.00000000000E+00 -0.00000000000E+00 -0.35740347158E-01  0.35744000000E-01  0.51099999109E-03 0.  1.
       22    1    1    2    0    0  0.52700282573E-02  0.26342053356E-02 -0.35247997805E-01  0.35737005818E-01  0.00000000000E+00 0.  1.
  9000001    1    1    2    0    0 -0.52700282573E-02 -0.26342053356E-02  0.35247997805E-01  0.35750994182E-01  0.10000000475E-02 0. -1.
</event>
<event>
 4   0  0.4892667E-02  0.9118800E+02  0.7818609E-02  0.1379984E+01
      -11   -1    0    0    0    0  0.00000000000E+00  0.00000000000E+00  0.35740347158E-01  0.35744000000E-01  0.51099999109E-03 0.  1.
       11   -1    0    0    0    0 -0.00000000000E+00 -0.00000000000E+00 -0.35740347158E-01  0.35744000000E-01  0.51099999109E-03 0. -1.
       22    1    1    2    0    0 -0.18239654710E-01 -0.30618296338E-01 -0.26397936131E-02  0.35737005818E-01  0.00000000000E+00 0. -1.
  9000001    1    1    2    0    0  0.18239654710E-01  0.30618296338E-01  0.26397936131E-02  0.35750994182E-01  0.10000000475E-02 0.  1.
</event>
<event>
 4   0  0.4892667E-02  0.9118800E+02  0.7818609E-02  0.1379984E+01
      -11   -1    0    0    0    0  0.00000000000E+00  0.00000000000E+00  0.35740347158E-01  0.35744000000E-01  0.51099999109E-03 0.  1.
       11   -1    0    0    0    0 -0.00000000000E+00 -0.00000000000E+00 -0.35740347158E-01  0.35744000000E-01  0.51099999109E-03 0. -1.
       22    1    1    2    0    0 -0.16397496507E-01  0.19576938385E-01  0.24999983533E-01  0.35737005818E-01  0.00000000000E+00 0.  1.
  9000001    1    1    2    0    0  0.16397496507E-01 -0.19576938385E-01 -0.24999983533E-01  0.35750994182E-01  0.10000000475E-02 0. -1.
</event>
<event>
 4   0  0.4892667E-02  0.9118800E+02  0.7818609E-02  0.1379984E+01
      -11   -1    0    0    0    0  0.00000000000E+00  0.00000000000E+00  0.35740347158E-01  0.35744000000E-01  0.51099999109E-03 0. -1.
       11   -1    0    0    0    0 -0.00000000000E+00 -0.00000000000E+00 -0.35740347158E-01  0.35744000000E-01  0.51099999109E-03 0.  1.
       22    1    1    2    0    0 -0.12156715739E-02  0.46314737885E-02 -0.35414759325E-01  0.35737005818E-01  0.00000000000E+00 0.  1.
  9000001    1    1    2    0    0  0.12156715739E-02 -0.46314737885E-02  0.35414759325E-01  0.35750994182E-01  0.10000000475E-02 0. -1.
</event>
<event>
 4   0  0.4892667E-02  0.9118800E+02  0.7818609E-02  0.1379984E+01
      -11   -1    0    0    0    0  0.00000000000E+00  0.00000000000E+00  0.35740347158E-01  0.35744000000E-01  0.51099999109E-03 0. -1.
       11   -1    0    0    0    0 -0.00000000000E+00 -0.00000000000E+00 -0.35740347158E-01  0.35744000000E-01  0.51099999109E-03 0.  1.
       22    1    1    2    0    0  0.72199541967E-03  0.15382029348E-01 -0.32249115966E-01  0.35737005818E-01  0.00000000000E+00 0.  1.
  9000001    1    1    2    0    0 -0.72199541967E-03 -0.15382029348E-01  0.32249115966E-01  0.35750994182E-01  0.10000000475E-02 0. -1.
</event>
<event>
 4   0  0.4892667E-02  0.9118800E+02  0.7818609E-02  0.1379984E+01
      -11   -1    0    0    0    0  0.00000000000E+00  0.00000000000E+00  0.35740347158E-01  0.35744000000E-01  0.51099999109E-03 0. -1.
       11   -1    0    0    0    0 -0.00000000000E+00 -0.00000000000E+00 -0.35740347158E-01  0.35744000000E-01  0.51099999109E-03 0.  1.
       22    1    1    2    0    0 -0.14580668053E-01 -0.11597389808E-01  0.30496528550E-01  0.35737005818E-01  0.00000000000E+00 0. -1.
  9000001    1    1    2    0    0  0.14580668053E-01  0.11597389808E-01 -0.30496528550E-01  0.35750994182E-01  0.10000000475E-02 0.  1.
</event>
<event>
 4   0  0.4892667E-02  0.9118800E+02  0.7818609E-02  0.1379984E+01
      -11   -1    0    0    0    0  0.00000000000E+00  0.00000000000E+00  0.35740347158E-01  0.35744000000E-01  0.51099999109E-03 0.  1.
       11   -1    0    0    0    0 -0.00000000000E+00 -0.00000000000E+00 -0.35740347158E-01  0.35744000000E-01  0.51099999109E-03 0. -1.
       22    1    1    2    0    0 -0.15295361495E-01 -0.32168974086E-01  0.28883572946E-02  0.35737005818E-01  0.00000000000E+00 0.  1.
  9000001    1    1    2    0    0  0.15295361495E-01  0.32168974086E-01 -0.28883572946E-02  0.35750994182E-01  0.10000000475E-02 0. -1.
</event>
<event>
 4   0  0.4892667E-02  0.9118800E+02  0.7818609E-02  0.1379984E+01
      -11   -1    0    0    0    0  0.00000000000E+00  0.00000000000E+00  0.35740347158E-01  0.35744000000E-01  0.51099999109E-03 0. -1.
       11   -1    0    0    0    0 -0.00000000000E+00 -0.00000000000E+00 -0.35740347158E-01  0.35744000000E-01  0.51099999109E-03 0.  1.
       22    1    1    2    0    0 -0.28744442026E-01  0.12785382769E-01  0.16953602123E-01  0.35737005818E-01  0.00000000000E+00 0. -1.
  9000001    1    1    2    0    0  0.28744442026E-01 -0.12785382769E-01 -0.16953602123E-01  0.35750994182E-01  0.10000000475E-02 0.  1.
</event>
<event>
 4   0  0.4892667E-02  0.9118800E+02  0.7818609E-02  0.1379984E+01
      -11   -1    0    0    0    0  0.00000000000E+00  0.00000000000E+00  0.35740347158E-01  0.35744000000E-01  0.51099999109E-03 0.  1.
       11   -1    0    0    0    0 -0.00000000000E+00 -0.00000000000E+00 -0.35740347158E-01  0.35744000000E-01  0.51099999109E-03 0. -1.
       22    1    1    2    0    0 -0.12203876491E-01  0.13361978014E-01  0.30816497644E-01  0.35737005818E-01  0.00000000000E+00 0.  1.
  9000001    1    1    2    0    0  0.12203876491E-01 -0.13361978014E-01 -0.30816497644E-01  0.35750994182E-01  0.10000000475E-02 0. -1.
</event>
<event>
 4   0  0.4892667E-02  0.9118800E+02  0.7818609E-02  0.1379984E+01
      -11   -1    0    0    0    0  0.00000000000E+00  0.00000000000E+00  0.35740347158E-01  0.35744000000E-01  0.51099999109E-03 0.  1.
       11   -1    0    0    0    0 -0.00000000000E+00 -0.00000000000E+00 -0.35740347158E-01  0.35744000000E-01  0.51099999109E-03 0. -1.
       22    1    1    2    0    0 -0.17146888116E-02 -0.28266821733E-02 -0.35583750435E-01  0.35737005818E-01  0.00000000000E+00 0. -1.
  9000001    1    1    2    0    0  0.17146888116E-02  0.28266821733E-02  0.35583750435E-01  0.35750994182E-01  0.10000000475E-02 0.  1.
</event>
<event>
 4   0  0.4892667E-02  0.9118800E+02  0.7818609E-02  0.1379984E+01
      -11   -1    0    0    0    0  0.00000000000E+00  0.00000000000E+00  0.35740347158E-01  0.35744000000E-01  0.51099999109E-03 0.  1.
       11   -1    0    0    0    0 -0.00000000000E+00 -0.00000000000E+00 -0.35740347158E-01  0.35744000000E-01  0.51099999109E-03 0. -1.
       22    1    1    2    0    0 -0.12813407479E-01  0.95737579065E-02 -0.31957680348E-01  0.35737005818E-01  0.00000000000E+00 0. -1.
  9000001    1    1    2    0    0  0.12813407479E-01 -0.95737579065E-02  0.31957680348E-01  0.35750994182E-01  0.10000000475E-02 0.  1.
</event>
<event>
 4   0  0.4892667E-02  0.9118800E+02  0.7818609E-02  0.1379984E+01
      -11   -1    0    0    0    0  0.00000000000E+00  0.00000000000E+00  0.35740347158E-01  0.35744000000E-01  0.51099999109E-03 0. -1.
       11   -1    0    0    0    0 -0.00000000000E+00 -0.00000000000E+00 -0.35740347158E-01  0.35744000000E-01  0.51099999109E-03 0.  1.
       22    1    1    2    0    0 -0.35400887041E-02  0.30646267409E-02 -0.35428934782E-01  0.35737005818E-01  0.00000000000E+00 0.  1.
  9000001    1    1    2    0    0  0.35400887041E-02 -0.30646267409E-02  0.35428934782E-01  0.35750994182E-01  0.10000000475E-02 0. -1.
</event>
<event>
 4   0  0.4892667E-02  0.9118800E+02  0.7818609E-02  0.1379984E+01
      -11   -1    0    0    0    0  0.00000000000E+00  0.00000000000E+00  0.35740347158E-01  0.35744000000E-01  0.51099999109E-03 0. -1.
       11   -1    0    0    0    0 -0.00000000000E+00 -0.00000000000E+00 -0.35740347158E-01  0.35744000000E-01  0.51099999109E-03 0.  1.
       22    1    1    2    0    0 -0.17834783605E-01  0.26367732982E-02 -0.30856142098E-01  0.35737005818E-01  0.00000000000E+00 0.  1.
  9000001    1    1    2    0    0  0.17834783605E-01 -0.26367732982E-02  0.30856142098E-01  0.35750994182E-01  0.10000000475E-02 0. -1.
</event>
<event>
 4   0  0.4892667E-02  0.9118800E+02  0.7818609E-02  0.1379984E+01
      -11   -1    0    0    0    0  0.00000000000E+00  0.00000000000E+00  0.35740347158E-01  0.35744000000E-01  0.51099999109E-03 0.  1.
       11   -1    0    0    0    0 -0.00000000000E+00 -0.00000000000E+00 -0.35740347158E-01  0.35744000000E-01  0.51099999109E-03 0. -1.
       22    1    1    2    0    0  0.10047411327E-01 -0.18099969811E-01  0.29130297001E-01  0.35737005818E-01  0.00000000000E+00 0.  1.
  9000001    1    1    2    0    0 -0.10047411327E-01  0.18099969811E-01 -0.29130297001E-01  0.35750994182E-01  0.10000000475E-02 0. -1.
</event>
<event>
 4   0  0.4892667E-02  0.9118800E+02  0.7818609E-02  0.1379984E+01
      -11   -1    0    0    0    0  0.00000000000E+00  0.00000000000E+00  0.35740347158E-01  0.35744000000E-01  0.51099999109E-03 0. -1.
       11   -1    0    0    0    0 -0.00000000000E+00 -0.00000000000E+00 -0.35740347158E-01  0.35744000000E-01  0.51099999109E-03 0.  1.
       22    1    1    2    0    0  0.17609515330E-01  0.70616325879E-02  0.30284846044E-01  0.35737005818E-01  0.00000000000E+00 0. -1.
  9000001    1    1    2    0    0 -0.17609515330E-01 -0.70616325879E-02 -0.30284846044E-01  0.35750994182E-01  0.10000000475E-02 0.  1.
</event>
<event>
 4   0  0.4892667E-02  0.9118800E+02  0.7818609E-02  0.1379984E+01
      -11   -1    0    0    0    0  0.00000000000E+00  0.00000000000E+00  0.35740347158E-01  0.35744000000E-01  0.51099999109E-03 0. -1.
       11   -1    0    0    0    0 -0.00000000000E+00 -0.00000000000E+00 -0.35740347158E-01  0.35744000000E-01  0.51099999109E-03 0.  1.
       22    1    1    2    0    0  0.15262386870E-01  0.59023197138E-02  0.31770359675E-01  0.35737005818E-01  0.00000000000E+00 0. -1.
  9000001    1    1    2    0    0 -0.15262386870E-01 -0.59023197138E-02 -0.31770359675E-01  0.35750994182E-01  0.10000000475E-02 0.  1.
</event>
<event>
 4   0  0.4892667E-02  0.9118800E+02  0.7818609E-02  0.1379984E+01
      -11   -1    0    0    0    0  0.00000000000E+00  0.00000000000E+00  0.35740347158E-01  0.35744000000E-01  0.51099999109E-03 0.  1.
       11   -1    0    0    0    0 -0.00000000000E+00 -0.00000000000E+00 -0.35740347158E-01  0.35744000000E-01  0.51099999109E-03 0. -1.
       22    1    1    2    0    0  0.26008531022E-01 -0.21836025681E-01  0.11130044089E-01  0.35737005818E-01  0.00000000000E+00 0.  1.
  9000001    1    1    2    0    0 -0.26008531022E-01  0.21836025681E-01 -0.11130044089E-01  0.35750994182E-01  0.10000000475E-02 0. -1.
</event>
<event>
 4   0  0.4892667E-02  0.9118800E+02  0.7818609E-02  0.1379984E+01
      -11   -1    0    0    0    0  0.00000000000E+00  0.00000000000E+00  0.35740347158E-01  0.35744000000E-01  0.51099999109E-03 0.  1.
       11   -1    0    0    0    0 -0.00000000000E+00 -0.00000000000E+00 -0.35740347158E-01  0.35744000000E-01  0.51099999109E-03 0. -1.
       22    1    1    2    0    0 -0.24491823662E-02  0.20350471930E-02  0.35594854593E-01  0.35737005818E-01  0.00000000000E+00 0.  1.
  9000001    1    1    2    0    0  0.24491823662E-02 -0.20350471930E-02 -0.35594854593E-01  0.35750994182E-01  0.10000000475E-02 0. -1.
</event>
<event>
 4   0  0.4892667E-02  0.9118800E+02  0.7818609E-02  0.1379984E+01
      -11   -1    0    0    0    0  0.00000000000E+00  0.00000000000E+00  0.35740347158E-01  0.35744000000E-01  0.51099999109E-03 0.  1.
       11   -1    0    0    0    0 -0.00000000000E+00 -0.00000000000E+00 -0.35740347158E-01  0.35744000000E-01  0.51099999109E-03 0. -1.
       22    1    1    2    0    0  0.10889329846E-01  0.25426964864E-02  0.33942462712E-01  0.35737005818E-01  0.00000000000E+00 0.  1.
  9000001    1    1    2    0    0 -0.10889329846E-01 -0.25426964864E-02 -0.33942462712E-01  0.35750994182E-01  0.10000000475E-02 0. -1.
</event>
<event>
 4   0  0.4892667E-02  0.9118800E+02  0.7818609E-02  0.1379984E+01
      -11   -1    0    0    0    0  0.00000000000E+00  0.00000000000E+00  0.35740347158E-01  0.35744000000E-01  0.51099999109E-03 0. -1.
       11   -1    0    0    0    0 -0.00000000000E+00 -0.00000000000E+00 -0.35740347158E-01  0.35744000000E-01  0.51099999109E-03 0.  1.
       22    1    1    2    0    0  0.15445267941E-01 -0.35654323066E-03 -0.32224992785E-01  0.35737005818E-01  0.00000000000E+00 0.  1.
  9000001    1    1    2    0    0 -0.15445267941E-01  0.35654323066E-03  0.32224992785E-01  0.35750994182E-01  0.10000000475E-02 0. -1.
</event>
<event>
 4   0  0.4892667E-02  0.9118800E+02  0.7818609E-02  0.1379984E+01
      -11   -1    0    0    0    0  0.00000000000E+00  0.00000000000E+00  0.35740347158E-01  0.35744000000E-01  0.51099999109E-03 0.  1.
       11   -1    0    0    0    0 -0.00000000000E+00 -0.00000000000E+00 -0.35740347158E-01  0.35744000000E-01  0.51099999109E-03 0. -1.
       22    1    1    2    0    0  0.86875341494E-02 -0.29347980038E-01 -0.18448750716E-01  0.35737005818E-01  0.00000000000E+00 0. -1.
  9000001    1    1    2    0    0 -0.86875341494E-02  0.29347980038E-01  0.18448750716E-01  0.35750994182E-01  0.10000000475E-02 0.  1.
</event>
<event>
 4   0  0.4892667E-02  0.9118800E+02  0.7818609E-02  0.1379984E+01
      -11   -1    0    0    0    0  0.00000000000E+00  0.00000000000E+00  0.35740347158E-01  0.35744000000E-01  0.51099999109E-03 0.  1.
       11   -1    0    0    0    0 -0.00000000000E+00 -0.00000000000E+00 -0.35740347158E-01  0.35744000000E-01  0.51099999109E-03 0. -1.
       22    1    1    2    0    0  0.14812835485E-02  0.11347499345E-01  0.33855186346E-01  0.35737005818E-01  0.00000000000E+00 0.  1.
  9000001    1    1    2    0    0 -0.14812835485E-02 -0.11347499345E-01 -0.33855186346E-01  0.35750994182E-01  0.10000000475E-02 0. -1.
</event>
<event>
 4   0  0.4892667E-02  0.9118800E+02  0.7818609E-02  0.1379984E+01
      -11   -1    0    0    0    0  0.00000000000E+00  0.00000000000E+00  0.35740347158E-01  0.35744000000E-01  0.51099999109E-03 0.  1.
       11   -1    0    0    0    0 -0.00000000000E+00 -0.00000000000E+00 -0.35740347158E-01  0.35744000000E-01  0.51099999109E-03 0. -1.
       22    1    1    2    0    0  0.32940646820E-03  0.47524998953E-02  0.35418057838E-01  0.35737005818E-01  0.00000000000E+00 0.  1.
  9000001    1    1    2    0    0 -0.32940646820E-03 -0.47524998953E-02 -0.35418057838E-01  0.35750994182E-01  0.10000000475E-02 0. -1.
</event>
<event>
 4   0  0.4892667E-02  0.9118800E+02  0.7818609E-02  0.1379984E+01
      -11   -1    0    0    0    0  0.00000000000E+00  0.00000000000E+00  0.35740347158E-01  0.35744000000E-01  0.51099999109E-03 0. -1.
       11   -1    0    0    0    0 -0.00000000000E+00 -0.00000000000E+00 -0.35740347158E-01  0.35744000000E-01  0.51099999109E-03 0.  1.
       22    1    1    2    0    0 -0.28221243813E-01 -0.45318137359E-02 -0.21451285435E-01  0.35737005818E-01  0.00000000000E+00 0.  1.
  9000001    1    1    2    0    0  0.28221243813E-01  0.45318137359E-02  0.21451285435E-01  0.35750994182E-01  0.10000000475E-02 0. -1.
</event>
<event>
 4   0  0.4892667E-02  0.9118800E+02  0.7818609E-02  0.1379984E+01
      -11   -1    0    0    0    0  0.00000000000E+00  0.00000000000E+00  0.35740347158E-01  0.35744000000E-01  0.51099999109E-03 0. -1.
       11   -1    0    0    0    0 -0.00000000000E+00 -0.00000000000E+00 -0.35740347158E-01  0.35744000000E-01  0.51099999109E-03 0.  1.
       22    1    1    2    0    0  0.35310719193E-02 -0.38540103780E-02 -0.35352676277E-01  0.35737005818E-01  0.00000000000E+00 0.  1.
  9000001    1    1    2    0    0 -0.35310719193E-02  0.38540103780E-02  0.35352676277E-01  0.35750994182E-01  0.10000000475E-02 0. -1.
</event>
<event>
 4   0  0.4892667E-02  0.9118800E+02  0.7818609E-02  0.1379984E+01
      -11   -1    0    0    0    0  0.00000000000E+00  0.00000000000E+00  0.35740347158E-01  0.35744000000E-01  0.51099999109E-03 0.  1.
       11   -1    0    0    0    0 -0.00000000000E+00 -0.00000000000E+00 -0.35740347158E-01  0.35744000000E-01  0.51099999109E-03 0. -1.
       22    1    1    2    0    0  0.55727485267E-02  0.74713711939E-02 -0.34500096684E-01  0.35737005818E-01  0.00000000000E+00 0. -1.
  9000001    1    1    2    0    0 -0.55727485267E-02 -0.74713711939E-02  0.34500096684E-01  0.35750994182E-01  0.10000000475E-02 0.  1.
</event>
<event>
 4   0  0.4892667E-02  0.9118800E+02  0.7818609E-02  0.1379984E+01
      -11   -1    0    0    0    0  0.00000000000E+00  0.00000000000E+00  0.35740347158E-01  0.35744000000E-01  0.51099999109E-03 0.  1.
       11   -1    0    0    0    0 -0.00000000000E+00 -0.00000000000E+00 -0.35740347158E-01  0.35744000000E-01  0.51099999109E-03 0. -1.
       22    1    1    2    0    0  0.99698940620E-02 -0.25359326870E-02  0.34224316541E-01  0.35737005818E-01  0.00000000000E+00 0.  1.
  9000001    1    1    2    0    0 -0.99698940620E-02  0.25359326870E-02 -0.34224316541E-01  0.35750994182E-01  0.10000000475E-02 0. -1.
</event>
<event>
 4   0  0.4892667E-02  0.9118800E+02  0.7818609E-02  0.1379984E+01
      -11   -1    0    0    0    0  0.00000000000E+00  0.00000000000E+00  0.35740347158E-01  0.35744000000E-01  0.51099999109E-03 0. -1.
       11   -1    0    0    0    0 -0.00000000000E+00 -0.00000000000E+00 -0.35740347158E-01  0.35744000000E-01  0.51099999109E-03 0.  1.
       22    1    1    2    0    0 -0.20627852761E-02 -0.70569201741E-02 -0.34972537503E-01  0.35737005818E-01  0.00000000000E+00 0.  1.
  9000001    1    1    2    0    0  0.20627852761E-02  0.70569201741E-02  0.34972537503E-01  0.35750994182E-01  0.10000000475E-02 0. -1.
</event>
<event>
 4   0  0.4892667E-02  0.9118800E+02  0.7818609E-02  0.1379984E+01
      -11   -1    0    0    0    0  0.00000000000E+00  0.00000000000E+00  0.35740347158E-01  0.35744000000E-01  0.51099999109E-03 0.  1.
       11   -1    0    0    0    0 -0.00000000000E+00 -0.00000000000E+00 -0.35740347158E-01  0.35744000000E-01  0.51099999109E-03 0. -1.
       22    1    1    2    0    0  0.24722629304E-02 -0.15293767511E-01  0.32204381320E-01  0.35737005818E-01  0.00000000000E+00 0.  1.
  9000001    1    1    2    0    0 -0.24722629304E-02  0.15293767511E-01 -0.32204381320E-01  0.35750994182E-01  0.10000000475E-02 0. -1.
</event>
<event>
 4   0  0.4892667E-02  0.9118800E+02  0.7818609E-02  0.1379984E+01
      -11   -1    0    0    0    0  0.00000000000E+00  0.00000000000E+00  0.35740347158E-01  0.35744000000E-01  0.51099999109E-03 0. -1.
       11   -1    0    0    0    0 -0.00000000000E+00 -0.00000000000E+00 -0.35740347158E-01  0.35744000000E-01  0.51099999109E-03 0.  1.
       22    1    1    2    0    0 -0.39013152280E-02  0.98377957721E-03 -0.35509794453E-01  0.35737005818E-01  0.00000000000E+00 0.  1.
  9000001    1    1    2    0    0  0.39013152280E-02 -0.98377957721E-03  0.35509794453E-01  0.35750994182E-01  0.10000000475E-02 0. -1.
</event>
<event>
 4   0  0.4892667E-02  0.9118800E+02  0.7818609E-02  0.1379984E+01
      -11   -1    0    0    0    0  0.00000000000E+00  0.00000000000E+00  0.35740347158E-01  0.35744000000E-01  0.51099999109E-03 0. -1.
       11   -1    0    0    0    0 -0.00000000000E+00 -0.00000000000E+00 -0.35740347158E-01  0.35744000000E-01  0.51099999109E-03 0.  1.
       22    1    1    2    0    0 -0.19957841457E-01 -0.12563071857E-01  0.26851208069E-01  0.35737005818E-01  0.00000000000E+00 0. -1.
  9000001    1    1    2    0    0  0.19957841457E-01  0.12563071857E-01 -0.26851208069E-01  0.35750994182E-01  0.10000000475E-02 0.  1.
</event>
<event>
 4   0  0.4892667E-02  0.9118800E+02  0.7818609E-02  0.1379984E+01
      -11   -1    0    0    0    0  0.00000000000E+00  0.00000000000E+00  0.35740347158E-01  0.35744000000E-01  0.51099999109E-03 0.  1.
       11   -1    0    0    0    0 -0.00000000000E+00 -0.00000000000E+00 -0.35740347158E-01  0.35744000000E-01  0.51099999109E-03 0. -1.
       22    1    1    2    0    0 -0.14401041697E-01  0.82985050885E-02 -0.31636662216E-01  0.35737005818E-01  0.00000000000E+00 0. -1.
  9000001    1    1    2    0    0  0.14401041697E-01 -0.82985050885E-02  0.31636662216E-01  0.35750994182E-01  0.10000000475E-02 0.  1.
</event>
<event>
 4   0  0.4892667E-02  0.9118800E+02  0.7818609E-02  0.1379984E+01
      -11   -1    0    0    0    0  0.00000000000E+00  0.00000000000E+00  0.35740347158E-01  0.35744000000E-01  0.51099999109E-03 0.  1.
       11   -1    0    0    0    0 -0.00000000000E+00 -0.00000000000E+00 -0.35740347158E-01  0.35744000000E-01  0.51099999109E-03 0. -1.
       22    1    1    2    0    0  0.13503969838E-02 -0.42980491270E-02  0.35451893977E-01  0.35737005818E-01  0.00000000000E+00 0.  1.
  9000001    1    1    2    0    0 -0.13503969838E-02  0.42980491270E-02 -0.35451893977E-01  0.35750994182E-01  0.10000000475E-02 0. -1.
</event>
<event>
 4   0  0.4892667E-02  0.9118800E+02  0.7818609E-02  0.1379984E+01
      -11   -1    0    0    0    0  0.00000000000E+00  0.00000000000E+00  0.35740347158E-01  0.35744000000E-01  0.51099999109E-03 0.  1.
       11   -1    0    0    0    0 -0.00000000000E+00 -0.00000000000E+00 -0.35740347158E-01  0.35744000000E-01  0.51099999109E-03 0. -1.
       22    1    1    2    0    0  0.69650291743E-02  0.12410728894E-01 -0.32781027467E-01  0.35737005818E-01  0.00000000000E+00 0. -1.
  9000001    1    1    2    0    0 -0.69650291743E-02 -0.12410728894E-01  0.32781027467E-01  0.35750994182E-01  0.10000000475E-02 0.  1.
</event>
<event>
 4   0  0.4892667E-02  0.9118800E+02  0.7818609E-02  0.1379984E+01
      -11   -1    0    0    0    0  0.00000000000E+00  0.00000000000E+00  0.35740347158E-01  0.35744000000E-01  0.51099999109E-03 0. -1.
       11   -1    0    0    0    0 -0.00000000000E+00 -0.00000000000E+00 -0.35740347158E-01  0.35744000000E-01  0.51099999109E-03 0.  1.
       22    1    1    2    0    0 -0.66560898955E-02 -0.68469885304E-02 -0.34437607354E-01  0.35737005818E-01  0.00000000000E+00 0.  1.
  9000001    1    1    2    0    0  0.66560898955E-02  0.68469885304E-02  0.34437607354E-01  0.35750994182E-01  0.10000000475E-02 0. -1.
</event>
<event>
 4   0  0.4892667E-02  0.9118800E+02  0.7818609E-02  0.1379984E+01
      -11   -1    0    0    0    0  0.00000000000E+00  0.00000000000E+00  0.35740347158E-01  0.35744000000E-01  0.51099999109E-03 0.  1.
       11   -1    0    0    0    0 -0.00000000000E+00 -0.00000000000E+00 -0.35740347158E-01  0.35744000000E-01  0.51099999109E-03 0. -1.
       22    1    1    2    0    0  0.61764866934E-02  0.44860354475E-02 -0.34912176715E-01  0.35737005818E-01  0.00000000000E+00 0. -1.
  9000001    1    1    2    0    0 -0.61764866934E-02 -0.44860354475E-02  0.34912176715E-01  0.35750994182E-01  0.10000000475E-02 0.  1.
</event>
<event>
 4   0  0.4892667E-02  0.9118800E+02  0.7818609E-02  0.1379984E+01
      -11   -1    0    0    0    0  0.00000000000E+00  0.00000000000E+00  0.35740347158E-01  0.35744000000E-01  0.51099999109E-03 0.  1.
       11   -1    0    0    0    0 -0.00000000000E+00 -0.00000000000E+00 -0.35740347158E-01  0.35744000000E-01  0.51099999109E-03 0. -1.
       22    1    1    2    0    0 -0.40449999299E-02  0.22001722539E-03 -0.35506663499E-01  0.35737005818E-01  0.00000000000E+00 0. -1.
  9000001    1    1    2    0    0  0.40449999299E-02 -0.22001722539E-03  0.35506663499E-01  0.35750994182E-01  0.10000000475E-02 0.  1.
</event>
<event>
 4   0  0.4892667E-02  0.9118800E+02  0.7818609E-02  0.1379984E+01
      -11   -1    0    0    0    0  0.00000000000E+00  0.00000000000E+00  0.35740347158E-01  0.35744000000E-01  0.51099999109E-03 0. -1.
       11   -1    0    0    0    0 -0.00000000000E+00 -0.00000000000E+00 -0.35740347158E-01  0.35744000000E-01  0.51099999109E-03 0.  1.
       22    1    1    2    0    0 -0.58760160024E-02  0.36177858395E-02 -0.35064478414E-01  0.35737005818E-01  0.00000000000E+00 0.  1.
  9000001    1    1    2    0    0  0.58760160024E-02 -0.36177858395E-02  0.35064478414E-01  0.35750994182E-01  0.10000000475E-02 0. -1.
</event>
<event>
 4   0  0.4892667E-02  0.9118800E+02  0.7818609E-02  0.1379984E+01
      -11   -1    0    0    0    0  0.00000000000E+00  0.00000000000E+00  0.35740347158E-01  0.35744000000E-01  0.51099999109E-03 0. -1.
       11   -1    0    0    0    0 -0.00000000000E+00 -0.00000000000E+00 -0.35740347158E-01  0.35744000000E-01  0.51099999109E-03 0.  1.
       22    1    1    2    0    0 -0.34879266948E-02  0.48391039042E-02 -0.35235649925E-01  0.35737005818E-01  0.00000000000E+00 0.  1.
  9000001    1    1    2    0    0  0.34879266948E-02 -0.48391039042E-02  0.35235649925E-01  0.35750994182E-01  0.10000000475E-02 0. -1.
</event>
<event>
 4   0  0.4892667E-02  0.9118800E+02  0.7818609E-02  0.1379984E+01
      -11   -1    0    0    0    0  0.00000000000E+00  0.00000000000E+00  0.35740347158E-01  0.35744000000E-01  0.51099999109E-03 0.  1.
       11   -1    0    0    0    0 -0.00000000000E+00 -0.00000000000E+00 -0.35740347158E-01  0.35744000000E-01  0.51099999109E-03 0. -1.
       22    1    1    2    0    0 -0.20743877577E-01  0.90520404362E-02  0.27656566885E-01  0.35737005818E-01  0.00000000000E+00 0.  1.
  9000001    1    1    2    0    0  0.20743877577E-01 -0.90520404362E-02 -0.27656566885E-01  0.35750994182E-01  0.10000000475E-02 0. -1.
</event>
<event>
 4   0  0.4892667E-02  0.9118800E+02  0.7818609E-02  0.1379984E+01
      -11   -1    0    0    0    0  0.00000000000E+00  0.00000000000E+00  0.35740347158E-01  0.35744000000E-01  0.51099999109E-03 0. -1.
       11   -1    0    0    0    0 -0.00000000000E+00 -0.00000000000E+00 -0.35740347158E-01  0.35744000000E-01  0.51099999109E-03 0.  1.
       22    1    1    2    0    0  0.64136961929E-03 -0.47555091131E-02 -0.35413378305E-01  0.35737005818E-01  0.00000000000E+00 0.  1.
  9000001    1    1    2    0    0 -0.64136961929E-03  0.47555091131E-02  0.35413378305E-01  0.35750994182E-01  0.10000000475E-02 0. -1.
</event>
<event>
 4   0  0.4892667E-02  0.9118800E+02  0.7818609E-02  0.1379984E+01
      -11   -1    0    0    0    0  0.00000000000E+00  0.00000000000E+00  0.35740347158E-01  0.35744000000E-01  0.51099999109E-03 0. -1.
       11   -1    0    0    0    0 -0.00000000000E+00 -0.00000000000E+00 -0.35740347158E-01  0.35744000000E-01  0.51099999109E-03 0.  1.
       22    1    1    2    0    0 -0.38554363589E-02  0.22028657532E-01  0.27874853232E-01  0.35737005818E-01  0.00000000000E+00 0. -1.
  9000001    1    1    2    0    0  0.38554363589E-02 -0.22028657532E-01 -0.27874853232E-01  0.35750994182E-01  0.10000000475E-02 0.  1.
</event>
<event>
 4   0  0.4892667E-02  0.9118800E+02  0.7818609E-02  0.1379984E+01
      -11   -1    0    0    0    0  0.00000000000E+00  0.00000000000E+00  0.35740347158E-01  0.35744000000E-01  0.51099999109E-03 0.  1.
       11   -1    0    0    0    0 -0.00000000000E+00 -0.00000000000E+00 -0.35740347158E-01  0.35744000000E-01  0.51099999109E-03 0. -1.
       22    1    1    2    0    0 -0.38974341513E-03  0.68440497233E-02  0.35073361235E-01  0.35737005818E-01  0.00000000000E+00 0.  1.
  9000001    1    1    2    0    0  0.38974341513E-03 -0.68440497233E-02 -0.35073361235E-01  0.35750994182E-01  0.10000000475E-02 0. -1.
</event>
<event>
 4   0  0.4892667E-02  0.9118800E+02  0.7818609E-02  0.1379984E+01
      -11   -1    0    0    0    0  0.00000000000E+00  0.00000000000E+00  0.35740347158E-01  0.35744000000E-01  0.51099999109E-03 0.  1.
       11   -1    0    0    0    0 -0.00000000000E+00 -0.00000000000E+00 -0.35740347158E-01  0.35744000000E-01  0.51099999109E-03 0. -1.
       22    1    1    2    0    0  0.58934877773E-02 -0.74501170762E-02 -0.34451359077E-01  0.35737005818E-01  0.00000000000E+00 0. -1.
  9000001    1    1    2    0    0 -0.58934877773E-02  0.74501170762E-02  0.34451359077E-01  0.35750994182E-01  0.10000000475E-02 0.  1.
</event>
<event>
 4   0  0.4892667E-02  0.9118800E+02  0.7818609E-02  0.1379984E+01
      -11   -1    0    0    0    0  0.00000000000E+00  0.00000000000E+00  0.35740347158E-01  0.35744000000E-01  0.51099999109E-03 0.  1.
       11   -1    0    0    0    0 -0.00000000000E+00 -0.00000000000E+00 -0.35740347158E-01  0.35744000000E-01  0.51099999109E-03 0. -1.
       22    1    1    2    0    0  0.72796277828E-02 -0.36317656644E-02 -0.34798719551E-01  0.35737005818E-01  0.00000000000E+00 0. -1.
  9000001    1    1    2    0    0 -0.72796277828E-02  0.36317656644E-02  0.34798719551E-01  0.35750994182E-01  0.10000000475E-02 0.  1.
</event>
<event>
 4   0  0.4892667E-02  0.9118800E+02  0.7818609E-02  0.1379984E+01
      -11   -1    0    0    0    0  0.00000000000E+00  0.00000000000E+00  0.35740347158E-01  0.35744000000E-01  0.51099999109E-03 0.  1.
       11   -1    0    0    0    0 -0.00000000000E+00 -0.00000000000E+00 -0.35740347158E-01  0.35744000000E-01  0.51099999109E-03 0. -1.
       22    1    1    2    0    0  0.22433424005E-01  0.63063350777E-03  0.27811461193E-01  0.35737005818E-01  0.00000000000E+00 0.  1.
  9000001    1    1    2    0    0 -0.22433424005E-01 -0.63063350777E-03 -0.27811461193E-01  0.35750994182E-01  0.10000000475E-02 0. -1.
</event>
<event>
 4   0  0.4892667E-02  0.9118800E+02  0.7818609E-02  0.1379984E+01
      -11   -1    0    0    0    0  0.00000000000E+00  0.00000000000E+00  0.35740347158E-01  0.35744000000E-01  0.51099999109E-03 0.  1.
       11   -1    0    0    0    0 -0.00000000000E+00 -0.00000000000E+00 -0.35740347158E-01  0.35744000000E-01  0.51099999109E-03 0. -1.
       22    1    1    2    0    0  0.10501512040E-02 -0.14892927056E-01  0.32468931165E-01  0.35737005818E-01  0.00000000000E+00 0.  1.
  9000001    1    1    2    0    0 -0.10501512040E-02  0.14892927056E-01 -0.32468931165E-01  0.35750994182E-01  0.10000000475E-02 0. -1.
</event>
<event>
 4   0  0.4892667E-02  0.9118800E+02  0.7818609E-02  0.1379984E+01
      -11   -1    0    0    0    0  0.00000000000E+00  0.00000000000E+00  0.35740347158E-01  0.35744000000E-01  0.51099999109E-03 0.  1.
       11   -1    0    0    0    0 -0.00000000000E+00 -0.00000000000E+00 -0.35740347158E-01  0.35744000000E-01  0.51099999109E-03 0. -1.
       22    1    1    2    0    0 -0.40882123338E-02  0.15031245119E-02  0.35470561336E-01  0.35737005818E-01  0.00000000000E+00 0.  1.
  9000001    1    1    2    0    0  0.40882123338E-02 -0.15031245119E-02 -0.35470561336E-01  0.35750994182E-01  0.10000000475E-02 0. -1.
</event>
<event>
 4   0  0.4892667E-02  0.9118800E+02  0.7818609E-02  0.1379984E+01
      -11   -1    0    0    0    0  0.00000000000E+00  0.00000000000E+00  0.35740347158E-01  0.35744000000E-01  0.51099999109E-03 0.  1.
       11   -1    0    0    0    0 -0.00000000000E+00 -0.00000000000E+00 -0.35740347158E-01  0.35744000000E-01  0.51099999109E-03 0. -1.
       22    1    1    2    0    0  0.66849545230E-02 -0.72352385972E-02  0.34352529606E-01  0.35737005818E-01  0.00000000000E+00 0.  1.
  9000001    1    1    2    0    0 -0.66849545230E-02  0.72352385972E-02 -0.34352529606E-01  0.35750994182E-01  0.10000000475E-02 0. -1.
</event>
<event>
 4   0  0.4892667E-02  0.9118800E+02  0.7818609E-02  0.1379984E+01
      -11   -1    0    0    0    0  0.00000000000E+00  0.00000000000E+00  0.35740347158E-01  0.35744000000E-01  0.51099999109E-03 0. -1.
       11   -1    0    0    0    0 -0.00000000000E+00 -0.00000000000E+00 -0.35740347158E-01  0.35744000000E-01  0.51099999109E-03 0.  1.
       22    1    1    2    0    0 -0.43826162636E-02 -0.35835209307E-02  0.35285756862E-01  0.35737005818E-01  0.00000000000E+00 0. -1.
  9000001    1    1    2    0    0  0.43826162636E-02  0.35835209307E-02 -0.35285756862E-01  0.35750994182E-01  0.10000000475E-02 0.  1.
</event>
<event>
 4   0  0.4892667E-02  0.9118800E+02  0.7818609E-02  0.1379984E+01
      -11   -1    0    0    0    0  0.00000000000E+00  0.00000000000E+00  0.35740347158E-01  0.35744000000E-01  0.51099999109E-03 0. -1.
       11   -1    0    0    0    0 -0.00000000000E+00 -0.00000000000E+00 -0.35740347158E-01  0.35744000000E-01  0.51099999109E-03 0.  1.
       22    1    1    2    0    0  0.15328285690E-01  0.21155937299E-02 -0.32213374642E-01  0.35737005818E-01  0.00000000000E+00 0.  1.
  9000001    1    1    2    0    0 -0.15328285690E-01 -0.21155937299E-02  0.32213374642E-01  0.35750994182E-01  0.10000000475E-02 0. -1.
</event>
<event>
 4   0  0.4892667E-02  0.9118800E+02  0.7818609E-02  0.1379984E+01
      -11   -1    0    0    0    0  0.00000000000E+00  0.00000000000E+00  0.35740347158E-01  0.35744000000E-01  0.51099999109E-03 0. -1.
       11   -1    0    0    0    0 -0.00000000000E+00 -0.00000000000E+00 -0.35740347158E-01  0.35744000000E-01  0.51099999109E-03 0.  1.
       22    1    1    2    0    0 -0.33685183975E-02  0.26620515311E-02 -0.35478164416E-01  0.35737005818E-01  0.00000000000E+00 0.  1.
  9000001    1    1    2    0    0  0.33685183975E-02 -0.26620515311E-02  0.35478164416E-01  0.35750994182E-01  0.10000000475E-02 0. -1.
</event>
<event>
 4   0  0.4892667E-02  0.9118800E+02  0.7818609E-02  0.1379984E+01
      -11   -1    0    0    0    0  0.00000000000E+00  0.00000000000E+00  0.35740347158E-01  0.35744000000E-01  0.51099999109E-03 0.  1.
       11   -1    0    0    0    0 -0.00000000000E+00 -0.00000000000E+00 -0.35740347158E-01  0.35744000000E-01  0.51099999109E-03 0. -1.
       22    1    1    2    0    0  0.15155198922E-01 -0.66085841917E-02 -0.31682489572E-01  0.35737005818E-01  0.00000000000E+00 0. -1.
  9000001    1    1    2    0    0 -0.15155198922E-01  0.66085841917E-02  0.31682489572E-01  0.35750994182E-01  0.10000000475E-02 0.  1.
</event>
<event>
 4   0  0.4892667E-02  0.9118800E+02  0.7818609E-02  0.1379984E+01
      -11   -1    0    0    0    0  0.00000000000E+00  0.00000000000E+00  0.35740347158E-01  0.35744000000E-01  0.51099999109E-03 0. -1.
       11   -1    0    0    0    0 -0.00000000000E+00 -0.00000000000E+00 -0.35740347158E-01  0.35744000000E-01  0.51099999109E-03 0.  1.
       22    1    1    2    0    0 -0.27188772989E-01 -0.19132715092E-02 -0.23113710225E-01  0.35737005818E-01  0.00000000000E+00 0.  1.
  9000001    1    1    2    0    0  0.27188772989E-01  0.19132715092E-02  0.23113710225E-01  0.35750994182E-01  0.10000000475E-02 0. -1.
</event>
<event>
 4   0  0.4892667E-02  0.9118800E+02  0.7818609E-02  0.1379984E+01
      -11   -1    0    0    0    0  0.00000000000E+00  0.00000000000E+00  0.35740347158E-01  0.35744000000E-01  0.51099999109E-03 0. -1.
       11   -1    0    0    0    0 -0.00000000000E+00 -0.00000000000E+00 -0.35740347158E-01  0.35744000000E-01  0.51099999109E-03 0.  1.
       22    1    1    2    0    0 -0.10222368300E-01 -0.18665019439E-01 -0.28709820977E-01  0.35737005818E-01  0.00000000000E+00 0.  1.
  9000001    1    1    2    0    0  0.10222368300E-01  0.18665019439E-01  0.28709820977E-01  0.35750994182E-01  0.10000000475E-02 0. -1.
</event>
<event>
 4   0  0.4892667E-02  0.9118800E+02  0.7818609E-02  0.1379984E+01
      -11   -1    0    0    0    0  0.00000000000E+00  0.00000000000E+00  0.35740347158E-01  0.35744000000E-01  0.51099999109E-03 0.  1.
       11   -1    0    0    0    0 -0.00000000000E+00 -0.00000000000E+00 -0.35740347158E-01  0.35744000000E-01  0.51099999109E-03 0. -1.
       22    1    1    2    0    0  0.10432767169E-02  0.33683933053E-02 -0.35562607963E-01  0.35737005818E-01  0.00000000000E+00 0. -1.
  9000001    1    1    2    0    0 -0.10432767169E-02 -0.33683933053E-02  0.35562607963E-01  0.35750994182E-01  0.10000000475E-02 0.  1.
</event>
<event>
 4   0  0.4892667E-02  0.9118800E+02  0.7818609E-02  0.1379984E+01
      -11   -1    0    0    0    0  0.00000000000E+00  0.00000000000E+00  0.35740347158E-01  0.35744000000E-01  0.51099999109E-03 0. -1.
       11   -1    0    0    0    0 -0.00000000000E+00 -0.00000000000E+00 -0.35740347158E-01  0.35744000000E-01  0.51099999109E-03 0.  1.
       22    1    1    2    0    0  0.78256492828E-02  0.86612131548E-02  0.33776858718E-01  0.35737005818E-01  0.00000000000E+00 0. -1.
  9000001    1    1    2    0    0 -0.78256492828E-02 -0.86612131548E-02 -0.33776858718E-01  0.35750994182E-01  0.10000000475E-02 0.  1.
</event>
<event>
 4   0  0.4892667E-02  0.9118800E+02  0.7818609E-02  0.1379984E+01
      -11   -1    0    0    0    0  0.00000000000E+00  0.00000000000E+00  0.35740347158E-01  0.35744000000E-01  0.51099999109E-03 0. -1.
       11   -1    0    0    0    0 -0.00000000000E+00 -0.00000000000E+00 -0.35740347158E-01  0.35744000000E-01  0.51099999109E-03 0.  1.
       22    1    1    2    0    0 -0.27438271000E-03 -0.59446656311E-02 -0.35238036971E-01  0.35737005818E-01  0.00000000000E+00 0.  1.
  9000001    1    1    2    0    0  0.27438271000E-03  0.59446656311E-02  0.35238036971E-01  0.35750994182E-01  0.10000000475E-02 0. -1.
</event>
<event>
 4   0  0.4892667E-02  0.9118800E+02  0.7818609E-02  0.1379984E+01
      -11   -1    0    0    0    0  0.00000000000E+00  0.00000000000E+00  0.35740347158E-01  0.35744000000E-01  0.51099999109E-03 0.  1.
       11   -1    0    0    0    0 -0.00000000000E+00 -0.00000000000E+00 -0.35740347158E-01  0.35744000000E-01  0.51099999109E-03 0. -1.
       22    1    1    2    0    0  0.85100092131E-02 -0.25316623780E-01  0.23744091653E-01  0.35737005818E-01  0.00000000000E+00 0.  1.
  9000001    1    1    2    0    0 -0.85100092131E-02  0.25316623780E-01 -0.23744091653E-01  0.35750994182E-01  0.10000000475E-02 0. -1.
</event>
<event>
 4   0  0.4892667E-02  0.9118800E+02  0.7818609E-02  0.1379984E+01
      -11   -1    0    0    0    0  0.00000000000E+00  0.00000000000E+00  0.35740347158E-01  0.35744000000E-01  0.51099999109E-03 0.  1.
       11   -1    0    0    0    0 -0.00000000000E+00 -0.00000000000E+00 -0.35740347158E-01  0.35744000000E-01  0.51099999109E-03 0. -1.
       22    1    1    2    0    0  0.32234787798E-02  0.92371251244E-02  0.34371765868E-01  0.35737005818E-01  0.00000000000E+00 0.  1.
  9000001    1    1    2    0    0 -0.32234787798E-02 -0.92371251244E-02 -0.34371765868E-01  0.35750994182E-01  0.10000000475E-02 0. -1.
</event>
<event>
 4   0  0.4892667E-02  0.9118800E+02  0.7818609E-02  0.1379984E+01
      -11   -1    0    0    0    0  0.00000000000E+00  0.00000000000E+00  0.35740347158E-01  0.35744000000E-01  0.51099999109E-03 0.  1.
       11   -1    0    0    0    0 -0.00000000000E+00 -0.00000000000E+00 -0.35740347158E-01  0.35744000000E-01  0.51099999109E-03 0. -1.
       22    1    1    2    0    0 -0.16318469440E-01  0.80894373048E-03 -0.31783435152E-01  0.35737005818E-01  0.00000000000E+00 0. -1.
  9000001    1    1    2    0    0  0.16318469440E-01 -0.80894373048E-03  0.31783435152E-01  0.35750994182E-01  0.10000000475E-02 0.  1.
</event>
<event>
 4   0  0.4892667E-02  0.9118800E+02  0.7818609E-02  0.1379984E+01
      -11   -1    0    0    0    0  0.00000000000E+00  0.00000000000E+00  0.35740347158E-01  0.35744000000E-01  0.51099999109E-03 0.  1.
       11   -1    0    0    0    0 -0.00000000000E+00 -0.00000000000E+00 -0.35740347158E-01  0.35744000000E-01  0.51099999109E-03 0. -1.
       22    1    1    2    0    0 -0.36687269529E-03 -0.57059141187E-02 -0.35276642887E-01  0.35737005818E-01  0.00000000000E+00 0. -1.
  9000001    1    1    2    0    0  0.36687269529E-03  0.57059141187E-02  0.35276642887E-01  0.35750994182E-01  0.10000000475E-02 0.  1.
</event>
<event>
 4   0  0.4892667E-02  0.9118800E+02  0.7818609E-02  0.1379984E+01
      -11   -1    0    0    0    0  0.00000000000E+00  0.00000000000E+00  0.35740347158E-01  0.35744000000E-01  0.51099999109E-03 0. -1.
       11   -1    0    0    0    0 -0.00000000000E+00 -0.00000000000E+00 -0.35740347158E-01  0.35744000000E-01  0.51099999109E-03 0.  1.
       22    1    1    2    0    0 -0.33602224515E-02 -0.24822904118E-01  0.25488544900E-01  0.35737005818E-01  0.00000000000E+00 0. -1.
  9000001    1    1    2    0    0  0.33602224515E-02  0.24822904118E-01 -0.25488544900E-01  0.35750994182E-01  0.10000000475E-02 0.  1.
</event>
<event>
 4   0  0.4892667E-02  0.9118800E+02  0.7818609E-02  0.1379984E+01
      -11   -1    0    0    0    0  0.00000000000E+00  0.00000000000E+00  0.35740347158E-01  0.35744000000E-01  0.51099999109E-03 0.  1.
       11   -1    0    0    0    0 -0.00000000000E+00 -0.00000000000E+00 -0.35740347158E-01  0.35744000000E-01  0.51099999109E-03 0. -1.
       22    1    1    2    0    0  0.10204160899E-01 -0.18346953776E-02 -0.34200037691E-01  0.35737005818E-01  0.00000000000E+00 0. -1.
  9000001    1    1    2    0    0 -0.10204160899E-01  0.18346953776E-02  0.34200037691E-01  0.35750994182E-01  0.10000000475E-02 0.  1.
</event>
<event>
 4   0  0.4892667E-02  0.9118800E+02  0.7818609E-02  0.1379984E+01
      -11   -1    0    0    0    0  0.00000000000E+00  0.00000000000E+00  0.35740347158E-01  0.35744000000E-01  0.51099999109E-03 0. -1.
       11   -1    0    0    0    0 -0.00000000000E+00 -0.00000000000E+00 -0.35740347158E-01  0.35744000000E-01  0.51099999109E-03 0.  1.
       22    1    1    2    0    0 -0.70819557962E-02  0.11741849255E-01 -0.33001643339E-01  0.35737005818E-01  0.00000000000E+00 0.  1.
  9000001    1    1    2    0    0  0.70819557962E-02 -0.11741849255E-01  0.33001643339E-01  0.35750994182E-01  0.10000000475E-02 0. -1.
</event>
<event>
 4   0  0.4892667E-02  0.9118800E+02  0.7818609E-02  0.1379984E+01
      -11   -1    0    0    0    0  0.00000000000E+00  0.00000000000E+00  0.35740347158E-01  0.35744000000E-01  0.51099999109E-03 0. -1.
       11   -1    0    0    0    0 -0.00000000000E+00 -0.00000000000E+00 -0.35740347158E-01  0.35744000000E-01  0.51099999109E-03 0.  1.
       22    1    1    2    0    0  0.10973618898E-01 -0.16666391861E-02 -0.33969627419E-01  0.35737005818E-01  0.00000000000E+00 0.  1.
  9000001    1    1    2    0    0 -0.10973618898E-01  0.16666391861E-02  0.33969627419E-01  0.35750994182E-01  0.10000000475E-02 0. -1.
</event>
<event>
 4   0  0.4892667E-02  0.9118800E+02  0.7818609E-02  0.1379984E+01
      -11   -1    0    0    0    0  0.00000000000E+00  0.00000000000E+00  0.35740347158E-01  0.35744000000E-01  0.51099999109E-03 0.  1.
       11   -1    0    0    0    0 -0.00000000000E+00 -0.00000000000E+00 -0.35740347158E-01  0.35744000000E-01  0.51099999109E-03 0. -1.
       22    1    1    2    0    0 -0.14737949322E-01 -0.19306958985E-01 -0.26213885050E-01  0.35737005818E-01  0.00000000000E+00 0. -1.
  9000001    1    1    2    0    0  0.14737949322E-01  0.19306958985E-01  0.26213885050E-01  0.35750994182E-01  0.10000000475E-02 0.  1.
</event>
<event>
 4   0  0.4892667E-02  0.9118800E+02  0.7818609E-02  0.1379984E+01
      -11   -1    0    0    0    0  0.00000000000E+00  0.00000000000E+00  0.35740347158E-01  0.35744000000E-01  0.51099999109E-03 0. -1.
       11   -1    0    0    0    0 -0.00000000000E+00 -0.00000000000E+00 -0.35740347158E-01  0.35744000000E-01  0.51099999109E-03 0.  1.
       22    1    1    2    0    0  0.15011192661E-01 -0.12088998755E-01 -0.30094082290E-01  0.35737005818E-01  0.00000000000E+00 0.  1.
  9000001    1    1    2    0    0 -0.15011192661E-01  0.12088998755E-01  0.30094082290E-01  0.35750994182E-01  0.10000000475E-02 0. -1.
</event>
<event>
 4   0  0.4892667E-02  0.9118800E+02  0.7818609E-02  0.1379984E+01
      -11   -1    0    0    0    0  0.00000000000E+00  0.00000000000E+00  0.35740347158E-01  0.35744000000E-01  0.51099999109E-03 0.  1.
       11   -1    0    0    0    0 -0.00000000000E+00 -0.00000000000E+00 -0.35740347158E-01  0.35744000000E-01  0.51099999109E-03 0. -1.
       22    1    1    2    0    0  0.13341842405E-01  0.16165250478E-01 -0.28945008259E-01  0.35737005818E-01  0.00000000000E+00 0. -1.
  9000001    1    1    2    0    0 -0.13341842405E-01 -0.16165250478E-01  0.28945008259E-01  0.35750994182E-01  0.10000000475E-02 0.  1.
</event>
<event>
 4   0  0.4892667E-02  0.9118800E+02  0.7818609E-02  0.1379984E+01
      -11   -1    0    0    0    0  0.00000000000E+00  0.00000000000E+00  0.35740347158E-01  0.35744000000E-01  0.51099999109E-03 0.  1.
       11   -1    0    0    0    0 -0.00000000000E+00 -0.00000000000E+00 -0.35740347158E-01  0.35744000000E-01  0.51099999109E-03 0. -1.
       22    1    1    2    0    0 -0.40661848361E-02  0.23872896698E-02  0.35424575845E-01  0.35737005818E-01  0.00000000000E+00 0.  1.
  9000001    1    1    2    0    0  0.40661848361E-02 -0.23872896698E-02 -0.35424575845E-01  0.35750994182E-01  0.10000000475E-02 0. -1.
</event>
<event>
 4   0  0.4892667E-02  0.9118800E+02  0.7818609E-02  0.1379984E+01
      -11   -1    0    0    0    0  0.00000000000E+00  0.00000000000E+00  0.35740347158E-01  0.35744000000E-01  0.51099999109E-03 0. -1.
       11   -1    0    0    0    0 -0.00000000000E+00 -0.00000000000E+00 -0.35740347158E-01  0.35744000000E-01  0.51099999109E-03 0.  1.
       22    1    1    2    0    0 -0.28290574194E-01  0.11756948286E-01  0.18399759880E-01  0.35737005818E-01  0.00000000000E+00 0. -1.
  9000001    1    1    2    0    0  0.28290574194E-01 -0.11756948286E-01 -0.18399759880E-01  0.35750994182E-01  0.10000000475E-02 0.  1.
</event>
<event>
 4   0  0.4892667E-02  0.9118800E+02  0.7818609E-02  0.1379984E+01
      -11   -1    0    0    0    0  0.00000000000E+00  0.00000000000E+00  0.35740347158E-01  0.35744000000E-01  0.51099999109E-03 0.  1.
       11   -1    0    0    0    0 -0.00000000000E+00 -0.00000000000E+00 -0.35740347158E-01  0.35744000000E-01  0.51099999109E-03 0. -1.
       22    1    1    2    0    0 -0.17348623363E-01 -0.22920166832E-02 -0.31159356729E-01  0.35737005818E-01  0.00000000000E+00 0. -1.
  9000001    1    1    2    0    0  0.17348623363E-01  0.22920166832E-02  0.31159356729E-01  0.35750994182E-01  0.10000000475E-02 0.  1.
</event>
<event>
 4   0  0.4892667E-02  0.9118800E+02  0.7818609E-02  0.1379984E+01
      -11   -1    0    0    0    0  0.00000000000E+00  0.00000000000E+00  0.35740347158E-01  0.35744000000E-01  0.51099999109E-03 0.  1.
       11   -1    0    0    0    0 -0.00000000000E+00 -0.00000000000E+00 -0.35740347158E-01  0.35744000000E-01  0.51099999109E-03 0. -1.
       22    1    1    2    0    0 -0.16148088029E-02  0.29495578231E-02  0.35578449742E-01  0.35737005818E-01  0.00000000000E+00 0.  1.
  9000001    1    1    2    0    0  0.16148088029E-02 -0.29495578231E-02 -0.35578449742E-01  0.35750994182E-01  0.10000000475E-02 0. -1.
</event>
<event>
 4   0  0.4892667E-02  0.9118800E+02  0.7818609E-02  0.1379984E+01
      -11   -1    0    0    0    0  0.00000000000E+00  0.00000000000E+00  0.35740347158E-01  0.35744000000E-01  0.51099999109E-03 0. -1.
       11   -1    0    0    0    0 -0.00000000000E+00 -0.00000000000E+00 -0.35740347158E-01  0.35744000000E-01  0.51099999109E-03 0.  1.
       22    1    1    2    0    0  0.36747283539E-02 -0.52639510860E-03 -0.35543675451E-01  0.35737005818E-01  0.00000000000E+00 0.  1.
  9000001    1    1    2    0    0 -0.36747283539E-02  0.52639510860E-03  0.35543675451E-01  0.35750994182E-01  0.10000000475E-02 0. -1.
</event>
<event>
 4   0  0.4892667E-02  0.9118800E+02  0.7818609E-02  0.1379984E+01
      -11   -1    0    0    0    0  0.00000000000E+00  0.00000000000E+00  0.35740347158E-01  0.35744000000E-01  0.51099999109E-03 0.  1.
       11   -1    0    0    0    0 -0.00000000000E+00 -0.00000000000E+00 -0.35740347158E-01  0.35744000000E-01  0.51099999109E-03 0. -1.
       22    1    1    2    0    0 -0.86267325960E-02 -0.53426892793E-02 -0.34266145696E-01  0.35737005818E-01  0.00000000000E+00 0. -1.
  9000001    1    1    2    0    0  0.86267325960E-02  0.53426892793E-02  0.34266145696E-01  0.35750994182E-01  0.10000000475E-02 0.  1.
</event>
<event>
 4   0  0.4892667E-02  0.9118800E+02  0.7818609E-02  0.1379984E+01
      -11   -1    0    0    0    0  0.00000000000E+00  0.00000000000E+00  0.35740347158E-01  0.35744000000E-01  0.51099999109E-03 0. -1.
       11   -1    0    0    0    0 -0.00000000000E+00 -0.00000000000E+00 -0.35740347158E-01  0.35744000000E-01  0.51099999109E-03 0.  1.
       22    1    1    2    0    0  0.35033681666E-01 -0.57156325315E-02 -0.41359737118E-02  0.35737005818E-01  0.00000000000E+00 0. -1.
  9000001    1    1    2    0    0 -0.35033681666E-01  0.57156325315E-02  0.41359737118E-02  0.35750994182E-01  0.10000000475E-02 0.  1.
</event>
<event>
 4   0  0.4892667E-02  0.9118800E+02  0.7818609E-02  0.1379984E+01
      -11   -1    0    0    0    0  0.00000000000E+00  0.00000000000E+00  0.35740347158E-01  0.35744000000E-01  0.51099999109E-03 0.  1.
       11   -1    0    0    0    0 -0.00000000000E+00 -0.00000000000E+00 -0.35740347158E-01  0.35744000000E-01  0.51099999109E-03 0. -1.
       22    1    1    2    0    0 -0.20936986996E-01 -0.14067611868E-02  0.28927446886E-01  0.35737005818E-01  0.00000000000E+00 0.  1.
  9000001    1    1    2    0    0  0.20936986996E-01  0.14067611868E-02 -0.28927446886E-01  0.35750994182E-01  0.10000000475E-02 0. -1.
</event>
<event>
 4   0  0.4892667E-02  0.9118800E+02  0.7818609E-02  0.1379984E+01
      -11   -1    0    0    0    0  0.00000000000E+00  0.00000000000E+00  0.35740347158E-01  0.35744000000E-01  0.51099999109E-03 0.  1.
       11   -1    0    0    0    0 -0.00000000000E+00 -0.00000000000E+00 -0.35740347158E-01  0.35744000000E-01  0.51099999109E-03 0. -1.
       22    1    1    2    0    0  0.27871773863E-02 -0.20477137699E-02  0.35569257729E-01  0.35737005818E-01  0.00000000000E+00 0.  1.
  9000001    1    1    2    0    0 -0.27871773863E-02  0.20477137699E-02 -0.35569257729E-01  0.35750994182E-01  0.10000000475E-02 0. -1.
</event>
<event>
 4   0  0.4892667E-02  0.9118800E+02  0.7818609E-02  0.1379984E+01
      -11   -1    0    0    0    0  0.00000000000E+00  0.00000000000E+00  0.35740347158E-01  0.35744000000E-01  0.51099999109E-03 0. -1.
       11   -1    0    0    0    0 -0.00000000000E+00 -0.00000000000E+00 -0.35740347158E-01  0.35744000000E-01  0.51099999109E-03 0.  1.
       22    1    1    2    0    0 -0.14099850201E-01  0.28484803085E-01 -0.16338414928E-01  0.35737005818E-01  0.00000000000E+00 0.  1.
  9000001    1    1    2    0    0  0.14099850201E-01 -0.28484803085E-01  0.16338414928E-01  0.35750994182E-01  0.10000000475E-02 0. -1.
</event>
<event>
 4   0  0.4892667E-02  0.9118800E+02  0.7818609E-02  0.1379984E+01
      -11   -1    0    0    0    0  0.00000000000E+00  0.00000000000E+00  0.35740347158E-01  0.35744000000E-01  0.51099999109E-03 0. -1.
       11   -1    0    0    0    0 -0.00000000000E+00 -0.00000000000E+00 -0.35740347158E-01  0.35744000000E-01  0.51099999109E-03 0.  1.
       22    1    1    2    0    0 -0.22286549269E-02  0.57053826870E-02 -0.35208170791E-01  0.35737005818E-01  0.00000000000E+00 0.  1.
  9000001    1    1    2    0    0  0.22286549269E-02 -0.57053826870E-02  0.35208170791E-01  0.35750994182E-01  0.10000000475E-02 0. -1.
</event>
<event>
 4   0  0.4892667E-02  0.9118800E+02  0.7818609E-02  0.1379984E+01
      -11   -1    0    0    0    0  0.00000000000E+00  0.00000000000E+00  0.35740347158E-01  0.35744000000E-01  0.51099999109E-03 0. -1.
       11   -1    0    0    0    0 -0.00000000000E+00 -0.00000000000E+00 -0.35740347158E-01  0.35744000000E-01  0.51099999109E-03 0.  1.
       22    1    1    2    0    0  0.61068224522E-02  0.70609890922E-03 -0.35204285659E-01  0.35737005818E-01  0.00000000000E+00 0.  1.
  9000001    1    1    2    0    0 -0.61068224522E-02 -0.70609890922E-03  0.35204285659E-01  0.35750994182E-01  0.10000000475E-02 0. -1.
</event>
<event>
 4   0  0.4892667E-02  0.9118800E+02  0.7818609E-02  0.1379984E+01
      -11   -1    0    0    0    0  0.00000000000E+00  0.00000000000E+00  0.35740347158E-01  0.35744000000E-01  0.51099999109E-03 0.  1.
       11   -1    0    0    0    0 -0.00000000000E+00 -0.00000000000E+00 -0.35740347158E-01  0.35744000000E-01  0.51099999109E-03 0. -1.
       22    1    1    2    0    0 -0.12781801425E-01  0.50706636504E-02  0.32985565136E-01  0.35737005818E-01  0.00000000000E+00 0.  1.
  9000001    1    1    2    0    0  0.12781801425E-01 -0.50706636504E-02 -0.32985565136E-01  0.35750994182E-01  0.10000000475E-02 0. -1.
</event>
<event>
 4   0  0.4892667E-02  0.9118800E+02  0.7818609E-02  0.1379984E+01
      -11   -1    0    0    0    0  0.00000000000E+00  0.00000000000E+00  0.35740347158E-01  0.35744000000E-01  0.51099999109E-03 0. -1.
       11   -1    0    0    0    0 -0.00000000000E+00 -0.00000000000E+00 -0.35740347158E-01  0.35744000000E-01  0.51099999109E-03 0.  1.
       22    1    1    2    0    0  0.70470593946E-02  0.65056007579E-03  0.35029263628E-01  0.35737005818E-01  0.00000000000E+00 0. -1.
  9000001    1    1    2    0    0 -0.70470593946E-02 -0.65056007579E-03 -0.35029263628E-01  0.35750994182E-01  0.10000000475E-02 0.  1.
</event>
<event>
 4   0  0.4892667E-02  0.9118800E+02  0.7818609E-02  0.1379984E+01
      -11   -1    0    0    0    0  0.00000000000E+00  0.00000000000E+00  0.35740347158E-01  0.35744000000E-01  0.51099999109E-03 0. -1.
       11   -1    0    0    0    0 -0.00000000000E+00 -0.00000000000E+00 -0.35740347158E-01  0.35744000000E-01  0.51099999109E-03 0.  1.
       22    1    1    2    0    0  0.81193583705E-02 -0.30229723554E-01 -0.17244518503E-01  0.35737005818E-01  0.00000000000E+00 0.  1.
  9000001    1    1    2    0    0 -0.81193583705E-02  0.30229723554E-01  0.17244518503E-01  0.35750994182E-01  0.10000000475E-02 0. -1.
</event>
<event>
 4   0  0.4892667E-02  0.9118800E+02  0.7818609E-02  0.1379984E+01
      -11   -1    0    0    0    0  0.00000000000E+00  0.00000000000E+00  0.35740347158E-01  0.35744000000E-01  0.51099999109E-03 0.  1.
       11   -1    0    0    0    0 -0.00000000000E+00 -0.00000000000E+00 -0.35740347158E-01  0.35744000000E-01  0.51099999109E-03 0. -1.
       22    1    1    2    0    0  0.75543994968E-02  0.38327999971E-02  0.34718500505E-01  0.35737005818E-01  0.00000000000E+00 0.  1.
  9000001    1    1    2    0    0 -0.75543994968E-02 -0.38327999971E-02 -0.34718500505E-01  0.35750994182E-01  0.10000000475E-02 0. -1.
</event>
<event>
 4   0  0.4892667E-02  0.9118800E+02  0.7818609E-02  0.1379984E+01
      -11   -1    0    0    0    0  0.00000000000E+00  0.00000000000E+00  0.35740347158E-01  0.35744000000E-01  0.51099999109E-03 0. -1.
       11   -1    0    0    0    0 -0.00000000000E+00 -0.00000000000E+00 -0.35740347158E-01  0.35744000000E-01  0.51099999109E-03 0.  1.
       22    1    1    2    0    0  0.36202775899E-02 -0.38346426495E-03  0.35551091829E-01  0.35737005818E-01  0.00000000000E+00 0. -1.
  9000001    1    1    2    0    0 -0.36202775899E-02  0.38346426495E-03 -0.35551091829E-01  0.35750994182E-01  0.10000000475E-02 0.  1.
</event>
<event>
 4   0  0.4892667E-02  0.9118800E+02  0.7818609E-02  0.1379984E+01
      -11   -1    0    0    0    0  0.00000000000E+00  0.00000000000E+00  0.35740347158E-01  0.35744000000E-01  0.51099999109E-03 0. -1.
       11   -1    0    0    0    0 -0.00000000000E+00 -0.00000000000E+00 -0.35740347158E-01  0.35744000000E-01  0.51099999109E-03 0.  1.
       22    1    1    2    0    0 -0.19452410375E-01 -0.14521786752E-01  0.26226990392E-01  0.35737005818E-01  0.00000000000E+00 0. -1.
  9000001    1    1    2    0    0  0.19452410375E-01  0.14521786752E-01 -0.26226990392E-01  0.35750994182E-01  0.10000000475E-02 0.  1.
</event>
<event>
 4   0  0.4892667E-02  0.9118800E+02  0.7818609E-02  0.1379984E+01
      -11   -1    0    0    0    0  0.00000000000E+00  0.00000000000E+00  0.35740347158E-01  0.35744000000E-01  0.51099999109E-03 0.  1.
       11   -1    0    0    0    0 -0.00000000000E+00 -0.00000000000E+00 -0.35740347158E-01  0.35744000000E-01  0.51099999109E-03 0. -1.
       22    1    1    2    0    0  0.26308890531E-01  0.19093256067E-01  0.14846664160E-01  0.35737005818E-01  0.00000000000E+00 0.  1.
  9000001    1    1    2    0    0 -0.26308890531E-01 -0.19093256067E-01 -0.14846664160E-01  0.35750994182E-01  0.10000000475E-02 0. -1.
</event>
<event>
 4   0  0.4892667E-02  0.9118800E+02  0.7818609E-02  0.1379984E+01
      -11   -1    0    0    0    0  0.00000000000E+00  0.00000000000E+00  0.35740347158E-01  0.35744000000E-01  0.51099999109E-03 0.  1.
       11   -1    0    0    0    0 -0.00000000000E+00 -0.00000000000E+00 -0.35740347158E-01  0.35744000000E-01  0.51099999109E-03 0. -1.
       22    1    1    2    0    0 -0.33865436125E-02  0.24506834637E-02  0.35491675894E-01  0.35737005818E-01  0.00000000000E+00 0.  1.
  9000001    1    1    2    0    0  0.33865436125E-02 -0.24506834637E-02 -0.35491675894E-01  0.35750994182E-01  0.10000000475E-02 0. -1.
</event>
<event>
 4   0  0.4892667E-02  0.9118800E+02  0.7818609E-02  0.1379984E+01
      -11   -1    0    0    0    0  0.00000000000E+00  0.00000000000E+00  0.35740347158E-01  0.35744000000E-01  0.51099999109E-03 0.  1.
       11   -1    0    0    0    0 -0.00000000000E+00 -0.00000000000E+00 -0.35740347158E-01  0.35744000000E-01  0.51099999109E-03 0. -1.
       22    1    1    2    0    0  0.81005247566E-02  0.26708387638E-01 -0.22319881570E-01  0.35737005818E-01  0.00000000000E+00 0. -1.
  9000001    1    1    2    0    0 -0.81005247566E-02 -0.26708387638E-01  0.22319881570E-01  0.35750994182E-01  0.10000000475E-02 0.  1.
</event>
<event>
 4   0  0.4892667E-02  0.9118800E+02  0.7818609E-02  0.1379984E+01
      -11   -1    0    0    0    0  0.00000000000E+00  0.00000000000E+00  0.35740347158E-01  0.35744000000E-01  0.51099999109E-03 0.  1.
       11   -1    0    0    0    0 -0.00000000000E+00 -0.00000000000E+00 -0.35740347158E-01  0.35744000000E-01  0.51099999109E-03 0. -1.
       22    1    1    2    0    0  0.39419715996E-02 -0.76211594595E-03 -0.35510753640E-01  0.35737005818E-01  0.00000000000E+00 0. -1.
  9000001    1    1    2    0    0 -0.39419715996E-02  0.76211594595E-03  0.35510753640E-01  0.35750994182E-01  0.10000000475E-02 0.  1.
</event>
<event>
 4   0  0.4892667E-02  0.9118800E+02  0.7818609E-02  0.1379984E+01
      -11   -1    0    0    0    0  0.00000000000E+00  0.00000000000E+00  0.35740347158E-01  0.35744000000E-01  0.51099999109E-03 0. -1.
       11   -1    0    0    0    0 -0.00000000000E+00 -0.00000000000E+00 -0.35740347158E-01  0.35744000000E-01  0.51099999109E-03 0.  1.
       22    1    1    2    0    0 -0.26594305662E-01 -0.15210272029E-01 -0.18399024866E-01  0.35737005818E-01  0.00000000000E+00 0.  1.
  9000001    1    1    2    0    0  0.26594305662E-01  0.15210272029E-01  0.18399024866E-01  0.35750994182E-01  0.10000000475E-02 0. -1.
</event>
<event>
 4   0  0.4892667E-02  0.9118800E+02  0.7818609E-02  0.1379984E+01
      -11   -1    0    0    0    0  0.00000000000E+00  0.00000000000E+00  0.35740347158E-01  0.35744000000E-01  0.51099999109E-03 0.  1.
       11   -1    0    0    0    0 -0.00000000000E+00 -0.00000000000E+00 -0.35740347158E-01  0.35744000000E-01  0.51099999109E-03 0. -1.
       22    1    1    2    0    0 -0.34649174762E-01 -0.66032364513E-02  0.57415626424E-02  0.35737005818E-01  0.00000000000E+00 0.  1.
  9000001    1    1    2    0    0  0.34649174762E-01  0.66032364513E-02 -0.57415626424E-02  0.35750994182E-01  0.10000000475E-02 0. -1.
</event>
<event>
 4   0  0.4892667E-02  0.9118800E+02  0.7818609E-02  0.1379984E+01
      -11   -1    0    0    0    0  0.00000000000E+00  0.00000000000E+00  0.35740347158E-01  0.35744000000E-01  0.51099999109E-03 0.  1.
       11   -1    0    0    0    0 -0.00000000000E+00 -0.00000000000E+00 -0.35740347158E-01  0.35744000000E-01  0.51099999109E-03 0. -1.
       22    1    1    2    0    0  0.10806190274E-01 -0.12285322024E-01  0.31771539141E-01  0.35737005818E-01  0.00000000000E+00 0.  1.
  9000001    1    1    2    0    0 -0.10806190274E-01  0.12285322024E-01 -0.31771539141E-01  0.35750994182E-01  0.10000000475E-02 0. -1.
</event>
<event>
 4   0  0.4892667E-02  0.9118800E+02  0.7818609E-02  0.1379984E+01
      -11   -1    0    0    0    0  0.00000000000E+00  0.00000000000E+00  0.35740347158E-01  0.35744000000E-01  0.51099999109E-03 0.  1.
       11   -1    0    0    0    0 -0.00000000000E+00 -0.00000000000E+00 -0.35740347158E-01  0.35744000000E-01  0.51099999109E-03 0. -1.
       22    1    1    2    0    0  0.14269630810E-01  0.19469701991E-01  0.26352266047E-01  0.35737005818E-01  0.00000000000E+00 0.  1.
  9000001    1    1    2    0    0 -0.14269630810E-01 -0.19469701991E-01 -0.26352266047E-01  0.35750994182E-01  0.10000000475E-02 0. -1.
</event>
<event>
 4   0  0.4892667E-02  0.9118800E+02  0.7818609E-02  0.1379984E+01
      -11   -1    0    0    0    0  0.00000000000E+00  0.00000000000E+00  0.35740347158E-01  0.35744000000E-01  0.51099999109E-03 0. -1.
       11   -1    0    0    0    0 -0.00000000000E+00 -0.00000000000E+00 -0.35740347158E-01  0.35744000000E-01  0.51099999109E-03 0.  1.
       22    1    1    2    0    0  0.14557172181E-01  0.98416729186E-02 -0.31118544264E-01  0.35737005818E-01  0.00000000000E+00 0.  1.
  9000001    1    1    2    0    0 -0.14557172181E-01 -0.98416729186E-02  0.31118544264E-01  0.35750994182E-01  0.10000000475E-02 0. -1.
</event>
<event>
 4   0  0.4892667E-02  0.9118800E+02  0.7818609E-02  0.1379984E+01
      -11   -1    0    0    0    0  0.00000000000E+00  0.00000000000E+00  0.35740347158E-01  0.35744000000E-01  0.51099999109E-03 0. -1.
       11   -1    0    0    0    0 -0.00000000000E+00 -0.00000000000E+00 -0.35740347158E-01  0.35744000000E-01  0.51099999109E-03 0.  1.
       22    1    1    2    0    0  0.96964212021E-02  0.31338851501E-01  0.14177072593E-01  0.35737005818E-01  0.00000000000E+00 0. -1.
  9000001    1    1    2    0    0 -0.96964212021E-02 -0.31338851501E-01 -0.14177072593E-01  0.35750994182E-01  0.10000000475E-02 0.  1.
</event>
<event>
 4   0  0.4892667E-02  0.9118800E+02  0.7818609E-02  0.1379984E+01
      -11   -1    0    0    0    0  0.00000000000E+00  0.00000000000E+00  0.35740347158E-01  0.35744000000E-01  0.51099999109E-03 0.  1.
       11   -1    0    0    0    0 -0.00000000000E+00 -0.00000000000E+00 -0.35740347158E-01  0.35744000000E-01  0.51099999109E-03 0. -1.
       22    1    1    2    0    0 -0.12950867176E-01 -0.75344912204E-03  0.33299263335E-01  0.35737005818E-01  0.00000000000E+00 0.  1.
  9000001    1    1    2    0    0  0.12950867176E-01  0.75344912204E-03 -0.33299263335E-01  0.35750994182E-01  0.10000000475E-02 0. -1.
</event>
<event>
 4   0  0.4892667E-02  0.9118800E+02  0.7818609E-02  0.1379984E+01
      -11   -1    0    0    0    0  0.00000000000E+00  0.00000000000E+00  0.35740347158E-01  0.35744000000E-01  0.51099999109E-03 0.  1.
       11   -1    0    0    0    0 -0.00000000000E+00 -0.00000000000E+00 -0.35740347158E-01  0.35744000000E-01  0.51099999109E-03 0. -1.
       22    1    1    2    0    0  0.13196938304E-02  0.32236673825E-02 -0.35566837949E-01  0.35737005818E-01  0.00000000000E+00 0. -1.
  9000001    1    1    2    0    0 -0.13196938304E-02 -0.32236673825E-02  0.35566837949E-01  0.35750994182E-01  0.10000000475E-02 0.  1.
</event>
<event>
 4   0  0.4892667E-02  0.9118800E+02  0.7818609E-02  0.1379984E+01
      -11   -1    0    0    0    0  0.00000000000E+00  0.00000000000E+00  0.35740347158E-01  0.35744000000E-01  0.51099999109E-03 0. -1.
       11   -1    0    0    0    0 -0.00000000000E+00 -0.00000000000E+00 -0.35740347158E-01  0.35744000000E-01  0.51099999109E-03 0.  1.
       22    1    1    2    0    0 -0.34065614422E-02  0.22883306558E-02  0.35500598119E-01  0.35737005818E-01  0.00000000000E+00 0. -1.
  9000001    1    1    2    0    0  0.34065614422E-02 -0.22883306558E-02 -0.35500598119E-01  0.35750994182E-01  0.10000000475E-02 0.  1.
</event>
<event>
 4   0  0.4892667E-02  0.9118800E+02  0.7818609E-02  0.1379984E+01
      -11   -1    0    0    0    0  0.00000000000E+00  0.00000000000E+00  0.35740347158E-01  0.35744000000E-01  0.51099999109E-03 0. -1.
       11   -1    0    0    0    0 -0.00000000000E+00 -0.00000000000E+00 -0.35740347158E-01  0.35744000000E-01  0.51099999109E-03 0.  1.
       22    1    1    2    0    0 -0.45033485891E-03  0.30825041110E-02  0.35600968411E-01  0.35737005818E-01  0.00000000000E+00 0. -1.
  9000001    1    1    2    0    0  0.45033485891E-03 -0.30825041110E-02 -0.35600968411E-01  0.35750994182E-01  0.10000000475E-02 0.  1.
</event>
<event>
 4   0  0.4892667E-02  0.9118800E+02  0.7818609E-02  0.1379984E+01
      -11   -1    0    0    0    0  0.00000000000E+00  0.00000000000E+00  0.35740347158E-01  0.35744000000E-01  0.51099999109E-03 0.  1.
       11   -1    0    0    0    0 -0.00000000000E+00 -0.00000000000E+00 -0.35740347158E-01  0.35744000000E-01  0.51099999109E-03 0. -1.
       22    1    1    2    0    0 -0.23250477763E-02  0.50901390223E-02 -0.35296150250E-01  0.35737005818E-01  0.00000000000E+00 0. -1.
  9000001    1    1    2    0    0  0.23250477763E-02 -0.50901390223E-02  0.35296150250E-01  0.35750994182E-01  0.10000000475E-02 0.  1.
</event>
<event>
 4   0  0.4892667E-02  0.9118800E+02  0.7818609E-02  0.1379984E+01
      -11   -1    0    0    0    0  0.00000000000E+00  0.00000000000E+00  0.35740347158E-01  0.35744000000E-01  0.51099999109E-03 0.  1.
       11   -1    0    0    0    0 -0.00000000000E+00 -0.00000000000E+00 -0.35740347158E-01  0.35744000000E-01  0.51099999109E-03 0. -1.
       22    1    1    2    0    0  0.51876102460E-02 -0.16714607011E-02  0.35318953891E-01  0.35737005818E-01  0.00000000000E+00 0.  1.
  9000001    1    1    2    0    0 -0.51876102460E-02  0.16714607011E-02 -0.35318953891E-01  0.35750994182E-01  0.10000000475E-02 0. -1.
</event>
<event>
 4   0  0.4892667E-02  0.9118800E+02  0.7818609E-02  0.1379984E+01
      -11   -1    0    0    0    0  0.00000000000E+00  0.00000000000E+00  0.35740347158E-01  0.35744000000E-01  0.51099999109E-03 0. -1.
       11   -1    0    0    0    0 -0.00000000000E+00 -0.00000000000E+00 -0.35740347158E-01  0.35744000000E-01  0.51099999109E-03 0.  1.
       22    1    1    2    0    0  0.68604743235E-02 -0.79564343771E-02 -0.34157907268E-01  0.35737005818E-01  0.00000000000E+00 0.  1.
  9000001    1    1    2    0    0 -0.68604743235E-02  0.79564343771E-02  0.34157907268E-01  0.35750994182E-01  0.10000000475E-02 0. -1.
</event>
<event>
 4   0  0.4892667E-02  0.9118800E+02  0.7818609E-02  0.1379984E+01
      -11   -1    0    0    0    0  0.00000000000E+00  0.00000000000E+00  0.35740347158E-01  0.35744000000E-01  0.51099999109E-03 0. -1.
       11   -1    0    0    0    0 -0.00000000000E+00 -0.00000000000E+00 -0.35740347158E-01  0.35744000000E-01  0.51099999109E-03 0.  1.
       22    1    1    2    0    0  0.20961272143E-01 -0.14878140706E-01 -0.24827395839E-01  0.35737005818E-01  0.00000000000E+00 0.  1.
  9000001    1    1    2    0    0 -0.20961272143E-01  0.14878140706E-01  0.24827395839E-01  0.35750994182E-01  0.10000000475E-02 0. -1.
</event>
<event>
 4   0  0.4892667E-02  0.9118800E+02  0.7818609E-02  0.1379984E+01
      -11   -1    0    0    0    0  0.00000000000E+00  0.00000000000E+00  0.35740347158E-01  0.35744000000E-01  0.51099999109E-03 0. -1.
       11   -1    0    0    0    0 -0.00000000000E+00 -0.00000000000E+00 -0.35740347158E-01  0.35744000000E-01  0.51099999109E-03 0.  1.
       22    1    1    2    0    0  0.41402014883E-02  0.73974371808E-03  0.35488661510E-01  0.35737005818E-01  0.00000000000E+00 0. -1.
  9000001    1    1    2    0    0 -0.41402014883E-02 -0.73974371808E-03 -0.35488661510E-01  0.35750994182E-01  0.10000000475E-02 0.  1.
</event>
<event>
 4   0  0.4892667E-02  0.9118800E+02  0.7818609E-02  0.1379984E+01
      -11   -1    0    0    0    0  0.00000000000E+00  0.00000000000E+00  0.35740347158E-01  0.35744000000E-01  0.51099999109E-03 0. -1.
       11   -1    0    0    0    0 -0.00000000000E+00 -0.00000000000E+00 -0.35740347158E-01  0.35744000000E-01  0.51099999109E-03 0.  1.
       22    1    1    2    0    0  0.12672751071E-01  0.13954000562E-01  0.30361502490E-01  0.35737005818E-01  0.00000000000E+00 0. -1.
  9000001    1    1    2    0    0 -0.12672751071E-01 -0.13954000562E-01 -0.30361502490E-01  0.35750994182E-01  0.10000000475E-02 0.  1.
</event>
<event>
 4   0  0.4892667E-02  0.9118800E+02  0.7818609E-02  0.1379984E+01
      -11   -1    0    0    0    0  0.00000000000E+00  0.00000000000E+00  0.35740347158E-01  0.35744000000E-01  0.51099999109E-03 0.  1.
       11   -1    0    0    0    0 -0.00000000000E+00 -0.00000000000E+00 -0.35740347158E-01  0.35744000000E-01  0.51099999109E-03 0. -1.
       22    1    1    2    0    0 -0.50996948816E-02  0.71743017638E-02 -0.34636051900E-01  0.35737005818E-01  0.00000000000E+00 0. -1.
  9000001    1    1    2    0    0  0.50996948816E-02 -0.71743017638E-02  0.34636051900E-01  0.35750994182E-01  0.10000000475E-02 0.  1.
</event>
<event>
 4   0  0.4892667E-02  0.9118800E+02  0.7818609E-02  0.1379984E+01
      -11   -1    0    0    0    0  0.00000000000E+00  0.00000000000E+00  0.35740347158E-01  0.35744000000E-01  0.51099999109E-03 0.  1.
       11   -1    0    0    0    0 -0.00000000000E+00 -0.00000000000E+00 -0.35740347158E-01  0.35744000000E-01  0.51099999109E-03 0. -1.
       22    1    1    2    0    0 -0.24774764040E-01  0.83601733635E-03 -0.25741906041E-01  0.35737005818E-01  0.00000000000E+00 0. -1.
  9000001    1    1    2    0    0  0.24774764040E-01 -0.83601733635E-03  0.25741906041E-01  0.35750994182E-01  0.10000000475E-02 0.  1.
</event>
<event>
 4   0  0.4892667E-02  0.9118800E+02  0.7818609E-02  0.1379984E+01
      -11   -1    0    0    0    0  0.00000000000E+00  0.00000000000E+00  0.35740347158E-01  0.35744000000E-01  0.51099999109E-03 0. -1.
       11   -1    0    0    0    0 -0.00000000000E+00 -0.00000000000E+00 -0.35740347158E-01  0.35744000000E-01  0.51099999109E-03 0.  1.
       22    1    1    2    0    0 -0.31543736348E-02 -0.39555319067E-02  0.35377072790E-01  0.35737005818E-01  0.00000000000E+00 0. -1.
  9000001    1    1    2    0    0  0.31543736348E-02  0.39555319067E-02 -0.35377072790E-01  0.35750994182E-01  0.10000000475E-02 0.  1.
</event>
<event>
 4   0  0.4892667E-02  0.9118800E+02  0.7818609E-02  0.1379984E+01
      -11   -1    0    0    0    0  0.00000000000E+00  0.00000000000E+00  0.35740347158E-01  0.35744000000E-01  0.51099999109E-03 0. -1.
       11   -1    0    0    0    0 -0.00000000000E+00 -0.00000000000E+00 -0.35740347158E-01  0.35744000000E-01  0.51099999109E-03 0.  1.
       22    1    1    2    0    0  0.26128551637E-01  0.14234391082E-01 -0.19794304352E-01  0.35737005818E-01  0.00000000000E+00 0.  1.
  9000001    1    1    2    0    0 -0.26128551637E-01 -0.14234391082E-01  0.19794304352E-01  0.35750994182E-01  0.10000000475E-02 0. -1.
</event>
<event>
 4   0  0.4892667E-02  0.9118800E+02  0.7818609E-02  0.1379984E+01
      -11   -1    0    0    0    0  0.00000000000E+00  0.00000000000E+00  0.35740347158E-01  0.35744000000E-01  0.51099999109E-03 0.  1.
       11   -1    0    0    0    0 -0.00000000000E+00 -0.00000000000E+00 -0.35740347158E-01  0.35744000000E-01  0.51099999109E-03 0. -1.
       22    1    1    2    0    0 -0.64755577478E-02 -0.22585529889E-02  0.35072776838E-01  0.35737005818E-01  0.00000000000E+00 0.  1.
  9000001    1    1    2    0    0  0.64755577478E-02  0.22585529889E-02 -0.35072776838E-01  0.35750994182E-01  0.10000000475E-02 0. -1.
</event>
<event>
 4   0  0.4892667E-02  0.9118800E+02  0.7818609E-02  0.1379984E+01
      -11   -1    0    0    0    0  0.00000000000E+00  0.00000000000E+00  0.35740347158E-01  0.35744000000E-01  0.51099999109E-03 0.  1.
       11   -1    0    0    0    0 -0.00000000000E+00 -0.00000000000E+00 -0.35740347158E-01  0.35744000000E-01  0.51099999109E-03 0. -1.
       22    1    1    2    0    0 -0.43215093878E-03 -0.56270467141E-02 -0.35288570043E-01  0.35737005818E-01  0.00000000000E+00 0. -1.
  9000001    1    1    2    0    0  0.43215093878E-03  0.56270467141E-02  0.35288570043E-01  0.35750994182E-01  0.10000000475E-02 0.  1.
</event>
<event>
 4   0  0.4892667E-02  0.9118800E+02  0.7818609E-02  0.1379984E+01
      -11   -1    0    0    0    0  0.00000000000E+00  0.00000000000E+00  0.35740347158E-01  0.35744000000E-01  0.51099999109E-03 0. -1.
       11   -1    0    0    0    0 -0.00000000000E+00 -0.00000000000E+00 -0.35740347158E-01  0.35744000000E-01  0.51099999109E-03 0.  1.
       22    1    1    2    0    0  0.15752377798E-01 -0.26161122808E-01 -0.18563184856E-01  0.35737005818E-01  0.00000000000E+00 0. -1.
  9000001    1    1    2    0    0 -0.15752377798E-01  0.26161122808E-01  0.18563184856E-01  0.35750994182E-01  0.10000000475E-02 0.  1.
</event>
<event>
 4   0  0.4892667E-02  0.9118800E+02  0.7818609E-02  0.1379984E+01
      -11   -1    0    0    0    0  0.00000000000E+00  0.00000000000E+00  0.35740347158E-01  0.35744000000E-01  0.51099999109E-03 0. -1.
       11   -1    0    0    0    0 -0.00000000000E+00 -0.00000000000E+00 -0.35740347158E-01  0.35744000000E-01  0.51099999109E-03 0.  1.
       22    1    1    2    0    0  0.21926393229E-02 -0.22334432015E-02 -0.35599686082E-01  0.35737005818E-01  0.00000000000E+00 0.  1.
  9000001    1    1    2    0    0 -0.21926393229E-02  0.22334432015E-02  0.35599686082E-01  0.35750994182E-01  0.10000000475E-02 0. -1.
</event>
<event>
 4   0  0.4892667E-02  0.9118800E+02  0.7818609E-02  0.1379984E+01
      -11   -1    0    0    0    0  0.00000000000E+00  0.00000000000E+00  0.35740347158E-01  0.35744000000E-01  0.51099999109E-03 0.  1.
       11   -1    0    0    0    0 -0.00000000000E+00 -0.00000000000E+00 -0.35740347158E-01  0.35744000000E-01  0.51099999109E-03 0. -1.
       22    1    1    2    0    0 -0.23287200772E-02  0.40873236635E-02  0.35426041734E-01  0.35737005818E-01  0.00000000000E+00 0.  1.
  9000001    1    1    2    0    0  0.23287200772E-02 -0.40873236635E-02 -0.35426041734E-01  0.35750994182E-01  0.10000000475E-02 0. -1.
</event>
<event>
 4   0  0.4892667E-02  0.9118800E+02  0.7818609E-02  0.1379984E+01
      -11   -1    0    0    0    0  0.00000000000E+00  0.00000000000E+00  0.35740347158E-01  0.35744000000E-01  0.51099999109E-03 0.  1.
       11   -1    0    0    0    0 -0.00000000000E+00 -0.00000000000E+00 -0.35740347158E-01  0.35744000000E-01  0.51099999109E-03 0. -1.
       22    1    1    2    0    0  0.24554450597E-02 -0.43288276386E-02 -0.35388778245E-01  0.35737005818E-01  0.00000000000E+00 0. -1.
  9000001    1    1    2    0    0 -0.24554450597E-02  0.43288276386E-02  0.35388778245E-01  0.35750994182E-01  0.10000000475E-02 0.  1.
</event>
<event>
 4   0  0.4892667E-02  0.9118800E+02  0.7818609E-02  0.1379984E+01
      -11   -1    0    0    0    0  0.00000000000E+00  0.00000000000E+00  0.35740347158E-01  0.35744000000E-01  0.51099999109E-03 0.  1.
       11   -1    0    0    0    0 -0.00000000000E+00 -0.00000000000E+00 -0.35740347158E-01  0.35744000000E-01  0.51099999109E-03 0. -1.
       22    1    1    2    0    0  0.12386083490E-01 -0.14527385152E-01  0.30210488266E-01  0.35737005818E-01  0.00000000000E+00 0.  1.
  9000001    1    1    2    0    0 -0.12386083490E-01  0.14527385152E-01 -0.30210488266E-01  0.35750994182E-01  0.10000000475E-02 0. -1.
</event>
<event>
 4   0  0.4892667E-02  0.9118800E+02  0.7818609E-02  0.1379984E+01
      -11   -1    0    0    0    0  0.00000000000E+00  0.00000000000E+00  0.35740347158E-01  0.35744000000E-01  0.51099999109E-03 0. -1.
       11   -1    0    0    0    0 -0.00000000000E+00 -0.00000000000E+00 -0.35740347158E-01  0.35744000000E-01  0.51099999109E-03 0.  1.
       22    1    1    2    0    0  0.44546230272E-02  0.20885215878E-01 -0.28654801976E-01  0.35737005818E-01  0.00000000000E+00 0.  1.
  9000001    1    1    2    0    0 -0.44546230272E-02 -0.20885215878E-01  0.28654801976E-01  0.35750994182E-01  0.10000000475E-02 0. -1.
</event>
<event>
 4   0  0.4892667E-02  0.9118800E+02  0.7818609E-02  0.1379984E+01
      -11   -1    0    0    0    0  0.00000000000E+00  0.00000000000E+00  0.35740347158E-01  0.35744000000E-01  0.51099999109E-03 0. -1.
       11   -1    0    0    0    0 -0.00000000000E+00 -0.00000000000E+00 -0.35740347158E-01  0.35744000000E-01  0.51099999109E-03 0.  1.
       22    1    1    2    0    0  0.28399697571E-02 -0.85818469383E-02 -0.34574847213E-01  0.35737005818E-01  0.00000000000E+00 0.  1.
  9000001    1    1    2    0    0 -0.28399697571E-02  0.85818469383E-02  0.34574847213E-01  0.35750994182E-01  0.10000000475E-02 0. -1.
</event>
<event>
 4   0  0.4892667E-02  0.9118800E+02  0.7818609E-02  0.1379984E+01
      -11   -1    0    0    0    0  0.00000000000E+00  0.00000000000E+00  0.35740347158E-01  0.35744000000E-01  0.51099999109E-03 0.  1.
       11   -1    0    0    0    0 -0.00000000000E+00 -0.00000000000E+00 -0.35740347158E-01  0.35744000000E-01  0.51099999109E-03 0. -1.
       22    1    1    2    0    0 -0.22068100386E-01 -0.21711395884E-01 -0.17853509991E-01  0.35737005818E-01  0.00000000000E+00 0. -1.
  9000001    1    1    2    0    0  0.22068100386E-01  0.21711395884E-01  0.17853509991E-01  0.35750994182E-01  0.10000000475E-02 0.  1.
</event>
<event>
 4   0  0.4892667E-02  0.9118800E+02  0.7818609E-02  0.1379984E+01
      -11   -1    0    0    0    0  0.00000000000E+00  0.00000000000E+00  0.35740347158E-01  0.35744000000E-01  0.51099999109E-03 0.  1.
       11   -1    0    0    0    0 -0.00000000000E+00 -0.00000000000E+00 -0.35740347158E-01  0.35744000000E-01  0.51099999109E-03 0. -1.
       22    1    1    2    0    0 -0.12760308033E-01 -0.36085371287E-02 -0.33185638212E-01  0.35737005818E-01  0.00000000000E+00 0. -1.
  9000001    1    1    2    0    0  0.12760308033E-01  0.36085371287E-02  0.33185638212E-01  0.35750994182E-01  0.10000000475E-02 0.  1.
</event>
<event>
 4   0  0.4892667E-02  0.9118800E+02  0.7818609E-02  0.1379984E+01
      -11   -1    0    0    0    0  0.00000000000E+00  0.00000000000E+00  0.35740347158E-01  0.35744000000E-01  0.51099999109E-03 0. -1.
       11   -1    0    0    0    0 -0.00000000000E+00 -0.00000000000E+00 -0.35740347158E-01  0.35744000000E-01  0.51099999109E-03 0.  1.
       22    1    1    2    0    0 -0.38765269220E-02 -0.18669544441E-02 -0.35477043352E-01  0.35737005818E-01  0.00000000000E+00 0.  1.
  9000001    1    1    2    0    0  0.38765269220E-02  0.18669544441E-02  0.35477043352E-01  0.35750994182E-01  0.10000000475E-02 0. -1.
</event>
<event>
 4   0  0.4892667E-02  0.9118800E+02  0.7818609E-02  0.1379984E+01
      -11   -1    0    0    0    0  0.00000000000E+00  0.00000000000E+00  0.35740347158E-01  0.35744000000E-01  0.51099999109E-03 0. -1.
       11   -1    0    0    0    0 -0.00000000000E+00 -0.00000000000E+00 -0.35740347158E-01  0.35744000000E-01  0.51099999109E-03 0.  1.
       22    1    1    2    0    0  0.17656681333E-01 -0.17475065002E-01  0.25690412460E-01  0.35737005818E-01  0.00000000000E+00 0. -1.
  9000001    1    1    2    0    0 -0.17656681333E-01  0.17475065002E-01 -0.25690412460E-01  0.35750994182E-01  0.10000000475E-02 0.  1.
</event>
<event>
 4   0  0.4892667E-02  0.9118800E+02  0.7818609E-02  0.1379984E+01
      -11   -1    0    0    0    0  0.00000000000E+00  0.00000000000E+00  0.35740347158E-01  0.35744000000E-01  0.51099999109E-03 0.  1.
       11   -1    0    0    0    0 -0.00000000000E+00 -0.00000000000E+00 -0.35740347158E-01  0.35744000000E-01  0.51099999109E-03 0. -1.
       22    1    1    2    0    0 -0.11348223080E-02  0.11200617669E-01  0.33917428072E-01  0.35737005818E-01  0.00000000000E+00 0.  1.
  9000001    1    1    2    0    0  0.11348223080E-02 -0.11200617669E-01 -0.33917428072E-01  0.35750994182E-01  0.10000000475E-02 0. -1.
</event>
<event>
 4   0  0.4892667E-02  0.9118800E+02  0.7818609E-02  0.1379984E+01
      -11   -1    0    0    0    0  0.00000000000E+00  0.00000000000E+00  0.35740347158E-01  0.35744000000E-01  0.51099999109E-03 0.  1.
       11   -1    0    0    0    0 -0.00000000000E+00 -0.00000000000E+00 -0.35740347158E-01  0.35744000000E-01  0.51099999109E-03 0. -1.
       22    1    1    2    0    0  0.11761224958E-02  0.58265270805E-02  0.35239209738E-01  0.35737005818E-01  0.00000000000E+00 0.  1.
  9000001    1    1    2    0    0 -0.11761224958E-02 -0.58265270805E-02 -0.35239209738E-01  0.35750994182E-01  0.10000000475E-02 0. -1.
</event>
<event>
 4   0  0.4892667E-02  0.9118800E+02  0.7818609E-02  0.1379984E+01
      -11   -1    0    0    0    0  0.00000000000E+00  0.00000000000E+00  0.35740347158E-01  0.35744000000E-01  0.51099999109E-03 0. -1.
       11   -1    0    0    0    0 -0.00000000000E+00 -0.00000000000E+00 -0.35740347158E-01  0.35744000000E-01  0.51099999109E-03 0.  1.
       22    1    1    2    0    0  0.48017882247E-02 -0.54969588408E-03  0.35408674773E-01  0.35737005818E-01  0.00000000000E+00 0. -1.
  9000001    1    1    2    0    0 -0.48017882247E-02  0.54969588408E-03 -0.35408674773E-01  0.35750994182E-01  0.10000000475E-02 0.  1.
</event>
<event>
 4   0  0.4892667E-02  0.9118800E+02  0.7818609E-02  0.1379984E+01
      -11   -1    0    0    0    0  0.00000000000E+00  0.00000000000E+00  0.35740347158E-01  0.35744000000E-01  0.51099999109E-03 0. -1.
       11   -1    0    0    0    0 -0.00000000000E+00 -0.00000000000E+00 -0.35740347158E-01  0.35744000000E-01  0.51099999109E-03 0.  1.
       22    1    1    2    0    0  0.57700428707E-02 -0.37155016855E-02  0.35071858197E-01  0.35737005818E-01  0.00000000000E+00 0. -1.
  9000001    1    1    2    0    0 -0.57700428707E-02  0.37155016855E-02 -0.35071858197E-01  0.35750994182E-01  0.10000000475E-02 0.  1.
</event>
<event>
 4   0  0.4892667E-02  0.9118800E+02  0.7818609E-02  0.1379984E+01
      -11   -1    0    0    0    0  0.00000000000E+00  0.00000000000E+00  0.35740347158E-01  0.35744000000E-01  0.51099999109E-03 0.  1.
       11   -1    0    0    0    0 -0.00000000000E+00 -0.00000000000E+00 -0.35740347158E-01  0.35744000000E-01  0.51099999109E-03 0. -1.
       22    1    1    2    0    0 -0.23032211047E-02 -0.41395559927E-02  0.35421643576E-01  0.35737005818E-01  0.00000000000E+00 0.  1.
  9000001    1    1    2    0    0  0.23032211047E-02  0.41395559927E-02 -0.35421643576E-01  0.35750994182E-01  0.10000000475E-02 0. -1.
</event>
<event>
 4   0  0.4892667E-02  0.9118800E+02  0.7818609E-02  0.1379984E+01
      -11   -1    0    0    0    0  0.00000000000E+00  0.00000000000E+00  0.35740347158E-01  0.35744000000E-01  0.51099999109E-03 0.  1.
       11   -1    0    0    0    0 -0.00000000000E+00 -0.00000000000E+00 -0.35740347158E-01  0.35744000000E-01  0.51099999109E-03 0. -1.
       22    1    1    2    0    0  0.70977980674E-03  0.35875139876E-02  0.35549395788E-01  0.35737005818E-01  0.00000000000E+00 0.  1.
  9000001    1    1    2    0    0 -0.70977980674E-03 -0.35875139876E-02 -0.35549395788E-01  0.35750994182E-01  0.10000000475E-02 0. -1.
</event>
<event>
 4   0  0.4892667E-02  0.9118800E+02  0.7818609E-02  0.1379984E+01
      -11   -1    0    0    0    0  0.00000000000E+00  0.00000000000E+00  0.35740347158E-01  0.35744000000E-01  0.51099999109E-03 0. -1.
       11   -1    0    0    0    0 -0.00000000000E+00 -0.00000000000E+00 -0.35740347158E-01  0.35744000000E-01  0.51099999109E-03 0.  1.
       22    1    1    2    0    0  0.63798195458E-03  0.32785336328E-02 -0.35580581517E-01  0.35737005818E-01  0.00000000000E+00 0.  1.
  9000001    1    1    2    0    0 -0.63798195458E-03 -0.32785336328E-02  0.35580581517E-01  0.35750994182E-01  0.10000000475E-02 0. -1.
</event>
<event>
 4   0  0.4892667E-02  0.9118800E+02  0.7818609E-02  0.1379984E+01
      -11   -1    0    0    0    0  0.00000000000E+00  0.00000000000E+00  0.35740347158E-01  0.35744000000E-01  0.51099999109E-03 0. -1.
       11   -1    0    0    0    0 -0.00000000000E+00 -0.00000000000E+00 -0.35740347158E-01  0.35744000000E-01  0.51099999109E-03 0.  1.
       22    1    1    2    0    0  0.35332912557E-02 -0.28154061090E-01  0.21725521442E-01  0.35737005818E-01  0.00000000000E+00 0. -1.
  9000001    1    1    2    0    0 -0.35332912557E-02  0.28154061090E-01 -0.21725521442E-01  0.35750994182E-01  0.10000000475E-02 0.  1.
</event>
<event>
 4   0  0.4892667E-02  0.9118800E+02  0.7818609E-02  0.1379984E+01
      -11   -1    0    0    0    0  0.00000000000E+00  0.00000000000E+00  0.35740347158E-01  0.35744000000E-01  0.51099999109E-03 0.  1.
       11   -1    0    0    0    0 -0.00000000000E+00 -0.00000000000E+00 -0.35740347158E-01  0.35744000000E-01  0.51099999109E-03 0. -1.
       22    1    1    2    0    0 -0.49347109116E-02 -0.91738095947E-04  0.35394544738E-01  0.35737005818E-01  0.00000000000E+00 0.  1.
  9000001    1    1    2    0    0  0.49347109116E-02  0.91738095947E-04 -0.35394544738E-01  0.35750994182E-01  0.10000000475E-02 0. -1.
</event>
<event>
 4   0  0.4892667E-02  0.9118800E+02  0.7818609E-02  0.1379984E+01
      -11   -1    0    0    0    0  0.00000000000E+00  0.00000000000E+00  0.35740347158E-01  0.35744000000E-01  0.51099999109E-03 0. -1.
       11   -1    0    0    0    0 -0.00000000000E+00 -0.00000000000E+00 -0.35740347158E-01  0.35744000000E-01  0.51099999109E-03 0.  1.
       22    1    1    2    0    0 -0.29650168068E-02  0.14761371684E-02  0.35583188155E-01  0.35737005818E-01  0.00000000000E+00 0. -1.
  9000001    1    1    2    0    0  0.29650168068E-02 -0.14761371684E-02 -0.35583188155E-01  0.35750994182E-01  0.10000000475E-02 0.  1.
</event>
<event>
 4   0  0.4892667E-02  0.9118800E+02  0.7818609E-02  0.1379984E+01
      -11   -1    0    0    0    0  0.00000000000E+00  0.00000000000E+00  0.35740347158E-01  0.35744000000E-01  0.51099999109E-03 0.  1.
       11   -1    0    0    0    0 -0.00000000000E+00 -0.00000000000E+00 -0.35740347158E-01  0.35744000000E-01  0.51099999109E-03 0. -1.
       22    1    1    2    0    0  0.10202121681E-01 -0.80845183070E-02 -0.33281990052E-01  0.35737005818E-01  0.00000000000E+00 0. -1.
  9000001    1    1    2    0    0 -0.10202121681E-01  0.80845183070E-02  0.33281990052E-01  0.35750994182E-01  0.10000000475E-02 0.  1.
</event>
<event>
 4   0  0.4892667E-02  0.9118800E+02  0.7818609E-02  0.1379984E+01
      -11   -1    0    0    0    0  0.00000000000E+00  0.00000000000E+00  0.35740347158E-01  0.35744000000E-01  0.51099999109E-03 0. -1.
       11   -1    0    0    0    0 -0.00000000000E+00 -0.00000000000E+00 -0.35740347158E-01  0.35744000000E-01  0.51099999109E-03 0.  1.
       22    1    1    2    0    0  0.12928902813E-02  0.84698839174E-02  0.34694712652E-01  0.35737005818E-01  0.00000000000E+00 0. -1.
  9000001    1    1    2    0    0 -0.12928902813E-02 -0.84698839174E-02 -0.34694712652E-01  0.35750994182E-01  0.10000000475E-02 0.  1.
</event>
<event>
 4   0  0.4892667E-02  0.9118800E+02  0.7818609E-02  0.1379984E+01
      -11   -1    0    0    0    0  0.00000000000E+00  0.00000000000E+00  0.35740347158E-01  0.35744000000E-01  0.51099999109E-03 0.  1.
       11   -1    0    0    0    0 -0.00000000000E+00 -0.00000000000E+00 -0.35740347158E-01  0.35744000000E-01  0.51099999109E-03 0. -1.
       22    1    1    2    0    0  0.44154627645E-02 -0.10214683246E-01  0.33960234387E-01  0.35737005818E-01  0.00000000000E+00 0.  1.
  9000001    1    1    2    0    0 -0.44154627645E-02  0.10214683246E-01 -0.33960234387E-01  0.35750994182E-01  0.10000000475E-02 0. -1.
</event>
<event>
 4   0  0.4892667E-02  0.9118800E+02  0.7818609E-02  0.1379984E+01
      -11   -1    0    0    0    0  0.00000000000E+00  0.00000000000E+00  0.35740347158E-01  0.35744000000E-01  0.51099999109E-03 0.  1.
       11   -1    0    0    0    0 -0.00000000000E+00 -0.00000000000E+00 -0.35740347158E-01  0.35744000000E-01  0.51099999109E-03 0. -1.
       22    1    1    2    0    0  0.14176968932E-01  0.86214509363E-02  0.31651504238E-01  0.35737005818E-01  0.00000000000E+00 0.  1.
  9000001    1    1    2    0    0 -0.14176968932E-01 -0.86214509363E-02 -0.31651504238E-01  0.35750994182E-01  0.10000000475E-02 0. -1.
</event>
<event>
 4   0  0.4892667E-02  0.9118800E+02  0.7818609E-02  0.1379984E+01
      -11   -1    0    0    0    0  0.00000000000E+00  0.00000000000E+00  0.35740347158E-01  0.35744000000E-01  0.51099999109E-03 0.  1.
       11   -1    0    0    0    0 -0.00000000000E+00 -0.00000000000E+00 -0.35740347158E-01  0.35744000000E-01  0.51099999109E-03 0. -1.
       22    1    1    2    0    0  0.18862008817E-01 -0.70767102808E-02  0.29517425021E-01  0.35737005818E-01  0.00000000000E+00 0.  1.
  9000001    1    1    2    0    0 -0.18862008817E-01  0.70767102808E-02 -0.29517425021E-01  0.35750994182E-01  0.10000000475E-02 0. -1.
</event>
<event>
 4   0  0.4892667E-02  0.9118800E+02  0.7818609E-02  0.1379984E+01
      -11   -1    0    0    0    0  0.00000000000E+00  0.00000000000E+00  0.35740347158E-01  0.35744000000E-01  0.51099999109E-03 0.  1.
       11   -1    0    0    0    0 -0.00000000000E+00 -0.00000000000E+00 -0.35740347158E-01  0.35744000000E-01  0.51099999109E-03 0. -1.
       22    1    1    2    0    0  0.10548915455E-01  0.73252261430E-03  0.34136745279E-01  0.35737005818E-01  0.00000000000E+00 0.  1.
  9000001    1    1    2    0    0 -0.10548915455E-01 -0.73252261430E-03 -0.34136745279E-01  0.35750994182E-01  0.10000000475E-02 0. -1.
</event>
<event>
 4   0  0.4892667E-02  0.9118800E+02  0.7818609E-02  0.1379984E+01
      -11   -1    0    0    0    0  0.00000000000E+00  0.00000000000E+00  0.35740347158E-01  0.35744000000E-01  0.51099999109E-03 0.  1.
       11   -1    0    0    0    0 -0.00000000000E+00 -0.00000000000E+00 -0.35740347158E-01  0.35744000000E-01  0.51099999109E-03 0. -1.
       22    1    1    2    0    0  0.34213235203E-01  0.98065885961E-02  0.32278385791E-02  0.35737005818E-01  0.00000000000E+00 0.  1.
  9000001    1    1    2    0    0 -0.34213235203E-01 -0.98065885961E-02 -0.32278385791E-02  0.35750994182E-01  0.10000000475E-02 0. -1.
</event>
<event>
 4   0  0.4892667E-02  0.9118800E+02  0.7818609E-02  0.1379984E+01
      -11   -1    0    0    0    0  0.00000000000E+00  0.00000000000E+00  0.35740347158E-01  0.35744000000E-01  0.51099999109E-03 0. -1.
       11   -1    0    0    0    0 -0.00000000000E+00 -0.00000000000E+00 -0.35740347158E-01  0.35744000000E-01  0.51099999109E-03 0.  1.
       22    1    1    2    0    0 -0.26769623215E-01 -0.20206888945E-01  0.12337037609E-01  0.35737005818E-01  0.00000000000E+00 0.  1.
  9000001    1    1    2    0    0  0.26769623215E-01  0.20206888945E-01 -0.12337037609E-01  0.35750994182E-01  0.10000000475E-02 0. -1.
</event>
<event>
 4   0  0.4892667E-02  0.9118800E+02  0.7818609E-02  0.1379984E+01
      -11   -1    0    0    0    0  0.00000000000E+00  0.00000000000E+00  0.35740347158E-01  0.35744000000E-01  0.51099999109E-03 0. -1.
       11   -1    0    0    0    0 -0.00000000000E+00 -0.00000000000E+00 -0.35740347158E-01  0.35744000000E-01  0.51099999109E-03 0.  1.
       22    1    1    2    0    0  0.15183111006E-02 -0.30447893725E-02  0.35574676020E-01  0.35737005818E-01  0.00000000000E+00 0. -1.
  9000001    1    1    2    0    0 -0.15183111006E-02  0.30447893725E-02 -0.35574676020E-01  0.35750994182E-01  0.10000000475E-02 0.  1.
</event>
<event>
 4   0  0.4892667E-02  0.9118800E+02  0.7818609E-02  0.1379984E+01
      -11   -1    0    0    0    0  0.00000000000E+00  0.00000000000E+00  0.35740347158E-01  0.35744000000E-01  0.51099999109E-03 0.  1.
       11   -1    0    0    0    0 -0.00000000000E+00 -0.00000000000E+00 -0.35740347158E-01  0.35744000000E-01  0.51099999109E-03 0. -1.
       22    1    1    2    0    0 -0.37658734849E-02 -0.27874194920E-02 -0.35428548860E-01  0.35737005818E-01  0.00000000000E+00 0. -1.
  9000001    1    1    2    0    0  0.37658734849E-02  0.27874194920E-02  0.35428548860E-01  0.35750994182E-01  0.10000000475E-02 0.  1.
</event>
<event>
 4   0  0.4892667E-02  0.9118800E+02  0.7818609E-02  0.1379984E+01
      -11   -1    0    0    0    0  0.00000000000E+00  0.00000000000E+00  0.35740347158E-01  0.35744000000E-01  0.51099999109E-03 0. -1.
       11   -1    0    0    0    0 -0.00000000000E+00 -0.00000000000E+00 -0.35740347158E-01  0.35744000000E-01  0.51099999109E-03 0.  1.
       22    1    1    2    0    0  0.29235340830E-02 -0.14745852615E-02  0.35586684752E-01  0.35737005818E-01  0.00000000000E+00 0. -1.
  9000001    1    1    2    0    0 -0.29235340830E-02  0.14745852615E-02 -0.35586684752E-01  0.35750994182E-01  0.10000000475E-02 0.  1.
</event>
<event>
 4   0  0.4892667E-02  0.9118800E+02  0.7818609E-02  0.1379984E+01
      -11   -1    0    0    0    0  0.00000000000E+00  0.00000000000E+00  0.35740347158E-01  0.35744000000E-01  0.51099999109E-03 0. -1.
       11   -1    0    0    0    0 -0.00000000000E+00 -0.00000000000E+00 -0.35740347158E-01  0.35744000000E-01  0.51099999109E-03 0.  1.
       22    1    1    2    0    0  0.51044259170E-02  0.60443028648E-02  0.34850320283E-01  0.35737005818E-01  0.00000000000E+00 0. -1.
  9000001    1    1    2    0    0 -0.51044259170E-02 -0.60443028648E-02 -0.34850320283E-01  0.35750994182E-01  0.10000000475E-02 0.  1.
</event>
<event>
 4   0  0.4892667E-02  0.9118800E+02  0.7818609E-02  0.1379984E+01
      -11   -1    0    0    0    0  0.00000000000E+00  0.00000000000E+00  0.35740347158E-01  0.35744000000E-01  0.51099999109E-03 0.  1.
       11   -1    0    0    0    0 -0.00000000000E+00 -0.00000000000E+00 -0.35740347158E-01  0.35744000000E-01  0.51099999109E-03 0. -1.
       22    1    1    2    0    0  0.42139791483E-02 -0.25043923666E-02  0.35399208797E-01  0.35737005818E-01  0.00000000000E+00 0.  1.
  9000001    1    1    2    0    0 -0.42139791483E-02  0.25043923666E-02 -0.35399208797E-01  0.35750994182E-01  0.10000000475E-02 0. -1.
</event>
<event>
 4   0  0.4892667E-02  0.9118800E+02  0.7818609E-02  0.1379984E+01
      -11   -1    0    0    0    0  0.00000000000E+00  0.00000000000E+00  0.35740347158E-01  0.35744000000E-01  0.51099999109E-03 0. -1.
       11   -1    0    0    0    0 -0.00000000000E+00 -0.00000000000E+00 -0.35740347158E-01  0.35744000000E-01  0.51099999109E-03 0.  1.
       22    1    1    2    0    0  0.25654661705E-02 -0.31170761141E-02  0.35508249812E-01  0.35737005818E-01  0.00000000000E+00 0. -1.
  9000001    1    1    2    0    0 -0.25654661705E-02  0.31170761141E-02 -0.35508249812E-01  0.35750994182E-01  0.10000000475E-02 0.  1.
</event>
<event>
 4   0  0.4892667E-02  0.9118800E+02  0.7818609E-02  0.1379984E+01
      -11   -1    0    0    0    0  0.00000000000E+00  0.00000000000E+00  0.35740347158E-01  0.35744000000E-01  0.51099999109E-03 0.  1.
       11   -1    0    0    0    0 -0.00000000000E+00 -0.00000000000E+00 -0.35740347158E-01  0.35744000000E-01  0.51099999109E-03 0. -1.
       22    1    1    2    0    0  0.64499580445E-02 -0.29942862466E-02  0.35022362513E-01  0.35737005818E-01  0.00000000000E+00 0.  1.
  9000001    1    1    2    0    0 -0.64499580445E-02  0.29942862466E-02 -0.35022362513E-01  0.35750994182E-01  0.10000000475E-02 0. -1.
</event>
<event>
 4   0  0.4892667E-02  0.9118800E+02  0.7818609E-02  0.1379984E+01
      -11   -1    0    0    0    0  0.00000000000E+00  0.00000000000E+00  0.35740347158E-01  0.35744000000E-01  0.51099999109E-03 0.  1.
       11   -1    0    0    0    0 -0.00000000000E+00 -0.00000000000E+00 -0.35740347158E-01  0.35744000000E-01  0.51099999109E-03 0. -1.
       22    1    1    2    0    0  0.34831756599E-01  0.42291680846E-02  0.67820685927E-02  0.35737005818E-01  0.00000000000E+00 0.  1.
  9000001    1    1    2    0    0 -0.34831756599E-01 -0.42291680846E-02 -0.67820685927E-02  0.35750994182E-01  0.10000000475E-02 0. -1.
</event>
<event>
 4   0  0.4892667E-02  0.9118800E+02  0.7818609E-02  0.1379984E+01
      -11   -1    0    0    0    0  0.00000000000E+00  0.00000000000E+00  0.35740347158E-01  0.35744000000E-01  0.51099999109E-03 0.  1.
       11   -1    0    0    0    0 -0.00000000000E+00 -0.00000000000E+00 -0.35740347158E-01  0.35744000000E-01  0.51099999109E-03 0. -1.
       22    1    1    2    0    0  0.12926663343E-02 -0.37563731709E-02  0.35515521385E-01  0.35737005818E-01  0.00000000000E+00 0.  1.
  9000001    1    1    2    0    0 -0.12926663343E-02  0.37563731709E-02 -0.35515521385E-01  0.35750994182E-01  0.10000000475E-02 0. -1.
</event>
<event>
 4   0  0.4892667E-02  0.9118800E+02  0.7818609E-02  0.1379984E+01
      -11   -1    0    0    0    0  0.00000000000E+00  0.00000000000E+00  0.35740347158E-01  0.35744000000E-01  0.51099999109E-03 0. -1.
       11   -1    0    0    0    0 -0.00000000000E+00 -0.00000000000E+00 -0.35740347158E-01  0.35744000000E-01  0.51099999109E-03 0.  1.
       22    1    1    2    0    0  0.11430675361E-02 -0.28699061186E-02 -0.35603238903E-01  0.35737005818E-01  0.00000000000E+00 0.  1.
  9000001    1    1    2    0    0 -0.11430675361E-02  0.28699061186E-02  0.35603238903E-01  0.35750994182E-01  0.10000000475E-02 0. -1.
</event>
<event>
 4   0  0.4892667E-02  0.9118800E+02  0.7818609E-02  0.1379984E+01
      -11   -1    0    0    0    0  0.00000000000E+00  0.00000000000E+00  0.35740347158E-01  0.35744000000E-01  0.51099999109E-03 0.  1.
       11   -1    0    0    0    0 -0.00000000000E+00 -0.00000000000E+00 -0.35740347158E-01  0.35744000000E-01  0.51099999109E-03 0. -1.
       22    1    1    2    0    0 -0.30972338262E-02 -0.40128282361E-02  0.35375668715E-01  0.35737005818E-01  0.00000000000E+00 0.  1.
  9000001    1    1    2    0    0  0.30972338262E-02  0.40128282361E-02 -0.35375668715E-01  0.35750994182E-01  0.10000000475E-02 0. -1.
</event>
<event>
 4   0  0.4892667E-02  0.9118800E+02  0.7818609E-02  0.1379984E+01
      -11   -1    0    0    0    0  0.00000000000E+00  0.00000000000E+00  0.35740347158E-01  0.35744000000E-01  0.51099999109E-03 0.  1.
       11   -1    0    0    0    0 -0.00000000000E+00 -0.00000000000E+00 -0.35740347158E-01  0.35744000000E-01  0.51099999109E-03 0. -1.
       22    1    1    2    0    0  0.24132641884E-01  0.24339681877E-02 -0.26245475409E-01  0.35737005818E-01  0.00000000000E+00 0. -1.
  9000001    1    1    2    0    0 -0.24132641884E-01 -0.24339681877E-02  0.26245475409E-01  0.35750994182E-01  0.10000000475E-02 0.  1.
</event>
<event>
 4   0  0.4892667E-02  0.9118800E+02  0.7818609E-02  0.1379984E+01
      -11   -1    0    0    0    0  0.00000000000E+00  0.00000000000E+00  0.35740347158E-01  0.35744000000E-01  0.51099999109E-03 0. -1.
       11   -1    0    0    0    0 -0.00000000000E+00 -0.00000000000E+00 -0.35740347158E-01  0.35744000000E-01  0.51099999109E-03 0.  1.
       22    1    1    2    0    0 -0.14110578709E-01  0.30194183287E-02 -0.32694162573E-01  0.35737005818E-01  0.00000000000E+00 0.  1.
  9000001    1    1    2    0    0  0.14110578709E-01 -0.30194183287E-02  0.32694162573E-01  0.35750994182E-01  0.10000000475E-02 0. -1.
</event>
<event>
 4   0  0.4892667E-02  0.9118800E+02  0.7818609E-02  0.1379984E+01
      -11   -1    0    0    0    0  0.00000000000E+00  0.00000000000E+00  0.35740347158E-01  0.35744000000E-01  0.51099999109E-03 0. -1.
       11   -1    0    0    0    0 -0.00000000000E+00 -0.00000000000E+00 -0.35740347158E-01  0.35744000000E-01  0.51099999109E-03 0.  1.
       22    1    1    2    0    0 -0.28815958750E-01  0.20833119367E-01 -0.35714483980E-02  0.35737005818E-01  0.00000000000E+00 0.  1.
  9000001    1    1    2    0    0  0.28815958750E-01 -0.20833119367E-01  0.35714483980E-02  0.35750994182E-01  0.10000000475E-02 0. -1.
</event>
<event>
 4   0  0.4892667E-02  0.9118800E+02  0.7818609E-02  0.1379984E+01
      -11   -1    0    0    0    0  0.00000000000E+00  0.00000000000E+00  0.35740347158E-01  0.35744000000E-01  0.51099999109E-03 0. -1.
       11   -1    0    0    0    0 -0.00000000000E+00 -0.00000000000E+00 -0.35740347158E-01  0.35744000000E-01  0.51099999109E-03 0.  1.
       22    1    1    2    0    0  0.20306048942E-02 -0.75625893475E-02  0.34868574261E-01  0.35737005818E-01  0.00000000000E+00 0. -1.
  9000001    1    1    2    0    0 -0.20306048942E-02  0.75625893475E-02 -0.34868574261E-01  0.35750994182E-01  0.10000000475E-02 0.  1.
</event>
<event>
 4   0  0.4892667E-02  0.9118800E+02  0.7818609E-02  0.1379984E+01
      -11   -1    0    0    0    0  0.00000000000E+00  0.00000000000E+00  0.35740347158E-01  0.35744000000E-01  0.51099999109E-03 0.  1.
       11   -1    0    0    0    0 -0.00000000000E+00 -0.00000000000E+00 -0.35740347158E-01  0.35744000000E-01  0.51099999109E-03 0. -1.
       22    1    1    2    0    0 -0.66036172573E-02 -0.88574379293E-02  0.33986344571E-01  0.35737005818E-01  0.00000000000E+00 0.  1.
  9000001    1    1    2    0    0  0.66036172573E-02  0.88574379293E-02 -0.33986344571E-01  0.35750994182E-01  0.10000000475E-02 0. -1.
</event>
<event>
 4   0  0.4892667E-02  0.9118800E+02  0.7818609E-02  0.1379984E+01
      -11   -1    0    0    0    0  0.00000000000E+00  0.00000000000E+00  0.35740347158E-01  0.35744000000E-01  0.51099999109E-03 0.  1.
       11   -1    0    0    0    0 -0.00000000000E+00 -0.00000000000E+00 -0.35740347158E-01  0.35744000000E-01  0.51099999109E-03 0. -1.
       22    1    1    2    0    0 -0.18769185870E-01 -0.18867445733E-01 -0.23851011261E-01  0.35737005818E-01  0.00000000000E+00 0. -1.
  9000001    1    1    2    0    0  0.18769185870E-01  0.18867445733E-01  0.23851011261E-01  0.35750994182E-01  0.10000000475E-02 0.  1.
</event>
<event>
 4   0  0.4892667E-02  0.9118800E+02  0.7818609E-02  0.1379984E+01
      -11   -1    0    0    0    0  0.00000000000E+00  0.00000000000E+00  0.35740347158E-01  0.35744000000E-01  0.51099999109E-03 0.  1.
       11   -1    0    0    0    0 -0.00000000000E+00 -0.00000000000E+00 -0.35740347158E-01  0.35744000000E-01  0.51099999109E-03 0. -1.
       22    1    1    2    0    0 -0.55030951241E-04  0.82395423127E-02  0.34774135488E-01  0.35737005818E-01  0.00000000000E+00 0.  1.
  9000001    1    1    2    0    0  0.55030951241E-04 -0.82395423127E-02 -0.34774135488E-01  0.35750994182E-01  0.10000000475E-02 0. -1.
</event>
<event>
 4   0  0.4892667E-02  0.9118800E+02  0.7818609E-02  0.1379984E+01
      -11   -1    0    0    0    0  0.00000000000E+00  0.00000000000E+00  0.35740347158E-01  0.35744000000E-01  0.51099999109E-03 0.  1.
       11   -1    0    0    0    0 -0.00000000000E+00 -0.00000000000E+00 -0.35740347158E-01  0.35744000000E-01  0.51099999109E-03 0. -1.
       22    1    1    2    0    0  0.22326365842E-01  0.16601235102E-01  0.22429132089E-01  0.35737005818E-01  0.00000000000E+00 0.  1.
  9000001    1    1    2    0    0 -0.22326365842E-01 -0.16601235102E-01 -0.22429132089E-01  0.35750994182E-01  0.10000000475E-02 0. -1.
</event>
<event>
 4   0  0.4892667E-02  0.9118800E+02  0.7818609E-02  0.1379984E+01
      -11   -1    0    0    0    0  0.00000000000E+00  0.00000000000E+00  0.35740347158E-01  0.35744000000E-01  0.51099999109E-03 0.  1.
       11   -1    0    0    0    0 -0.00000000000E+00 -0.00000000000E+00 -0.35740347158E-01  0.35744000000E-01  0.51099999109E-03 0. -1.
       22    1    1    2    0    0  0.87856161472E-02 -0.29441040086E-01  0.18252991329E-01  0.35737005818E-01  0.00000000000E+00 0.  1.
  9000001    1    1    2    0    0 -0.87856161472E-02  0.29441040086E-01 -0.18252991329E-01  0.35750994182E-01  0.10000000475E-02 0. -1.
</event>
<event>
 4   0  0.4892667E-02  0.9118800E+02  0.7818609E-02  0.1379984E+01
      -11   -1    0    0    0    0  0.00000000000E+00  0.00000000000E+00  0.35740347158E-01  0.35744000000E-01  0.51099999109E-03 0.  1.
       11   -1    0    0    0    0 -0.00000000000E+00 -0.00000000000E+00 -0.35740347158E-01  0.35744000000E-01  0.51099999109E-03 0. -1.
       22    1    1    2    0    0 -0.82388669014E-02 -0.47328550139E-02 -0.34450758199E-01  0.35737005818E-01  0.00000000000E+00 0. -1.
  9000001    1    1    2    0    0  0.82388669014E-02  0.47328550139E-02  0.34450758199E-01  0.35750994182E-01  0.10000000475E-02 0.  1.
</event>
<event>
 4   0  0.4892667E-02  0.9118800E+02  0.7818609E-02  0.1379984E+01
      -11   -1    0    0    0    0  0.00000000000E+00  0.00000000000E+00  0.35740347158E-01  0.35744000000E-01  0.51099999109E-03 0.  1.
       11   -1    0    0    0    0 -0.00000000000E+00 -0.00000000000E+00 -0.35740347158E-01  0.35744000000E-01  0.51099999109E-03 0. -1.
       22    1    1    2    0    0  0.29501388567E-01  0.13053782852E-02  0.20127037661E-01  0.35737005818E-01  0.00000000000E+00 0.  1.
  9000001    1    1    2    0    0 -0.29501388567E-01 -0.13053782852E-02 -0.20127037661E-01  0.35750994182E-01  0.10000000475E-02 0. -1.
</event>
<event>
 4   0  0.4892667E-02  0.9118800E+02  0.7818609E-02  0.1379984E+01
      -11   -1    0    0    0    0  0.00000000000E+00  0.00000000000E+00  0.35740347158E-01  0.35744000000E-01  0.51099999109E-03 0.  1.
       11   -1    0    0    0    0 -0.00000000000E+00 -0.00000000000E+00 -0.35740347158E-01  0.35744000000E-01  0.51099999109E-03 0. -1.
       22    1    1    2    0    0  0.13549324242E-01  0.17134949019E-01 -0.28283262180E-01  0.35737005818E-01  0.00000000000E+00 0. -1.
  9000001    1    1    2    0    0 -0.13549324242E-01 -0.17134949019E-01  0.28283262180E-01  0.35750994182E-01  0.10000000475E-02 0.  1.
</event>
<event>
 4   0  0.4892667E-02  0.9118800E+02  0.7818609E-02  0.1379984E+01
      -11   -1    0    0    0    0  0.00000000000E+00  0.00000000000E+00  0.35740347158E-01  0.35744000000E-01  0.51099999109E-03 0.  1.
       11   -1    0    0    0    0 -0.00000000000E+00 -0.00000000000E+00 -0.35740347158E-01  0.35744000000E-01  0.51099999109E-03 0. -1.
       22    1    1    2    0    0 -0.34777410699E-01 -0.79436991683E-02  0.21361023979E-02  0.35737005818E-01  0.00000000000E+00 0. -1.
  9000001    1    1    2    0    0  0.34777410699E-01  0.79436991683E-02 -0.21361023979E-02  0.35750994182E-01  0.10000000475E-02 0.  1.
</event>
<event>
 4   0  0.4892667E-02  0.9118800E+02  0.7818609E-02  0.1379984E+01
      -11   -1    0    0    0    0  0.00000000000E+00  0.00000000000E+00  0.35740347158E-01  0.35744000000E-01  0.51099999109E-03 0. -1.
       11   -1    0    0    0    0 -0.00000000000E+00 -0.00000000000E+00 -0.35740347158E-01  0.35744000000E-01  0.51099999109E-03 0.  1.
       22    1    1    2    0    0  0.37261481785E-02  0.10360901190E-01 -0.33998546015E-01  0.35737005818E-01  0.00000000000E+00 0.  1.
  9000001    1    1    2    0    0 -0.37261481785E-02 -0.10360901190E-01  0.33998546015E-01  0.35750994182E-01  0.10000000475E-02 0. -1.
</event>
<event>
 4   0  0.4892667E-02  0.9118800E+02  0.7818609E-02  0.1379984E+01
      -11   -1    0    0    0    0  0.00000000000E+00  0.00000000000E+00  0.35740347158E-01  0.35744000000E-01  0.51099999109E-03 0. -1.
       11   -1    0    0    0    0 -0.00000000000E+00 -0.00000000000E+00 -0.35740347158E-01  0.35744000000E-01  0.51099999109E-03 0.  1.
       22    1    1    2    0    0  0.55679260383E-02 -0.22008816645E-01 -0.27599706057E-01  0.35737005818E-01  0.00000000000E+00 0.  1.
  9000001    1    1    2    0    0 -0.55679260383E-02  0.22008816645E-01  0.27599706057E-01  0.35750994182E-01  0.10000000475E-02 0. -1.
</event>
<event>
 4   0  0.4892667E-02  0.9118800E+02  0.7818609E-02  0.1379984E+01
      -11   -1    0    0    0    0  0.00000000000E+00  0.00000000000E+00  0.35740347158E-01  0.35744000000E-01  0.51099999109E-03 0.  1.
       11   -1    0    0    0    0 -0.00000000000E+00 -0.00000000000E+00 -0.35740347158E-01  0.35744000000E-01  0.51099999109E-03 0. -1.
       22    1    1    2    0    0 -0.11342352334E-01 -0.15579255579E-02 -0.33853470965E-01  0.35737005818E-01  0.00000000000E+00 0. -1.
  9000001    1    1    2    0    0  0.11342352334E-01  0.15579255579E-02  0.33853470965E-01  0.35750994182E-01  0.10000000475E-02 0.  1.
</event>
<event>
 4   0  0.4892667E-02  0.9118800E+02  0.7818609E-02  0.1379984E+01
      -11   -1    0    0    0    0  0.00000000000E+00  0.00000000000E+00  0.35740347158E-01  0.35744000000E-01  0.51099999109E-03 0. -1.
       11   -1    0    0    0    0 -0.00000000000E+00 -0.00000000000E+00 -0.35740347158E-01  0.35744000000E-01  0.51099999109E-03 0.  1.
       22    1    1    2    0    0 -0.36943996516E-02 -0.87812811453E-02  0.34443781696E-01  0.35737005818E-01  0.00000000000E+00 0. -1.
  9000001    1    1    2    0    0  0.36943996516E-02  0.87812811453E-02 -0.34443781696E-01  0.35750994182E-01  0.10000000475E-02 0.  1.
</event>
<event>
 4   0  0.4892667E-02  0.9118800E+02  0.7818609E-02  0.1379984E+01
      -11   -1    0    0    0    0  0.00000000000E+00  0.00000000000E+00  0.35740347158E-01  0.35744000000E-01  0.51099999109E-03 0.  1.
       11   -1    0    0    0    0 -0.00000000000E+00 -0.00000000000E+00 -0.35740347158E-01  0.35744000000E-01  0.51099999109E-03 0. -1.
       22    1    1    2    0    0 -0.36666879237E-02  0.85124746268E-03  0.35538209892E-01  0.35737005818E-01  0.00000000000E+00 0.  1.
  9000001    1    1    2    0    0  0.36666879237E-02 -0.85124746268E-03 -0.35538209892E-01  0.35750994182E-01  0.10000000475E-02 0. -1.
</event>
<event>
 4   0  0.4892667E-02  0.9118800E+02  0.7818609E-02  0.1379984E+01
      -11   -1    0    0    0    0  0.00000000000E+00  0.00000000000E+00  0.35740347158E-01  0.35744000000E-01  0.51099999109E-03 0.  1.
       11   -1    0    0    0    0 -0.00000000000E+00 -0.00000000000E+00 -0.35740347158E-01  0.35744000000E-01  0.51099999109E-03 0. -1.
       22    1    1    2    0    0  0.25610157931E-02 -0.24971777407E-02  0.35557543311E-01  0.35737005818E-01  0.00000000000E+00 0.  1.
  9000001    1    1    2    0    0 -0.25610157931E-02  0.24971777407E-02 -0.35557543311E-01  0.35750994182E-01  0.10000000475E-02 0. -1.
</event>
<event>
 4   0  0.4892667E-02  0.9118800E+02  0.7818609E-02  0.1379984E+01
      -11   -1    0    0    0    0  0.00000000000E+00  0.00000000000E+00  0.35740347158E-01  0.35744000000E-01  0.51099999109E-03 0.  1.
       11   -1    0    0    0    0 -0.00000000000E+00 -0.00000000000E+00 -0.35740347158E-01  0.35744000000E-01  0.51099999109E-03 0. -1.
       22    1    1    2    0    0  0.15932690899E-02  0.57100359392E-02 -0.35241886556E-01  0.35737005818E-01  0.00000000000E+00 0. -1.
  9000001    1    1    2    0    0 -0.15932690899E-02 -0.57100359392E-02  0.35241886556E-01  0.35750994182E-01  0.10000000475E-02 0.  1.
</event>
<event>
 4   0  0.4892667E-02  0.9118800E+02  0.7818609E-02  0.1379984E+01
      -11   -1    0    0    0    0  0.00000000000E+00  0.00000000000E+00  0.35740347158E-01  0.35744000000E-01  0.51099999109E-03 0. -1.
       11   -1    0    0    0    0 -0.00000000000E+00 -0.00000000000E+00 -0.35740347158E-01  0.35744000000E-01  0.51099999109E-03 0.  1.
       22    1    1    2    0    0  0.63216567869E-02 -0.13603527069E-02  0.35147114830E-01  0.35737005818E-01  0.00000000000E+00 0. -1.
  9000001    1    1    2    0    0 -0.63216567869E-02  0.13603527069E-02 -0.35147114830E-01  0.35750994182E-01  0.10000000475E-02 0.  1.
</event>
<event>
 4   0  0.4892667E-02  0.9118800E+02  0.7818609E-02  0.1379984E+01
      -11   -1    0    0    0    0  0.00000000000E+00  0.00000000000E+00  0.35740347158E-01  0.35744000000E-01  0.51099999109E-03 0.  1.
       11   -1    0    0    0    0 -0.00000000000E+00 -0.00000000000E+00 -0.35740347158E-01  0.35744000000E-01  0.51099999109E-03 0. -1.
       22    1    1    2    0    0 -0.44663409423E-02 -0.31125067329E-02 -0.35319933257E-01  0.35737005818E-01  0.00000000000E+00 0. -1.
  9000001    1    1    2    0    0  0.44663409423E-02  0.31125067329E-02  0.35319933257E-01  0.35750994182E-01  0.10000000475E-02 0.  1.
</event>
<event>
 4   0  0.4892667E-02  0.9118800E+02  0.7818609E-02  0.1379984E+01
      -11   -1    0    0    0    0  0.00000000000E+00  0.00000000000E+00  0.35740347158E-01  0.35744000000E-01  0.51099999109E-03 0.  1.
       11   -1    0    0    0    0 -0.00000000000E+00 -0.00000000000E+00 -0.35740347158E-01  0.35744000000E-01  0.51099999109E-03 0. -1.
       22    1    1    2    0    0  0.41798796309E-02 -0.18496463688E-02 -0.35443490227E-01  0.35737005818E-01  0.00000000000E+00 0. -1.
  9000001    1    1    2    0    0 -0.41798796309E-02  0.18496463688E-02  0.35443490227E-01  0.35750994182E-01  0.10000000475E-02 0.  1.
</event>
<event>
 4   0  0.4892667E-02  0.9118800E+02  0.7818609E-02  0.1379984E+01
      -11   -1    0    0    0    0  0.00000000000E+00  0.00000000000E+00  0.35740347158E-01  0.35744000000E-01  0.51099999109E-03 0. -1.
       11   -1    0    0    0    0 -0.00000000000E+00 -0.00000000000E+00 -0.35740347158E-01  0.35744000000E-01  0.51099999109E-03 0.  1.
       22    1    1    2    0    0  0.10822963573E-01 -0.20529583555E-01 -0.27175968123E-01  0.35737005818E-01  0.00000000000E+00 0.  1.
  9000001    1    1    2    0    0 -0.10822963573E-01  0.20529583555E-01  0.27175968123E-01  0.35750994182E-01  0.10000000475E-02 0. -1.
</event>
<event>
 4   0  0.4892667E-02  0.9118800E+02  0.7818609E-02  0.1379984E+01
      -11   -1    0    0    0    0  0.00000000000E+00  0.00000000000E+00  0.35740347158E-01  0.35744000000E-01  0.51099999109E-03 0. -1.
       11   -1    0    0    0    0 -0.00000000000E+00 -0.00000000000E+00 -0.35740347158E-01  0.35744000000E-01  0.51099999109E-03 0.  1.
       22    1    1    2    0    0  0.19565506105E-03  0.98162256978E-02 -0.34361854098E-01  0.35737005818E-01  0.00000000000E+00 0.  1.
  9000001    1    1    2    0    0 -0.19565506105E-03 -0.98162256978E-02  0.34361854098E-01  0.35750994182E-01  0.10000000475E-02 0. -1.
</event>
<event>
 4   0  0.4892667E-02  0.9118800E+02  0.7818609E-02  0.1379984E+01
      -11   -1    0    0    0    0  0.00000000000E+00  0.00000000000E+00  0.35740347158E-01  0.35744000000E-01  0.51099999109E-03 0.  1.
       11   -1    0    0    0    0 -0.00000000000E+00 -0.00000000000E+00 -0.35740347158E-01  0.35744000000E-01  0.51099999109E-03 0. -1.
       22    1    1    2    0    0 -0.28420394082E-03  0.59972695502E-02  0.35229044423E-01  0.35737005818E-01  0.00000000000E+00 0.  1.
  9000001    1    1    2    0    0  0.28420394082E-03 -0.59972695502E-02 -0.35229044423E-01  0.35750994182E-01  0.10000000475E-02 0. -1.
</event>
<event>
 4   0  0.4892667E-02  0.9118800E+02  0.7818609E-02  0.1379984E+01
      -11   -1    0    0    0    0  0.00000000000E+00  0.00000000000E+00  0.35740347158E-01  0.35744000000E-01  0.51099999109E-03 0.  1.
       11   -1    0    0    0    0 -0.00000000000E+00 -0.00000000000E+00 -0.35740347158E-01  0.35744000000E-01  0.51099999109E-03 0. -1.
       22    1    1    2    0    0  0.41890913484E-02 -0.21481801085E-02 -0.35425561686E-01  0.35737005818E-01  0.00000000000E+00 0. -1.
  9000001    1    1    2    0    0 -0.41890913484E-02  0.21481801085E-02  0.35425561686E-01  0.35750994182E-01  0.10000000475E-02 0.  1.
</event>
<event>
 4   0  0.4892667E-02  0.9118800E+02  0.7818609E-02  0.1379984E+01
      -11   -1    0    0    0    0  0.00000000000E+00  0.00000000000E+00  0.35740347158E-01  0.35744000000E-01  0.51099999109E-03 0.  1.
       11   -1    0    0    0    0 -0.00000000000E+00 -0.00000000000E+00 -0.35740347158E-01  0.35744000000E-01  0.51099999109E-03 0. -1.
       22    1    1    2    0    0 -0.15590215197E-01 -0.24092307544E-02 -0.32066717671E-01  0.35737005818E-01  0.00000000000E+00 0. -1.
  9000001    1    1    2    0    0  0.15590215197E-01  0.24092307544E-02  0.32066717671E-01  0.35750994182E-01  0.10000000475E-02 0.  1.
</event>
<event>
 4   0  0.4892667E-02  0.9118800E+02  0.7818609E-02  0.1379984E+01
      -11   -1    0    0    0    0  0.00000000000E+00  0.00000000000E+00  0.35740347158E-01  0.35744000000E-01  0.51099999109E-03 0.  1.
       11   -1    0    0    0    0 -0.00000000000E+00 -0.00000000000E+00 -0.35740347158E-01  0.35744000000E-01  0.51099999109E-03 0. -1.
       22    1    1    2    0    0 -0.61687236107E-02  0.48973975422E-02  0.34858226163E-01  0.35737005818E-01  0.00000000000E+00 0.  1.
  9000001    1    1    2    0    0  0.61687236107E-02 -0.48973975422E-02 -0.34858226163E-01  0.35750994182E-01  0.10000000475E-02 0. -1.
</event>
<event>
 4   0  0.4892667E-02  0.9118800E+02  0.7818609E-02  0.1379984E+01
      -11   -1    0    0    0    0  0.00000000000E+00  0.00000000000E+00  0.35740347158E-01  0.35744000000E-01  0.51099999109E-03 0. -1.
       11   -1    0    0    0    0 -0.00000000000E+00 -0.00000000000E+00 -0.35740347158E-01  0.35744000000E-01  0.51099999109E-03 0.  1.
       22    1    1    2    0    0 -0.20878999303E-02  0.96359706423E-02  0.34349997504E-01  0.35737005818E-01  0.00000000000E+00 0. -1.
  9000001    1    1    2    0    0  0.20878999303E-02 -0.96359706423E-02 -0.34349997504E-01  0.35750994182E-01  0.10000000475E-02 0.  1.
</event>
<event>
 4   0  0.4892667E-02  0.9118800E+02  0.7818609E-02  0.1379984E+01
      -11   -1    0    0    0    0  0.00000000000E+00  0.00000000000E+00  0.35740347158E-01  0.35744000000E-01  0.51099999109E-03 0.  1.
       11   -1    0    0    0    0 -0.00000000000E+00 -0.00000000000E+00 -0.35740347158E-01  0.35744000000E-01  0.51099999109E-03 0. -1.
       22    1    1    2    0    0  0.50279737413E-02  0.60736987478E-02 -0.34856322934E-01  0.35737005818E-01  0.00000000000E+00 0. -1.
  9000001    1    1    2    0    0 -0.50279737413E-02 -0.60736987478E-02  0.34856322934E-01  0.35750994182E-01  0.10000000475E-02 0.  1.
</event>
<event>
 4   0  0.4892667E-02  0.9118800E+02  0.7818609E-02  0.1379984E+01
      -11   -1    0    0    0    0  0.00000000000E+00  0.00000000000E+00  0.35740347158E-01  0.35744000000E-01  0.51099999109E-03 0.  1.
       11   -1    0    0    0    0 -0.00000000000E+00 -0.00000000000E+00 -0.35740347158E-01  0.35744000000E-01  0.51099999109E-03 0. -1.
       22    1    1    2    0    0 -0.20501330114E-01 -0.21039000625E-01  0.20351646153E-01  0.35737005818E-01  0.00000000000E+00 0.  1.
  9000001    1    1    2    0    0  0.20501330114E-01  0.21039000625E-01 -0.20351646153E-01  0.35750994182E-01  0.10000000475E-02 0. -1.
</event>
<event>
 4   0  0.4892667E-02  0.9118800E+02  0.7818609E-02  0.1379984E+01
      -11   -1    0    0    0    0  0.00000000000E+00  0.00000000000E+00  0.35740347158E-01  0.35744000000E-01  0.51099999109E-03 0. -1.
       11   -1    0    0    0    0 -0.00000000000E+00 -0.00000000000E+00 -0.35740347158E-01  0.35744000000E-01  0.51099999109E-03 0.  1.
       22    1    1    2    0    0  0.16896197006E-01 -0.76171470992E-02 -0.30555378932E-01  0.35737005818E-01  0.00000000000E+00 0.  1.
  9000001    1    1    2    0    0 -0.16896197006E-01  0.76171470992E-02  0.30555378932E-01  0.35750994182E-01  0.10000000475E-02 0. -1.
</event>
<event>
 4   0  0.4892667E-02  0.9118800E+02  0.7818609E-02  0.1379984E+01
      -11   -1    0    0    0    0  0.00000000000E+00  0.00000000000E+00  0.35740347158E-01  0.35744000000E-01  0.51099999109E-03 0.  1.
       11   -1    0    0    0    0 -0.00000000000E+00 -0.00000000000E+00 -0.35740347158E-01  0.35744000000E-01  0.51099999109E-03 0. -1.
       22    1    1    2    0    0 -0.30116455841E-02 -0.88521643256E-02  0.34492068110E-01  0.35737005818E-01  0.00000000000E+00 0.  1.
  9000001    1    1    2    0    0  0.30116455841E-02  0.88521643256E-02 -0.34492068110E-01  0.35750994182E-01  0.10000000475E-02 0. -1.
</event>
<event>
 4   0  0.4892667E-02  0.9118800E+02  0.7818609E-02  0.1379984E+01
      -11   -1    0    0    0    0  0.00000000000E+00  0.00000000000E+00  0.35740347158E-01  0.35744000000E-01  0.51099999109E-03 0. -1.
       11   -1    0    0    0    0 -0.00000000000E+00 -0.00000000000E+00 -0.35740347158E-01  0.35744000000E-01  0.51099999109E-03 0.  1.
       22    1    1    2    0    0 -0.16136618082E-02  0.56937590710E-02  0.35243592156E-01  0.35737005818E-01  0.00000000000E+00 0. -1.
  9000001    1    1    2    0    0  0.16136618082E-02 -0.56937590710E-02 -0.35243592156E-01  0.35750994182E-01  0.10000000475E-02 0.  1.
</event>
<event>
 4   0  0.4892667E-02  0.9118800E+02  0.7818609E-02  0.1379984E+01
      -11   -1    0    0    0    0  0.00000000000E+00  0.00000000000E+00  0.35740347158E-01  0.35744000000E-01  0.51099999109E-03 0.  1.
       11   -1    0    0    0    0 -0.00000000000E+00 -0.00000000000E+00 -0.35740347158E-01  0.35744000000E-01  0.51099999109E-03 0. -1.
       22    1    1    2    0    0 -0.12869386182E-02 -0.42971877073E-02  0.35454358712E-01  0.35737005818E-01  0.00000000000E+00 0.  1.
  9000001    1    1    2    0    0  0.12869386182E-02  0.42971877073E-02 -0.35454358712E-01  0.35750994182E-01  0.10000000475E-02 0. -1.
</event>
<event>
 4   0  0.4892667E-02  0.9118800E+02  0.7818609E-02  0.1379984E+01
      -11   -1    0    0    0    0  0.00000000000E+00  0.00000000000E+00  0.35740347158E-01  0.35744000000E-01  0.51099999109E-03 0. -1.
       11   -1    0    0    0    0 -0.00000000000E+00 -0.00000000000E+00 -0.35740347158E-01  0.35744000000E-01  0.51099999109E-03 0.  1.
       22    1    1    2    0    0  0.81066680825E-03 -0.60298109292E-02 -0.35215306109E-01  0.35737005818E-01  0.00000000000E+00 0.  1.
  9000001    1    1    2    0    0 -0.81066680825E-03  0.60298109292E-02  0.35215306109E-01  0.35750994182E-01  0.10000000475E-02 0. -1.
</event>
<event>
 4   0  0.4892667E-02  0.9118800E+02  0.7818609E-02  0.1379984E+01
      -11   -1    0    0    0    0  0.00000000000E+00  0.00000000000E+00  0.35740347158E-01  0.35744000000E-01  0.51099999109E-03 0. -1.
       11   -1    0    0    0    0 -0.00000000000E+00 -0.00000000000E+00 -0.35740347158E-01  0.35744000000E-01  0.51099999109E-03 0.  1.
       22    1    1    2    0    0  0.35117079165E-02 -0.14344978219E-01 -0.32542634993E-01  0.35737005818E-01  0.00000000000E+00 0.  1.
  9000001    1    1    2    0    0 -0.35117079165E-02  0.14344978219E-01  0.32542634993E-01  0.35750994182E-01  0.10000000475E-02 0. -1.
</event>
<event>
 4   0  0.4892667E-02  0.9118800E+02  0.7818609E-02  0.1379984E+01
      -11   -1    0    0    0    0  0.00000000000E+00  0.00000000000E+00  0.35740347158E-01  0.35744000000E-01  0.51099999109E-03 0.  1.
       11   -1    0    0    0    0 -0.00000000000E+00 -0.00000000000E+00 -0.35740347158E-01  0.35744000000E-01  0.51099999109E-03 0. -1.
       22    1    1    2    0    0  0.30287851629E-01 -0.13992710001E-01 -0.12805611871E-01  0.35737005818E-01  0.00000000000E+00 0.  1.
  9000001    1    1    2    0    0 -0.30287851629E-01  0.13992710001E-01  0.12805611871E-01  0.35750994182E-01  0.10000000475E-02 0. -1.
</event>
<event>
 4   0  0.4892667E-02  0.9118800E+02  0.7818609E-02  0.1379984E+01
      -11   -1    0    0    0    0  0.00000000000E+00  0.00000000000E+00  0.35740347158E-01  0.35744000000E-01  0.51099999109E-03 0. -1.
       11   -1    0    0    0    0 -0.00000000000E+00 -0.00000000000E+00 -0.35740347158E-01  0.35744000000E-01  0.51099999109E-03 0.  1.
       22    1    1    2    0    0  0.11836681182E-01 -0.10286699961E-02  0.33704130333E-01  0.35737005818E-01  0.00000000000E+00 0. -1.
  9000001    1    1    2    0    0 -0.11836681182E-01  0.10286699961E-02 -0.33704130333E-01  0.35750994182E-01  0.10000000475E-02 0.  1.
</event>
<event>
 4   0  0.4892667E-02  0.9118800E+02  0.7818609E-02  0.1379984E+01
      -11   -1    0    0    0    0  0.00000000000E+00  0.00000000000E+00  0.35740347158E-01  0.35744000000E-01  0.51099999109E-03 0.  1.
       11   -1    0    0    0    0 -0.00000000000E+00 -0.00000000000E+00 -0.35740347158E-01  0.35744000000E-01  0.51099999109E-03 0. -1.
       22    1    1    2    0    0 -0.90163623038E-02  0.11287836499E-01 -0.32686748735E-01  0.35737005818E-01  0.00000000000E+00 0. -1.
  9000001    1    1    2    0    0  0.90163623038E-02 -0.11287836499E-01  0.32686748735E-01  0.35750994182E-01  0.10000000475E-02 0.  1.
</event>
<event>
 4   0  0.4892667E-02  0.9118800E+02  0.7818609E-02  0.1379984E+01
      -11   -1    0    0    0    0  0.00000000000E+00  0.00000000000E+00  0.35740347158E-01  0.35744000000E-01  0.51099999109E-03 0.  1.
       11   -1    0    0    0    0 -0.00000000000E+00 -0.00000000000E+00 -0.35740347158E-01  0.35744000000E-01  0.51099999109E-03 0. -1.
       22    1    1    2    0    0 -0.27950442253E-02  0.32884018432E-02  0.35475452442E-01  0.35737005818E-01  0.00000000000E+00 0.  1.
  9000001    1    1    2    0    0  0.27950442253E-02 -0.32884018432E-02 -0.35475452442E-01  0.35750994182E-01  0.10000000475E-02 0. -1.
</event>
<event>
 4   0  0.4892667E-02  0.9118800E+02  0.7818609E-02  0.1379984E+01
      -11   -1    0    0    0    0  0.00000000000E+00  0.00000000000E+00  0.35740347158E-01  0.35744000000E-01  0.51099999109E-03 0. -1.
       11   -1    0    0    0    0 -0.00000000000E+00 -0.00000000000E+00 -0.35740347158E-01  0.35744000000E-01  0.51099999109E-03 0.  1.
       22    1    1    2    0    0 -0.10678591866E-01  0.12240381877E-01 -0.31831969969E-01  0.35737005818E-01  0.00000000000E+00 0.  1.
  9000001    1    1    2    0    0  0.10678591866E-01 -0.12240381877E-01  0.31831969969E-01  0.35750994182E-01  0.10000000475E-02 0. -1.
</event>
<event>
 4   0  0.4892667E-02  0.9118800E+02  0.7818609E-02  0.1379984E+01
      -11   -1    0    0    0    0  0.00000000000E+00  0.00000000000E+00  0.35740347158E-01  0.35744000000E-01  0.51099999109E-03 0. -1.
       11   -1    0    0    0    0 -0.00000000000E+00 -0.00000000000E+00 -0.35740347158E-01  0.35744000000E-01  0.51099999109E-03 0.  1.
       22    1    1    2    0    0 -0.10623572922E-01 -0.27175285878E-03 -0.34120366845E-01  0.35737005818E-01  0.00000000000E+00 0.  1.
  9000001    1    1    2    0    0  0.10623572922E-01  0.27175285878E-03  0.34120366845E-01  0.35750994182E-01  0.10000000475E-02 0. -1.
</event>
<event>
 4   0  0.4892667E-02  0.9118800E+02  0.7818609E-02  0.1379984E+01
      -11   -1    0    0    0    0  0.00000000000E+00  0.00000000000E+00  0.35740347158E-01  0.35744000000E-01  0.51099999109E-03 0. -1.
       11   -1    0    0    0    0 -0.00000000000E+00 -0.00000000000E+00 -0.35740347158E-01  0.35744000000E-01  0.51099999109E-03 0.  1.
       22    1    1    2    0    0  0.13922245788E-02  0.46587970257E-02  0.35404673503E-01  0.35737005818E-01  0.00000000000E+00 0. -1.
  9000001    1    1    2    0    0 -0.13922245788E-02 -0.46587970257E-02 -0.35404673503E-01  0.35750994182E-01  0.10000000475E-02 0.  1.
</event>
<event>
 4   0  0.4892667E-02  0.9118800E+02  0.7818609E-02  0.1379984E+01
      -11   -1    0    0    0    0  0.00000000000E+00  0.00000000000E+00  0.35740347158E-01  0.35744000000E-01  0.51099999109E-03 0.  1.
       11   -1    0    0    0    0 -0.00000000000E+00 -0.00000000000E+00 -0.35740347158E-01  0.35744000000E-01  0.51099999109E-03 0. -1.
       22    1    1    2    0    0 -0.26592626478E-01  0.15001978013E-01 -0.18571657372E-01  0.35737005818E-01  0.00000000000E+00 0. -1.
  9000001    1    1    2    0    0  0.26592626478E-01 -0.15001978013E-01  0.18571657372E-01  0.35750994182E-01  0.10000000475E-02 0.  1.
</event>
<event>
 4   0  0.4892667E-02  0.9118800E+02  0.7818609E-02  0.1379984E+01
      -11   -1    0    0    0    0  0.00000000000E+00  0.00000000000E+00  0.35740347158E-01  0.35744000000E-01  0.51099999109E-03 0. -1.
       11   -1    0    0    0    0 -0.00000000000E+00 -0.00000000000E+00 -0.35740347158E-01  0.35744000000E-01  0.51099999109E-03 0.  1.
       22    1    1    2    0    0 -0.45500042845E-02 -0.18922804679E-01  0.29972629330E-01  0.35737005818E-01  0.00000000000E+00 0. -1.
  9000001    1    1    2    0    0  0.45500042845E-02  0.18922804679E-01 -0.29972629330E-01  0.35750994182E-01  0.10000000475E-02 0.  1.
</event>
<event>
 4   0  0.4892667E-02  0.9118800E+02  0.7818609E-02  0.1379984E+01
      -11   -1    0    0    0    0  0.00000000000E+00  0.00000000000E+00  0.35740347158E-01  0.35744000000E-01  0.51099999109E-03 0.  1.
       11   -1    0    0    0    0 -0.00000000000E+00 -0.00000000000E+00 -0.35740347158E-01  0.35744000000E-01  0.51099999109E-03 0. -1.
       22    1    1    2    0    0 -0.29891292752E-01  0.13345320134E-02  0.19541321009E-01  0.35737005818E-01  0.00000000000E+00 0.  1.
  9000001    1    1    2    0    0  0.29891292752E-01 -0.13345320134E-02 -0.19541321009E-01  0.35750994182E-01  0.10000000475E-02 0. -1.
</event>
<event>
 4   0  0.4892667E-02  0.9118800E+02  0.7818609E-02  0.1379984E+01
      -11   -1    0    0    0    0  0.00000000000E+00  0.00000000000E+00  0.35740347158E-01  0.35744000000E-01  0.51099999109E-03 0. -1.
       11   -1    0    0    0    0 -0.00000000000E+00 -0.00000000000E+00 -0.35740347158E-01  0.35744000000E-01  0.51099999109E-03 0.  1.
       22    1    1    2    0    0 -0.22457407185E-02 -0.61044132754E-02 -0.35140096358E-01  0.35737005818E-01  0.00000000000E+00 0.  1.
  9000001    1    1    2    0    0  0.22457407185E-02  0.61044132754E-02  0.35140096358E-01  0.35750994182E-01  0.10000000475E-02 0. -1.
</event>
<event>
 4   0  0.4892667E-02  0.9118800E+02  0.7818609E-02  0.1379984E+01
      -11   -1    0    0    0    0  0.00000000000E+00  0.00000000000E+00  0.35740347158E-01  0.35744000000E-01  0.51099999109E-03 0. -1.
       11   -1    0    0    0    0 -0.00000000000E+00 -0.00000000000E+00 -0.35740347158E-01  0.35744000000E-01  0.51099999109E-03 0.  1.
       22    1    1    2    0    0  0.64776092601E-02  0.14089772113E-02 -0.35116790092E-01  0.35737005818E-01  0.00000000000E+00 0.  1.
  9000001    1    1    2    0    0 -0.64776092601E-02 -0.14089772113E-02  0.35116790092E-01  0.35750994182E-01  0.10000000475E-02 0. -1.
</event>
<event>
 4   0  0.4892667E-02  0.9118800E+02  0.7818609E-02  0.1379984E+01
      -11   -1    0    0    0    0  0.00000000000E+00  0.00000000000E+00  0.35740347158E-01  0.35744000000E-01  0.51099999109E-03 0.  1.
       11   -1    0    0    0    0 -0.00000000000E+00 -0.00000000000E+00 -0.35740347158E-01  0.35744000000E-01  0.51099999109E-03 0. -1.
       22    1    1    2    0    0  0.12877093581E-01  0.55291061632E-02  0.32874656360E-01  0.35737005818E-01  0.00000000000E+00 0.  1.
  9000001    1    1    2    0    0 -0.12877093581E-01 -0.55291061632E-02 -0.32874656360E-01  0.35750994182E-01  0.10000000475E-02 0. -1.
</event>
<event>
 4   0  0.4892667E-02  0.9118800E+02  0.7818609E-02  0.1379984E+01
      -11   -1    0    0    0    0  0.00000000000E+00  0.00000000000E+00  0.35740347158E-01  0.35744000000E-01  0.51099999109E-03 0. -1.
       11   -1    0    0    0    0 -0.00000000000E+00 -0.00000000000E+00 -0.35740347158E-01  0.35744000000E-01  0.51099999109E-03 0.  1.
       22    1    1    2    0    0 -0.72298710611E-02  0.95060174111E-02 -0.33682312603E-01  0.35737005818E-01  0.00000000000E+00 0.  1.
  9000001    1    1    2    0    0  0.72298710611E-02 -0.95060174111E-02  0.33682312603E-01  0.35750994182E-01  0.10000000475E-02 0. -1.
</event>
<event>
 4   0  0.4892667E-02  0.9118800E+02  0.7818609E-02  0.1379984E+01
      -11   -1    0    0    0    0  0.00000000000E+00  0.00000000000E+00  0.35740347158E-01  0.35744000000E-01  0.51099999109E-03 0. -1.
       11   -1    0    0    0    0 -0.00000000000E+00 -0.00000000000E+00 -0.35740347158E-01  0.35744000000E-01  0.51099999109E-03 0.  1.
       22    1    1    2    0    0  0.23096348989E-03  0.66755367217E-02 -0.35107227891E-01  0.35737005818E-01  0.00000000000E+00 0.  1.
  9000001    1    1    2    0    0 -0.23096348989E-03 -0.66755367217E-02  0.35107227891E-01  0.35750994182E-01  0.10000000475E-02 0. -1.
</event>
<event>
 4   0  0.4892667E-02  0.9118800E+02  0.7818609E-02  0.1379984E+01
      -11   -1    0    0    0    0  0.00000000000E+00  0.00000000000E+00  0.35740347158E-01  0.35744000000E-01  0.51099999109E-03 0.  1.
       11   -1    0    0    0    0 -0.00000000000E+00 -0.00000000000E+00 -0.35740347158E-01  0.35744000000E-01  0.51099999109E-03 0. -1.
       22    1    1    2    0    0 -0.49345434503E-02  0.26182535961E-02 -0.35297714004E-01  0.35737005818E-01  0.00000000000E+00 0. -1.
  9000001    1    1    2    0    0  0.49345434503E-02 -0.26182535961E-02  0.35297714004E-01  0.35750994182E-01  0.10000000475E-02 0.  1.
</event>
<event>
 4   0  0.4892667E-02  0.9118800E+02  0.7818609E-02  0.1379984E+01
      -11   -1    0    0    0    0  0.00000000000E+00  0.00000000000E+00  0.35740347158E-01  0.35744000000E-01  0.51099999109E-03 0. -1.
       11   -1    0    0    0    0 -0.00000000000E+00 -0.00000000000E+00 -0.35740347158E-01  0.35744000000E-01  0.51099999109E-03 0.  1.
       22    1    1    2    0    0 -0.21728926301E-01  0.29718292645E-02 -0.28216228974E-01  0.35737005818E-01  0.00000000000E+00 0.  1.
  9000001    1    1    2    0    0  0.21728926301E-01 -0.29718292645E-02  0.28216228974E-01  0.35750994182E-01  0.10000000475E-02 0. -1.
</event>
<event>
 4   0  0.4892667E-02  0.9118800E+02  0.7818609E-02  0.1379984E+01
      -11   -1    0    0    0    0  0.00000000000E+00  0.00000000000E+00  0.35740347158E-01  0.35744000000E-01  0.51099999109E-03 0.  1.
       11   -1    0    0    0    0 -0.00000000000E+00 -0.00000000000E+00 -0.35740347158E-01  0.35744000000E-01  0.51099999109E-03 0. -1.
       22    1    1    2    0    0  0.10763827529E-02 -0.30789855359E-02  0.35587846705E-01  0.35737005818E-01  0.00000000000E+00 0.  1.
  9000001    1    1    2    0    0 -0.10763827529E-02  0.30789855359E-02 -0.35587846705E-01  0.35750994182E-01  0.10000000475E-02 0. -1.
</event>
<event>
 4   0  0.4892667E-02  0.9118800E+02  0.7818609E-02  0.1379984E+01
      -11   -1    0    0    0    0  0.00000000000E+00  0.00000000000E+00  0.35740347158E-01  0.35744000000E-01  0.51099999109E-03 0. -1.
       11   -1    0    0    0    0 -0.00000000000E+00 -0.00000000000E+00 -0.35740347158E-01  0.35744000000E-01  0.51099999109E-03 0.  1.
       22    1    1    2    0    0 -0.43539951745E-02  0.52177635312E-02  0.35084914915E-01  0.35737005818E-01  0.00000000000E+00 0. -1.
  9000001    1    1    2    0    0  0.43539951745E-02 -0.52177635312E-02 -0.35084914915E-01  0.35750994182E-01  0.10000000475E-02 0.  1.
</event>
<event>
 4   0  0.4892667E-02  0.9118800E+02  0.7818609E-02  0.1379984E+01
      -11   -1    0    0    0    0  0.00000000000E+00  0.00000000000E+00  0.35740347158E-01  0.35744000000E-01  0.51099999109E-03 0.  1.
       11   -1    0    0    0    0 -0.00000000000E+00 -0.00000000000E+00 -0.35740347158E-01  0.35744000000E-01  0.51099999109E-03 0. -1.
       22    1    1    2    0    0  0.19920689681E-01  0.17732204102E-01  0.23787993719E-01  0.35737005818E-01  0.00000000000E+00 0.  1.
  9000001    1    1    2    0    0 -0.19920689681E-01 -0.17732204102E-01 -0.23787993719E-01  0.35750994182E-01  0.10000000475E-02 0. -1.
</event>
<event>
 4   0  0.4892667E-02  0.9118800E+02  0.7818609E-02  0.1379984E+01
      -11   -1    0    0    0    0  0.00000000000E+00  0.00000000000E+00  0.35740347158E-01  0.35744000000E-01  0.51099999109E-03 0.  1.
       11   -1    0    0    0    0 -0.00000000000E+00 -0.00000000000E+00 -0.35740347158E-01  0.35744000000E-01  0.51099999109E-03 0. -1.
       22    1    1    2    0    0  0.12499406839E-01  0.12756974920E-01 -0.30954127422E-01  0.35737005818E-01  0.00000000000E+00 0. -1.
  9000001    1    1    2    0    0 -0.12499406839E-01 -0.12756974920E-01  0.30954127422E-01  0.35750994182E-01  0.10000000475E-02 0.  1.
</event>
<event>
 4   0  0.4892667E-02  0.9118800E+02  0.7818609E-02  0.1379984E+01
      -11   -1    0    0    0    0  0.00000000000E+00  0.00000000000E+00  0.35740347158E-01  0.35744000000E-01  0.51099999109E-03 0. -1.
       11   -1    0    0    0    0 -0.00000000000E+00 -0.00000000000E+00 -0.35740347158E-01  0.35744000000E-01  0.51099999109E-03 0.  1.
       22    1    1    2    0    0  0.46087522199E-02  0.69689329280E-03  0.35431727697E-01  0.35737005818E-01  0.00000000000E+00 0. -1.
  9000001    1    1    2    0    0 -0.46087522199E-02 -0.69689329280E-03 -0.35431727697E-01  0.35750994182E-01  0.10000000475E-02 0.  1.
</event>
<event>
 4   0  0.4892667E-02  0.9118800E+02  0.7818609E-02  0.1379984E+01
      -11   -1    0    0    0    0  0.00000000000E+00  0.00000000000E+00  0.35740347158E-01  0.35744000000E-01  0.51099999109E-03 0. -1.
       11   -1    0    0    0    0 -0.00000000000E+00 -0.00000000000E+00 -0.35740347158E-01  0.35744000000E-01  0.51099999109E-03 0.  1.
       22    1    1    2    0    0  0.32890809648E-01 -0.12212910738E-01  0.67950744538E-02  0.35737005818E-01  0.00000000000E+00 0. -1.
  9000001    1    1    2    0    0 -0.32890809648E-01  0.12212910738E-01 -0.67950744538E-02  0.35750994182E-01  0.10000000475E-02 0.  1.
</event>
<event>
 4   0  0.4892667E-02  0.9118800E+02  0.7818609E-02  0.1379984E+01
      -11   -1    0    0    0    0  0.00000000000E+00  0.00000000000E+00  0.35740347158E-01  0.35744000000E-01  0.51099999109E-03 0.  1.
       11   -1    0    0    0    0 -0.00000000000E+00 -0.00000000000E+00 -0.35740347158E-01  0.35744000000E-01  0.51099999109E-03 0. -1.
       22    1    1    2    0    0  0.53854513118E-02  0.27136238341E-02  0.35224519084E-01  0.35737005818E-01  0.00000000000E+00 0.  1.
  9000001    1    1    2    0    0 -0.53854513118E-02 -0.27136238341E-02 -0.35224519084E-01  0.35750994182E-01  0.10000000475E-02 0. -1.
</event>
<event>
 4   0  0.4892667E-02  0.9118800E+02  0.7818609E-02  0.1379984E+01
      -11   -1    0    0    0    0  0.00000000000E+00  0.00000000000E+00  0.35740347158E-01  0.35744000000E-01  0.51099999109E-03 0. -1.
       11   -1    0    0    0    0 -0.00000000000E+00 -0.00000000000E+00 -0.35740347158E-01  0.35744000000E-01  0.51099999109E-03 0.  1.
       22    1    1    2    0    0 -0.45570150177E-02  0.10348914082E-01  0.33900843298E-01  0.35737005818E-01  0.00000000000E+00 0. -1.
  9000001    1    1    2    0    0  0.45570150177E-02 -0.10348914082E-01 -0.33900843298E-01  0.35750994182E-01  0.10000000475E-02 0.  1.
</event>
<event>
 4   0  0.4892667E-02  0.9118800E+02  0.7818609E-02  0.1379984E+01
      -11   -1    0    0    0    0  0.00000000000E+00  0.00000000000E+00  0.35740347158E-01  0.35744000000E-01  0.51099999109E-03 0.  1.
       11   -1    0    0    0    0 -0.00000000000E+00 -0.00000000000E+00 -0.35740347158E-01  0.35744000000E-01  0.51099999109E-03 0. -1.
       22    1    1    2    0    0 -0.65894638809E-02  0.42852340739E-02  0.34861860529E-01  0.35737005818E-01  0.00000000000E+00 0.  1.
  9000001    1    1    2    0    0  0.65894638809E-02 -0.42852340739E-02 -0.34861860529E-01  0.35750994182E-01  0.10000000475E-02 0. -1.
</event>
<event>
 4   0  0.4892667E-02  0.9118800E+02  0.7818609E-02  0.1379984E+01
      -11   -1    0    0    0    0  0.00000000000E+00  0.00000000000E+00  0.35740347158E-01  0.35744000000E-01  0.51099999109E-03 0. -1.
       11   -1    0    0    0    0 -0.00000000000E+00 -0.00000000000E+00 -0.35740347158E-01  0.35744000000E-01  0.51099999109E-03 0.  1.
       22    1    1    2    0    0 -0.25127123064E-01 -0.19834162602E-01 -0.15886071423E-01  0.35737005818E-01  0.00000000000E+00 0.  1.
  9000001    1    1    2    0    0  0.25127123064E-01  0.19834162602E-01  0.15886071423E-01  0.35750994182E-01  0.10000000475E-02 0. -1.
</event>
<event>
 4   0  0.4892667E-02  0.9118800E+02  0.7818609E-02  0.1379984E+01
      -11   -1    0    0    0    0  0.00000000000E+00  0.00000000000E+00  0.35740347158E-01  0.35744000000E-01  0.51099999109E-03 0.  1.
       11   -1    0    0    0    0 -0.00000000000E+00 -0.00000000000E+00 -0.35740347158E-01  0.35744000000E-01  0.51099999109E-03 0. -1.
       22    1    1    2    0    0 -0.21806314365E-01 -0.27853048508E-01  0.50819216340E-02  0.35737005818E-01  0.00000000000E+00 0.  1.
  9000001    1    1    2    0    0  0.21806314365E-01  0.27853048508E-01 -0.50819216340E-02  0.35750994182E-01  0.10000000475E-02 0. -1.
</event>
<event>
 4   0  0.4892667E-02  0.9118800E+02  0.7818609E-02  0.1379984E+01
      -11   -1    0    0    0    0  0.00000000000E+00  0.00000000000E+00  0.35740347158E-01  0.35744000000E-01  0.51099999109E-03 0.  1.
       11   -1    0    0    0    0 -0.00000000000E+00 -0.00000000000E+00 -0.35740347158E-01  0.35744000000E-01  0.51099999109E-03 0. -1.
       22    1    1    2    0    0  0.21331677981E-01 -0.62440299237E-02  0.27984016683E-01  0.35737005818E-01  0.00000000000E+00 0.  1.
  9000001    1    1    2    0    0 -0.21331677981E-01  0.62440299237E-02 -0.27984016683E-01  0.35750994182E-01  0.10000000475E-02 0. -1.
</event>
<event>
 4   0  0.4892667E-02  0.9118800E+02  0.7818609E-02  0.1379984E+01
      -11   -1    0    0    0    0  0.00000000000E+00  0.00000000000E+00  0.35740347158E-01  0.35744000000E-01  0.51099999109E-03 0.  1.
       11   -1    0    0    0    0 -0.00000000000E+00 -0.00000000000E+00 -0.35740347158E-01  0.35744000000E-01  0.51099999109E-03 0. -1.
       22    1    1    2    0    0  0.33867801742E-01 -0.15071095958E-02  0.11306379203E-01  0.35737005818E-01  0.00000000000E+00 0.  1.
  9000001    1    1    2    0    0 -0.33867801742E-01  0.15071095958E-02 -0.11306379203E-01  0.35750994182E-01  0.10000000475E-02 0. -1.
</event>
<event>
 4   0  0.4892667E-02  0.9118800E+02  0.7818609E-02  0.1379984E+01
      -11   -1    0    0    0    0  0.00000000000E+00  0.00000000000E+00  0.35740347158E-01  0.35744000000E-01  0.51099999109E-03 0.  1.
       11   -1    0    0    0    0 -0.00000000000E+00 -0.00000000000E+00 -0.35740347158E-01  0.35744000000E-01  0.51099999109E-03 0. -1.
       22    1    1    2    0    0  0.88481960678E-02 -0.51058605945E-02  0.34245776364E-01  0.35737005818E-01  0.00000000000E+00 0.  1.
  9000001    1    1    2    0    0 -0.88481960678E-02  0.51058605945E-02 -0.34245776364E-01  0.35750994182E-01  0.10000000475E-02 0. -1.
</event>
<event>
 4   0  0.4892667E-02  0.9118800E+02  0.7818609E-02  0.1379984E+01
      -11   -1    0    0    0    0  0.00000000000E+00  0.00000000000E+00  0.35740347158E-01  0.35744000000E-01  0.51099999109E-03 0. -1.
       11   -1    0    0    0    0 -0.00000000000E+00 -0.00000000000E+00 -0.35740347158E-01  0.35744000000E-01  0.51099999109E-03 0.  1.
       22    1    1    2    0    0  0.88646628976E-02  0.98279055170E-02 -0.33195837235E-01  0.35737005818E-01  0.00000000000E+00 0.  1.
  9000001    1    1    2    0    0 -0.88646628976E-02 -0.98279055170E-02  0.33195837235E-01  0.35750994182E-01  0.10000000475E-02 0. -1.
</event>
<event>
 4   0  0.4892667E-02  0.9118800E+02  0.7818609E-02  0.1379984E+01
      -11   -1    0    0    0    0  0.00000000000E+00  0.00000000000E+00  0.35740347158E-01  0.35744000000E-01  0.51099999109E-03 0. -1.
       11   -1    0    0    0    0 -0.00000000000E+00 -0.00000000000E+00 -0.35740347158E-01  0.35744000000E-01  0.51099999109E-03 0.  1.
       22    1    1    2    0    0 -0.16627270636E-02 -0.41370233992E-02  0.35457777158E-01  0.35737005818E-01  0.00000000000E+00 0. -1.
  9000001    1    1    2    0    0  0.16627270636E-02  0.41370233992E-02 -0.35457777158E-01  0.35750994182E-01  0.10000000475E-02 0.  1.
</event>
<event>
 4   0  0.4892667E-02  0.9118800E+02  0.7818609E-02  0.1379984E+01
      -11   -1    0    0    0    0  0.00000000000E+00  0.00000000000E+00  0.35740347158E-01  0.35744000000E-01  0.51099999109E-03 0. -1.
       11   -1    0    0    0    0 -0.00000000000E+00 -0.00000000000E+00 -0.35740347158E-01  0.35744000000E-01  0.51099999109E-03 0.  1.
       22    1    1    2    0    0 -0.55744819753E-02 -0.15566201435E-02 -0.35265218974E-01  0.35737005818E-01  0.00000000000E+00 0.  1.
  9000001    1    1    2    0    0  0.55744819753E-02  0.15566201435E-02  0.35265218974E-01  0.35750994182E-01  0.10000000475E-02 0. -1.
</event>
<event>
 4   0  0.4892667E-02  0.9118800E+02  0.7818609E-02  0.1379984E+01
      -11   -1    0    0    0    0  0.00000000000E+00  0.00000000000E+00  0.35740347158E-01  0.35744000000E-01  0.51099999109E-03 0.  1.
       11   -1    0    0    0    0 -0.00000000000E+00 -0.00000000000E+00 -0.35740347158E-01  0.35744000000E-01  0.51099999109E-03 0. -1.
       22    1    1    2    0    0  0.22756930416E-01 -0.26650794967E-01 -0.69993450079E-02  0.35737005818E-01  0.00000000000E+00 0. -1.
  9000001    1    1    2    0    0 -0.22756930416E-01  0.26650794967E-01  0.69993450079E-02  0.35750994182E-01  0.10000000475E-02 0.  1.
</event>
<event>
 4   0  0.4892667E-02  0.9118800E+02  0.7818609E-02  0.1379984E+01
      -11   -1    0    0    0    0  0.00000000000E+00  0.00000000000E+00  0.35740347158E-01  0.35744000000E-01  0.51099999109E-03 0. -1.
       11   -1    0    0    0    0 -0.00000000000E+00 -0.00000000000E+00 -0.35740347158E-01  0.35744000000E-01  0.51099999109E-03 0.  1.
       22    1    1    2    0    0  0.65496300237E-02  0.87298856723E-02 -0.34029766787E-01  0.35737005818E-01  0.00000000000E+00 0.  1.
  9000001    1    1    2    0    0 -0.65496300237E-02 -0.87298856723E-02  0.34029766787E-01  0.35750994182E-01  0.10000000475E-02 0. -1.
</event>
<event>
 4   0  0.4892667E-02  0.9118800E+02  0.7818609E-02  0.1379984E+01
      -11   -1    0    0    0    0  0.00000000000E+00  0.00000000000E+00  0.35740347158E-01  0.35744000000E-01  0.51099999109E-03 0.  1.
       11   -1    0    0    0    0 -0.00000000000E+00 -0.00000000000E+00 -0.35740347158E-01  0.35744000000E-01  0.51099999109E-03 0. -1.
       22    1    1    2    0    0 -0.67566200907E-02 -0.13492198353E-03 -0.35092213750E-01  0.35737005818E-01  0.00000000000E+00 0. -1.
  9000001    1    1    2    0    0  0.67566200907E-02  0.13492198353E-03  0.35092213750E-01  0.35750994182E-01  0.10000000475E-02 0.  1.
</event>
<event>
 4   0  0.4892667E-02  0.9118800E+02  0.7818609E-02  0.1379984E+01
      -11   -1    0    0    0    0  0.00000000000E+00  0.00000000000E+00  0.35740347158E-01  0.35744000000E-01  0.51099999109E-03 0.  1.
       11   -1    0    0    0    0 -0.00000000000E+00 -0.00000000000E+00 -0.35740347158E-01  0.35744000000E-01  0.51099999109E-03 0.  1.
       22    1    1    2    0    0  0.44518663046E-02  0.29107464567E-03  0.35457435706E-01  0.35737005818E-01  0.00000000000E+00 0.  1.
  9000001    1    1    2    0    0 -0.44518663046E-02 -0.29107464567E-03 -0.35457435706E-01  0.35750994182E-01  0.10000000475E-02 0.  1.
</event>
<event>
 4   0  0.4892667E-02  0.9118800E+02  0.7818609E-02  0.1379984E+01
      -11   -1    0    0    0    0  0.00000000000E+00  0.00000000000E+00  0.35740347158E-01  0.35744000000E-01  0.51099999109E-03 0. -1.
       11   -1    0    0    0    0 -0.00000000000E+00 -0.00000000000E+00 -0.35740347158E-01  0.35744000000E-01  0.51099999109E-03 0.  1.
       22    1    1    2    0    0 -0.12351235319E-01 -0.22191750446E-01  0.25141733893E-01  0.35737005818E-01  0.00000000000E+00 0. -1.
  9000001    1    1    2    0    0  0.12351235319E-01  0.22191750446E-01 -0.25141733893E-01  0.35750994182E-01  0.10000000475E-02 0.  1.
</event>
<event>
 4   0  0.4892667E-02  0.9118800E+02  0.7818609E-02  0.1379984E+01
      -11   -1    0    0    0    0  0.00000000000E+00  0.00000000000E+00  0.35740347158E-01  0.35744000000E-01  0.51099999109E-03 0. -1.
       11   -1    0    0    0    0 -0.00000000000E+00 -0.00000000000E+00 -0.35740347158E-01  0.35744000000E-01  0.51099999109E-03 0.  1.
       22    1    1    2    0    0 -0.34732728049E-02  0.13914786536E-01 -0.32732990645E-01  0.35737005818E-01  0.00000000000E+00 0.  1.
  9000001    1    1    2    0    0  0.34732728049E-02 -0.13914786536E-01  0.32732990645E-01  0.35750994182E-01  0.10000000475E-02 0. -1.
</event>
<event>
 4   0  0.4892667E-02  0.9118800E+02  0.7818609E-02  0.1379984E+01
      -11   -1    0    0    0    0  0.00000000000E+00  0.00000000000E+00  0.35740347158E-01  0.35744000000E-01  0.51099999109E-03 0.  1.
       11   -1    0    0    0    0 -0.00000000000E+00 -0.00000000000E+00 -0.35740347158E-01  0.35744000000E-01  0.51099999109E-03 0. -1.
       22    1    1    2    0    0  0.27640019367E-01 -0.20089953280E-01  0.10466933241E-01  0.35737005818E-01  0.00000000000E+00 0.  1.
  9000001    1    1    2    0    0 -0.27640019367E-01  0.20089953280E-01 -0.10466933241E-01  0.35750994182E-01  0.10000000475E-02 0. -1.
</event>
<event>
 4   0  0.4892667E-02  0.9118800E+02  0.7818609E-02  0.1379984E+01
      -11   -1    0    0    0    0  0.00000000000E+00  0.00000000000E+00  0.35740347158E-01  0.35744000000E-01  0.51099999109E-03 0.  1.
       11   -1    0    0    0    0 -0.00000000000E+00 -0.00000000000E+00 -0.35740347158E-01  0.35744000000E-01  0.51099999109E-03 0. -1.
       22    1    1    2    0    0 -0.11668225949E-01 -0.13552612345E-01  0.30940471663E-01  0.35737005818E-01  0.00000000000E+00 0.  1.
  9000001    1    1    2    0    0  0.11668225949E-01  0.13552612345E-01 -0.30940471663E-01  0.35750994182E-01  0.10000000475E-02 0. -1.
</event>
<event>
 4   0  0.4892667E-02  0.9118800E+02  0.7818609E-02  0.1379984E+01
      -11   -1    0    0    0    0  0.00000000000E+00  0.00000000000E+00  0.35740347158E-01  0.35744000000E-01  0.51099999109E-03 0. -1.
       11   -1    0    0    0    0 -0.00000000000E+00 -0.00000000000E+00 -0.35740347158E-01  0.35744000000E-01  0.51099999109E-03 0.  1.
       22    1    1    2    0    0 -0.11642235900E-01 -0.47763001280E-02 -0.33448152194E-01  0.35737005818E-01  0.00000000000E+00 0.  1.
  9000001    1    1    2    0    0  0.11642235900E-01  0.47763001280E-02  0.33448152194E-01  0.35750994182E-01  0.10000000475E-02 0. -1.
</event>
<event>
 4   0  0.4892667E-02  0.9118800E+02  0.7818609E-02  0.1379984E+01
      -11   -1    0    0    0    0  0.00000000000E+00  0.00000000000E+00  0.35740347158E-01  0.35744000000E-01  0.51099999109E-03 0. -1.
       11   -1    0    0    0    0 -0.00000000000E+00 -0.00000000000E+00 -0.35740347158E-01  0.35744000000E-01  0.51099999109E-03 0.  1.
       22    1    1    2    0    0 -0.15750135814E-02 -0.53114331544E-02 -0.35304979747E-01  0.35737005818E-01  0.00000000000E+00 0.  1.
  9000001    1    1    2    0    0  0.15750135814E-02  0.53114331544E-02  0.35304979747E-01  0.35750994182E-01  0.10000000475E-02 0. -1.
</event>
<event>
 4   0  0.4892667E-02  0.9118800E+02  0.7818609E-02  0.1379984E+01
      -11   -1    0    0    0    0  0.00000000000E+00  0.00000000000E+00  0.35740347158E-01  0.35744000000E-01  0.51099999109E-03 0. -1.
       11   -1    0    0    0    0 -0.00000000000E+00 -0.00000000000E+00 -0.35740347158E-01  0.35744000000E-01  0.51099999109E-03 0.  1.
       22    1    1    2    0    0  0.36214014830E-02 -0.85028358991E-02  0.34521309619E-01  0.35737005818E-01  0.00000000000E+00 0. -1.
  9000001    1    1    2    0    0 -0.36214014830E-02  0.85028358991E-02 -0.34521309619E-01  0.35750994182E-01  0.10000000475E-02 0.  1.
</event>
<event>
 4   0  0.4892667E-02  0.9118800E+02  0.7818609E-02  0.1379984E+01
      -11   -1    0    0    0    0  0.00000000000E+00  0.00000000000E+00  0.35740347158E-01  0.35744000000E-01  0.51099999109E-03 0. -1.
       11   -1    0    0    0    0 -0.00000000000E+00 -0.00000000000E+00 -0.35740347158E-01  0.35744000000E-01  0.51099999109E-03 0.  1.
       22    1    1    2    0    0  0.34982227390E-02 -0.47032440500E-02 -0.35253021402E-01  0.35737005818E-01  0.00000000000E+00 0.  1.
  9000001    1    1    2    0    0 -0.34982227390E-02  0.47032440500E-02  0.35253021402E-01  0.35750994182E-01  0.10000000475E-02 0. -1.
</event>
<event>
 4   0  0.4892667E-02  0.9118800E+02  0.7818609E-02  0.1379984E+01
      -11   -1    0    0    0    0  0.00000000000E+00  0.00000000000E+00  0.35740347158E-01  0.35744000000E-01  0.51099999109E-03 0. -1.
       11   -1    0    0    0    0 -0.00000000000E+00 -0.00000000000E+00 -0.35740347158E-01  0.35744000000E-01  0.51099999109E-03 0.  1.
       22    1    1    2    0    0  0.90124592945E-02  0.84512119098E-03  0.34571591408E-01  0.35737005818E-01  0.00000000000E+00 0. -1.
  9000001    1    1    2    0    0 -0.90124592945E-02 -0.84512119098E-03 -0.34571591408E-01  0.35750994182E-01  0.10000000475E-02 0.  1.
</event>
<event>
 4   0  0.4892667E-02  0.9118800E+02  0.7818609E-02  0.1379984E+01
      -11   -1    0    0    0    0  0.00000000000E+00  0.00000000000E+00  0.35740347158E-01  0.35744000000E-01  0.51099999109E-03 0. -1.
       11   -1    0    0    0    0 -0.00000000000E+00 -0.00000000000E+00 -0.35740347158E-01  0.35744000000E-01  0.51099999109E-03 0.  1.
       22    1    1    2    0    0  0.65796302849E-02  0.76306754645E-02 -0.34287240223E-01  0.35737005818E-01  0.00000000000E+00 0.  1.
  9000001    1    1    2    0    0 -0.65796302849E-02 -0.76306754645E-02  0.34287240223E-01  0.35750994182E-01  0.10000000475E-02 0. -1.
</event>
<event>
 4   0  0.4892667E-02  0.9118800E+02  0.7818609E-02  0.1379984E+01
      -11   -1    0    0    0    0  0.00000000000E+00  0.00000000000E+00  0.35740347158E-01  0.35744000000E-01  0.51099999109E-03 0. -1.
       11   -1    0    0    0    0 -0.00000000000E+00 -0.00000000000E+00 -0.35740347158E-01  0.35744000000E-01  0.51099999109E-03 0.  1.
       22    1    1    2    0    0  0.21373949003E-01  0.12161458529E-01  0.25930422583E-01  0.35737005818E-01  0.00000000000E+00 0. -1.
  9000001    1    1    2    0    0 -0.21373949003E-01 -0.12161458529E-01 -0.25930422583E-01  0.35750994182E-01  0.10000000475E-02 0.  1.
</event>
<event>
 4   0  0.4892667E-02  0.9118800E+02  0.7818609E-02  0.1379984E+01
      -11   -1    0    0    0    0  0.00000000000E+00  0.00000000000E+00  0.35740347158E-01  0.35744000000E-01  0.51099999109E-03 0. -1.
       11   -1    0    0    0    0 -0.00000000000E+00 -0.00000000000E+00 -0.35740347158E-01  0.35744000000E-01  0.51099999109E-03 0.  1.
       22    1    1    2    0    0 -0.55100809397E-02 -0.27933782244E-01  0.21598064786E-01  0.35737005818E-01  0.00000000000E+00 0. -1.
  9000001    1    1    2    0    0  0.55100809397E-02  0.27933782244E-01 -0.21598064786E-01  0.35750994182E-01  0.10000000475E-02 0.  1.
</event>
<event>
 4   0  0.4892667E-02  0.9118800E+02  0.7818609E-02  0.1379984E+01
      -11   -1    0    0    0    0  0.00000000000E+00  0.00000000000E+00  0.35740347158E-01  0.35744000000E-01  0.51099999109E-03 0. -1.
       11   -1    0    0    0    0 -0.00000000000E+00 -0.00000000000E+00 -0.35740347158E-01  0.35744000000E-01  0.51099999109E-03 0.  1.
       22    1    1    2    0    0  0.35669994581E-01  0.19716662408E-02 -0.94741951161E-03  0.35737005818E-01  0.00000000000E+00 0. -1.
  9000001    1    1    2    0    0 -0.35669994581E-01 -0.19716662408E-02  0.94741951161E-03  0.35750994182E-01  0.10000000475E-02 0.  1.
</event>
<event>
 4   0  0.4892667E-02  0.9118800E+02  0.7818609E-02  0.1379984E+01
      -11   -1    0    0    0    0  0.00000000000E+00  0.00000000000E+00  0.35740347158E-01  0.35744000000E-01  0.51099999109E-03 0. -1.
       11   -1    0    0    0    0 -0.00000000000E+00 -0.00000000000E+00 -0.35740347158E-01  0.35744000000E-01  0.51099999109E-03 0.  1.
       22    1    1    2    0    0 -0.19176531536E-02  0.99124517058E-02  0.34281182775E-01  0.35737005818E-01  0.00000000000E+00 0. -1.
  9000001    1    1    2    0    0  0.19176531536E-02 -0.99124517058E-02 -0.34281182775E-01  0.35750994182E-01  0.10000000475E-02 0.  1.
</event>
<event>
 4   0  0.4892667E-02  0.9118800E+02  0.7818609E-02  0.1379984E+01
      -11   -1    0    0    0    0  0.00000000000E+00  0.00000000000E+00  0.35740347158E-01  0.35744000000E-01  0.51099999109E-03 0. -1.
       11   -1    0    0    0    0 -0.00000000000E+00 -0.00000000000E+00 -0.35740347158E-01  0.35744000000E-01  0.51099999109E-03 0.  1.
       22    1    1    2    0    0  0.77347165387E-02  0.16299938286E-02 -0.34851841631E-01  0.35737005818E-01  0.00000000000E+00 0.  1.
  9000001    1    1    2    0    0 -0.77347165387E-02 -0.16299938286E-02  0.34851841631E-01  0.35750994182E-01  0.10000000475E-02 0. -1.
</event>
<event>
 4   0  0.4892667E-02  0.9118800E+02  0.7818609E-02  0.1379984E+01
      -11   -1    0    0    0    0  0.00000000000E+00  0.00000000000E+00  0.35740347158E-01  0.35744000000E-01  0.51099999109E-03 0. -1.
       11   -1    0    0    0    0 -0.00000000000E+00 -0.00000000000E+00 -0.35740347158E-01  0.35744000000E-01  0.51099999109E-03 0.  1.
       22    1    1    2    0    0  0.31561584593E-02 -0.10431013871E-01 -0.34034779245E-01  0.35737005818E-01  0.00000000000E+00 0.  1.
  9000001    1    1    2    0    0 -0.31561584593E-02  0.10431013871E-01  0.34034779245E-01  0.35750994182E-01  0.10000000475E-02 0. -1.
</event>
<event>
 4   0  0.4892667E-02  0.9118800E+02  0.7818609E-02  0.1379984E+01
      -11   -1    0    0    0    0  0.00000000000E+00  0.00000000000E+00  0.35740347158E-01  0.35744000000E-01  0.51099999109E-03 0.  1.
       11   -1    0    0    0    0 -0.00000000000E+00 -0.00000000000E+00 -0.35740347158E-01  0.35744000000E-01  0.51099999109E-03 0. -1.
       22    1    1    2    0    0  0.28630579535E-01 -0.20758226168E-02  0.21286485403E-01  0.35737005818E-01  0.00000000000E+00 0.  1.
  9000001    1    1    2    0    0 -0.28630579535E-01  0.20758226168E-02 -0.21286485403E-01  0.35750994182E-01  0.10000000475E-02 0. -1.
</event>
<event>
 4   0  0.4892667E-02  0.9118800E+02  0.7818609E-02  0.1379984E+01
      -11   -1    0    0    0    0  0.00000000000E+00  0.00000000000E+00  0.35740347158E-01  0.35744000000E-01  0.51099999109E-03 0. -1.
       11   -1    0    0    0    0 -0.00000000000E+00 -0.00000000000E+00 -0.35740347158E-01  0.35744000000E-01  0.51099999109E-03 0.  1.
       22    1    1    2    0    0 -0.36166040148E-02 -0.26691046525E-02 -0.35453203531E-01  0.35737005818E-01  0.00000000000E+00 0.  1.
  9000001    1    1    2    0    0  0.36166040148E-02  0.26691046525E-02  0.35453203531E-01  0.35750994182E-01  0.10000000475E-02 0. -1.
</event>
<event>
 4   0  0.4892667E-02  0.9118800E+02  0.7818609E-02  0.1379984E+01
      -11   -1    0    0    0    0  0.00000000000E+00  0.00000000000E+00  0.35740347158E-01  0.35744000000E-01  0.51099999109E-03 0. -1.
       11   -1    0    0    0    0 -0.00000000000E+00 -0.00000000000E+00 -0.35740347158E-01  0.35744000000E-01  0.51099999109E-03 0.  1.
       22    1    1    2    0    0 -0.54382516249E-02  0.88642292214E-03  0.35309676557E-01  0.35737005818E-01  0.00000000000E+00 0. -1.
  9000001    1    1    2    0    0  0.54382516249E-02 -0.88642292214E-03 -0.35309676557E-01  0.35750994182E-01  0.10000000475E-02 0.  1.
</event>
<event>
 4   0  0.4892667E-02  0.9118800E+02  0.7818609E-02  0.1379984E+01
      -11   -1    0    0    0    0  0.00000000000E+00  0.00000000000E+00  0.35740347158E-01  0.35744000000E-01  0.51099999109E-03 0. -1.
       11   -1    0    0    0    0 -0.00000000000E+00 -0.00000000000E+00 -0.35740347158E-01  0.35744000000E-01  0.51099999109E-03 0.  1.
       22    1    1    2    0    0 -0.47754285669E-03 -0.31162443553E-02 -0.35597676312E-01  0.35737005818E-01  0.00000000000E+00 0.  1.
  9000001    1    1    2    0    0  0.47754285669E-03  0.31162443553E-02  0.35597676312E-01  0.35750994182E-01  0.10000000475E-02 0. -1.
</event>
<event>
 4   0  0.4892667E-02  0.9118800E+02  0.7818609E-02  0.1379984E+01
      -11   -1    0    0    0    0  0.00000000000E+00  0.00000000000E+00  0.35740347158E-01  0.35744000000E-01  0.51099999109E-03 0.  1.
       11   -1    0    0    0    0 -0.00000000000E+00 -0.00000000000E+00 -0.35740347158E-01  0.35744000000E-01  0.51099999109E-03 0. -1.
       22    1    1    2    0    0 -0.16492974893E-01  0.88006173082E-02  0.30457585246E-01  0.35737005818E-01  0.00000000000E+00 0.  1.
  9000001    1    1    2    0    0  0.16492974893E-01 -0.88006173082E-02 -0.30457585246E-01  0.35750994182E-01  0.10000000475E-02 0. -1.
</event>
<event>
 4   0  0.4892667E-02  0.9118800E+02  0.7818609E-02  0.1379984E+01
      -11   -1    0    0    0    0  0.00000000000E+00  0.00000000000E+00  0.35740347158E-01  0.35744000000E-01  0.51099999109E-03 0.  1.
       11   -1    0    0    0    0 -0.00000000000E+00 -0.00000000000E+00 -0.35740347158E-01  0.35744000000E-01  0.51099999109E-03 0. -1.
       22    1    1    2    0    0 -0.61637090268E-02  0.22474463673E-02  0.35129635078E-01  0.35737005818E-01  0.00000000000E+00 0.  1.
  9000001    1    1    2    0    0  0.61637090268E-02 -0.22474463673E-02 -0.35129635078E-01  0.35750994182E-01  0.10000000475E-02 0. -1.
</event>
<event>
 4   0  0.4892667E-02  0.9118800E+02  0.7818609E-02  0.1379984E+01
      -11   -1    0    0    0    0  0.00000000000E+00  0.00000000000E+00  0.35740347158E-01  0.35744000000E-01  0.51099999109E-03 0. -1.
       11   -1    0    0    0    0 -0.00000000000E+00 -0.00000000000E+00 -0.35740347158E-01  0.35744000000E-01  0.51099999109E-03 0.  1.
       22    1    1    2    0    0  0.22472283147E-01 -0.15729131337E-01  0.22906865836E-01  0.35737005818E-01  0.00000000000E+00 0. -1.
  9000001    1    1    2    0    0 -0.22472283147E-01  0.15729131337E-01 -0.22906865836E-01  0.35750994182E-01  0.10000000475E-02 0.  1.
</event>
<event>
 4   0  0.4892667E-02  0.9118800E+02  0.7818609E-02  0.1379984E+01
      -11   -1    0    0    0    0  0.00000000000E+00  0.00000000000E+00  0.35740347158E-01  0.35744000000E-01  0.51099999109E-03 0.  1.
       11   -1    0    0    0    0 -0.00000000000E+00 -0.00000000000E+00 -0.35740347158E-01  0.35744000000E-01  0.51099999109E-03 0. -1.
       22    1    1    2    0    0 -0.55225671941E-02 -0.51439016740E-02 -0.34931005025E-01  0.35737005818E-01  0.00000000000E+00 0. -1.
  9000001    1    1    2    0    0  0.55225671941E-02  0.51439016740E-02  0.34931005025E-01  0.35750994182E-01  0.10000000475E-02 0.  1.
</event>
<event>
 4   0  0.4892667E-02  0.9118800E+02  0.7818609E-02  0.1379984E+01
      -11   -1    0    0    0    0  0.00000000000E+00  0.00000000000E+00  0.35740347158E-01  0.35744000000E-01  0.51099999109E-03 0. -1.
       11   -1    0    0    0    0 -0.00000000000E+00 -0.00000000000E+00 -0.35740347158E-01  0.35744000000E-01  0.51099999109E-03 0.  1.
       22    1    1    2    0    0 -0.15617827966E-02  0.82505103587E-02 -0.34736486555E-01  0.35737005818E-01  0.00000000000E+00 0.  1.
  9000001    1    1    2    0    0  0.15617827966E-02 -0.82505103587E-02  0.34736486555E-01  0.35750994182E-01  0.10000000475E-02 0. -1.
</event>
<event>
 4   0  0.4892667E-02  0.9118800E+02  0.7818609E-02  0.1379984E+01
      -11   -1    0    0    0    0  0.00000000000E+00  0.00000000000E+00  0.35740347158E-01  0.35744000000E-01  0.51099999109E-03 0.  1.
       11   -1    0    0    0    0 -0.00000000000E+00 -0.00000000000E+00 -0.35740347158E-01  0.35744000000E-01  0.51099999109E-03 0. -1.
       22    1    1    2    0    0 -0.83867837652E-02 -0.66986946225E-02 -0.34086990675E-01  0.35737005818E-01  0.00000000000E+00 0. -1.
  9000001    1    1    2    0    0  0.83867837652E-02  0.66986946225E-02  0.34086990675E-01  0.35750994182E-01  0.10000000475E-02 0.  1.
</event>
<event>
 4   0  0.4892667E-02  0.9118800E+02  0.7818609E-02  0.1379984E+01
      -11   -1    0    0    0    0  0.00000000000E+00  0.00000000000E+00  0.35740347158E-01  0.35744000000E-01  0.51099999109E-03 0. -1.
       11   -1    0    0    0    0 -0.00000000000E+00 -0.00000000000E+00 -0.35740347158E-01  0.35744000000E-01  0.51099999109E-03 0.  1.
       22    1    1    2    0    0 -0.19120461852E-02 -0.25513351365E-02 -0.35594498919E-01  0.35737005818E-01  0.00000000000E+00 0.  1.
  9000001    1    1    2    0    0  0.19120461852E-02  0.25513351365E-02  0.35594498919E-01  0.35750994182E-01  0.10000000475E-02 0. -1.
</event>
<event>
 4   0  0.4892667E-02  0.9118800E+02  0.7818609E-02  0.1379984E+01
      -11   -1    0    0    0    0  0.00000000000E+00  0.00000000000E+00  0.35740347158E-01  0.35744000000E-01  0.51099999109E-03 0. -1.
       11   -1    0    0    0    0 -0.00000000000E+00 -0.00000000000E+00 -0.35740347158E-01  0.35744000000E-01  0.51099999109E-03 0.  1.
       22    1    1    2    0    0 -0.12229265968E-01  0.24241644866E-01 -0.23236206510E-01  0.35737005818E-01  0.00000000000E+00 0.  1.
  9000001    1    1    2    0    0  0.12229265968E-01 -0.24241644866E-01  0.23236206510E-01  0.35750994182E-01  0.10000000475E-02 0. -1.
</event>
<event>
 4   0  0.4892667E-02  0.9118800E+02  0.7818609E-02  0.1379984E+01
      -11   -1    0    0    0    0  0.00000000000E+00  0.00000000000E+00  0.35740347158E-01  0.35744000000E-01  0.51099999109E-03 0.  1.
       11   -1    0    0    0    0 -0.00000000000E+00 -0.00000000000E+00 -0.35740347158E-01  0.35744000000E-01  0.51099999109E-03 0. -1.
       22    1    1    2    0    0 -0.14347644691E-01  0.18208376534E-02 -0.32679706653E-01  0.35737005818E-01  0.00000000000E+00 0. -1.
  9000001    1    1    2    0    0  0.14347644691E-01 -0.18208376534E-02  0.32679706653E-01  0.35750994182E-01  0.10000000475E-02 0.  1.
</event>
<event>
 4   0  0.4892667E-02  0.9118800E+02  0.7818609E-02  0.1379984E+01
      -11   -1    0    0    0    0  0.00000000000E+00  0.00000000000E+00  0.35740347158E-01  0.35744000000E-01  0.51099999109E-03 0. -1.
       11   -1    0    0    0    0 -0.00000000000E+00 -0.00000000000E+00 -0.35740347158E-01  0.35744000000E-01  0.51099999109E-03 0.  1.
       22    1    1    2    0    0  0.37637157639E-02  0.23484224233E-03  0.35537485528E-01  0.35737005818E-01  0.00000000000E+00 0. -1.
  9000001    1    1    2    0    0 -0.37637157639E-02 -0.23484224233E-03 -0.35537485528E-01  0.35750994182E-01  0.10000000475E-02 0.  1.
</event>
<event>
 4   0  0.4892667E-02  0.9118800E+02  0.7818609E-02  0.1379984E+01
      -11   -1    0    0    0    0  0.00000000000E+00  0.00000000000E+00  0.35740347158E-01  0.35744000000E-01  0.51099999109E-03 0.  1.
       11   -1    0    0    0    0 -0.00000000000E+00 -0.00000000000E+00 -0.35740347158E-01  0.35744000000E-01  0.51099999109E-03 0. -1.
       22    1    1    2    0    0 -0.95698852411E-03 -0.81586169440E-02  0.34780090963E-01  0.35737005818E-01  0.00000000000E+00 0.  1.
  9000001    1    1    2    0    0  0.95698852411E-03  0.81586169440E-02 -0.34780090963E-01  0.35750994182E-01  0.10000000475E-02 0. -1.
</event>
<event>
 4   0  0.4892667E-02  0.9118800E+02  0.7818609E-02  0.1379984E+01
      -11   -1    0    0    0    0  0.00000000000E+00  0.00000000000E+00  0.35740347158E-01  0.35744000000E-01  0.51099999109E-03 0.  1.
       11   -1    0    0    0    0 -0.00000000000E+00 -0.00000000000E+00 -0.35740347158E-01  0.35744000000E-01  0.51099999109E-03 0. -1.
       22    1    1    2    0    0 -0.24841719127E-01  0.15716238916E-01 -0.20322952788E-01  0.35737005818E-01  0.00000000000E+00 0. -1.
  9000001    1    1    2    0    0  0.24841719127E-01 -0.15716238916E-01  0.20322952788E-01  0.35750994182E-01  0.10000000475E-02 0.  1.
</event>
<event>
 4   0  0.4892667E-02  0.9118800E+02  0.7818609E-02  0.1379984E+01
      -11   -1    0    0    0    0  0.00000000000E+00  0.00000000000E+00  0.35740347158E-01  0.35744000000E-01  0.51099999109E-03 0. -1.
       11   -1    0    0    0    0 -0.00000000000E+00 -0.00000000000E+00 -0.35740347158E-01  0.35744000000E-01  0.51099999109E-03 0.  1.
       22    1    1    2    0    0 -0.18829606683E-01 -0.47347267140E-04 -0.30373956859E-01  0.35737005818E-01  0.00000000000E+00 0.  1.
  9000001    1    1    2    0    0  0.18829606683E-01  0.47347267140E-04  0.30373956859E-01  0.35750994182E-01  0.10000000475E-02 0. -1.
</event>
<event>
 4   0  0.4892667E-02  0.9118800E+02  0.7818609E-02  0.1379984E+01
      -11   -1    0    0    0    0  0.00000000000E+00  0.00000000000E+00  0.35740347158E-01  0.35744000000E-01  0.51099999109E-03 0. -1.
       11   -1    0    0    0    0 -0.00000000000E+00 -0.00000000000E+00 -0.35740347158E-01  0.35744000000E-01  0.51099999109E-03 0.  1.
       22    1    1    2    0    0 -0.26399099298E-02 -0.44987671700E-02 -0.35354286224E-01  0.35737005818E-01  0.00000000000E+00 0.  1.
  9000001    1    1    2    0    0  0.26399099298E-02  0.44987671700E-02  0.35354286224E-01  0.35750994182E-01  0.10000000475E-02 0. -1.
</event>
<event>
 4   0  0.4892667E-02  0.9118800E+02  0.7818609E-02  0.1379984E+01
      -11   -1    0    0    0    0  0.00000000000E+00  0.00000000000E+00  0.35740347158E-01  0.35744000000E-01  0.51099999109E-03 0.  1.
       11   -1    0    0    0    0 -0.00000000000E+00 -0.00000000000E+00 -0.35740347158E-01  0.35744000000E-01  0.51099999109E-03 0. -1.
       22    1    1    2    0    0  0.27280100257E-03  0.94737887036E-02 -0.34457314058E-01  0.35737005818E-01  0.00000000000E+00 0. -1.
  9000001    1    1    2    0    0 -0.27280100257E-03 -0.94737887036E-02  0.34457314058E-01  0.35750994182E-01  0.10000000475E-02 0.  1.
</event>
<event>
 4   0  0.4892667E-02  0.9118800E+02  0.7818609E-02  0.1379984E+01
      -11   -1    0    0    0    0  0.00000000000E+00  0.00000000000E+00  0.35740347158E-01  0.35744000000E-01  0.51099999109E-03 0. -1.
       11   -1    0    0    0    0 -0.00000000000E+00 -0.00000000000E+00 -0.35740347158E-01  0.35744000000E-01  0.51099999109E-03 0.  1.
       22    1    1    2    0    0  0.10048199705E-01 -0.77288058804E-02 -0.33413063721E-01  0.35737005818E-01  0.00000000000E+00 0.  1.
  9000001    1    1    2    0    0 -0.10048199705E-01  0.77288058804E-02  0.33413063721E-01  0.35750994182E-01  0.10000000475E-02 0. -1.
</event>
<event>
 4   0  0.4892667E-02  0.9118800E+02  0.7818609E-02  0.1379984E+01
      -11   -1    0    0    0    0  0.00000000000E+00  0.00000000000E+00  0.35740347158E-01  0.35744000000E-01  0.51099999109E-03 0. -1.
       11   -1    0    0    0    0 -0.00000000000E+00 -0.00000000000E+00 -0.35740347158E-01  0.35744000000E-01  0.51099999109E-03 0.  1.
       22    1    1    2    0    0 -0.23709607601E-01  0.26734226918E-01  0.51884811119E-03  0.35737005818E-01  0.00000000000E+00 0.  1.
  9000001    1    1    2    0    0  0.23709607601E-01 -0.26734226918E-01 -0.51884811119E-03  0.35750994182E-01  0.10000000475E-02 0. -1.
</event>
<event>
 4   0  0.4892667E-02  0.9118800E+02  0.7818609E-02  0.1379984E+01
      -11   -1    0    0    0    0  0.00000000000E+00  0.00000000000E+00  0.35740347158E-01  0.35744000000E-01  0.51099999109E-03 0.  1.
       11   -1    0    0    0    0 -0.00000000000E+00 -0.00000000000E+00 -0.35740347158E-01  0.35744000000E-01  0.51099999109E-03 0. -1.
       22    1    1    2    0    0  0.26791711029E-01 -0.22147795134E-02  0.23546391586E-01  0.35737005818E-01  0.00000000000E+00 0.  1.
  9000001    1    1    2    0    0 -0.26791711029E-01  0.22147795134E-02 -0.23546391586E-01  0.35750994182E-01  0.10000000475E-02 0. -1.
</event>
<event>
 4   0  0.4892667E-02  0.9118800E+02  0.7818609E-02  0.1379984E+01
      -11   -1    0    0    0    0  0.00000000000E+00  0.00000000000E+00  0.35740347158E-01  0.35744000000E-01  0.51099999109E-03 0. -1.
       11   -1    0    0    0    0 -0.00000000000E+00 -0.00000000000E+00 -0.35740347158E-01  0.35744000000E-01  0.51099999109E-03 0.  1.
       22    1    1    2    0    0 -0.23924748312E-02  0.42401093674E-02  0.35403829194E-01  0.35737005818E-01  0.00000000000E+00 0. -1.
  9000001    1    1    2    0    0  0.23924748312E-02 -0.42401093674E-02 -0.35403829194E-01  0.35750994182E-01  0.10000000475E-02 0.  1.
</event>
<event>
 4   0  0.4892667E-02  0.9118800E+02  0.7818609E-02  0.1379984E+01
      -11   -1    0    0    0    0  0.00000000000E+00  0.00000000000E+00  0.35740347158E-01  0.35744000000E-01  0.51099999109E-03 0. -1.
       11   -1    0    0    0    0 -0.00000000000E+00 -0.00000000000E+00 -0.35740347158E-01  0.35744000000E-01  0.51099999109E-03 0.  1.
       22    1    1    2    0    0 -0.11313224103E-01  0.71654599246E-03  0.33891460681E-01  0.35737005818E-01  0.00000000000E+00 0. -1.
  9000001    1    1    2    0    0  0.11313224103E-01 -0.71654599246E-03 -0.33891460681E-01  0.35750994182E-01  0.10000000475E-02 0.  1.
</event>
<event>
 4   0  0.4892667E-02  0.9118800E+02  0.7818609E-02  0.1379984E+01
      -11   -1    0    0    0    0  0.00000000000E+00  0.00000000000E+00  0.35740347158E-01  0.35744000000E-01  0.51099999109E-03 0.  1.
       11   -1    0    0    0    0 -0.00000000000E+00 -0.00000000000E+00 -0.35740347158E-01  0.35744000000E-01  0.51099999109E-03 0. -1.
       22    1    1    2    0    0 -0.92920576722E-02 -0.19038451348E-01 -0.28780698729E-01  0.35737005818E-01  0.00000000000E+00 0. -1.
  9000001    1    1    2    0    0  0.92920576722E-02  0.19038451348E-01  0.28780698729E-01  0.35750994182E-01  0.10000000475E-02 0.  1.
</event>
<event>
 4   0  0.4892667E-02  0.9118800E+02  0.7818609E-02  0.1379984E+01
      -11   -1    0    0    0    0  0.00000000000E+00  0.00000000000E+00  0.35740347158E-01  0.35744000000E-01  0.51099999109E-03 0. -1.
       11   -1    0    0    0    0 -0.00000000000E+00 -0.00000000000E+00 -0.35740347158E-01  0.35744000000E-01  0.51099999109E-03 0.  1.
       22    1    1    2    0    0 -0.49229167522E-02  0.76392640212E-02 -0.34562119737E-01  0.35737005818E-01  0.00000000000E+00 0.  1.
  9000001    1    1    2    0    0  0.49229167522E-02 -0.76392640212E-02  0.34562119737E-01  0.35750994182E-01  0.10000000475E-02 0. -1.
</event>
<event>
 4   0  0.4892667E-02  0.9118800E+02  0.7818609E-02  0.1379984E+01
      -11   -1    0    0    0    0  0.00000000000E+00  0.00000000000E+00  0.35740347158E-01  0.35744000000E-01  0.51099999109E-03 0. -1.
       11   -1    0    0    0    0 -0.00000000000E+00 -0.00000000000E+00 -0.35740347158E-01  0.35744000000E-01  0.51099999109E-03 0.  1.
       22    1    1    2    0    0 -0.10544287662E-01 -0.42623078591E-02 -0.33878965661E-01  0.35737005818E-01  0.00000000000E+00 0.  1.
  9000001    1    1    2    0    0  0.10544287662E-01  0.42623078591E-02  0.33878965661E-01  0.35750994182E-01  0.10000000475E-02 0. -1.
</event>
<event>
 4   0  0.4892667E-02  0.9118800E+02  0.7818609E-02  0.1379984E+01
      -11   -1    0    0    0    0  0.00000000000E+00  0.00000000000E+00  0.35740347158E-01  0.35744000000E-01  0.51099999109E-03 0. -1.
       11   -1    0    0    0    0 -0.00000000000E+00 -0.00000000000E+00 -0.35740347158E-01  0.35744000000E-01  0.51099999109E-03 0.  1.
       22    1    1    2    0    0  0.38407559248E-02  0.13239132853E-01 -0.32971313897E-01  0.35737005818E-01  0.00000000000E+00 0.  1.
  9000001    1    1    2    0    0 -0.38407559248E-02 -0.13239132853E-01  0.32971313897E-01  0.35750994182E-01  0.10000000475E-02 0. -1.
</event>
<event>
 4   0  0.4892667E-02  0.9118800E+02  0.7818609E-02  0.1379984E+01
      -11   -1    0    0    0    0  0.00000000000E+00  0.00000000000E+00  0.35740347158E-01  0.35744000000E-01  0.51099999109E-03 0. -1.
       11   -1    0    0    0    0 -0.00000000000E+00 -0.00000000000E+00 -0.35740347158E-01  0.35744000000E-01  0.51099999109E-03 0.  1.
       22    1    1    2    0    0 -0.18646462193E-02  0.12587449632E-01 -0.33394801858E-01  0.35737005818E-01  0.00000000000E+00 0.  1.
  9000001    1    1    2    0    0  0.18646462193E-02 -0.12587449632E-01  0.33394801858E-01  0.35750994182E-01  0.10000000475E-02 0. -1.
</event>
<event>
 4   0  0.4892667E-02  0.9118800E+02  0.7818609E-02  0.1379984E+01
      -11   -1    0    0    0    0  0.00000000000E+00  0.00000000000E+00  0.35740347158E-01  0.35744000000E-01  0.51099999109E-03 0.  1.
       11   -1    0    0    0    0 -0.00000000000E+00 -0.00000000000E+00 -0.35740347158E-01  0.35744000000E-01  0.51099999109E-03 0. -1.
       22    1    1    2    0    0 -0.27861383129E-01 -0.16246597726E-02 -0.22321231947E-01  0.35737005818E-01  0.00000000000E+00 0. -1.
  9000001    1    1    2    0    0  0.27861383129E-01  0.16246597726E-02  0.22321231947E-01  0.35750994182E-01  0.10000000475E-02 0.  1.
</event>
<event>
 4   0  0.4892667E-02  0.9118800E+02  0.7818609E-02  0.1379984E+01
      -11   -1    0    0    0    0  0.00000000000E+00  0.00000000000E+00  0.35740347158E-01  0.35744000000E-01  0.51099999109E-03 0. -1.
       11   -1    0    0    0    0 -0.00000000000E+00 -0.00000000000E+00 -0.35740347158E-01  0.35744000000E-01  0.51099999109E-03 0.  1.
       22    1    1    2    0    0 -0.46919649625E-02 -0.21295021449E-01 -0.28313267405E-01  0.35737005818E-01  0.00000000000E+00 0.  1.
  9000001    1    1    2    0    0  0.46919649625E-02  0.21295021449E-01  0.28313267405E-01  0.35750994182E-01  0.10000000475E-02 0. -1.
</event>
<event>
 4   0  0.4892667E-02  0.9118800E+02  0.7818609E-02  0.1379984E+01
      -11   -1    0    0    0    0  0.00000000000E+00  0.00000000000E+00  0.35740347158E-01  0.35744000000E-01  0.51099999109E-03 0. -1.
       11   -1    0    0    0    0 -0.00000000000E+00 -0.00000000000E+00 -0.35740347158E-01  0.35744000000E-01  0.51099999109E-03 0.  1.
       22    1    1    2    0    0 -0.43030363621E-02  0.19020037436E-02  0.35425976976E-01  0.35737005818E-01  0.00000000000E+00 0. -1.
  9000001    1    1    2    0    0  0.43030363621E-02 -0.19020037436E-02 -0.35425976976E-01  0.35750994182E-01  0.10000000475E-02 0.  1.
</event>
<event>
 4   0  0.4892667E-02  0.9118800E+02  0.7818609E-02  0.1379984E+01
      -11   -1    0    0    0    0  0.00000000000E+00  0.00000000000E+00  0.35740347158E-01  0.35744000000E-01  0.51099999109E-03 0.  1.
       11   -1    0    0    0    0 -0.00000000000E+00 -0.00000000000E+00 -0.35740347158E-01  0.35744000000E-01  0.51099999109E-03 0. -1.
       22    1    1    2    0    0  0.19422622065E-02 -0.25341500884E-01 -0.25123087696E-01  0.35737005818E-01  0.00000000000E+00 0. -1.
  9000001    1    1    2    0    0 -0.19422622065E-02  0.25341500884E-01  0.25123087696E-01  0.35750994182E-01  0.10000000475E-02 0.  1.
</event>
<event>
 4   0  0.4892667E-02  0.9118800E+02  0.7818609E-02  0.1379984E+01
      -11   -1    0    0    0    0  0.00000000000E+00  0.00000000000E+00  0.35740347158E-01  0.35744000000E-01  0.51099999109E-03 0.  1.
       11   -1    0    0    0    0 -0.00000000000E+00 -0.00000000000E+00 -0.35740347158E-01  0.35744000000E-01  0.51099999109E-03 0. -1.
       22    1    1    2    0    0 -0.98326760895E-02  0.60727658256E-02  0.33816764792E-01  0.35737005818E-01  0.00000000000E+00 0.  1.
  9000001    1    1    2    0    0  0.98326760895E-02 -0.60727658256E-02 -0.33816764792E-01  0.35750994182E-01  0.10000000475E-02 0. -1.
</event>
<event>
 4   0  0.4892667E-02  0.9118800E+02  0.7818609E-02  0.1379984E+01
      -11   -1    0    0    0    0  0.00000000000E+00  0.00000000000E+00  0.35740347158E-01  0.35744000000E-01  0.51099999109E-03 0. -1.
       11   -1    0    0    0    0 -0.00000000000E+00 -0.00000000000E+00 -0.35740347158E-01  0.35744000000E-01  0.51099999109E-03 0.  1.
       22    1    1    2    0    0  0.65552098724E-02  0.14254756093E-01 -0.32108639602E-01  0.35737005818E-01  0.00000000000E+00 0.  1.
  9000001    1    1    2    0    0 -0.65552098724E-02 -0.14254756093E-01  0.32108639602E-01  0.35750994182E-01  0.10000000475E-02 0. -1.
</event>
<event>
 4   0  0.4892667E-02  0.9118800E+02  0.7818609E-02  0.1379984E+01
      -11   -1    0    0    0    0  0.00000000000E+00  0.00000000000E+00  0.35740347158E-01  0.35744000000E-01  0.51099999109E-03 0. -1.
       11   -1    0    0    0    0 -0.00000000000E+00 -0.00000000000E+00 -0.35740347158E-01  0.35744000000E-01  0.51099999109E-03 0.  1.
       22    1    1    2    0    0  0.53169984819E-02 -0.69803084091E-02  0.34643013820E-01  0.35737005818E-01  0.00000000000E+00 0. -1.
  9000001    1    1    2    0    0 -0.53169984819E-02  0.69803084091E-02 -0.34643013820E-01  0.35750994182E-01  0.10000000475E-02 0.  1.
</event>
<event>
 4   0  0.4892667E-02  0.9118800E+02  0.7818609E-02  0.1379984E+01
      -11   -1    0    0    0    0  0.00000000000E+00  0.00000000000E+00  0.35740347158E-01  0.35744000000E-01  0.51099999109E-03 0. -1.
       11   -1    0    0    0    0 -0.00000000000E+00 -0.00000000000E+00 -0.35740347158E-01  0.35744000000E-01  0.51099999109E-03 0.  1.
       22    1    1    2    0    0  0.30196454633E-01  0.13735689022E-01  0.13290543991E-01  0.35737005818E-01  0.00000000000E+00 0. -1.
  9000001    1    1    2    0    0 -0.30196454633E-01 -0.13735689022E-01 -0.13290543991E-01  0.35750994182E-01  0.10000000475E-02 0.  1.
</event>
<event>
 4   0  0.4892667E-02  0.9118800E+02  0.7818609E-02  0.1379984E+01
      -11   -1    0    0    0    0  0.00000000000E+00  0.00000000000E+00  0.35740347158E-01  0.35744000000E-01  0.51099999109E-03 0.  1.
       11   -1    0    0    0    0 -0.00000000000E+00 -0.00000000000E+00 -0.35740347158E-01  0.35744000000E-01  0.51099999109E-03 0. -1.
       22    1    1    2    0    0  0.17312226746E-01 -0.24555894283E-02  0.31167137670E-01  0.35737005818E-01  0.00000000000E+00 0.  1.
  9000001    1    1    2    0    0 -0.17312226746E-01  0.24555894283E-02 -0.31167137670E-01  0.35750994182E-01  0.10000000475E-02 0. -1.
</event>
<event>
 4   0  0.4892667E-02  0.9118800E+02  0.7818609E-02  0.1379984E+01
      -11   -1    0    0    0    0  0.00000000000E+00  0.00000000000E+00  0.35740347158E-01  0.35744000000E-01  0.51099999109E-03 0. -1.
       11   -1    0    0    0    0 -0.00000000000E+00 -0.00000000000E+00 -0.35740347158E-01  0.35744000000E-01  0.51099999109E-03 0.  1.
       22    1    1    2    0    0  0.64766068507E-02  0.20907672515E-02  0.35082985062E-01  0.35737005818E-01  0.00000000000E+00 0. -1.
  9000001    1    1    2    0    0 -0.64766068507E-02 -0.20907672515E-02 -0.35082985062E-01  0.35750994182E-01  0.10000000475E-02 0.  1.
</event>
<event>
 4   0  0.4892667E-02  0.9118800E+02  0.7818609E-02  0.1379984E+01
      -11   -1    0    0    0    0  0.00000000000E+00  0.00000000000E+00  0.35740347158E-01  0.35744000000E-01  0.51099999109E-03 0. -1.
       11   -1    0    0    0    0 -0.00000000000E+00 -0.00000000000E+00 -0.35740347158E-01  0.35744000000E-01  0.51099999109E-03 0.  1.
       22    1    1    2    0    0  0.24157331440E-02  0.22262791754E-02 -0.35585692339E-01  0.35737005818E-01  0.00000000000E+00 0.  1.
  9000001    1    1    2    0    0 -0.24157331440E-02 -0.22262791754E-02  0.35585692339E-01  0.35750994182E-01  0.10000000475E-02 0. -1.
</event>
<event>
 4   0  0.4892667E-02  0.9118800E+02  0.7818609E-02  0.1379984E+01
      -11   -1    0    0    0    0  0.00000000000E+00  0.00000000000E+00  0.35740347158E-01  0.35744000000E-01  0.51099999109E-03 0. -1.
       11   -1    0    0    0    0 -0.00000000000E+00 -0.00000000000E+00 -0.35740347158E-01  0.35744000000E-01  0.51099999109E-03 0.  1.
       22    1    1    2    0    0  0.18623173029E-01  0.24400067527E-01  0.18301576869E-01  0.35737005818E-01  0.00000000000E+00 0.  1.
  9000001    1    1    2    0    0 -0.18623173029E-01 -0.24400067527E-01 -0.18301576869E-01  0.35750994182E-01  0.10000000475E-02 0. -1.
</event>
<event>
 4   0  0.4892667E-02  0.9118800E+02  0.7818609E-02  0.1379984E+01
      -11   -1    0    0    0    0  0.00000000000E+00  0.00000000000E+00  0.35740347158E-01  0.35744000000E-01  0.51099999109E-03 0.  1.
       11   -1    0    0    0    0 -0.00000000000E+00 -0.00000000000E+00 -0.35740347158E-01  0.35744000000E-01  0.51099999109E-03 0. -1.
       22    1    1    2    0    0 -0.34005824195E-02  0.86877866250E-02 -0.34497709890E-01  0.35737005818E-01  0.00000000000E+00 0. -1.
  9000001    1    1    2    0    0  0.34005824195E-02 -0.86877866250E-02  0.34497709890E-01  0.35750994182E-01  0.10000000475E-02 0.  1.
</event>
<event>
 4   0  0.4892667E-02  0.9118800E+02  0.7818609E-02  0.1379984E+01
      -11   -1    0    0    0    0  0.00000000000E+00  0.00000000000E+00  0.35740347158E-01  0.35744000000E-01  0.51099999109E-03 0.  1.
       11   -1    0    0    0    0 -0.00000000000E+00 -0.00000000000E+00 -0.35740347158E-01  0.35744000000E-01  0.51099999109E-03 0. -1.
       22    1    1    2    0    0  0.11686011658E-01  0.76859477019E-02 -0.32886120542E-01  0.35737005818E-01  0.00000000000E+00 0. -1.
  9000001    1    1    2    0    0 -0.11686011658E-01 -0.76859477019E-02  0.32886120542E-01  0.35750994182E-01  0.10000000475E-02 0.  1.
</event>
<event>
 4   0  0.4892667E-02  0.9118800E+02  0.7818609E-02  0.1379984E+01
      -11   -1    0    0    0    0  0.00000000000E+00  0.00000000000E+00  0.35740347158E-01  0.35744000000E-01  0.51099999109E-03 0.  1.
       11   -1    0    0    0    0 -0.00000000000E+00 -0.00000000000E+00 -0.35740347158E-01  0.35744000000E-01  0.51099999109E-03 0. -1.
       22    1    1    2    0    0 -0.18263463500E-02 -0.71932478828E-02  0.34957906527E-01  0.35737005818E-01  0.00000000000E+00 0.  1.
  9000001    1    1    2    0    0  0.18263463500E-02  0.71932478828E-02 -0.34957906527E-01  0.35750994182E-01  0.10000000475E-02 0. -1.
</event>
<event>
 4   0  0.4892667E-02  0.9118800E+02  0.7818609E-02  0.1379984E+01
      -11   -1    0    0    0    0  0.00000000000E+00  0.00000000000E+00  0.35740347158E-01  0.35744000000E-01  0.51099999109E-03 0.  1.
       11   -1    0    0    0    0 -0.00000000000E+00 -0.00000000000E+00 -0.35740347158E-01  0.35744000000E-01  0.51099999109E-03 0. -1.
       22    1    1    2    0    0  0.27003916764E-01  0.18115248778E-01 -0.14824298499E-01  0.35737005818E-01  0.00000000000E+00 0. -1.
  9000001    1    1    2    0    0 -0.27003916764E-01 -0.18115248778E-01  0.14824298499E-01  0.35750994182E-01  0.10000000475E-02 0.  1.
</event>
<event>
 4   0  0.4892667E-02  0.9118800E+02  0.7818609E-02  0.1379984E+01
      -11   -1    0    0    0    0  0.00000000000E+00  0.00000000000E+00  0.35740347158E-01  0.35744000000E-01  0.51099999109E-03 0. -1.
       11   -1    0    0    0    0 -0.00000000000E+00 -0.00000000000E+00 -0.35740347158E-01  0.35744000000E-01  0.51099999109E-03 0.  1.
       22    1    1    2    0    0  0.70961671729E-02  0.16332144919E-01 -0.30984496747E-01  0.35737005818E-01  0.00000000000E+00 0. -1.
  9000001    1    1    2    0    0 -0.70961671729E-02 -0.16332144919E-01  0.30984496747E-01  0.35750994182E-01  0.10000000475E-02 0.  1.
</event>
<event>
 4   0  0.4892667E-02  0.9118800E+02  0.7818609E-02  0.1379984E+01
      -11   -1    0    0    0    0  0.00000000000E+00  0.00000000000E+00  0.35740347158E-01  0.35744000000E-01  0.51099999109E-03 0.  1.
       11   -1    0    0    0    0 -0.00000000000E+00 -0.00000000000E+00 -0.35740347158E-01  0.35744000000E-01  0.51099999109E-03 0. -1.
       22    1    1    2    0    0 -0.86063179034E-03  0.87407663099E-02  0.34640899268E-01  0.35737005818E-01  0.00000000000E+00 0.  1.
  9000001    1    1    2    0    0  0.86063179034E-03 -0.87407663099E-02 -0.34640899268E-01  0.35750994182E-01  0.10000000475E-02 0. -1.
</event>
<event>
 4   0  0.4892667E-02  0.9118800E+02  0.7818609E-02  0.1379984E+01
      -11   -1    0    0    0    0  0.00000000000E+00  0.00000000000E+00  0.35740347158E-01  0.35744000000E-01  0.51099999109E-03 0. -1.
       11   -1    0    0    0    0 -0.00000000000E+00 -0.00000000000E+00 -0.35740347158E-01  0.35744000000E-01  0.51099999109E-03 0.  1.
       22    1    1    2    0    0 -0.91617298675E-04  0.39794486600E-02 -0.35514633315E-01  0.35737005818E-01  0.00000000000E+00 0.  1.
  9000001    1    1    2    0    0  0.91617298675E-04 -0.39794486600E-02  0.35514633315E-01  0.35750994182E-01  0.10000000475E-02 0. -1.
</event>
<event>
 4   0  0.4892667E-02  0.9118800E+02  0.7818609E-02  0.1379984E+01
      -11   -1    0    0    0    0  0.00000000000E+00  0.00000000000E+00  0.35740347158E-01  0.35744000000E-01  0.51099999109E-03 0.  1.
       11   -1    0    0    0    0 -0.00000000000E+00 -0.00000000000E+00 -0.35740347158E-01  0.35744000000E-01  0.51099999109E-03 0. -1.
       22    1    1    2    0    0 -0.50150256704E-02  0.25989270483E-03  0.35382418772E-01  0.35737005818E-01  0.00000000000E+00 0.  1.
  9000001    1    1    2    0    0  0.50150256704E-02 -0.25989270483E-03 -0.35382418772E-01  0.35750994182E-01  0.10000000475E-02 0. -1.
</event>
<event>
 4   0  0.4892667E-02  0.9118800E+02  0.7818609E-02  0.1379984E+01
      -11   -1    0    0    0    0  0.00000000000E+00  0.00000000000E+00  0.35740347158E-01  0.35744000000E-01  0.51099999109E-03 0. -1.
       11   -1    0    0    0    0 -0.00000000000E+00 -0.00000000000E+00 -0.35740347158E-01  0.35744000000E-01  0.51099999109E-03 0.  1.
       22    1    1    2    0    0  0.14836469851E-01  0.11737042211E-01 -0.30319211523E-01  0.35737005818E-01  0.00000000000E+00 0.  1.
  9000001    1    1    2    0    0 -0.14836469851E-01 -0.11737042211E-01  0.30319211523E-01  0.35750994182E-01  0.10000000475E-02 0. -1.
</event>
<event>
 4   0  0.4892667E-02  0.9118800E+02  0.7818609E-02  0.1379984E+01
      -11   -1    0    0    0    0  0.00000000000E+00  0.00000000000E+00  0.35740347158E-01  0.35744000000E-01  0.51099999109E-03 0. -1.
       11   -1    0    0    0    0 -0.00000000000E+00 -0.00000000000E+00 -0.35740347158E-01  0.35744000000E-01  0.51099999109E-03 0.  1.
       22    1    1    2    0    0  0.23499257416E-01 -0.19006617628E-01 -0.19070054329E-01  0.35737005818E-01  0.00000000000E+00 0.  1.
  9000001    1    1    2    0    0 -0.23499257416E-01  0.19006617628E-01  0.19070054329E-01  0.35750994182E-01  0.10000000475E-02 0. -1.
</event>
<event>
 4   0  0.4892667E-02  0.9118800E+02  0.7818609E-02  0.1379984E+01
      -11   -1    0    0    0    0  0.00000000000E+00  0.00000000000E+00  0.35740347158E-01  0.35744000000E-01  0.51099999109E-03 0. -1.
       11   -1    0    0    0    0 -0.00000000000E+00 -0.00000000000E+00 -0.35740347158E-01  0.35744000000E-01  0.51099999109E-03 0.  1.
       22    1    1    2    0    0 -0.71113368902E-02 -0.12617295553E-01  0.32670572775E-01  0.35737005818E-01  0.00000000000E+00 0. -1.
  9000001    1    1    2    0    0  0.71113368902E-02  0.12617295553E-01 -0.32670572775E-01  0.35750994182E-01  0.10000000475E-02 0.  1.
</event>
<event>
 4   0  0.4892667E-02  0.9118800E+02  0.7818609E-02  0.1379984E+01
      -11   -1    0    0    0    0  0.00000000000E+00  0.00000000000E+00  0.35740347158E-01  0.35744000000E-01  0.51099999109E-03 0. -1.
       11   -1    0    0    0    0 -0.00000000000E+00 -0.00000000000E+00 -0.35740347158E-01  0.35744000000E-01  0.51099999109E-03 0.  1.
       22    1    1    2    0    0  0.52961225259E-02 -0.13071948568E-02  0.35318209364E-01  0.35737005818E-01  0.00000000000E+00 0. -1.
  9000001    1    1    2    0    0 -0.52961225259E-02  0.13071948568E-02 -0.35318209364E-01  0.35750994182E-01  0.10000000475E-02 0.  1.
</event>
<event>
 4   0  0.4892667E-02  0.9118800E+02  0.7818609E-02  0.1379984E+01
      -11   -1    0    0    0    0  0.00000000000E+00  0.00000000000E+00  0.35740347158E-01  0.35744000000E-01  0.51099999109E-03 0.  1.
       11   -1    0    0    0    0 -0.00000000000E+00 -0.00000000000E+00 -0.35740347158E-01  0.35744000000E-01  0.51099999109E-03 0. -1.
       22    1    1    2    0    0 -0.78733097457E-02  0.55588125190E-02 -0.34412849081E-01  0.35737005818E-01  0.00000000000E+00 0. -1.
  9000001    1    1    2    0    0  0.78733097457E-02 -0.55588125190E-02  0.34412849081E-01  0.35750994182E-01  0.10000000475E-02 0.  1.
</event>
<event>
 4   0  0.4892667E-02  0.9118800E+02  0.7818609E-02  0.1379984E+01
      -11   -1    0    0    0    0  0.00000000000E+00  0.00000000000E+00  0.35740347158E-01  0.35744000000E-01  0.51099999109E-03 0.  1.
       11   -1    0    0    0    0 -0.00000000000E+00 -0.00000000000E+00 -0.35740347158E-01  0.35744000000E-01  0.51099999109E-03 0. -1.
       22    1    1    2    0    0  0.20904101506E-02 -0.44789026300E-02 -0.35393547456E-01  0.35737005818E-01  0.00000000000E+00 0. -1.
  9000001    1    1    2    0    0 -0.20904101506E-02  0.44789026300E-02  0.35393547456E-01  0.35750994182E-01  0.10000000475E-02 0.  1.
</event>
<event>
 4   0  0.4892667E-02  0.9118800E+02  0.7818609E-02  0.1379984E+01
      -11   -1    0    0    0    0  0.00000000000E+00  0.00000000000E+00  0.35740347158E-01  0.35744000000E-01  0.51099999109E-03 0.  1.
       11   -1    0    0    0    0 -0.00000000000E+00 -0.00000000000E+00 -0.35740347158E-01  0.35744000000E-01  0.51099999109E-03 0. -1.
       22    1    1    2    0    0  0.11244070274E-02  0.35150306774E-02 -0.35545940036E-01  0.35737005818E-01  0.00000000000E+00 0. -1.
  9000001    1    1    2    0    0 -0.11244070274E-02 -0.35150306774E-02  0.35545940036E-01  0.35750994182E-01  0.10000000475E-02 0.  1.
</event>
<event>
 4   0  0.4892667E-02  0.9118800E+02  0.7818609E-02  0.1379984E+01
      -11   -1    0    0    0    0  0.00000000000E+00  0.00000000000E+00  0.35740347158E-01  0.35744000000E-01  0.51099999109E-03 0.  1.
       11   -1    0    0    0    0 -0.00000000000E+00 -0.00000000000E+00 -0.35740347158E-01  0.35744000000E-01  0.51099999109E-03 0. -1.
       22    1    1    2    0    0  0.18493944593E-01 -0.79299016570E-02  0.29533443043E-01  0.35737005818E-01  0.00000000000E+00 0.  1.
  9000001    1    1    2    0    0 -0.18493944593E-01  0.79299016570E-02 -0.29533443043E-01  0.35750994182E-01  0.10000000475E-02 0. -1.
</event>
<event>
 4   0  0.4892667E-02  0.9118800E+02  0.7818609E-02  0.1379984E+01
      -11   -1    0    0    0    0  0.00000000000E+00  0.00000000000E+00  0.35740347158E-01  0.35744000000E-01  0.51099999109E-03 0. -1.
       11   -1    0    0    0    0 -0.00000000000E+00 -0.00000000000E+00 -0.35740347158E-01  0.35744000000E-01  0.51099999109E-03 0.  1.
       22    1    1    2    0    0  0.30849812352E-01 -0.47061342640E-02  0.17414791501E-01  0.35737005818E-01  0.00000000000E+00 0. -1.
  9000001    1    1    2    0    0 -0.30849812352E-01  0.47061342640E-02 -0.17414791501E-01  0.35750994182E-01  0.10000000475E-02 0.  1.
</event>
<event>
 4   0  0.4892667E-02  0.9118800E+02  0.7818609E-02  0.1379984E+01
      -11   -1    0    0    0    0  0.00000000000E+00  0.00000000000E+00  0.35740347158E-01  0.35744000000E-01  0.51099999109E-03 0. -1.
       11   -1    0    0    0    0 -0.00000000000E+00 -0.00000000000E+00 -0.35740347158E-01  0.35744000000E-01  0.51099999109E-03 0.  1.
       22    1    1    2    0    0 -0.17823608975E-02  0.18761050417E-01 -0.30364119644E-01  0.35737005818E-01  0.00000000000E+00 0.  1.
  9000001    1    1    2    0    0  0.17823608975E-02 -0.18761050417E-01  0.30364119644E-01  0.35750994182E-01  0.10000000475E-02 0. -1.
</event>
<event>
 4   0  0.4892667E-02  0.9118800E+02  0.7818609E-02  0.1379984E+01
      -11   -1    0    0    0    0  0.00000000000E+00  0.00000000000E+00  0.35740347158E-01  0.35744000000E-01  0.51099999109E-03 0.  1.
       11   -1    0    0    0    0 -0.00000000000E+00 -0.00000000000E+00 -0.35740347158E-01  0.35744000000E-01  0.51099999109E-03 0. -1.
       22    1    1    2    0    0 -0.27023909288E-02 -0.28422200078E-02  0.35521155015E-01  0.35737005818E-01  0.00000000000E+00 0.  1.
  9000001    1    1    2    0    0  0.27023909288E-02  0.28422200078E-02 -0.35521155015E-01  0.35750994182E-01  0.10000000475E-02 0. -1.
</event>
<event>
 4   0  0.4892667E-02  0.9118800E+02  0.7818609E-02  0.1379984E+01
      -11   -1    0    0    0    0  0.00000000000E+00  0.00000000000E+00  0.35740347158E-01  0.35744000000E-01  0.51099999109E-03 0. -1.
       11   -1    0    0    0    0 -0.00000000000E+00 -0.00000000000E+00 -0.35740347158E-01  0.35744000000E-01  0.51099999109E-03 0.  1.
       22    1    1    2    0    0  0.13588561731E-01 -0.18846676731E-02 -0.32998978813E-01  0.35737005818E-01  0.00000000000E+00 0.  1.
  9000001    1    1    2    0    0 -0.13588561731E-01  0.18846676731E-02  0.32998978813E-01  0.35750994182E-01  0.10000000475E-02 0. -1.
</event>
<event>
 4   0  0.4892667E-02  0.9118800E+02  0.7818609E-02  0.1379984E+01
      -11   -1    0    0    0    0  0.00000000000E+00  0.00000000000E+00  0.35740347158E-01  0.35744000000E-01  0.51099999109E-03 0. -1.
       11   -1    0    0    0    0 -0.00000000000E+00 -0.00000000000E+00 -0.35740347158E-01  0.35744000000E-01  0.51099999109E-03 0.  1.
       22    1    1    2    0    0 -0.33433285261E-02 -0.12777538958E-02  0.35557321106E-01  0.35737005818E-01  0.00000000000E+00 0. -1.
  9000001    1    1    2    0    0  0.33433285261E-02  0.12777538958E-02 -0.35557321106E-01  0.35750994182E-01  0.10000000475E-02 0.  1.
</event>
<event>
 4   0  0.4892667E-02  0.9118800E+02  0.7818609E-02  0.1379984E+01
      -11   -1    0    0    0    0  0.00000000000E+00  0.00000000000E+00  0.35740347158E-01  0.35744000000E-01  0.51099999109E-03 0.  1.
       11   -1    0    0    0    0 -0.00000000000E+00 -0.00000000000E+00 -0.35740347158E-01  0.35744000000E-01  0.51099999109E-03 0. -1.
       22    1    1    2    0    0 -0.11431827136E-01  0.33392152848E-02 -0.33694162024E-01  0.35737005818E-01  0.00000000000E+00 0. -1.
  9000001    1    1    2    0    0  0.11431827136E-01 -0.33392152848E-02  0.33694162024E-01  0.35750994182E-01  0.10000000475E-02 0.  1.
</event>
<event>
 4   0  0.4892667E-02  0.9118800E+02  0.7818609E-02  0.1379984E+01
      -11   -1    0    0    0    0  0.00000000000E+00  0.00000000000E+00  0.35740347158E-01  0.35744000000E-01  0.51099999109E-03 0.  1.
       11   -1    0    0    0    0 -0.00000000000E+00 -0.00000000000E+00 -0.35740347158E-01  0.35744000000E-01  0.51099999109E-03 0. -1.
       22    1    1    2    0    0 -0.22588820313E-01  0.27202811819E-01  0.51851529268E-02  0.35737005818E-01  0.00000000000E+00 0. -1.
  9000001    1    1    2    0    0  0.22588820313E-01 -0.27202811819E-01 -0.51851529268E-02  0.35750994182E-01  0.10000000475E-02 0.  1.
</event>
<event>
 4   0  0.4892667E-02  0.9118800E+02  0.7818609E-02  0.1379984E+01
      -11   -1    0    0    0    0  0.00000000000E+00  0.00000000000E+00  0.35740347158E-01  0.35744000000E-01  0.51099999109E-03 0.  1.
       11   -1    0    0    0    0 -0.00000000000E+00 -0.00000000000E+00 -0.35740347158E-01  0.35744000000E-01  0.51099999109E-03 0. -1.
       22    1    1    2    0    0  0.42788989270E-02  0.13496738900E-01 -0.32812537968E-01  0.35737005818E-01  0.00000000000E+00 0. -1.
  9000001    1    1    2    0    0 -0.42788989270E-02 -0.13496738900E-01  0.32812537968E-01  0.35750994182E-01  0.10000000475E-02 0.  1.
</event>
<event>
 4   0  0.4892667E-02  0.9118800E+02  0.7818609E-02  0.1379984E+01
      -11   -1    0    0    0    0  0.00000000000E+00  0.00000000000E+00  0.35740347158E-01  0.35744000000E-01  0.51099999109E-03 0.  1.
       11   -1    0    0    0    0 -0.00000000000E+00 -0.00000000000E+00 -0.35740347158E-01  0.35744000000E-01  0.51099999109E-03 0. -1.
       22    1    1    2    0    0 -0.27701111220E-01  0.43069305106E-02 -0.22163762578E-01  0.35737005818E-01  0.00000000000E+00 0. -1.
  9000001    1    1    2    0    0  0.27701111220E-01 -0.43069305106E-02  0.22163762578E-01  0.35750994182E-01  0.10000000475E-02 0.  1.
</event>
<event>
 4   0  0.4892667E-02  0.9118800E+02  0.7818609E-02  0.1379984E+01
      -11   -1    0    0    0    0  0.00000000000E+00  0.00000000000E+00  0.35740347158E-01  0.35744000000E-01  0.51099999109E-03 0.  1.
       11   -1    0    0    0    0 -0.00000000000E+00 -0.00000000000E+00 -0.35740347158E-01  0.35744000000E-01  0.51099999109E-03 0. -1.
       22    1    1    2    0    0 -0.44587922983E-02 -0.50643491579E-02  0.35094232058E-01  0.35737005818E-01  0.00000000000E+00 0.  1.
  9000001    1    1    2    0    0  0.44587922983E-02  0.50643491579E-02 -0.35094232058E-01  0.35750994182E-01  0.10000000475E-02 0. -1.
</event>
<event>
 4   0  0.4892667E-02  0.9118800E+02  0.7818609E-02  0.1379984E+01
      -11   -1    0    0    0    0  0.00000000000E+00  0.00000000000E+00  0.35740347158E-01  0.35744000000E-01  0.51099999109E-03 0.  1.
       11   -1    0    0    0    0 -0.00000000000E+00 -0.00000000000E+00 -0.35740347158E-01  0.35744000000E-01  0.51099999109E-03 0. -1.
       22    1    1    2    0    0  0.16435921528E-02 -0.40695379749E-02  0.35466477840E-01  0.35737005818E-01  0.00000000000E+00 0.  1.
  9000001    1    1    2    0    0 -0.16435921528E-02  0.40695379749E-02 -0.35466477840E-01  0.35750994182E-01  0.10000000475E-02 0. -1.
</event>
<event>
 4   0  0.4892667E-02  0.9118800E+02  0.7818609E-02  0.1379984E+01
      -11   -1    0    0    0    0  0.00000000000E+00  0.00000000000E+00  0.35740347158E-01  0.35744000000E-01  0.51099999109E-03 0. -1.
       11   -1    0    0    0    0 -0.00000000000E+00 -0.00000000000E+00 -0.35740347158E-01  0.35744000000E-01  0.51099999109E-03 0.  1.
       22    1    1    2    0    0  0.30993448692E-02 -0.12529353800E-01 -0.33324809671E-01  0.35737005818E-01  0.00000000000E+00 0.  1.
  9000001    1    1    2    0    0 -0.30993448692E-02  0.12529353800E-01  0.33324809671E-01  0.35750994182E-01  0.10000000475E-02 0. -1.
</event>
<event>
 4   0  0.4892667E-02  0.9118800E+02  0.7818609E-02  0.1379984E+01
      -11   -1    0    0    0    0  0.00000000000E+00  0.00000000000E+00  0.35740347158E-01  0.35744000000E-01  0.51099999109E-03 0. -1.
       11   -1    0    0    0    0 -0.00000000000E+00 -0.00000000000E+00 -0.35740347158E-01  0.35744000000E-01  0.51099999109E-03 0.  1.
       22    1    1    2    0    0 -0.16040418732E-02  0.31495253183E-02 -0.35561793048E-01  0.35737005818E-01  0.00000000000E+00 0.  1.
  9000001    1    1    2    0    0  0.16040418732E-02 -0.31495253183E-02  0.35561793048E-01  0.35750994182E-01  0.10000000475E-02 0. -1.
</event>
<event>
 4   0  0.4892667E-02  0.9118800E+02  0.7818609E-02  0.1379984E+01
      -11   -1    0    0    0    0  0.00000000000E+00  0.00000000000E+00  0.35740347158E-01  0.35744000000E-01  0.51099999109E-03 0.  1.
       11   -1    0    0    0    0 -0.00000000000E+00 -0.00000000000E+00 -0.35740347158E-01  0.35744000000E-01  0.51099999109E-03 0. -1.
       22    1    1    2    0    0 -0.99801037384E-03 -0.19466821126E-01  0.29952970394E-01  0.35737005818E-01  0.00000000000E+00 0.  1.
  9000001    1    1    2    0    0  0.99801037384E-03  0.19466821126E-01 -0.29952970394E-01  0.35750994182E-01  0.10000000475E-02 0. -1.
</event>
<event>
 4   0  0.4892667E-02  0.9118800E+02  0.7818609E-02  0.1379984E+01
      -11   -1    0    0    0    0  0.00000000000E+00  0.00000000000E+00  0.35740347158E-01  0.35744000000E-01  0.51099999109E-03 0.  1.
       11   -1    0    0    0    0 -0.00000000000E+00 -0.00000000000E+00 -0.35740347158E-01  0.35744000000E-01  0.51099999109E-03 0. -1.
       22    1    1    2    0    0  0.19290554006E-01  0.22878903166E-01 -0.19533660715E-01  0.35737005818E-01  0.00000000000E+00 0. -1.
  9000001    1    1    2    0    0 -0.19290554006E-01 -0.22878903166E-01  0.19533660715E-01  0.35750994182E-01  0.10000000475E-02 0.  1.
</event>
<event>
 4   0  0.4892667E-02  0.9118800E+02  0.7818609E-02  0.1379984E+01
      -11   -1    0    0    0    0  0.00000000000E+00  0.00000000000E+00  0.35740347158E-01  0.35744000000E-01  0.51099999109E-03 0. -1.
       11   -1    0    0    0    0 -0.00000000000E+00 -0.00000000000E+00 -0.35740347158E-01  0.35744000000E-01  0.51099999109E-03 0.  1.
       22    1    1    2    0    0 -0.18536789900E-01 -0.93075048530E-02  0.29101397878E-01  0.35737005818E-01  0.00000000000E+00 0. -1.
  9000001    1    1    2    0    0  0.18536789900E-01  0.93075048530E-02 -0.29101397878E-01  0.35750994182E-01  0.10000000475E-02 0.  1.
</event>
<event>
 4   0  0.4892667E-02  0.9118800E+02  0.7818609E-02  0.1379984E+01
      -11   -1    0    0    0    0  0.00000000000E+00  0.00000000000E+00  0.35740347158E-01  0.35744000000E-01  0.51099999109E-03 0. -1.
       11   -1    0    0    0    0 -0.00000000000E+00 -0.00000000000E+00 -0.35740347158E-01  0.35744000000E-01  0.51099999109E-03 0.  1.
       22    1    1    2    0    0  0.75390915760E-02 -0.42818951878E-02 -0.34669310012E-01  0.35737005818E-01  0.00000000000E+00 0.  1.
  9000001    1    1    2    0    0 -0.75390915760E-02  0.42818951878E-02  0.34669310012E-01  0.35750994182E-01  0.10000000475E-02 0. -1.
</event>
<event>
 4   0  0.4892667E-02  0.9118800E+02  0.7818609E-02  0.1379984E+01
      -11   -1    0    0    0    0  0.00000000000E+00  0.00000000000E+00  0.35740347158E-01  0.35744000000E-01  0.51099999109E-03 0.  1.
       11   -1    0    0    0    0 -0.00000000000E+00 -0.00000000000E+00 -0.35740347158E-01  0.35744000000E-01  0.51099999109E-03 0. -1.
       22    1    1    2    0    0 -0.30362552027E-01  0.15431410863E-01 -0.10822226113E-01  0.35737005818E-01  0.00000000000E+00 0.  1.
  9000001    1    1    2    0    0  0.30362552027E-01 -0.15431410863E-01  0.10822226113E-01  0.35750994182E-01  0.10000000475E-02 0. -1.
</event>
<event>
 4   0  0.4892667E-02  0.9118800E+02  0.7818609E-02  0.1379984E+01
      -11   -1    0    0    0    0  0.00000000000E+00  0.00000000000E+00  0.35740347158E-01  0.35744000000E-01  0.51099999109E-03 0. -1.
       11   -1    0    0    0    0 -0.00000000000E+00 -0.00000000000E+00 -0.35740347158E-01  0.35744000000E-01  0.51099999109E-03 0.  1.
       22    1    1    2    0    0 -0.88353160205E-02 -0.83586438548E-02  0.33603628503E-01  0.35737005818E-01  0.00000000000E+00 0. -1.
  9000001    1    1    2    0    0  0.88353160205E-02  0.83586438548E-02 -0.33603628503E-01  0.35750994182E-01  0.10000000475E-02 0.  1.
</event>
<event>
 4   0  0.4892667E-02  0.9118800E+02  0.7818609E-02  0.1379984E+01
      -11   -1    0    0    0    0  0.00000000000E+00  0.00000000000E+00  0.35740347158E-01  0.35744000000E-01  0.51099999109E-03 0. -1.
       11   -1    0    0    0    0 -0.00000000000E+00 -0.00000000000E+00 -0.35740347158E-01  0.35744000000E-01  0.51099999109E-03 0.  1.
       22    1    1    2    0    0  0.24714343401E-02  0.26166780016E-02  0.35555289247E-01  0.35737005818E-01  0.00000000000E+00 0. -1.
  9000001    1    1    2    0    0 -0.24714343401E-02 -0.26166780016E-02 -0.35555289247E-01  0.35750994182E-01  0.10000000475E-02 0.  1.
</event>
<event>
 4   0  0.4892667E-02  0.9118800E+02  0.7818609E-02  0.1379984E+01
      -11   -1    0    0    0    0  0.00000000000E+00  0.00000000000E+00  0.35740347158E-01  0.35744000000E-01  0.51099999109E-03 0. -1.
       11   -1    0    0    0    0 -0.00000000000E+00 -0.00000000000E+00 -0.35740347158E-01  0.35744000000E-01  0.51099999109E-03 0.  1.
       22    1    1    2    0    0 -0.77969011322E-04  0.34305212994E-02 -0.35571885378E-01  0.35737005818E-01  0.00000000000E+00 0.  1.
  9000001    1    1    2    0    0  0.77969011322E-04 -0.34305212994E-02  0.35571885378E-01  0.35750994182E-01  0.10000000475E-02 0. -1.
</event>
<event>
 4   0  0.4892667E-02  0.9118800E+02  0.7818609E-02  0.1379984E+01
      -11   -1    0    0    0    0  0.00000000000E+00  0.00000000000E+00  0.35740347158E-01  0.35744000000E-01  0.51099999109E-03 0. -1.
       11   -1    0    0    0    0 -0.00000000000E+00 -0.00000000000E+00 -0.35740347158E-01  0.35744000000E-01  0.51099999109E-03 0.  1.
       22    1    1    2    0    0 -0.44441961393E-02  0.44208267641E-02 -0.35182936152E-01  0.35737005818E-01  0.00000000000E+00 0.  1.
  9000001    1    1    2    0    0  0.44441961393E-02 -0.44208267641E-02  0.35182936152E-01  0.35750994182E-01  0.10000000475E-02 0. -1.
</event>
<event>
 4   0  0.4892667E-02  0.9118800E+02  0.7818609E-02  0.1379984E+01
      -11   -1    0    0    0    0  0.00000000000E+00  0.00000000000E+00  0.35740347158E-01  0.35744000000E-01  0.51099999109E-03 0.  1.
       11   -1    0    0    0    0 -0.00000000000E+00 -0.00000000000E+00 -0.35740347158E-01  0.35744000000E-01  0.51099999109E-03 0. -1.
       22    1    1    2    0    0  0.24424653793E-01  0.11556738480E-02 -0.26062123664E-01  0.35737005818E-01  0.00000000000E+00 0. -1.
  9000001    1    1    2    0    0 -0.24424653793E-01 -0.11556738480E-02  0.26062123664E-01  0.35750994182E-01  0.10000000475E-02 0.  1.
</event>
<event>
 4   0  0.4892667E-02  0.9118800E+02  0.7818609E-02  0.1379984E+01
      -11   -1    0    0    0    0  0.00000000000E+00  0.00000000000E+00  0.35740347158E-01  0.35744000000E-01  0.51099999109E-03 0.  1.
       11   -1    0    0    0    0 -0.00000000000E+00 -0.00000000000E+00 -0.35740347158E-01  0.35744000000E-01  0.51099999109E-03 0. -1.
       22    1    1    2    0    0 -0.31652457208E-02  0.20510827418E-01 -0.29093311311E-01  0.35737005818E-01  0.00000000000E+00 0. -1.
  9000001    1    1    2    0    0  0.31652457208E-02 -0.20510827418E-01  0.29093311311E-01  0.35750994182E-01  0.10000000475E-02 0.  1.
</event>
<event>
 4   0  0.4892667E-02  0.9118800E+02  0.7818609E-02  0.1379984E+01
      -11   -1    0    0    0    0  0.00000000000E+00  0.00000000000E+00  0.35740347158E-01  0.35744000000E-01  0.51099999109E-03 0.  1.
       11   -1    0    0    0    0 -0.00000000000E+00 -0.00000000000E+00 -0.35740347158E-01  0.35744000000E-01  0.51099999109E-03 0. -1.
       22    1    1    2    0    0 -0.15476517844E-04  0.33629745260E-02 -0.35578416880E-01  0.35737005818E-01  0.00000000000E+00 0. -1.
  9000001    1    1    2    0    0  0.15476517844E-04 -0.33629745260E-02  0.35578416880E-01  0.35750994182E-01  0.10000000475E-02 0.  1.
</event>
<event>
 4   0  0.4892667E-02  0.9118800E+02  0.7818609E-02  0.1379984E+01
      -11   -1    0    0    0    0  0.00000000000E+00  0.00000000000E+00  0.35740347158E-01  0.35744000000E-01  0.51099999109E-03 0. -1.
       11   -1    0    0    0    0 -0.00000000000E+00 -0.00000000000E+00 -0.35740347158E-01  0.35744000000E-01  0.51099999109E-03 0.  1.
       22    1    1    2    0    0 -0.35806442072E-02 -0.27189683971E-01  0.22913612930E-01  0.35737005818E-01  0.00000000000E+00 0. -1.
  9000001    1    1    2    0    0  0.35806442072E-02  0.27189683971E-01 -0.22913612930E-01  0.35750994182E-01  0.10000000475E-02 0.  1.
</event>
<event>
 4   0  0.4892667E-02  0.9118800E+02  0.7818609E-02  0.1379984E+01
      -11   -1    0    0    0    0  0.00000000000E+00  0.00000000000E+00  0.35740347158E-01  0.35744000000E-01  0.51099999109E-03 0.  1.
       11   -1    0    0    0    0 -0.00000000000E+00 -0.00000000000E+00 -0.35740347158E-01  0.35744000000E-01  0.51099999109E-03 0. -1.
       22    1    1    2    0    0  0.26837965297E-01 -0.11533212166E-01 -0.20587428706E-01  0.35737005818E-01  0.00000000000E+00 0. -1.
  9000001    1    1    2    0    0 -0.26837965297E-01  0.11533212166E-01  0.20587428706E-01  0.35750994182E-01  0.10000000475E-02 0.  1.
</event>
<event>
 4   0  0.4892667E-02  0.9118800E+02  0.7818609E-02  0.1379984E+01
      -11   -1    0    0    0    0  0.00000000000E+00  0.00000000000E+00  0.35740347158E-01  0.35744000000E-01  0.51099999109E-03 0. -1.
       11   -1    0    0    0    0 -0.00000000000E+00 -0.00000000000E+00 -0.35740347158E-01  0.35744000000E-01  0.51099999109E-03 0.  1.
       22    1    1    2    0    0  0.79725924629E-02  0.18763376331E-01  0.29351440560E-01  0.35737005818E-01  0.00000000000E+00 0. -1.
  9000001    1    1    2    0    0 -0.79725924629E-02 -0.18763376331E-01 -0.29351440560E-01  0.35750994182E-01  0.10000000475E-02 0.  1.
</event>
<event>
 4   0  0.4892667E-02  0.9118800E+02  0.7818609E-02  0.1379984E+01
      -11   -1    0    0    0    0  0.00000000000E+00  0.00000000000E+00  0.35740347158E-01  0.35744000000E-01  0.51099999109E-03 0.  1.
       11   -1    0    0    0    0 -0.00000000000E+00 -0.00000000000E+00 -0.35740347158E-01  0.35744000000E-01  0.51099999109E-03 0. -1.
       22    1    1    2    0    0 -0.53040302733E-02  0.58019475756E-02 -0.34861701795E-01  0.35737005818E-01  0.00000000000E+00 0. -1.
  9000001    1    1    2    0    0  0.53040302733E-02 -0.58019475756E-02  0.34861701795E-01  0.35750994182E-01  0.10000000475E-02 0.  1.
</event>
<event>
 4   0  0.4892667E-02  0.9118800E+02  0.7818609E-02  0.1379984E+01
      -11   -1    0    0    0    0  0.00000000000E+00  0.00000000000E+00  0.35740347158E-01  0.35744000000E-01  0.51099999109E-03 0. -1.
       11   -1    0    0    0    0 -0.00000000000E+00 -0.00000000000E+00 -0.35740347158E-01  0.35744000000E-01  0.51099999109E-03 0.  1.
       22    1    1    2    0    0  0.37016134714E-02 -0.36638751735E-02  0.35355447406E-01  0.35737005818E-01  0.00000000000E+00 0. -1.
  9000001    1    1    2    0    0 -0.37016134714E-02  0.36638751735E-02 -0.35355447406E-01  0.35750994182E-01  0.10000000475E-02 0.  1.
</event>
<event>
 4   0  0.4892667E-02  0.9118800E+02  0.7818609E-02  0.1379984E+01
      -11   -1    0    0    0    0  0.00000000000E+00  0.00000000000E+00  0.35740347158E-01  0.35744000000E-01  0.51099999109E-03 0. -1.
       11   -1    0    0    0    0 -0.00000000000E+00 -0.00000000000E+00 -0.35740347158E-01  0.35744000000E-01  0.51099999109E-03 0.  1.
       22    1    1    2    0    0 -0.54451856842E-02 -0.63325257938E-02  0.34747412203E-01  0.35737005818E-01  0.00000000000E+00 0. -1.
  9000001    1    1    2    0    0  0.54451856842E-02  0.63325257938E-02 -0.34747412203E-01  0.35750994182E-01  0.10000000475E-02 0.  1.
</event>
<event>
 4   0  0.4892667E-02  0.9118800E+02  0.7818609E-02  0.1379984E+01
      -11   -1    0    0    0    0  0.00000000000E+00  0.00000000000E+00  0.35740347158E-01  0.35744000000E-01  0.51099999109E-03 0. -1.
       11   -1    0    0    0    0 -0.00000000000E+00 -0.00000000000E+00 -0.35740347158E-01  0.35744000000E-01  0.51099999109E-03 0.  1.
       22    1    1    2    0    0  0.63747450543E-02 -0.85946572638E-02  0.34097332401E-01  0.35737005818E-01  0.00000000000E+00 0. -1.
  9000001    1    1    2    0    0 -0.63747450543E-02  0.85946572638E-02 -0.34097332401E-01  0.35750994182E-01  0.10000000475E-02 0.  1.
</event>
<event>
 4   0  0.4892667E-02  0.9118800E+02  0.7818609E-02  0.1379984E+01
      -11   -1    0    0    0    0  0.00000000000E+00  0.00000000000E+00  0.35740347158E-01  0.35744000000E-01  0.51099999109E-03 0.  1.
       11   -1    0    0    0    0 -0.00000000000E+00 -0.00000000000E+00 -0.35740347158E-01  0.35744000000E-01  0.51099999109E-03 0. -1.
       22    1    1    2    0    0 -0.44297157281E-02 -0.12399821502E-03 -0.35461187627E-01  0.35737005818E-01  0.00000000000E+00 0. -1.
  9000001    1    1    2    0    0  0.44297157281E-02  0.12399821502E-03  0.35461187627E-01  0.35750994182E-01  0.10000000475E-02 0.  1.
</event>
<event>
 4   0  0.4892667E-02  0.9118800E+02  0.7818609E-02  0.1379984E+01
      -11   -1    0    0    0    0  0.00000000000E+00  0.00000000000E+00  0.35740347158E-01  0.35744000000E-01  0.51099999109E-03 0. -1.
       11   -1    0    0    0    0 -0.00000000000E+00 -0.00000000000E+00 -0.35740347158E-01  0.35744000000E-01  0.51099999109E-03 0.  1.
       22    1    1    2    0    0 -0.46617516649E-02  0.40491159730E-02  0.35199521533E-01  0.35737005818E-01  0.00000000000E+00 0. -1.
  9000001    1    1    2    0    0  0.46617516649E-02 -0.40491159730E-02 -0.35199521533E-01  0.35750994182E-01  0.10000000475E-02 0.  1.
</event>
<event>
 4   0  0.4892667E-02  0.9118800E+02  0.7818609E-02  0.1379984E+01
      -11   -1    0    0    0    0  0.00000000000E+00  0.00000000000E+00  0.35740347158E-01  0.35744000000E-01  0.51099999109E-03 0.  1.
       11   -1    0    0    0    0 -0.00000000000E+00 -0.00000000000E+00 -0.35740347158E-01  0.35744000000E-01  0.51099999109E-03 0. -1.
       22    1    1    2    0    0  0.62409988992E-02 -0.33166266478E-01  0.11755096151E-01  0.35737005818E-01  0.00000000000E+00 0.  1.
  9000001    1    1    2    0    0 -0.62409988992E-02  0.33166266478E-01 -0.11755096151E-01  0.35750994182E-01  0.10000000475E-02 0. -1.
</event>
<event>
 4   0  0.4892667E-02  0.9118800E+02  0.7818609E-02  0.1379984E+01
      -11   -1    0    0    0    0  0.00000000000E+00  0.00000000000E+00  0.35740347158E-01  0.35744000000E-01  0.51099999109E-03 0. -1.
       11   -1    0    0    0    0 -0.00000000000E+00 -0.00000000000E+00 -0.35740347158E-01  0.35744000000E-01  0.51099999109E-03 0.  1.
       22    1    1    2    0    0  0.34850765724E-01  0.73068479545E-02 -0.30278187400E-02  0.35737005818E-01  0.00000000000E+00 0.  1.
  9000001    1    1    2    0    0 -0.34850765724E-01 -0.73068479545E-02  0.30278187400E-02  0.35750994182E-01  0.10000000475E-02 0. -1.
</event>
<event>
 4   0  0.4892667E-02  0.9118800E+02  0.7818609E-02  0.1379984E+01
      -11   -1    0    0    0    0  0.00000000000E+00  0.00000000000E+00  0.35740347158E-01  0.35744000000E-01  0.51099999109E-03 0.  1.
       11   -1    0    0    0    0 -0.00000000000E+00 -0.00000000000E+00 -0.35740347158E-01  0.35744000000E-01  0.51099999109E-03 0. -1.
       22    1    1    2    0    0 -0.68532357025E-02  0.19558182353E-01  0.29114330635E-01  0.35737005818E-01  0.00000000000E+00 0.  1.
  9000001    1    1    2    0    0  0.68532357025E-02 -0.19558182353E-01 -0.29114330635E-01  0.35750994182E-01  0.10000000475E-02 0. -1.
</event>
<event>
 4   0  0.4892667E-02  0.9118800E+02  0.7818609E-02  0.1379984E+01
      -11   -1    0    0    0    0  0.00000000000E+00  0.00000000000E+00  0.35740347158E-01  0.35744000000E-01  0.51099999109E-03 0.  1.
       11   -1    0    0    0    0 -0.00000000000E+00 -0.00000000000E+00 -0.35740347158E-01  0.35744000000E-01  0.51099999109E-03 0. -1.
       22    1    1    2    0    0 -0.50876968136E-02  0.73457874736E-02 -0.34601854465E-01  0.35737005818E-01  0.00000000000E+00 0. -1.
  9000001    1    1    2    0    0  0.50876968136E-02 -0.73457874736E-02  0.34601854465E-01  0.35750994182E-01  0.10000000475E-02 0.  1.
</event>
<event>
 4   0  0.4892667E-02  0.9118800E+02  0.7818609E-02  0.1379984E+01
      -11   -1    0    0    0    0  0.00000000000E+00  0.00000000000E+00  0.35740347158E-01  0.35744000000E-01  0.51099999109E-03 0. -1.
       11   -1    0    0    0    0 -0.00000000000E+00 -0.00000000000E+00 -0.35740347158E-01  0.35744000000E-01  0.51099999109E-03 0.  1.
       22    1    1    2    0    0  0.11327682525E-01  0.35074126528E-02  0.33712241841E-01  0.35737005818E-01  0.00000000000E+00 0. -1.
  9000001    1    1    2    0    0 -0.11327682525E-01 -0.35074126528E-02 -0.33712241841E-01  0.35750994182E-01  0.10000000475E-02 0.  1.
</event>
<event>
 4   0  0.4892667E-02  0.9118800E+02  0.7818609E-02  0.1379984E+01
      -11   -1    0    0    0    0  0.00000000000E+00  0.00000000000E+00  0.35740347158E-01  0.35744000000E-01  0.51099999109E-03 0. -1.
       11   -1    0    0    0    0 -0.00000000000E+00 -0.00000000000E+00 -0.35740347158E-01  0.35744000000E-01  0.51099999109E-03 0.  1.
       22    1    1    2    0    0  0.40011761553E-02 -0.50422132513E-02 -0.35152528498E-01  0.35737005818E-01  0.00000000000E+00 0.  1.
  9000001    1    1    2    0    0 -0.40011761553E-02  0.50422132513E-02  0.35152528498E-01  0.35750994182E-01  0.10000000475E-02 0. -1.
</event>
<event>
 4   0  0.4892667E-02  0.9118800E+02  0.7818609E-02  0.1379984E+01
      -11   -1    0    0    0    0  0.00000000000E+00  0.00000000000E+00  0.35740347158E-01  0.35744000000E-01  0.51099999109E-03 0.  1.
       11   -1    0    0    0    0 -0.00000000000E+00 -0.00000000000E+00 -0.35740347158E-01  0.35744000000E-01  0.51099999109E-03 0. -1.
       22    1    1    2    0    0 -0.33280614475E-02  0.72840533908E-02  0.34828151804E-01  0.35737005818E-01  0.00000000000E+00 0.  1.
  9000001    1    1    2    0    0  0.33280614475E-02 -0.72840533908E-02 -0.34828151804E-01  0.35750994182E-01  0.10000000475E-02 0. -1.
</event>
<event>
 4   0  0.4892667E-02  0.9118800E+02  0.7818609E-02  0.1379984E+01
      -11   -1    0    0    0    0  0.00000000000E+00  0.00000000000E+00  0.35740347158E-01  0.35744000000E-01  0.51099999109E-03 0.  1.
       11   -1    0    0    0    0 -0.00000000000E+00 -0.00000000000E+00 -0.35740347158E-01  0.35744000000E-01  0.51099999109E-03 0. -1.
       22    1    1    2    0    0  0.28845401557E-02 -0.70084663529E-02  0.34924123645E-01  0.35737005818E-01  0.00000000000E+00 0.  1.
  9000001    1    1    2    0    0 -0.28845401557E-02  0.70084663529E-02 -0.34924123645E-01  0.35750994182E-01  0.10000000475E-02 0. -1.
</event>
<event>
 4   0  0.4892667E-02  0.9118800E+02  0.7818609E-02  0.1379984E+01
      -11   -1    0    0    0    0  0.00000000000E+00  0.00000000000E+00  0.35740347158E-01  0.35744000000E-01  0.51099999109E-03 0.  1.
       11   -1    0    0    0    0 -0.00000000000E+00 -0.00000000000E+00 -0.35740347158E-01  0.35744000000E-01  0.51099999109E-03 0. -1.
       22    1    1    2    0    0 -0.23262069340E-02 -0.29378363967E-02 -0.35539998079E-01  0.35737005818E-01  0.00000000000E+00 0. -1.
  9000001    1    1    2    0    0  0.23262069340E-02  0.29378363967E-02  0.35539998079E-01  0.35750994182E-01  0.10000000475E-02 0.  1.
</event>
<event>
 4   0  0.4892667E-02  0.9118800E+02  0.7818609E-02  0.1379984E+01
      -11   -1    0    0    0    0  0.00000000000E+00  0.00000000000E+00  0.35740347158E-01  0.35744000000E-01  0.51099999109E-03 0. -1.
       11   -1    0    0    0    0 -0.00000000000E+00 -0.00000000000E+00 -0.35740347158E-01  0.35744000000E-01  0.51099999109E-03 0.  1.
       22    1    1    2    0    0 -0.24201247479E-02  0.28919310552E-01 -0.20855456319E-01  0.35737005818E-01  0.00000000000E+00 0.  1.
  9000001    1    1    2    0    0  0.24201247479E-02 -0.28919310552E-01  0.20855456319E-01  0.35750994182E-01  0.10000000475E-02 0. -1.
</event>
<event>
 4   0  0.4892667E-02  0.9118800E+02  0.7818609E-02  0.1379984E+01
      -11   -1    0    0    0    0  0.00000000000E+00  0.00000000000E+00  0.35740347158E-01  0.35744000000E-01  0.51099999109E-03 0. -1.
       11   -1    0    0    0    0 -0.00000000000E+00 -0.00000000000E+00 -0.35740347158E-01  0.35744000000E-01  0.51099999109E-03 0.  1.
       22    1    1    2    0    0  0.13332043526E-01 -0.79103274686E-02  0.32199641607E-01  0.35737005818E-01  0.00000000000E+00 0. -1.
  9000001    1    1    2    0    0 -0.13332043526E-01  0.79103274686E-02 -0.32199641607E-01  0.35750994182E-01  0.10000000475E-02 0.  1.
</event>
<event>
 4   0  0.4892667E-02  0.9118800E+02  0.7818609E-02  0.1379984E+01
      -11   -1    0    0    0    0  0.00000000000E+00  0.00000000000E+00  0.35740347158E-01  0.35744000000E-01  0.51099999109E-03 0. -1.
       11   -1    0    0    0    0 -0.00000000000E+00 -0.00000000000E+00 -0.35740347158E-01  0.35744000000E-01  0.51099999109E-03 0.  1.
       22    1    1    2    0    0  0.17911462461E-01 -0.72629607768E-02  0.30059316329E-01  0.35737005818E-01  0.00000000000E+00 0. -1.
  9000001    1    1    2    0    0 -0.17911462461E-01  0.72629607768E-02 -0.30059316329E-01  0.35750994182E-01  0.10000000475E-02 0.  1.
</event>
<event>
 4   0  0.4892667E-02  0.9118800E+02  0.7818609E-02  0.1379984E+01
      -11   -1    0    0    0    0  0.00000000000E+00  0.00000000000E+00  0.35740347158E-01  0.35744000000E-01  0.51099999109E-03 0.  1.
       11   -1    0    0    0    0 -0.00000000000E+00 -0.00000000000E+00 -0.35740347158E-01  0.35744000000E-01  0.51099999109E-03 0. -1.
       22    1    1    2    0    0  0.86514926774E-02  0.11405255439E-01  0.32744547755E-01  0.35737005818E-01  0.00000000000E+00 0.  1.
  9000001    1    1    2    0    0 -0.86514926774E-02 -0.11405255439E-01 -0.32744547755E-01  0.35750994182E-01  0.10000000475E-02 0. -1.
</event>
<event>
 4   0  0.4892667E-02  0.9118800E+02  0.7818609E-02  0.1379984E+01
      -11   -1    0    0    0    0  0.00000000000E+00  0.00000000000E+00  0.35740347158E-01  0.35744000000E-01  0.51099999109E-03 0.  1.
       11   -1    0    0    0    0 -0.00000000000E+00 -0.00000000000E+00 -0.35740347158E-01  0.35744000000E-01  0.51099999109E-03 0. -1.
       22    1    1    2    0    0 -0.53008491772E-02 -0.95935832497E-02 -0.34014669531E-01  0.35737005818E-01  0.00000000000E+00 0. -1.
  9000001    1    1    2    0    0  0.53008491772E-02  0.95935832497E-02  0.34014669531E-01  0.35750994182E-01  0.10000000475E-02 0.  1.
</event>
<event>
 4   0  0.4892667E-02  0.9118800E+02  0.7818609E-02  0.1379984E+01
      -11   -1    0    0    0    0  0.00000000000E+00  0.00000000000E+00  0.35740347158E-01  0.35744000000E-01  0.51099999109E-03 0. -1.
       11   -1    0    0    0    0 -0.00000000000E+00 -0.00000000000E+00 -0.35740347158E-01  0.35744000000E-01  0.51099999109E-03 0.  1.
       22    1    1    2    0    0  0.24550761859E-02  0.29324326058E-02 -0.35531774861E-01  0.35737005818E-01  0.00000000000E+00 0.  1.
  9000001    1    1    2    0    0 -0.24550761859E-02 -0.29324326058E-02  0.35531774861E-01  0.35750994182E-01  0.10000000475E-02 0. -1.
</event>
<event>
 4   0  0.4892667E-02  0.9118800E+02  0.7818609E-02  0.1379984E+01
      -11   -1    0    0    0    0  0.00000000000E+00  0.00000000000E+00  0.35740347158E-01  0.35744000000E-01  0.51099999109E-03 0.  1.
       11   -1    0    0    0    0 -0.00000000000E+00 -0.00000000000E+00 -0.35740347158E-01  0.35744000000E-01  0.51099999109E-03 0. -1.
       22    1    1    2    0    0 -0.22584548529E-01 -0.68897548923E-02 -0.26825417614E-01  0.35737005818E-01  0.00000000000E+00 0. -1.
  9000001    1    1    2    0    0  0.22584548529E-01  0.68897548923E-02  0.26825417614E-01  0.35750994182E-01  0.10000000475E-02 0.  1.
</event>
<event>
 4   0  0.4892667E-02  0.9118800E+02  0.7818609E-02  0.1379984E+01
      -11   -1    0    0    0    0  0.00000000000E+00  0.00000000000E+00  0.35740347158E-01  0.35744000000E-01  0.51099999109E-03 0.  1.
       11   -1    0    0    0    0 -0.00000000000E+00 -0.00000000000E+00 -0.35740347158E-01  0.35744000000E-01  0.51099999109E-03 0. -1.
       22    1    1    2    0    0 -0.23495896959E-01  0.74101981439E-03  0.26917044797E-01  0.35737005818E-01  0.00000000000E+00 0.  1.
  9000001    1    1    2    0    0  0.23495896959E-01 -0.74101981439E-03 -0.26917044797E-01  0.35750994182E-01  0.10000000475E-02 0. -1.
</event>
<event>
 4   0  0.4892667E-02  0.9118800E+02  0.7818609E-02  0.1379984E+01
      -11   -1    0    0    0    0  0.00000000000E+00  0.00000000000E+00  0.35740347158E-01  0.35744000000E-01  0.51099999109E-03 0. -1.
       11   -1    0    0    0    0 -0.00000000000E+00 -0.00000000000E+00 -0.35740347158E-01  0.35744000000E-01  0.51099999109E-03 0.  1.
       22    1    1    2    0    0 -0.48926201686E-02  0.19610037474E-02 -0.35346149961E-01  0.35737005818E-01  0.00000000000E+00 0.  1.
  9000001    1    1    2    0    0  0.48926201686E-02 -0.19610037474E-02  0.35346149961E-01  0.35750994182E-01  0.10000000475E-02 0. -1.
</event>
<event>
 4   0  0.4892667E-02  0.9118800E+02  0.7818609E-02  0.1379984E+01
      -11   -1    0    0    0    0  0.00000000000E+00  0.00000000000E+00  0.35740347158E-01  0.35744000000E-01  0.51099999109E-03 0. -1.
       11   -1    0    0    0    0 -0.00000000000E+00 -0.00000000000E+00 -0.35740347158E-01  0.35744000000E-01  0.51099999109E-03 0.  1.
       22    1    1    2    0    0  0.14417643132E-01  0.21730445446E-01 -0.24434665787E-01  0.35737005818E-01  0.00000000000E+00 0.  1.
  9000001    1    1    2    0    0 -0.14417643132E-01 -0.21730445446E-01  0.24434665787E-01  0.35750994182E-01  0.10000000475E-02 0. -1.
</event>
<event>
 4   0  0.4892667E-02  0.9118800E+02  0.7818609E-02  0.1379984E+01
      -11   -1    0    0    0    0  0.00000000000E+00  0.00000000000E+00  0.35740347158E-01  0.35744000000E-01  0.51099999109E-03 0. -1.
       11   -1    0    0    0    0 -0.00000000000E+00 -0.00000000000E+00 -0.35740347158E-01  0.35744000000E-01  0.51099999109E-03 0.  1.
       22    1    1    2    0    0  0.13017296073E-01 -0.51628718099E-02  0.32878995460E-01  0.35737005818E-01  0.00000000000E+00 0. -1.
  9000001    1    1    2    0    0 -0.13017296073E-01  0.51628718099E-02 -0.32878995460E-01  0.35750994182E-01  0.10000000475E-02 0.  1.
</event>
<event>
 4   0  0.4892667E-02  0.9118800E+02  0.7818609E-02  0.1379984E+01
      -11   -1    0    0    0    0  0.00000000000E+00  0.00000000000E+00  0.35740347158E-01  0.35744000000E-01  0.51099999109E-03 0.  1.
       11   -1    0    0    0    0 -0.00000000000E+00 -0.00000000000E+00 -0.35740347158E-01  0.35744000000E-01  0.51099999109E-03 0. -1.
       22    1    1    2    0    0  0.17581857103E-02 -0.56321316820E-02 -0.35246580836E-01  0.35737005818E-01  0.00000000000E+00 0. -1.
  9000001    1    1    2    0    0 -0.17581857103E-02  0.56321316820E-02  0.35246580836E-01  0.35750994182E-01  0.10000000475E-02 0.  1.
</event>
<event>
 4   0  0.4892667E-02  0.9118800E+02  0.7818609E-02  0.1379984E+01
      -11   -1    0    0    0    0  0.00000000000E+00  0.00000000000E+00  0.35740347158E-01  0.35744000000E-01  0.51099999109E-03 0. -1.
       11   -1    0    0    0    0 -0.00000000000E+00 -0.00000000000E+00 -0.35740347158E-01  0.35744000000E-01  0.51099999109E-03 0.  1.
       22    1    1    2    0    0  0.65803900491E-03  0.53745271572E-02 -0.35324425365E-01  0.35737005818E-01  0.00000000000E+00 0.  1.
  9000001    1    1    2    0    0 -0.65803900491E-03 -0.53745271572E-02  0.35324425365E-01  0.35750994182E-01  0.10000000475E-02 0. -1.
</event>
<event>
 4   0  0.4892667E-02  0.9118800E+02  0.7818609E-02  0.1379984E+01
      -11   -1    0    0    0    0  0.00000000000E+00  0.00000000000E+00  0.35740347158E-01  0.35744000000E-01  0.51099999109E-03 0. -1.
       11   -1    0    0    0    0 -0.00000000000E+00 -0.00000000000E+00 -0.35740347158E-01  0.35744000000E-01  0.51099999109E-03 0.  1.
       22    1    1    2    0    0  0.16102635441E-02  0.41980527857E-02 -0.35453025104E-01  0.35737005818E-01  0.00000000000E+00 0.  1.
  9000001    1    1    2    0    0 -0.16102635441E-02 -0.41980527857E-02  0.35453025104E-01  0.35750994182E-01  0.10000000475E-02 0. -1.
</event>
<event>
 4   0  0.4892667E-02  0.9118800E+02  0.7818609E-02  0.1379984E+01
      -11   -1    0    0    0    0  0.00000000000E+00  0.00000000000E+00  0.35740347158E-01  0.35744000000E-01  0.51099999109E-03 0. -1.
       11   -1    0    0    0    0 -0.00000000000E+00 -0.00000000000E+00 -0.35740347158E-01  0.35744000000E-01  0.51099999109E-03 0.  1.
       22    1    1    2    0    0 -0.88152341680E-02 -0.15086478674E-03 -0.34632390493E-01  0.35737005818E-01  0.00000000000E+00 0.  1.
  9000001    1    1    2    0    0  0.88152341680E-02  0.15086478674E-03  0.34632390493E-01  0.35750994182E-01  0.10000000475E-02 0. -1.
</event>
<event>
 4   0  0.4892667E-02  0.9118800E+02  0.7818609E-02  0.1379984E+01
      -11   -1    0    0    0    0  0.00000000000E+00  0.00000000000E+00  0.35740347158E-01  0.35744000000E-01  0.51099999109E-03 0.  1.
       11   -1    0    0    0    0 -0.00000000000E+00 -0.00000000000E+00 -0.35740347158E-01  0.35744000000E-01  0.51099999109E-03 0. -1.
       22    1    1    2    0    0  0.38154157631E-02 -0.13226825974E-03  0.35532501918E-01  0.35737005818E-01  0.00000000000E+00 0.  1.
  9000001    1    1    2    0    0 -0.38154157631E-02  0.13226825974E-03 -0.35532501918E-01  0.35750994182E-01  0.10000000475E-02 0. -1.
</event>
<event>
 4   0  0.4892667E-02  0.9118800E+02  0.7818609E-02  0.1379984E+01
      -11   -1    0    0    0    0  0.00000000000E+00  0.00000000000E+00  0.35740347158E-01  0.35744000000E-01  0.51099999109E-03 0.  1.
       11   -1    0    0    0    0 -0.00000000000E+00 -0.00000000000E+00 -0.35740347158E-01  0.35744000000E-01  0.51099999109E-03 0. -1.
       22    1    1    2    0    0  0.12179225296E-01 -0.16252966713E-01 -0.29404780718E-01  0.35737005818E-01  0.00000000000E+00 0. -1.
  9000001    1    1    2    0    0 -0.12179225296E-01  0.16252966713E-01  0.29404780718E-01  0.35750994182E-01  0.10000000475E-02 0.  1.
</event>
<event>
 4   0  0.4892667E-02  0.9118800E+02  0.7818609E-02  0.1379984E+01
      -11   -1    0    0    0    0  0.00000000000E+00  0.00000000000E+00  0.35740347158E-01  0.35744000000E-01  0.51099999109E-03 0. -1.
       11   -1    0    0    0    0 -0.00000000000E+00 -0.00000000000E+00 -0.35740347158E-01  0.35744000000E-01  0.51099999109E-03 0.  1.
       22    1    1    2    0    0 -0.28828977014E-02 -0.21838968788E-02  0.35553524159E-01  0.35737005818E-01  0.00000000000E+00 0. -1.
  9000001    1    1    2    0    0  0.28828977014E-02  0.21838968788E-02 -0.35553524159E-01  0.35750994182E-01  0.10000000475E-02 0.  1.
</event>
<event>
 4   0  0.4892667E-02  0.9118800E+02  0.7818609E-02  0.1379984E+01
      -11   -1    0    0    0    0  0.00000000000E+00  0.00000000000E+00  0.35740347158E-01  0.35744000000E-01  0.51099999109E-03 0.  1.
       11   -1    0    0    0    0 -0.00000000000E+00 -0.00000000000E+00 -0.35740347158E-01  0.35744000000E-01  0.51099999109E-03 0. -1.
       22    1    1    2    0    0 -0.50955851431E-02 -0.23193746670E-02 -0.35295737676E-01  0.35737005818E-01  0.00000000000E+00 0. -1.
  9000001    1    1    2    0    0  0.50955851431E-02  0.23193746670E-02  0.35295737676E-01  0.35750994182E-01  0.10000000475E-02 0.  1.
</event>
<event>
 4   0  0.4892667E-02  0.9118800E+02  0.7818609E-02  0.1379984E+01
      -11   -1    0    0    0    0  0.00000000000E+00  0.00000000000E+00  0.35740347158E-01  0.35744000000E-01  0.51099999109E-03 0.  1.
       11   -1    0    0    0    0 -0.00000000000E+00 -0.00000000000E+00 -0.35740347158E-01  0.35744000000E-01  0.51099999109E-03 0. -1.
       22    1    1    2    0    0  0.18868269966E-01  0.25215473350E-01 -0.16890881478E-01  0.35737005818E-01  0.00000000000E+00 0. -1.
  9000001    1    1    2    0    0 -0.18868269966E-01 -0.25215473350E-01  0.16890881478E-01  0.35750994182E-01  0.10000000475E-02 0.  1.
</event>
<event>
 4   0  0.4892667E-02  0.9118800E+02  0.7818609E-02  0.1379984E+01
      -11   -1    0    0    0    0  0.00000000000E+00  0.00000000000E+00  0.35740347158E-01  0.35744000000E-01  0.51099999109E-03 0.  1.
       11   -1    0    0    0    0 -0.00000000000E+00 -0.00000000000E+00 -0.35740347158E-01  0.35744000000E-01  0.51099999109E-03 0. -1.
       22    1    1    2    0    0  0.41461121858E-02  0.15929944742E-01 -0.31720343616E-01  0.35737005818E-01  0.00000000000E+00 0. -1.
  9000001    1    1    2    0    0 -0.41461121858E-02 -0.15929944742E-01  0.31720343616E-01  0.35750994182E-01  0.10000000475E-02 0.  1.
</event>
<event>
 4   0  0.4892667E-02  0.9118800E+02  0.7818609E-02  0.1379984E+01
      -11   -1    0    0    0    0  0.00000000000E+00  0.00000000000E+00  0.35740347158E-01  0.35744000000E-01  0.51099999109E-03 0. -1.
       11   -1    0    0    0    0 -0.00000000000E+00 -0.00000000000E+00 -0.35740347158E-01  0.35744000000E-01  0.51099999109E-03 0.  1.
       22    1    1    2    0    0  0.23614837811E-01 -0.21654057321E-01 -0.15829555318E-01  0.35737005818E-01  0.00000000000E+00 0.  1.
  9000001    1    1    2    0    0 -0.23614837811E-01  0.21654057321E-01  0.15829555318E-01  0.35750994182E-01  0.10000000475E-02 0. -1.
</event>
<event>
 4   0  0.4892667E-02  0.9118800E+02  0.7818609E-02  0.1379984E+01
      -11   -1    0    0    0    0  0.00000000000E+00  0.00000000000E+00  0.35740347158E-01  0.35744000000E-01  0.51099999109E-03 0.  1.
       11   -1    0    0    0    0 -0.00000000000E+00 -0.00000000000E+00 -0.35740347158E-01  0.35744000000E-01  0.51099999109E-03 0. -1.
       22    1    1    2    0    0  0.11554833852E-02  0.31595752191E-02 -0.35578301357E-01  0.35737005818E-01  0.00000000000E+00 0. -1.
  9000001    1    1    2    0    0 -0.11554833852E-02 -0.31595752191E-02  0.35578301357E-01  0.35750994182E-01  0.10000000475E-02 0.  1.
</event>
<event>
 4   0  0.4892667E-02  0.9118800E+02  0.7818609E-02  0.1379984E+01
      -11   -1    0    0    0    0  0.00000000000E+00  0.00000000000E+00  0.35740347158E-01  0.35744000000E-01  0.51099999109E-03 0. -1.
       11   -1    0    0    0    0 -0.00000000000E+00 -0.00000000000E+00 -0.35740347158E-01  0.35744000000E-01  0.51099999109E-03 0.  1.
       22    1    1    2    0    0 -0.13075729904E-01 -0.68874664656E-02 -0.32538003596E-01  0.35737005818E-01  0.00000000000E+00 0.  1.
  9000001    1    1    2    0    0  0.13075729904E-01  0.68874664656E-02  0.32538003596E-01  0.35750994182E-01  0.10000000475E-02 0. -1.
</event>
<event>
 4   0  0.4892667E-02  0.9118800E+02  0.7818609E-02  0.1379984E+01
      -11   -1    0    0    0    0  0.00000000000E+00  0.00000000000E+00  0.35740347158E-01  0.35744000000E-01  0.51099999109E-03 0.  1.
       11   -1    0    0    0    0 -0.00000000000E+00 -0.00000000000E+00 -0.35740347158E-01  0.35744000000E-01  0.51099999109E-03 0. -1.
       22    1    1    2    0    0  0.19579075166E-02  0.18068562743E-01  0.30770557737E-01  0.35737005818E-01  0.00000000000E+00 0.  1.
  9000001    1    1    2    0    0 -0.19579075166E-02 -0.18068562743E-01 -0.30770557737E-01  0.35750994182E-01  0.10000000475E-02 0. -1.
</event>
<event>
 4   0  0.4892667E-02  0.9118800E+02  0.7818609E-02  0.1379984E+01
      -11   -1    0    0    0    0  0.00000000000E+00  0.00000000000E+00  0.35740347158E-01  0.35744000000E-01  0.51099999109E-03 0.  1.
       11   -1    0    0    0    0 -0.00000000000E+00 -0.00000000000E+00 -0.35740347158E-01  0.35744000000E-01  0.51099999109E-03 0. -1.
       22    1    1    2    0    0  0.43445433010E-02  0.64953145348E-02 -0.34872186875E-01  0.35737005818E-01  0.00000000000E+00 0. -1.
  9000001    1    1    2    0    0 -0.43445433010E-02 -0.64953145348E-02  0.34872186875E-01  0.35750994182E-01  0.10000000475E-02 0.  1.
</event>
<event>
 4   0  0.4892667E-02  0.9118800E+02  0.7818609E-02  0.1379984E+01
      -11   -1    0    0    0    0  0.00000000000E+00  0.00000000000E+00  0.35740347158E-01  0.35744000000E-01  0.51099999109E-03 0. -1.
       11   -1    0    0    0    0 -0.00000000000E+00 -0.00000000000E+00 -0.35740347158E-01  0.35744000000E-01  0.51099999109E-03 0.  1.
       22    1    1    2    0    0  0.33005263081E-01  0.99667254102E-02 -0.94048167676E-02  0.35737005818E-01  0.00000000000E+00 0.  1.
  9000001    1    1    2    0    0 -0.33005263081E-01 -0.99667254102E-02  0.94048167676E-02  0.35750994182E-01  0.10000000475E-02 0. -1.
</event>
<event>
 4   0  0.4892667E-02  0.9118800E+02  0.7818609E-02  0.1379984E+01
      -11   -1    0    0    0    0  0.00000000000E+00  0.00000000000E+00  0.35740347158E-01  0.35744000000E-01  0.51099999109E-03 0. -1.
       11   -1    0    0    0    0 -0.00000000000E+00 -0.00000000000E+00 -0.35740347158E-01  0.35744000000E-01  0.51099999109E-03 0.  1.
       22    1    1    2    0    0  0.14710990319E-01 -0.29337783227E-01 -0.14142659723E-01  0.35737005818E-01  0.00000000000E+00 0.  1.
  9000001    1    1    2    0    0 -0.14710990319E-01  0.29337783227E-01  0.14142659723E-01  0.35750994182E-01  0.10000000475E-02 0. -1.
</event>
<event>
 4   0  0.4892667E-02  0.9118800E+02  0.7818609E-02  0.1379984E+01
      -11   -1    0    0    0    0  0.00000000000E+00  0.00000000000E+00  0.35740347158E-01  0.35744000000E-01  0.51099999109E-03 0.  1.
       11   -1    0    0    0    0 -0.00000000000E+00 -0.00000000000E+00 -0.35740347158E-01  0.35744000000E-01  0.51099999109E-03 0. -1.
       22    1    1    2    0    0  0.82269687683E-02  0.35277762537E-02 -0.34597765310E-01  0.35737005818E-01  0.00000000000E+00 0. -1.
  9000001    1    1    2    0    0 -0.82269687683E-02 -0.35277762537E-02  0.34597765310E-01  0.35750994182E-01  0.10000000475E-02 0.  1.
</event>
<event>
 4   0  0.4892667E-02  0.9118800E+02  0.7818609E-02  0.1379984E+01
      -11   -1    0    0    0    0  0.00000000000E+00  0.00000000000E+00  0.35740347158E-01  0.35744000000E-01  0.51099999109E-03 0. -1.
       11   -1    0    0    0    0 -0.00000000000E+00 -0.00000000000E+00 -0.35740347158E-01  0.35744000000E-01  0.51099999109E-03 0.  1.
       22    1    1    2    0    0 -0.72848323181E-02 -0.12904261181E-01  0.32519914611E-01  0.35737005818E-01  0.00000000000E+00 0. -1.
  9000001    1    1    2    0    0  0.72848323181E-02  0.12904261181E-01 -0.32519914611E-01  0.35750994182E-01  0.10000000475E-02 0.  1.
</event>
<event>
 4   0  0.4892667E-02  0.9118800E+02  0.7818609E-02  0.1379984E+01
      -11   -1    0    0    0    0  0.00000000000E+00  0.00000000000E+00  0.35740347158E-01  0.35744000000E-01  0.51099999109E-03 0.  1.
       11   -1    0    0    0    0 -0.00000000000E+00 -0.00000000000E+00 -0.35740347158E-01  0.35744000000E-01  0.51099999109E-03 0. -1.
       22    1    1    2    0    0  0.60364442357E-02 -0.21780026417E-02  0.35156098054E-01  0.35737005818E-01  0.00000000000E+00 0.  1.
  9000001    1    1    2    0    0 -0.60364442357E-02  0.21780026417E-02 -0.35156098054E-01  0.35750994182E-01  0.10000000475E-02 0. -1.
</event>
<event>
 4   0  0.4892667E-02  0.9118800E+02  0.7818609E-02  0.1379984E+01
      -11   -1    0    0    0    0  0.00000000000E+00  0.00000000000E+00  0.35740347158E-01  0.35744000000E-01  0.51099999109E-03 0.  1.
       11   -1    0    0    0    0 -0.00000000000E+00 -0.00000000000E+00 -0.35740347158E-01  0.35744000000E-01  0.51099999109E-03 0. -1.
       22    1    1    2    0    0  0.96138006037E-03 -0.30383790891E-02 -0.35594628608E-01  0.35737005818E-01  0.00000000000E+00 0. -1.
  9000001    1    1    2    0    0 -0.96138006037E-03  0.30383790891E-02  0.35594628608E-01  0.35750994182E-01  0.10000000475E-02 0.  1.
</event>
<event>
 4   0  0.4892667E-02  0.9118800E+02  0.7818609E-02  0.1379984E+01
      -11   -1    0    0    0    0  0.00000000000E+00  0.00000000000E+00  0.35740347158E-01  0.35744000000E-01  0.51099999109E-03 0.  1.
       11   -1    0    0    0    0 -0.00000000000E+00 -0.00000000000E+00 -0.35740347158E-01  0.35744000000E-01  0.51099999109E-03 0. -1.
       22    1    1    2    0    0  0.30456782041E-01  0.12919074231E-01 -0.13513531500E-01  0.35737005818E-01  0.00000000000E+00 0.  1.
  9000001    1    1    2    0    0 -0.30456782041E-01 -0.12919074231E-01  0.13513531500E-01  0.35750994182E-01  0.10000000475E-02 0. -1.
</event>
<event>
 4   0  0.4892667E-02  0.9118800E+02  0.7818609E-02  0.1379984E+01
      -11   -1    0    0    0    0  0.00000000000E+00  0.00000000000E+00  0.35740347158E-01  0.35744000000E-01  0.51099999109E-03 0. -1.
       11   -1    0    0    0    0 -0.00000000000E+00 -0.00000000000E+00 -0.35740347158E-01  0.35744000000E-01  0.51099999109E-03 0.  1.
       22    1    1    2    0    0 -0.15077608556E-02 -0.26206829728E-02 -0.35608878989E-01  0.35737005818E-01  0.00000000000E+00 0.  1.
  9000001    1    1    2    0    0  0.15077608556E-02  0.26206829728E-02  0.35608878989E-01  0.35750994182E-01  0.10000000475E-02 0. -1.
</event>
<event>
 4   0  0.4892667E-02  0.9118800E+02  0.7818609E-02  0.1379984E+01
      -11   -1    0    0    0    0  0.00000000000E+00  0.00000000000E+00  0.35740347158E-01  0.35744000000E-01  0.51099999109E-03 0. -1.
       11   -1    0    0    0    0 -0.00000000000E+00 -0.00000000000E+00 -0.35740347158E-01  0.35744000000E-01  0.51099999109E-03 0.  1.
       22    1    1    2    0    0  0.13035492919E-01 -0.42672489021E-02 -0.33000001455E-01  0.35737005818E-01  0.00000000000E+00 0.  1.
  9000001    1    1    2    0    0 -0.13035492919E-01  0.42672489021E-02  0.33000001455E-01  0.35750994182E-01  0.10000000475E-02 0. -1.
</event>
<event>
 4   0  0.4892667E-02  0.9118800E+02  0.7818609E-02  0.1379984E+01
      -11   -1    0    0    0    0  0.00000000000E+00  0.00000000000E+00  0.35740347158E-01  0.35744000000E-01  0.51099999109E-03 0.  1.
       11   -1    0    0    0    0 -0.00000000000E+00 -0.00000000000E+00 -0.35740347158E-01  0.35744000000E-01  0.51099999109E-03 0. -1.
       22    1    1    2    0    0  0.12553495773E-02  0.33058451511E-02 -0.35561623559E-01  0.35737005818E-01  0.00000000000E+00 0. -1.
  9000001    1    1    2    0    0 -0.12553495773E-02 -0.33058451511E-02  0.35561623559E-01  0.35750994182E-01  0.10000000475E-02 0.  1.
</event>
<event>
 4   0  0.4892667E-02  0.9118800E+02  0.7818609E-02  0.1379984E+01
      -11   -1    0    0    0    0  0.00000000000E+00  0.00000000000E+00  0.35740347158E-01  0.35744000000E-01  0.51099999109E-03 0.  1.
       11   -1    0    0    0    0 -0.00000000000E+00 -0.00000000000E+00 -0.35740347158E-01  0.35744000000E-01  0.51099999109E-03 0. -1.
       22    1    1    2    0    0 -0.12891651881E-01 -0.19224583936E-02 -0.33275261838E-01  0.35737005818E-01  0.00000000000E+00 0. -1.
  9000001    1    1    2    0    0  0.12891651881E-01  0.19224583936E-02  0.33275261838E-01  0.35750994182E-01  0.10000000475E-02 0.  1.
</event>
<event>
 4   0  0.4892667E-02  0.9118800E+02  0.7818609E-02  0.1379984E+01
      -11   -1    0    0    0    0  0.00000000000E+00  0.00000000000E+00  0.35740347158E-01  0.35744000000E-01  0.51099999109E-03 0. -1.
       11   -1    0    0    0    0 -0.00000000000E+00 -0.00000000000E+00 -0.35740347158E-01  0.35744000000E-01  0.51099999109E-03 0.  1.
       22    1    1    2    0    0  0.22904896965E-01  0.20769415716E-01 -0.17920118602E-01  0.35737005818E-01  0.00000000000E+00 0.  1.
  9000001    1    1    2    0    0 -0.22904896965E-01 -0.20769415716E-01  0.17920118602E-01  0.35750994182E-01  0.10000000475E-02 0. -1.
</event>
<event>
 4   0  0.4892667E-02  0.9118800E+02  0.7818609E-02  0.1379984E+01
      -11   -1    0    0    0    0  0.00000000000E+00  0.00000000000E+00  0.35740347158E-01  0.35744000000E-01  0.51099999109E-03 0.  1.
       11   -1    0    0    0    0 -0.00000000000E+00 -0.00000000000E+00 -0.35740347158E-01  0.35744000000E-01  0.51099999109E-03 0. -1.
       22    1    1    2    0    0  0.65960805508E-02 -0.81761989073E-02 -0.34158089491E-01  0.35737005818E-01  0.00000000000E+00 0. -1.
  9000001    1    1    2    0    0 -0.65960805508E-02  0.81761989073E-02  0.34158089491E-01  0.35750994182E-01  0.10000000475E-02 0.  1.
</event>
<event>
 4   0  0.4892667E-02  0.9118800E+02  0.7818609E-02  0.1379984E+01
      -11   -1    0    0    0    0  0.00000000000E+00  0.00000000000E+00  0.35740347158E-01  0.35744000000E-01  0.51099999109E-03 0.  1.
       11   -1    0    0    0    0 -0.00000000000E+00 -0.00000000000E+00 -0.35740347158E-01  0.35744000000E-01  0.51099999109E-03 0. -1.
       22    1    1    2    0    0 -0.24452947880E-02  0.56328333868E-02 -0.35205472676E-01  0.35737005818E-01  0.00000000000E+00 0. -1.
  9000001    1    1    2    0    0  0.24452947880E-02 -0.56328333868E-02  0.35205472676E-01  0.35750994182E-01  0.10000000475E-02 0.  1.
</event>
<event>
 4   0  0.4892667E-02  0.9118800E+02  0.7818609E-02  0.1379984E+01
      -11   -1    0    0    0    0  0.00000000000E+00  0.00000000000E+00  0.35740347158E-01  0.35744000000E-01  0.51099999109E-03 0. -1.
       11   -1    0    0    0    0 -0.00000000000E+00 -0.00000000000E+00 -0.35740347158E-01  0.35744000000E-01  0.51099999109E-03 0.  1.
       22    1    1    2    0    0  0.14952922584E-03  0.27335751706E-01 -0.23018859758E-01  0.35737005818E-01  0.00000000000E+00 0.  1.
  9000001    1    1    2    0    0 -0.14952922584E-03 -0.27335751706E-01  0.23018859758E-01  0.35750994182E-01  0.10000000475E-02 0. -1.
</event>
<event>
 4   0  0.4892667E-02  0.9118800E+02  0.7818609E-02  0.1379984E+01
      -11   -1    0    0    0    0  0.00000000000E+00  0.00000000000E+00  0.35740347158E-01  0.35744000000E-01  0.51099999109E-03 0. -1.
       11   -1    0    0    0    0 -0.00000000000E+00 -0.00000000000E+00 -0.35740347158E-01  0.35744000000E-01  0.51099999109E-03 0.  1.
       22    1    1    2    0    0 -0.34621259095E-02  0.92419500564E-02 -0.34347250665E-01  0.35737005818E-01  0.00000000000E+00 0.  1.
  9000001    1    1    2    0    0  0.34621259095E-02 -0.92419500564E-02  0.34347250665E-01  0.35750994182E-01  0.10000000475E-02 0. -1.
</event>
<event>
 4   0  0.4892667E-02  0.9118800E+02  0.7818609E-02  0.1379984E+01
      -11   -1    0    0    0    0  0.00000000000E+00  0.00000000000E+00  0.35740347158E-01  0.35744000000E-01  0.51099999109E-03 0. -1.
       11   -1    0    0    0    0 -0.00000000000E+00 -0.00000000000E+00 -0.35740347158E-01  0.35744000000E-01  0.51099999109E-03 0.  1.
       22    1    1    2    0    0 -0.14077203766E-01  0.19572940217E-01 -0.26379270844E-01  0.35737005818E-01  0.00000000000E+00 0.  1.
  9000001    1    1    2    0    0  0.14077203766E-01 -0.19572940217E-01  0.26379270844E-01  0.35750994182E-01  0.10000000475E-02 0. -1.
</event>
<event>
 4   0  0.4892667E-02  0.9118800E+02  0.7818609E-02  0.1379984E+01
      -11   -1    0    0    0    0  0.00000000000E+00  0.00000000000E+00  0.35740347158E-01  0.35744000000E-01  0.51099999109E-03 0. -1.
       11   -1    0    0    0    0 -0.00000000000E+00 -0.00000000000E+00 -0.35740347158E-01  0.35744000000E-01  0.51099999109E-03 0.  1.
       22    1    1    2    0    0  0.42215039848E-02  0.13166169069E-02  0.35462360453E-01  0.35737005818E-01  0.00000000000E+00 0. -1.
  9000001    1    1    2    0    0 -0.42215039848E-02 -0.13166169069E-02 -0.35462360453E-01  0.35750994182E-01  0.10000000475E-02 0.  1.
</event>
<event>
 4   0  0.4892667E-02  0.9118800E+02  0.7818609E-02  0.1379984E+01
      -11   -1    0    0    0    0  0.00000000000E+00  0.00000000000E+00  0.35740347158E-01  0.35744000000E-01  0.51099999109E-03 0.  1.
       11   -1    0    0    0    0 -0.00000000000E+00 -0.00000000000E+00 -0.35740347158E-01  0.35744000000E-01  0.51099999109E-03 0. -1.
       22    1    1    2    0    0 -0.25406307536E-02 -0.20315262256E-01 -0.29291106154E-01  0.35737005818E-01  0.00000000000E+00 0. -1.
  9000001    1    1    2    0    0  0.25406307536E-02  0.20315262256E-01  0.29291106154E-01  0.35750994182E-01  0.10000000475E-02 0.  1.
</event>
<event>
 4   0  0.4892667E-02  0.9118800E+02  0.7818609E-02  0.1379984E+01
      -11   -1    0    0    0    0  0.00000000000E+00  0.00000000000E+00  0.35740347158E-01  0.35744000000E-01  0.51099999109E-03 0. -1.
       11   -1    0    0    0    0 -0.00000000000E+00 -0.00000000000E+00 -0.35740347158E-01  0.35744000000E-01  0.51099999109E-03 0.  1.
       22    1    1    2    0    0 -0.62226474950E-03  0.36032879739E-02 -0.35549440041E-01  0.35737005818E-01  0.00000000000E+00 0.  1.
  9000001    1    1    2    0    0  0.62226474950E-03 -0.36032879739E-02  0.35549440041E-01  0.35750994182E-01  0.10000000475E-02 0. -1.
</event>
<event>
 4   0  0.4892667E-02  0.9118800E+02  0.7818609E-02  0.1379984E+01
      -11   -1    0    0    0    0  0.00000000000E+00  0.00000000000E+00  0.35740347158E-01  0.35744000000E-01  0.51099999109E-03 0.  1.
       11   -1    0    0    0    0 -0.00000000000E+00 -0.00000000000E+00 -0.35740347158E-01  0.35744000000E-01  0.51099999109E-03 0. -1.
       22    1    1    2    0    0  0.22627032783E-02 -0.12739854085E-01  0.33312308185E-01  0.35737005818E-01  0.00000000000E+00 0.  1.
  9000001    1    1    2    0    0 -0.22627032783E-02  0.12739854085E-01 -0.33312308185E-01  0.35750994182E-01  0.10000000475E-02 0. -1.
</event>
<event>
 4   0  0.4892667E-02  0.9118800E+02  0.7818609E-02  0.1379984E+01
      -11   -1    0    0    0    0  0.00000000000E+00  0.00000000000E+00  0.35740347158E-01  0.35744000000E-01  0.51099999109E-03 0.  1.
       11   -1    0    0    0    0 -0.00000000000E+00 -0.00000000000E+00 -0.35740347158E-01  0.35744000000E-01  0.51099999109E-03 0. -1.
       22    1    1    2    0    0  0.30715138477E-02  0.27957476951E-03  0.35603668708E-01  0.35737005818E-01  0.00000000000E+00 0.  1.
  9000001    1    1    2    0    0 -0.30715138477E-02 -0.27957476951E-03 -0.35603668708E-01  0.35750994182E-01  0.10000000475E-02 0. -1.
</event>
<event>
 4   0  0.4892667E-02  0.9118800E+02  0.7818609E-02  0.1379984E+01
      -11   -1    0    0    0    0  0.00000000000E+00  0.00000000000E+00  0.35740347158E-01  0.35744000000E-01  0.51099999109E-03 0. -1.
       11   -1    0    0    0    0 -0.00000000000E+00 -0.00000000000E+00 -0.35740347158E-01  0.35744000000E-01  0.51099999109E-03 0.  1.
       22    1    1    2    0    0 -0.18388746525E-01  0.80400621332E-02  0.29569325102E-01  0.35737005818E-01  0.00000000000E+00 0. -1.
  9000001    1    1    2    0    0  0.18388746525E-01 -0.80400621332E-02 -0.29569325102E-01  0.35750994182E-01  0.10000000475E-02 0.  1.
</event>
<event>
 4   0  0.4892667E-02  0.9118800E+02  0.7818609E-02  0.1379984E+01
      -11   -1    0    0    0    0  0.00000000000E+00  0.00000000000E+00  0.35740347158E-01  0.35744000000E-01  0.51099999109E-03 0.  1.
       11   -1    0    0    0    0 -0.00000000000E+00 -0.00000000000E+00 -0.35740347158E-01  0.35744000000E-01  0.51099999109E-03 0. -1.
       22    1    1    2    0    0  0.18976163660E-01 -0.37162938990E-03 -0.30280368049E-01  0.35737005818E-01  0.00000000000E+00 0. -1.
  9000001    1    1    2    0    0 -0.18976163660E-01  0.37162938990E-03  0.30280368049E-01  0.35750994182E-01  0.10000000475E-02 0.  1.
</event>
<event>
 4   0  0.4892667E-02  0.9118800E+02  0.7818609E-02  0.1379984E+01
      -11   -1    0    0    0    0  0.00000000000E+00  0.00000000000E+00  0.35740347158E-01  0.35744000000E-01  0.51099999109E-03 0.  1.
       11   -1    0    0    0    0 -0.00000000000E+00 -0.00000000000E+00 -0.35740347158E-01  0.35744000000E-01  0.51099999109E-03 0. -1.
       22    1    1    2    0    0 -0.16845573250E-02 -0.21428068909E-01  0.28550546655E-01  0.35737005818E-01  0.00000000000E+00 0.  1.
  9000001    1    1    2    0    0  0.16845573250E-02  0.21428068909E-01 -0.28550546655E-01  0.35750994182E-01  0.10000000475E-02 0. -1.
</event>
<event>
 4   0  0.4892667E-02  0.9118800E+02  0.7818609E-02  0.1379984E+01
      -11   -1    0    0    0    0  0.00000000000E+00  0.00000000000E+00  0.35740347158E-01  0.35744000000E-01  0.51099999109E-03 0. -1.
       11   -1    0    0    0    0 -0.00000000000E+00 -0.00000000000E+00 -0.35740347158E-01  0.35744000000E-01  0.51099999109E-03 0.  1.
       22    1    1    2    0    0  0.13666647678E-03 -0.64722635876E-02  0.35145763773E-01  0.35737005818E-01  0.00000000000E+00 0. -1.
  9000001    1    1    2    0    0 -0.13666647678E-03  0.64722635876E-02 -0.35145763773E-01  0.35750994182E-01  0.10000000475E-02 0.  1.
</event>
<event>
 4   0  0.4892667E-02  0.9118800E+02  0.7818609E-02  0.1379984E+01
      -11   -1    0    0    0    0  0.00000000000E+00  0.00000000000E+00  0.35740347158E-01  0.35744000000E-01  0.51099999109E-03 0.  1.
       11   -1    0    0    0    0 -0.00000000000E+00 -0.00000000000E+00 -0.35740347158E-01  0.35744000000E-01  0.51099999109E-03 0. -1.
       22    1    1    2    0    0 -0.67840953827E-03 -0.17152136141E-01 -0.31344498260E-01  0.35737005818E-01  0.00000000000E+00 0. -1.
  9000001    1    1    2    0    0  0.67840953827E-03  0.17152136141E-01  0.31344498260E-01  0.35750994182E-01  0.10000000475E-02 0.  1.
</event>
<event>
 4   0  0.4892667E-02  0.9118800E+02  0.7818609E-02  0.1379984E+01
      -11   -1    0    0    0    0  0.00000000000E+00  0.00000000000E+00  0.35740347158E-01  0.35744000000E-01  0.51099999109E-03 0.  1.
       11   -1    0    0    0    0 -0.00000000000E+00 -0.00000000000E+00 -0.35740347158E-01  0.35744000000E-01  0.51099999109E-03 0. -1.
       22    1    1    2    0    0 -0.89263744805E-02 -0.23957228934E-01  0.24970074195E-01  0.35737005818E-01  0.00000000000E+00 0.  1.
  9000001    1    1    2    0    0  0.89263744805E-02  0.23957228934E-01 -0.24970074195E-01  0.35750994182E-01  0.10000000475E-02 0. -1.
</event>
<event>
 4   0  0.4892667E-02  0.9118800E+02  0.7818609E-02  0.1379984E+01
      -11   -1    0    0    0    0  0.00000000000E+00  0.00000000000E+00  0.35740347158E-01  0.35744000000E-01  0.51099999109E-03 0.  1.
       11   -1    0    0    0    0 -0.00000000000E+00 -0.00000000000E+00 -0.35740347158E-01  0.35744000000E-01  0.51099999109E-03 0. -1.
       22    1    1    2    0    0 -0.94663733544E-02  0.80049864869E-02 -0.33517779636E-01  0.35737005818E-01  0.00000000000E+00 0. -1.
  9000001    1    1    2    0    0  0.94663733544E-02 -0.80049864869E-02  0.33517779636E-01  0.35750994182E-01  0.10000000475E-02 0.  1.
</event>
<event>
 4   0  0.4892667E-02  0.9118800E+02  0.7818609E-02  0.1379984E+01
      -11   -1    0    0    0    0  0.00000000000E+00  0.00000000000E+00  0.35740347158E-01  0.35744000000E-01  0.51099999109E-03 0.  1.
       11   -1    0    0    0    0 -0.00000000000E+00 -0.00000000000E+00 -0.35740347158E-01  0.35744000000E-01  0.51099999109E-03 0. -1.
       22    1    1    2    0    0  0.17828604885E-01 -0.87544495950E-02  0.29709157595E-01  0.35737005818E-01  0.00000000000E+00 0.  1.
  9000001    1    1    2    0    0 -0.17828604885E-01  0.87544495950E-02 -0.29709157595E-01  0.35750994182E-01  0.10000000475E-02 0. -1.
</event>
<event>
 4   0  0.4892667E-02  0.9118800E+02  0.7818609E-02  0.1379984E+01
      -11   -1    0    0    0    0  0.00000000000E+00  0.00000000000E+00  0.35740347158E-01  0.35744000000E-01  0.51099999109E-03 0.  1.
       11   -1    0    0    0    0 -0.00000000000E+00 -0.00000000000E+00 -0.35740347158E-01  0.35744000000E-01  0.51099999109E-03 0. -1.
       22    1    1    2    0    0 -0.33106882567E-01 -0.40006581869E-02  0.12847670824E-01  0.35737005818E-01  0.00000000000E+00 0. -1.
  9000001    1    1    2    0    0  0.33106882567E-01  0.40006581869E-02 -0.12847670824E-01  0.35750994182E-01  0.10000000475E-02 0.  1.
</event>
<event>
 4   0  0.4892667E-02  0.9118800E+02  0.7818609E-02  0.1379984E+01
      -11   -1    0    0    0    0  0.00000000000E+00  0.00000000000E+00  0.35740347158E-01  0.35744000000E-01  0.51099999109E-03 0. -1.
       11   -1    0    0    0    0 -0.00000000000E+00 -0.00000000000E+00 -0.35740347158E-01  0.35744000000E-01  0.51099999109E-03 0.  1.
       22    1    1    2    0    0  0.33040895445E-02 -0.75209463162E-02  0.34780050944E-01  0.35737005818E-01  0.00000000000E+00 0. -1.
  9000001    1    1    2    0    0 -0.33040895445E-02  0.75209463162E-02 -0.34780050944E-01  0.35750994182E-01  0.10000000475E-02 0.  1.
</event>
<event>
 4   0  0.4892667E-02  0.9118800E+02  0.7818609E-02  0.1379984E+01
      -11   -1    0    0    0    0  0.00000000000E+00  0.00000000000E+00  0.35740347158E-01  0.35744000000E-01  0.51099999109E-03 0. -1.
       11   -1    0    0    0    0 -0.00000000000E+00 -0.00000000000E+00 -0.35740347158E-01  0.35744000000E-01  0.51099999109E-03 0.  1.
       22    1    1    2    0    0 -0.17155297014E-02 -0.13880371095E-01  0.32886560188E-01  0.35737005818E-01  0.00000000000E+00 0. -1.
  9000001    1    1    2    0    0  0.17155297014E-02  0.13880371095E-01 -0.32886560188E-01  0.35750994182E-01  0.10000000475E-02 0.  1.
</event>
<event>
 4   0  0.4892667E-02  0.9118800E+02  0.7818609E-02  0.1379984E+01
      -11   -1    0    0    0    0  0.00000000000E+00  0.00000000000E+00  0.35740347158E-01  0.35744000000E-01  0.51099999109E-03 0.  1.
       11   -1    0    0    0    0 -0.00000000000E+00 -0.00000000000E+00 -0.35740347158E-01  0.35744000000E-01  0.51099999109E-03 0. -1.
       22    1    1    2    0    0  0.71315722571E-02  0.11922161928E-01 -0.32926225368E-01  0.35737005818E-01  0.00000000000E+00 0. -1.
  9000001    1    1    2    0    0 -0.71315722571E-02 -0.11922161928E-01  0.32926225368E-01  0.35750994182E-01  0.10000000475E-02 0.  1.
</event>
<event>
 4   0  0.4892667E-02  0.9118800E+02  0.7818609E-02  0.1379984E+01
      -11   -1    0    0    0    0  0.00000000000E+00  0.00000000000E+00  0.35740347158E-01  0.35744000000E-01  0.51099999109E-03 0. -1.
       11   -1    0    0    0    0 -0.00000000000E+00 -0.00000000000E+00 -0.35740347158E-01  0.35744000000E-01  0.51099999109E-03 0.  1.
       22    1    1    2    0    0 -0.45918899917E-02  0.35402251330E-01  0.16518873873E-02  0.35737005818E-01  0.00000000000E+00 0.  1.
  9000001    1    1    2    0    0  0.45918899917E-02 -0.35402251330E-01 -0.16518873873E-02  0.35750994182E-01  0.10000000475E-02 0. -1.
</event>
<event>
 4   0  0.4892667E-02  0.9118800E+02  0.7818609E-02  0.1379984E+01
      -11   -1    0    0    0    0  0.00000000000E+00  0.00000000000E+00  0.35740347158E-01  0.35744000000E-01  0.51099999109E-03 0.  1.
       11   -1    0    0    0    0 -0.00000000000E+00 -0.00000000000E+00 -0.35740347158E-01  0.35744000000E-01  0.51099999109E-03 0. -1.
       22    1    1    2    0    0  0.42202364213E-03  0.44936574117E-02 -0.35450846590E-01  0.35737005818E-01  0.00000000000E+00 0. -1.
  9000001    1    1    2    0    0 -0.42202364213E-03 -0.44936574117E-02  0.35450846590E-01  0.35750994182E-01  0.10000000475E-02 0.  1.
</event>
<event>
 4   0  0.4892667E-02  0.9118800E+02  0.7818609E-02  0.1379984E+01
      -11   -1    0    0    0    0  0.00000000000E+00  0.00000000000E+00  0.35740347158E-01  0.35744000000E-01  0.51099999109E-03 0. -1.
       11   -1    0    0    0    0 -0.00000000000E+00 -0.00000000000E+00 -0.35740347158E-01  0.35744000000E-01  0.51099999109E-03 0.  1.
       22    1    1    2    0    0  0.32678706675E-02 -0.48153030137E-03 -0.35584023588E-01  0.35737005818E-01  0.00000000000E+00 0.  1.
  9000001    1    1    2    0    0 -0.32678706675E-02  0.48153030137E-03  0.35584023588E-01  0.35750994182E-01  0.10000000475E-02 0. -1.
</event>
<event>
 4   0  0.4892667E-02  0.9118800E+02  0.7818609E-02  0.1379984E+01
      -11   -1    0    0    0    0  0.00000000000E+00  0.00000000000E+00  0.35740347158E-01  0.35744000000E-01  0.51099999109E-03 0.  1.
       11   -1    0    0    0    0 -0.00000000000E+00 -0.00000000000E+00 -0.35740347158E-01  0.35744000000E-01  0.51099999109E-03 0. -1.
       22    1    1    2    0    0  0.18371442871E-02  0.30962568149E-01  0.17750432653E-01  0.35737005818E-01  0.00000000000E+00 0.  1.
  9000001    1    1    2    0    0 -0.18371442871E-02 -0.30962568149E-01 -0.17750432653E-01  0.35750994182E-01  0.10000000475E-02 0. -1.
</event>
<event>
 4   0  0.4892667E-02  0.9118800E+02  0.7818609E-02  0.1379984E+01
      -11   -1    0    0    0    0  0.00000000000E+00  0.00000000000E+00  0.35740347158E-01  0.35744000000E-01  0.51099999109E-03 0.  1.
       11   -1    0    0    0    0 -0.00000000000E+00 -0.00000000000E+00 -0.35740347158E-01  0.35744000000E-01  0.51099999109E-03 0. -1.
       22    1    1    2    0    0 -0.17493347664E-01  0.23995175418E-01  0.19883358093E-01  0.35737005818E-01  0.00000000000E+00 0.  1.
  9000001    1    1    2    0    0  0.17493347664E-01 -0.23995175418E-01 -0.19883358093E-01  0.35750994182E-01  0.10000000475E-02 0. -1.
</event>
<event>
 4   0  0.4892667E-02  0.9118800E+02  0.7818609E-02  0.1379984E+01
      -11   -1    0    0    0    0  0.00000000000E+00  0.00000000000E+00  0.35740347158E-01  0.35744000000E-01  0.51099999109E-03 0. -1.
       11   -1    0    0    0    0 -0.00000000000E+00 -0.00000000000E+00 -0.35740347158E-01  0.35744000000E-01  0.51099999109E-03 0.  1.
       22    1    1    2    0    0  0.19272331167E-02 -0.40640299725E-02  0.35452828064E-01  0.35737005818E-01  0.00000000000E+00 0. -1.
  9000001    1    1    2    0    0 -0.19272331167E-02  0.40640299725E-02 -0.35452828064E-01  0.35750994182E-01  0.10000000475E-02 0.  1.
</event>
<event>
 4   0  0.4892667E-02  0.9118800E+02  0.7818609E-02  0.1379984E+01
      -11   -1    0    0    0    0  0.00000000000E+00  0.00000000000E+00  0.35740347158E-01  0.35744000000E-01  0.51099999109E-03 0. -1.
       11   -1    0    0    0    0 -0.00000000000E+00 -0.00000000000E+00 -0.35740347158E-01  0.35744000000E-01  0.51099999109E-03 0.  1.
       22    1    1    2    0    0 -0.16923913881E-01 -0.19170306858E-01  0.24964255623E-01  0.35737005818E-01  0.00000000000E+00 0. -1.
  9000001    1    1    2    0    0  0.16923913881E-01  0.19170306858E-01 -0.24964255623E-01  0.35750994182E-01  0.10000000475E-02 0.  1.
</event>
<event>
 4   0  0.4892667E-02  0.9118800E+02  0.7818609E-02  0.1379984E+01
      -11   -1    0    0    0    0  0.00000000000E+00  0.00000000000E+00  0.35740347158E-01  0.35744000000E-01  0.51099999109E-03 0.  1.
       11   -1    0    0    0    0 -0.00000000000E+00 -0.00000000000E+00 -0.35740347158E-01  0.35744000000E-01  0.51099999109E-03 0. -1.
       22    1    1    2    0    0 -0.12777673290E-01  0.24660053899E-01  0.22488805923E-01  0.35737005818E-01  0.00000000000E+00 0.  1.
  9000001    1    1    2    0    0  0.12777673290E-01 -0.24660053899E-01 -0.22488805923E-01  0.35750994182E-01  0.10000000475E-02 0. -1.
</event>
<event>
 4   0  0.4892667E-02  0.9118800E+02  0.7818609E-02  0.1379984E+01
      -11   -1    0    0    0    0  0.00000000000E+00  0.00000000000E+00  0.35740347158E-01  0.35744000000E-01  0.51099999109E-03 0.  1.
       11   -1    0    0    0    0 -0.00000000000E+00 -0.00000000000E+00 -0.35740347158E-01  0.35744000000E-01  0.51099999109E-03 0. -1.
       22    1    1    2    0    0 -0.75261655865E-02  0.43260138371E-02 -0.34666641324E-01  0.35737005818E-01  0.00000000000E+00 0. -1.
  9000001    1    1    2    0    0  0.75261655865E-02 -0.43260138371E-02  0.34666641324E-01  0.35750994182E-01  0.10000000475E-02 0.  1.
</event>
<event>
 4   0  0.4892667E-02  0.9118800E+02  0.7818609E-02  0.1379984E+01
      -11   -1    0    0    0    0  0.00000000000E+00  0.00000000000E+00  0.35740347158E-01  0.35744000000E-01  0.51099999109E-03 0. -1.
       11   -1    0    0    0    0 -0.00000000000E+00 -0.00000000000E+00 -0.35740347158E-01  0.35744000000E-01  0.51099999109E-03 0.  1.
       22    1    1    2    0    0  0.28174489274E-02 -0.14064221774E-02 -0.35597999144E-01  0.35737005818E-01  0.00000000000E+00 0.  1.
  9000001    1    1    2    0    0 -0.28174489274E-02  0.14064221774E-02  0.35597999144E-01  0.35750994182E-01  0.10000000475E-02 0. -1.
</event>
<event>
 4   0  0.4892667E-02  0.9118800E+02  0.7818609E-02  0.1379984E+01
      -11   -1    0    0    0    0  0.00000000000E+00  0.00000000000E+00  0.35740347158E-01  0.35744000000E-01  0.51099999109E-03 0.  1.
       11   -1    0    0    0    0 -0.00000000000E+00 -0.00000000000E+00 -0.35740347158E-01  0.35744000000E-01  0.51099999109E-03 0. -1.
       22    1    1    2    0    0  0.47972246510E-02 -0.21713799948E-02  0.35346928147E-01  0.35737005818E-01  0.00000000000E+00 0.  1.
  9000001    1    1    2    0    0 -0.47972246510E-02  0.21713799948E-02 -0.35346928147E-01  0.35750994182E-01  0.10000000475E-02 0. -1.
</event>
<event>
 4   0  0.4892667E-02  0.9118800E+02  0.7818609E-02  0.1379984E+01
      -11   -1    0    0    0    0  0.00000000000E+00  0.00000000000E+00  0.35740347158E-01  0.35744000000E-01  0.51099999109E-03 0. -1.
       11   -1    0    0    0    0 -0.00000000000E+00 -0.00000000000E+00 -0.35740347158E-01  0.35744000000E-01  0.51099999109E-03 0.  1.
       22    1    1    2    0    0 -0.12474363725E-01  0.23035126167E-01 -0.24308574557E-01  0.35737005818E-01  0.00000000000E+00 0.  1.
  9000001    1    1    2    0    0  0.12474363725E-01 -0.23035126167E-01  0.24308574557E-01  0.35750994182E-01  0.10000000475E-02 0. -1.
</event>
<event>
 4   0  0.4892667E-02  0.9118800E+02  0.7818609E-02  0.1379984E+01
      -11   -1    0    0    0    0  0.00000000000E+00  0.00000000000E+00  0.35740347158E-01  0.35744000000E-01  0.51099999109E-03 0.  1.
       11   -1    0    0    0    0 -0.00000000000E+00 -0.00000000000E+00 -0.35740347158E-01  0.35744000000E-01  0.51099999109E-03 0. -1.
       22    1    1    2    0    0  0.16846553266E-01 -0.56284925286E-02 -0.31010438562E-01  0.35737005818E-01  0.00000000000E+00 0. -1.
  9000001    1    1    2    0    0 -0.16846553266E-01  0.56284925286E-02  0.31010438562E-01  0.35750994182E-01  0.10000000475E-02 0.  1.
</event>
<event>
 4   0  0.4892667E-02  0.9118800E+02  0.7818609E-02  0.1379984E+01
      -11   -1    0    0    0    0  0.00000000000E+00  0.00000000000E+00  0.35740347158E-01  0.35744000000E-01  0.51099999109E-03 0. -1.
       11   -1    0    0    0    0 -0.00000000000E+00 -0.00000000000E+00 -0.35740347158E-01  0.35744000000E-01  0.51099999109E-03 0. -1.
       22    1    1    2    0    0  0.12566936112E-02 -0.41336465735E-02 -0.35474882270E-01  0.35737005818E-01  0.00000000000E+00 0. -1.
  9000001    1    1    2    0    0 -0.12566936112E-02  0.41336465735E-02  0.35474882270E-01  0.35750994182E-01  0.10000000475E-02 0. -1.
</event>
<event>
 4   0  0.4892667E-02  0.9118800E+02  0.7818609E-02  0.1379984E+01
      -11   -1    0    0    0    0  0.00000000000E+00  0.00000000000E+00  0.35740347158E-01  0.35744000000E-01  0.51099999109E-03 0.  1.
       11   -1    0    0    0    0 -0.00000000000E+00 -0.00000000000E+00 -0.35740347158E-01  0.35744000000E-01  0.51099999109E-03 0. -1.
       22    1    1    2    0    0  0.16426194261E-01 -0.29242852407E-01 -0.12335692524E-01  0.35737005818E-01  0.00000000000E+00 0. -1.
  9000001    1    1    2    0    0 -0.16426194261E-01  0.29242852407E-01  0.12335692524E-01  0.35750994182E-01  0.10000000475E-02 0.  1.
</event>
<event>
 4   0  0.4892667E-02  0.9118800E+02  0.7818609E-02  0.1379984E+01
      -11   -1    0    0    0    0  0.00000000000E+00  0.00000000000E+00  0.35740347158E-01  0.35744000000E-01  0.51099999109E-03 0. -1.
       11   -1    0    0    0    0 -0.00000000000E+00 -0.00000000000E+00 -0.35740347158E-01  0.35744000000E-01  0.51099999109E-03 0.  1.
       22    1    1    2    0    0 -0.32320835817E-02  0.10718962715E-01 -0.33938047364E-01  0.35737005818E-01  0.00000000000E+00 0.  1.
  9000001    1    1    2    0    0  0.32320835817E-02 -0.10718962715E-01  0.33938047364E-01  0.35750994182E-01  0.10000000475E-02 0. -1.
</event>
<event>
 4   0  0.4892667E-02  0.9118800E+02  0.7818609E-02  0.1379984E+01
      -11   -1    0    0    0    0  0.00000000000E+00  0.00000000000E+00  0.35740347158E-01  0.35744000000E-01  0.51099999109E-03 0. -1.
       11   -1    0    0    0    0 -0.00000000000E+00 -0.00000000000E+00 -0.35740347158E-01  0.35744000000E-01  0.51099999109E-03 0.  1.
       22    1    1    2    0    0 -0.84650012277E-02 -0.81768612045E-02  0.33743388685E-01  0.35737005818E-01  0.00000000000E+00 0. -1.
  9000001    1    1    2    0    0  0.84650012277E-02  0.81768612045E-02 -0.33743388685E-01  0.35750994182E-01  0.10000000475E-02 0.  1.
</event>
<event>
 4   0  0.4892667E-02  0.9118800E+02  0.7818609E-02  0.1379984E+01
      -11   -1    0    0    0    0  0.00000000000E+00  0.00000000000E+00  0.35740347158E-01  0.35744000000E-01  0.51099999109E-03 0. -1.
       11   -1    0    0    0    0 -0.00000000000E+00 -0.00000000000E+00 -0.35740347158E-01  0.35744000000E-01  0.51099999109E-03 0.  1.
       22    1    1    2    0    0  0.24212213533E-02 -0.71555474546E-02 -0.34929492018E-01  0.35737005818E-01  0.00000000000E+00 0.  1.
  9000001    1    1    2    0    0 -0.24212213533E-02  0.71555474546E-02  0.34929492018E-01  0.35750994182E-01  0.10000000475E-02 0. -1.
</event>
<event>
 4   0  0.4892667E-02  0.9118800E+02  0.7818609E-02  0.1379984E+01
      -11   -1    0    0    0    0  0.00000000000E+00  0.00000000000E+00  0.35740347158E-01  0.35744000000E-01  0.51099999109E-03 0.  1.
       11   -1    0    0    0    0 -0.00000000000E+00 -0.00000000000E+00 -0.35740347158E-01  0.35744000000E-01  0.51099999109E-03 0. -1.
       22    1    1    2    0    0  0.84280146191E-02  0.16102641541E-01 -0.30770230579E-01  0.35737005818E-01  0.00000000000E+00 0. -1.
  9000001    1    1    2    0    0 -0.84280146191E-02 -0.16102641541E-01  0.30770230579E-01  0.35750994182E-01  0.10000000475E-02 0.  1.
</event>
<event>
 4   0  0.4892667E-02  0.9118800E+02  0.7818609E-02  0.1379984E+01
      -11   -1    0    0    0    0  0.00000000000E+00  0.00000000000E+00  0.35740347158E-01  0.35744000000E-01  0.51099999109E-03 0. -1.
       11   -1    0    0    0    0 -0.00000000000E+00 -0.00000000000E+00 -0.35740347158E-01  0.35744000000E-01  0.51099999109E-03 0.  1.
       22    1    1    2    0    0 -0.10534832297E-02  0.58662108372E-02  0.35236505621E-01  0.35737005818E-01  0.00000000000E+00 0. -1.
  9000001    1    1    2    0    0  0.10534832297E-02 -0.58662108372E-02 -0.35236505621E-01  0.35750994182E-01  0.10000000475E-02 0.  1.
</event>
<event>
 4   0  0.4892667E-02  0.9118800E+02  0.7818609E-02  0.1379984E+01
      -11   -1    0    0    0    0  0.00000000000E+00  0.00000000000E+00  0.35740347158E-01  0.35744000000E-01  0.51099999109E-03 0.  1.
       11   -1    0    0    0    0 -0.00000000000E+00 -0.00000000000E+00 -0.35740347158E-01  0.35744000000E-01  0.51099999109E-03 0. -1.
       22    1    1    2    0    0 -0.92784855168E-03 -0.29357688383E-02  0.35604128177E-01  0.35737005818E-01  0.00000000000E+00 0.  1.
  9000001    1    1    2    0    0  0.92784855168E-03  0.29357688383E-02 -0.35604128177E-01  0.35750994182E-01  0.10000000475E-02 0. -1.
</event>
<event>
 4   0  0.4892667E-02  0.9118800E+02  0.7818609E-02  0.1379984E+01
      -11   -1    0    0    0    0  0.00000000000E+00  0.00000000000E+00  0.35740347158E-01  0.35744000000E-01  0.51099999109E-03 0.  1.
       11   -1    0    0    0    0 -0.00000000000E+00 -0.00000000000E+00 -0.35740347158E-01  0.35744000000E-01  0.51099999109E-03 0. -1.
       22    1    1    2    0    0  0.21088193570E-01 -0.25487799519E-01  0.13520123984E-01  0.35737005818E-01  0.00000000000E+00 0.  1.
  9000001    1    1    2    0    0 -0.21088193570E-01  0.25487799519E-01 -0.13520123984E-01  0.35750994182E-01  0.10000000475E-02 0. -1.
</event>
<event>
 4   0  0.4892667E-02  0.9118800E+02  0.7818609E-02  0.1379984E+01
      -11   -1    0    0    0    0  0.00000000000E+00  0.00000000000E+00  0.35740347158E-01  0.35744000000E-01  0.51099999109E-03 0. -1.
       11   -1    0    0    0    0 -0.00000000000E+00 -0.00000000000E+00 -0.35740347158E-01  0.35744000000E-01  0.51099999109E-03 0.  1.
       22    1    1    2    0    0 -0.27967186561E-02 -0.33356042022E-01  0.12517444239E-01  0.35737005818E-01  0.00000000000E+00 0. -1.
  9000001    1    1    2    0    0  0.27967186561E-02  0.33356042022E-01 -0.12517444239E-01  0.35750994182E-01  0.10000000475E-02 0.  1.
</event>
<event>
 4   0  0.4892667E-02  0.9118800E+02  0.7818609E-02  0.1379984E+01
      -11   -1    0    0    0    0  0.00000000000E+00  0.00000000000E+00  0.35740347158E-01  0.35744000000E-01  0.51099999109E-03 0.  1.
       11   -1    0    0    0    0 -0.00000000000E+00 -0.00000000000E+00 -0.35740347158E-01  0.35744000000E-01  0.51099999109E-03 0. -1.
       22    1    1    2    0    0  0.60246421923E-02  0.13763762867E-02 -0.35198620138E-01  0.35737005818E-01  0.00000000000E+00 0. -1.
  9000001    1    1    2    0    0 -0.60246421923E-02 -0.13763762867E-02  0.35198620138E-01  0.35750994182E-01  0.10000000475E-02 0.  1.
</event>
<event>
 4   0  0.4892667E-02  0.9118800E+02  0.7818609E-02  0.1379984E+01
      -11   -1    0    0    0    0  0.00000000000E+00  0.00000000000E+00  0.35740347158E-01  0.35744000000E-01  0.51099999109E-03 0. -1.
       11   -1    0    0    0    0 -0.00000000000E+00 -0.00000000000E+00 -0.35740347158E-01  0.35744000000E-01  0.51099999109E-03 0.  1.
       22    1    1    2    0    0  0.44688725340E-02 -0.17994072005E-02  0.35410801980E-01  0.35737005818E-01  0.00000000000E+00 0. -1.
  9000001    1    1    2    0    0 -0.44688725340E-02  0.17994072005E-02 -0.35410801980E-01  0.35750994182E-01  0.10000000475E-02 0.  1.
</event>
<event>
 4   0  0.4892667E-02  0.9118800E+02  0.7818609E-02  0.1379984E+01
      -11   -1    0    0    0    0  0.00000000000E+00  0.00000000000E+00  0.35740347158E-01  0.35744000000E-01  0.51099999109E-03 0.  1.
       11   -1    0    0    0    0 -0.00000000000E+00 -0.00000000000E+00 -0.35740347158E-01  0.35744000000E-01  0.51099999109E-03 0. -1.
       22    1    1    2    0    0  0.10397123105E-01  0.18188713617E-01  0.28951754921E-01  0.35737005818E-01  0.00000000000E+00 0.  1.
  9000001    1    1    2    0    0 -0.10397123105E-01 -0.18188713617E-01 -0.28951754921E-01  0.35750994182E-01  0.10000000475E-02 0. -1.
</event>
<event>
 4   0  0.4892667E-02  0.9118800E+02  0.7818609E-02  0.1379984E+01
      -11   -1    0    0    0    0  0.00000000000E+00  0.00000000000E+00  0.35740347158E-01  0.35744000000E-01  0.51099999109E-03 0. -1.
       11   -1    0    0    0    0 -0.00000000000E+00 -0.00000000000E+00 -0.35740347158E-01  0.35744000000E-01  0.51099999109E-03 0.  1.
       22    1    1    2    0    0 -0.19244844918E-02 -0.38002471217E-02 -0.35482221832E-01  0.35737005818E-01  0.00000000000E+00 0.  1.
  9000001    1    1    2    0    0  0.19244844918E-02  0.38002471217E-02  0.35482221832E-01  0.35750994182E-01  0.10000000475E-02 0. -1.
</event>
<event>
 4   0  0.4892667E-02  0.9118800E+02  0.7818609E-02  0.1379984E+01
      -11   -1    0    0    0    0  0.00000000000E+00  0.00000000000E+00  0.35740347158E-01  0.35744000000E-01  0.51099999109E-03 0. -1.
       11   -1    0    0    0    0 -0.00000000000E+00 -0.00000000000E+00 -0.35740347158E-01  0.35744000000E-01  0.51099999109E-03 0.  1.
       22    1    1    2    0    0 -0.33164306223E-01 -0.18107495052E-03  0.13312760401E-01  0.35737005818E-01  0.00000000000E+00 0.  1.
  9000001    1    1    2    0    0  0.33164306223E-01  0.18107495052E-03 -0.13312760401E-01  0.35750994182E-01  0.10000000475E-02 0. -1.
</event>
<event>
 4   0  0.4892667E-02  0.9118800E+02  0.7818609E-02  0.1379984E+01
      -11   -1    0    0    0    0  0.00000000000E+00  0.00000000000E+00  0.35740347158E-01  0.35744000000E-01  0.51099999109E-03 0. -1.
       11   -1    0    0    0    0 -0.00000000000E+00 -0.00000000000E+00 -0.35740347158E-01  0.35744000000E-01  0.51099999109E-03 0.  1.
       22    1    1    2    0    0  0.40845707205E-02  0.97820210381E-03  0.35489336251E-01  0.35737005818E-01  0.00000000000E+00 0. -1.
  9000001    1    1    2    0    0 -0.40845707205E-02 -0.97820210381E-03 -0.35489336251E-01  0.35750994182E-01  0.10000000475E-02 0.  1.
</event>
<event>
 4   0  0.4892667E-02  0.9118800E+02  0.7818609E-02  0.1379984E+01
      -11   -1    0    0    0    0  0.00000000000E+00  0.00000000000E+00  0.35740347158E-01  0.35744000000E-01  0.51099999109E-03 0.  1.
       11   -1    0    0    0    0 -0.00000000000E+00 -0.00000000000E+00 -0.35740347158E-01  0.35744000000E-01  0.51099999109E-03 0. -1.
       22    1    1    2    0    0  0.15093755629E-01  0.30834481801E-01 -0.99270770098E-02  0.35737005818E-01  0.00000000000E+00 0. -1.
  9000001    1    1    2    0    0 -0.15093755629E-01 -0.30834481801E-01  0.99270770098E-02  0.35750994182E-01  0.10000000475E-02 0.  1.
</event>
<event>
 4   0  0.4892667E-02  0.9118800E+02  0.7818609E-02  0.1379984E+01
      -11   -1    0    0    0    0  0.00000000000E+00  0.00000000000E+00  0.35740347158E-01  0.35744000000E-01  0.51099999109E-03 0. -1.
       11   -1    0    0    0    0 -0.00000000000E+00 -0.00000000000E+00 -0.35740347158E-01  0.35744000000E-01  0.51099999109E-03 0.  1.
       22    1    1    2    0    0  0.12571989215E-01 -0.11538677763E-01  0.31399643111E-01  0.35737005818E-01  0.00000000000E+00 0. -1.
  9000001    1    1    2    0    0 -0.12571989215E-01  0.11538677763E-01 -0.31399643111E-01  0.35750994182E-01  0.10000000475E-02 0.  1.
</event>
<event>
 4   0  0.4892667E-02  0.9118800E+02  0.7818609E-02  0.1379984E+01
      -11   -1    0    0    0    0  0.00000000000E+00  0.00000000000E+00  0.35740347158E-01  0.35744000000E-01  0.51099999109E-03 0. -1.
       11   -1    0    0    0    0 -0.00000000000E+00 -0.00000000000E+00 -0.35740347158E-01  0.35744000000E-01  0.51099999109E-03 0.  1.
       22    1    1    2    0    0 -0.52232596868E-02 -0.41240207583E-02 -0.35111872578E-01  0.35737005818E-01  0.00000000000E+00 0.  1.
  9000001    1    1    2    0    0  0.52232596868E-02  0.41240207583E-02  0.35111872578E-01  0.35750994182E-01  0.10000000475E-02 0. -1.
</event>
<event>
 4   0  0.4892667E-02  0.9118800E+02  0.7818609E-02  0.1379984E+01
      -11   -1    0    0    0    0  0.00000000000E+00  0.00000000000E+00  0.35740347158E-01  0.35744000000E-01  0.51099999109E-03 0. -1.
       11   -1    0    0    0    0 -0.00000000000E+00 -0.00000000000E+00 -0.35740347158E-01  0.35744000000E-01  0.51099999109E-03 0.  1.
       22    1    1    2    0    0 -0.12202802323E-02 -0.52378764572E-02  0.35330003556E-01  0.35737005818E-01  0.00000000000E+00 0. -1.
  9000001    1    1    2    0    0  0.12202802323E-02  0.52378764572E-02 -0.35330003556E-01  0.35750994182E-01  0.10000000475E-02 0.  1.
</event>
<event>
 4   0  0.4892667E-02  0.9118800E+02  0.7818609E-02  0.1379984E+01
      -11   -1    0    0    0    0  0.00000000000E+00  0.00000000000E+00  0.35740347158E-01  0.35744000000E-01  0.51099999109E-03 0. -1.
       11   -1    0    0    0    0 -0.00000000000E+00 -0.00000000000E+00 -0.35740347158E-01  0.35744000000E-01  0.51099999109E-03 0.  1.
       22    1    1    2    0    0  0.22802716277E-01 -0.21377656531E-01 -0.17325285467E-01  0.35737005818E-01  0.00000000000E+00 0.  1.
  9000001    1    1    2    0    0 -0.22802716277E-01  0.21377656531E-01  0.17325285467E-01  0.35750994182E-01  0.10000000475E-02 0. -1.
</event>
<event>
 4   0  0.4892667E-02  0.9118800E+02  0.7818609E-02  0.1379984E+01
      -11   -1    0    0    0    0  0.00000000000E+00  0.00000000000E+00  0.35740347158E-01  0.35744000000E-01  0.51099999109E-03 0.  1.
       11   -1    0    0    0    0 -0.00000000000E+00 -0.00000000000E+00 -0.35740347158E-01  0.35744000000E-01  0.51099999109E-03 0. -1.
       22    1    1    2    0    0 -0.23971722290E-02  0.40747605435E-02  0.35422923040E-01  0.35737005818E-01  0.00000000000E+00 0.  1.
  9000001    1    1    2    0    0  0.23971722290E-02 -0.40747605435E-02 -0.35422923040E-01  0.35750994182E-01  0.10000000475E-02 0. -1.
</event>
<event>
 4   0  0.4892667E-02  0.9118800E+02  0.7818609E-02  0.1379984E+01
      -11   -1    0    0    0    0  0.00000000000E+00  0.00000000000E+00  0.35740347158E-01  0.35744000000E-01  0.51099999109E-03 0.  1.
       11   -1    0    0    0    0 -0.00000000000E+00 -0.00000000000E+00 -0.35740347158E-01  0.35744000000E-01  0.51099999109E-03 0. -1.
       22    1    1    2    0    0 -0.23026010005E-01  0.25938441507E-01  0.86100929317E-02  0.35737005818E-01  0.00000000000E+00 0.  1.
  9000001    1    1    2    0    0  0.23026010005E-01 -0.25938441507E-01 -0.86100929317E-02  0.35750994182E-01  0.10000000475E-02 0. -1.
</event>
<event>
 4   0  0.4892667E-02  0.9118800E+02  0.7818609E-02  0.1379984E+01
      -11   -1    0    0    0    0  0.00000000000E+00  0.00000000000E+00  0.35740347158E-01  0.35744000000E-01  0.51099999109E-03 0.  1.
       11   -1    0    0    0    0 -0.00000000000E+00 -0.00000000000E+00 -0.35740347158E-01  0.35744000000E-01  0.51099999109E-03 0. -1.
       22    1    1    2    0    0  0.10761030104E-01 -0.35294163226E-02  0.33895088677E-01  0.35737005818E-01  0.00000000000E+00 0.  1.
  9000001    1    1    2    0    0 -0.10761030104E-01  0.35294163226E-02 -0.33895088677E-01  0.35750994182E-01  0.10000000475E-02 0. -1.
</event>
<event>
 4   0  0.4892667E-02  0.9118800E+02  0.7818609E-02  0.1379984E+01
      -11   -1    0    0    0    0  0.00000000000E+00  0.00000000000E+00  0.35740347158E-01  0.35744000000E-01  0.51099999109E-03 0. -1.
       11   -1    0    0    0    0 -0.00000000000E+00 -0.00000000000E+00 -0.35740347158E-01  0.35744000000E-01  0.51099999109E-03 0.  1.
       22    1    1    2    0    0  0.37117068562E-02  0.11910154452E-02 -0.35523770905E-01  0.35737005818E-01  0.00000000000E+00 0.  1.
  9000001    1    1    2    0    0 -0.37117068562E-02 -0.11910154452E-02  0.35523770905E-01  0.35750994182E-01  0.10000000475E-02 0. -1.
</event>
<event>
 4   0  0.4892667E-02  0.9118800E+02  0.7818609E-02  0.1379984E+01
      -11   -1    0    0    0    0  0.00000000000E+00  0.00000000000E+00  0.35740347158E-01  0.35744000000E-01  0.51099999109E-03 0.  1.
       11   -1    0    0    0    0 -0.00000000000E+00 -0.00000000000E+00 -0.35740347158E-01  0.35744000000E-01  0.51099999109E-03 0. -1.
       22    1    1    2    0    0 -0.51708186603E-02 -0.44327944740E-02 -0.35081997554E-01  0.35737005818E-01  0.00000000000E+00 0. -1.
  9000001    1    1    2    0    0  0.51708186603E-02  0.44327944740E-02  0.35081997554E-01  0.35750994182E-01  0.10000000475E-02 0.  1.
</event>
<event>
 4   0  0.4892667E-02  0.9118800E+02  0.7818609E-02  0.1379984E+01
      -11   -1    0    0    0    0  0.00000000000E+00  0.00000000000E+00  0.35740347158E-01  0.35744000000E-01  0.51099999109E-03 0.  1.
       11   -1    0    0    0    0 -0.00000000000E+00 -0.00000000000E+00 -0.35740347158E-01  0.35744000000E-01  0.51099999109E-03 0. -1.
       22    1    1    2    0    0  0.97027478275E-02  0.16435936346E-02 -0.34355332474E-01  0.35737005818E-01  0.00000000000E+00 0. -1.
  9000001    1    1    2    0    0 -0.97027478275E-02 -0.16435936346E-02  0.34355332474E-01  0.35750994182E-01  0.10000000475E-02 0.  1.
</event>
<event>
 4   0  0.4892667E-02  0.9118800E+02  0.7818609E-02  0.1379984E+01
      -11   -1    0    0    0    0  0.00000000000E+00  0.00000000000E+00  0.35740347158E-01  0.35744000000E-01  0.51099999109E-03 0.  1.
       11   -1    0    0    0    0 -0.00000000000E+00 -0.00000000000E+00 -0.35740347158E-01  0.35744000000E-01  0.51099999109E-03 0. -1.
       22    1    1    2    0    0  0.33658326715E-01  0.25823028709E-02  0.11729549843E-01  0.35737005818E-01  0.00000000000E+00 0. -1.
  9000001    1    1    2    0    0 -0.33658326715E-01 -0.25823028709E-02 -0.11729549843E-01  0.35750994182E-01  0.10000000475E-02 0.  1.
</event>
<event>
 4   0  0.4892667E-02  0.9118800E+02  0.7818609E-02  0.1379984E+01
      -11   -1    0    0    0    0  0.00000000000E+00  0.00000000000E+00  0.35740347158E-01  0.35744000000E-01  0.51099999109E-03 0. -1.
       11   -1    0    0    0    0 -0.00000000000E+00 -0.00000000000E+00 -0.35740347158E-01  0.35744000000E-01  0.51099999109E-03 0.  1.
       22    1    1    2    0    0 -0.65976886071E-02 -0.82070702724E-02  0.34150374631E-01  0.35737005818E-01  0.00000000000E+00 0. -1.
  9000001    1    1    2    0    0  0.65976886071E-02  0.82070702724E-02 -0.34150374631E-01  0.35750994182E-01  0.10000000475E-02 0.  1.
</event>
<event>
 4   0  0.4892667E-02  0.9118800E+02  0.7818609E-02  0.1379984E+01
      -11   -1    0    0    0    0  0.00000000000E+00  0.00000000000E+00  0.35740347158E-01  0.35744000000E-01  0.51099999109E-03 0.  1.
       11   -1    0    0    0    0 -0.00000000000E+00 -0.00000000000E+00 -0.35740347158E-01  0.35744000000E-01  0.51099999109E-03 0. -1.
       22    1    1    2    0    0  0.69789361136E-02  0.18141536417E-02 -0.35001955405E-01  0.35737005818E-01  0.00000000000E+00 0. -1.
  9000001    1    1    2    0    0 -0.69789361136E-02 -0.18141536417E-02  0.35001955405E-01  0.35750994182E-01  0.10000000475E-02 0.  1.
</event>
<event>
 4   0  0.4892667E-02  0.9118800E+02  0.7818609E-02  0.1379984E+01
      -11   -1    0    0    0    0  0.00000000000E+00  0.00000000000E+00  0.35740347158E-01  0.35744000000E-01  0.51099999109E-03 0.  1.
       11   -1    0    0    0    0 -0.00000000000E+00 -0.00000000000E+00 -0.35740347158E-01  0.35744000000E-01  0.51099999109E-03 0. -1.
       22    1    1    2    0    0  0.37510426454E-02  0.60651863197E-02  0.35018234948E-01  0.35737005818E-01  0.00000000000E+00 0.  1.
  9000001    1    1    2    0    0 -0.37510426454E-02 -0.60651863197E-02 -0.35018234948E-01  0.35750994182E-01  0.10000000475E-02 0. -1.
</event>
<event>
 4   0  0.4892667E-02  0.9118800E+02  0.7818609E-02  0.1379984E+01
      -11   -1    0    0    0    0  0.00000000000E+00  0.00000000000E+00  0.35740347158E-01  0.35744000000E-01  0.51099999109E-03 0. -1.
       11   -1    0    0    0    0 -0.00000000000E+00 -0.00000000000E+00 -0.35740347158E-01  0.35744000000E-01  0.51099999109E-03 0.  1.
       22    1    1    2    0    0 -0.47464983652E-02  0.14234940406E-01 -0.32434099491E-01  0.35737005818E-01  0.00000000000E+00 0.  1.
  9000001    1    1    2    0    0  0.47464983652E-02 -0.14234940406E-01  0.32434099491E-01  0.35750994182E-01  0.10000000475E-02 0. -1.
</event>
<event>
 4   0  0.4892667E-02  0.9118800E+02  0.7818609E-02  0.1379984E+01
      -11   -1    0    0    0    0  0.00000000000E+00  0.00000000000E+00  0.35740347158E-01  0.35744000000E-01  0.51099999109E-03 0. -1.
       11   -1    0    0    0    0 -0.00000000000E+00 -0.00000000000E+00 -0.35740347158E-01  0.35744000000E-01  0.51099999109E-03 0.  1.
       22    1    1    2    0    0 -0.75121868270E-03  0.58019469700E-02  0.35254881459E-01  0.35737005818E-01  0.00000000000E+00 0. -1.
  9000001    1    1    2    0    0  0.75121868270E-03 -0.58019469700E-02 -0.35254881459E-01  0.35750994182E-01  0.10000000475E-02 0.  1.
</event>
<event>
 4   0  0.4892667E-02  0.9118800E+02  0.7818609E-02  0.1379984E+01
      -11   -1    0    0    0    0  0.00000000000E+00  0.00000000000E+00  0.35740347158E-01  0.35744000000E-01  0.51099999109E-03 0. -1.
       11   -1    0    0    0    0 -0.00000000000E+00 -0.00000000000E+00 -0.35740347158E-01  0.35744000000E-01  0.51099999109E-03 0.  1.
       22    1    1    2    0    0 -0.41323080798E-02  0.11566935380E-03 -0.35497101789E-01  0.35737005818E-01  0.00000000000E+00 0.  1.
  9000001    1    1    2    0    0  0.41323080798E-02 -0.11566935380E-03  0.35497101789E-01  0.35750994182E-01  0.10000000475E-02 0. -1.
</event>
<event>
 4   0  0.4892667E-02  0.9118800E+02  0.7818609E-02  0.1379984E+01
      -11   -1    0    0    0    0  0.00000000000E+00  0.00000000000E+00  0.35740347158E-01  0.35744000000E-01  0.51099999109E-03 0. -1.
       11   -1    0    0    0    0 -0.00000000000E+00 -0.00000000000E+00 -0.35740347158E-01  0.35744000000E-01  0.51099999109E-03 0.  1.
       22    1    1    2    0    0 -0.41261515647E-02  0.61520999938E-02 -0.34960837001E-01  0.35737005818E-01  0.00000000000E+00 0.  1.
  9000001    1    1    2    0    0  0.41261515647E-02 -0.61520999938E-02  0.34960837001E-01  0.35750994182E-01  0.10000000475E-02 0. -1.
</event>
<event>
 4   0  0.4892667E-02  0.9118800E+02  0.7818609E-02  0.1379984E+01
      -11   -1    0    0    0    0  0.00000000000E+00  0.00000000000E+00  0.35740347158E-01  0.35744000000E-01  0.51099999109E-03 0.  1.
       11   -1    0    0    0    0 -0.00000000000E+00 -0.00000000000E+00 -0.35740347158E-01  0.35744000000E-01  0.51099999109E-03 0. -1.
       22    1    1    2    0    0  0.30831905308E-01 -0.39532956930E-02  0.17632318427E-01  0.35737005818E-01  0.00000000000E+00 0.  1.
  9000001    1    1    2    0    0 -0.30831905308E-01  0.39532956930E-02 -0.17632318427E-01  0.35750994182E-01  0.10000000475E-02 0. -1.
</event>
<event>
 4   0  0.4892667E-02  0.9118800E+02  0.7818609E-02  0.1379984E+01
      -11   -1    0    0    0    0  0.00000000000E+00  0.00000000000E+00  0.35740347158E-01  0.35744000000E-01  0.51099999109E-03 0. -1.
       11   -1    0    0    0    0 -0.00000000000E+00 -0.00000000000E+00 -0.35740347158E-01  0.35744000000E-01  0.51099999109E-03 0.  1.
       22    1    1    2    0    0 -0.12154758722E-01  0.83326827984E-02 -0.32557054883E-01  0.35737005818E-01  0.00000000000E+00 0.  1.
  9000001    1    1    2    0    0  0.12154758722E-01 -0.83326827984E-02  0.32557054883E-01  0.35750994182E-01  0.10000000475E-02 0. -1.
</event>
<event>
 4   0  0.4892667E-02  0.9118800E+02  0.7818609E-02  0.1379984E+01
      -11   -1    0    0    0    0  0.00000000000E+00  0.00000000000E+00  0.35740347158E-01  0.35744000000E-01  0.51099999109E-03 0. -1.
       11   -1    0    0    0    0 -0.00000000000E+00 -0.00000000000E+00 -0.35740347158E-01  0.35744000000E-01  0.51099999109E-03 0.  1.
       22    1    1    2    0    0 -0.39834383051E-02  0.16172427044E-02 -0.35477462285E-01  0.35737005818E-01  0.00000000000E+00 0.  1.
  9000001    1    1    2    0    0  0.39834383051E-02 -0.16172427044E-02  0.35477462285E-01  0.35750994182E-01  0.10000000475E-02 0. -1.
</event>
<event>
 4   0  0.4892667E-02  0.9118800E+02  0.7818609E-02  0.1379984E+01
      -11   -1    0    0    0    0  0.00000000000E+00  0.00000000000E+00  0.35740347158E-01  0.35744000000E-01  0.51099999109E-03 0.  1.
       11   -1    0    0    0    0 -0.00000000000E+00 -0.00000000000E+00 -0.35740347158E-01  0.35744000000E-01  0.51099999109E-03 0. -1.
       22    1    1    2    0    0 -0.28236771844E-02 -0.32763282899E-02 -0.35474302036E-01  0.35737005818E-01  0.00000000000E+00 0. -1.
  9000001    1    1    2    0    0  0.28236771844E-02  0.32763282899E-02  0.35474302036E-01  0.35750994182E-01  0.10000000475E-02 0.  1.
</event>
<event>
 4   0  0.4892667E-02  0.9118800E+02  0.7818609E-02  0.1379984E+01
      -11   -1    0    0    0    0  0.00000000000E+00  0.00000000000E+00  0.35740347158E-01  0.35744000000E-01  0.51099999109E-03 0. -1.
       11   -1    0    0    0    0 -0.00000000000E+00 -0.00000000000E+00 -0.35740347158E-01  0.35744000000E-01  0.51099999109E-03 0. -1.
       22    1    1    2    0    0 -0.44315899876E-02  0.21313921417E-03 -0.35460529702E-01  0.35737005818E-01  0.00000000000E+00 0. -1.
  9000001    1    1    2    0    0  0.44315899876E-02 -0.21313921417E-03  0.35460529702E-01  0.35750994182E-01  0.10000000475E-02 0. -1.
</event>
<event>
 4   0  0.4892667E-02  0.9118800E+02  0.7818609E-02  0.1379984E+01
      -11   -1    0    0    0    0  0.00000000000E+00  0.00000000000E+00  0.35740347158E-01  0.35744000000E-01  0.51099999109E-03 0. -1.
       11   -1    0    0    0    0 -0.00000000000E+00 -0.00000000000E+00 -0.35740347158E-01  0.35744000000E-01  0.51099999109E-03 0.  1.
       22    1    1    2    0    0 -0.28188951055E-01 -0.92532919360E-02  0.19922178888E-01  0.35737005818E-01  0.00000000000E+00 0. -1.
  9000001    1    1    2    0    0  0.28188951055E-01  0.92532919360E-02 -0.19922178888E-01  0.35750994182E-01  0.10000000475E-02 0.  1.
</event>
<event>
 4   0  0.4892667E-02  0.9118800E+02  0.7818609E-02  0.1379984E+01
      -11   -1    0    0    0    0  0.00000000000E+00  0.00000000000E+00  0.35740347158E-01  0.35744000000E-01  0.51099999109E-03 0. -1.
       11   -1    0    0    0    0 -0.00000000000E+00 -0.00000000000E+00 -0.35740347158E-01  0.35744000000E-01  0.51099999109E-03 0.  1.
       22    1    1    2    0    0 -0.30234066722E-02 -0.41314239311E-02  0.35368403035E-01  0.35737005818E-01  0.00000000000E+00 0. -1.
  9000001    1    1    2    0    0  0.30234066722E-02  0.41314239311E-02 -0.35368403035E-01  0.35750994182E-01  0.10000000475E-02 0.  1.
</event>
<event>
 4   0  0.4892667E-02  0.9118800E+02  0.7818609E-02  0.1379984E+01
      -11   -1    0    0    0    0  0.00000000000E+00  0.00000000000E+00  0.35740347158E-01  0.35744000000E-01  0.51099999109E-03 0. -1.
       11   -1    0    0    0    0 -0.00000000000E+00 -0.00000000000E+00 -0.35740347158E-01  0.35744000000E-01  0.51099999109E-03 0.  1.
       22    1    1    2    0    0  0.99174655945E-03  0.71397248174E-02  0.35002490671E-01  0.35737005818E-01  0.00000000000E+00 0. -1.
  9000001    1    1    2    0    0 -0.99174655945E-03 -0.71397248174E-02 -0.35002490671E-01  0.35750994182E-01  0.10000000475E-02 0.  1.
</event>
<event>
 4   0  0.4892667E-02  0.9118800E+02  0.7818609E-02  0.1379984E+01
      -11   -1    0    0    0    0  0.00000000000E+00  0.00000000000E+00  0.35740347158E-01  0.35744000000E-01  0.51099999109E-03 0. -1.
       11   -1    0    0    0    0 -0.00000000000E+00 -0.00000000000E+00 -0.35740347158E-01  0.35744000000E-01  0.51099999109E-03 0.  1.
       22    1    1    2    0    0  0.43983465751E-02 -0.17768874393E-03 -0.35464863724E-01  0.35737005818E-01  0.00000000000E+00 0.  1.
  9000001    1    1    2    0    0 -0.43983465751E-02  0.17768874393E-03  0.35464863724E-01  0.35750994182E-01  0.10000000475E-02 0. -1.
</event>
<event>
 4   0  0.4892667E-02  0.9118800E+02  0.7818609E-02  0.1379984E+01
      -11   -1    0    0    0    0  0.00000000000E+00  0.00000000000E+00  0.35740347158E-01  0.35744000000E-01  0.51099999109E-03 0. -1.
       11   -1    0    0    0    0 -0.00000000000E+00 -0.00000000000E+00 -0.35740347158E-01  0.35744000000E-01  0.51099999109E-03 0.  1.
       22    1    1    2    0    0  0.53157951205E-02 -0.57387345405E-02 -0.34870371850E-01  0.35737005818E-01  0.00000000000E+00 0.  1.
  9000001    1    1    2    0    0 -0.53157951205E-02  0.57387345405E-02  0.34870371850E-01  0.35750994182E-01  0.10000000475E-02 0. -1.
</event>
<event>
 4   0  0.4892667E-02  0.9118800E+02  0.7818609E-02  0.1379984E+01
      -11   -1    0    0    0    0  0.00000000000E+00  0.00000000000E+00  0.35740347158E-01  0.35744000000E-01  0.51099999109E-03 0.  1.
       11   -1    0    0    0    0 -0.00000000000E+00 -0.00000000000E+00 -0.35740347158E-01  0.35744000000E-01  0.51099999109E-03 0. -1.
       22    1    1    2    0    0 -0.93574591703E-02  0.26822588149E-01 -0.21682257902E-01  0.35737005818E-01  0.00000000000E+00 0. -1.
  9000001    1    1    2    0    0  0.93574591703E-02 -0.26822588149E-01  0.21682257902E-01  0.35750994182E-01  0.10000000475E-02 0.  1.
</event>
<event>
 4   0  0.4892667E-02  0.9118800E+02  0.7818609E-02  0.1379984E+01
      -11   -1    0    0    0    0  0.00000000000E+00  0.00000000000E+00  0.35740347158E-01  0.35744000000E-01  0.51099999109E-03 0. -1.
       11   -1    0    0    0    0 -0.00000000000E+00 -0.00000000000E+00 -0.35740347158E-01  0.35744000000E-01  0.51099999109E-03 0.  1.
       22    1    1    2    0    0 -0.19744941802E-01 -0.11595996940E-01  0.27437268688E-01  0.35737005818E-01  0.00000000000E+00 0. -1.
  9000001    1    1    2    0    0  0.19744941802E-01  0.11595996940E-01 -0.27437268688E-01  0.35750994182E-01  0.10000000475E-02 0.  1.
</event>
<event>
 4   0  0.4892667E-02  0.9118800E+02  0.7818609E-02  0.1379984E+01
      -11   -1    0    0    0    0  0.00000000000E+00  0.00000000000E+00  0.35740347158E-01  0.35744000000E-01  0.51099999109E-03 0. -1.
       11   -1    0    0    0    0 -0.00000000000E+00 -0.00000000000E+00 -0.35740347158E-01  0.35744000000E-01  0.51099999109E-03 0.  1.
       22    1    1    2    0    0  0.38392982729E-02  0.26695670995E-02 -0.35429744356E-01  0.35737005818E-01  0.00000000000E+00 0.  1.
  9000001    1    1    2    0    0 -0.38392982729E-02 -0.26695670995E-02  0.35429744356E-01  0.35750994182E-01  0.10000000475E-02 0. -1.
</event>
<event>
 4   0  0.4892667E-02  0.9118800E+02  0.7818609E-02  0.1379984E+01
      -11   -1    0    0    0    0  0.00000000000E+00  0.00000000000E+00  0.35740347158E-01  0.35744000000E-01  0.51099999109E-03 0.  1.
       11   -1    0    0    0    0 -0.00000000000E+00 -0.00000000000E+00 -0.35740347158E-01  0.35744000000E-01  0.51099999109E-03 0. -1.
       22    1    1    2    0    0  0.53096503646E-02 -0.43472035265E-02  0.35071969140E-01  0.35737005818E-01  0.00000000000E+00 0.  1.
  9000001    1    1    2    0    0 -0.53096503646E-02  0.43472035265E-02 -0.35071969140E-01  0.35750994182E-01  0.10000000475E-02 0. -1.
</event>
<event>
 4   0  0.4892667E-02  0.9118800E+02  0.7818609E-02  0.1379984E+01
      -11   -1    0    0    0    0  0.00000000000E+00  0.00000000000E+00  0.35740347158E-01  0.35744000000E-01  0.51099999109E-03 0. -1.
       11   -1    0    0    0    0 -0.00000000000E+00 -0.00000000000E+00 -0.35740347158E-01  0.35744000000E-01  0.51099999109E-03 0.  1.
       22    1    1    2    0    0  0.32164141991E-02 -0.26771923096E-02 -0.35491138414E-01  0.35737005818E-01  0.00000000000E+00 0.  1.
  9000001    1    1    2    0    0 -0.32164141991E-02  0.26771923096E-02  0.35491138414E-01  0.35750994182E-01  0.10000000475E-02 0. -1.
</event>
<event>
 4   0  0.4892667E-02  0.9118800E+02  0.7818609E-02  0.1379984E+01
      -11   -1    0    0    0    0  0.00000000000E+00  0.00000000000E+00  0.35740347158E-01  0.35744000000E-01  0.51099999109E-03 0. -1.
       11   -1    0    0    0    0 -0.00000000000E+00 -0.00000000000E+00 -0.35740347158E-01  0.35744000000E-01  0.51099999109E-03 0.  1.
       22    1    1    2    0    0 -0.14074248239E-02  0.27799666966E-02  0.35600906244E-01  0.35737005818E-01  0.00000000000E+00 0. -1.
  9000001    1    1    2    0    0  0.14074248239E-02 -0.27799666966E-02 -0.35600906244E-01  0.35750994182E-01  0.10000000475E-02 0.  1.
</event>
<event>
 4   0  0.4892667E-02  0.9118800E+02  0.7818609E-02  0.1379984E+01
      -11   -1    0    0    0    0  0.00000000000E+00  0.00000000000E+00  0.35740347158E-01  0.35744000000E-01  0.51099999109E-03 0.  1.
       11   -1    0    0    0    0 -0.00000000000E+00 -0.00000000000E+00 -0.35740347158E-01  0.35744000000E-01  0.51099999109E-03 0. -1.
       22    1    1    2    0    0 -0.95942915506E-03  0.39891733707E-02  0.35500698252E-01  0.35737005818E-01  0.00000000000E+00 0.  1.
  9000001    1    1    2    0    0  0.95942915506E-03 -0.39891733707E-02 -0.35500698252E-01  0.35750994182E-01  0.10000000475E-02 0. -1.
</event>
<event>
 4   0  0.4892667E-02  0.9118800E+02  0.7818609E-02  0.1379984E+01
      -11   -1    0    0    0    0  0.00000000000E+00  0.00000000000E+00  0.35740347158E-01  0.35744000000E-01  0.51099999109E-03 0. -1.
       11   -1    0    0    0    0 -0.00000000000E+00 -0.00000000000E+00 -0.35740347158E-01  0.35744000000E-01  0.51099999109E-03 0.  1.
       22    1    1    2    0    0  0.40675463358E-02 -0.27664689543E-02 -0.35396826146E-01  0.35737005818E-01  0.00000000000E+00 0.  1.
  9000001    1    1    2    0    0 -0.40675463358E-02  0.27664689543E-02  0.35396826146E-01  0.35750994182E-01  0.10000000475E-02 0. -1.
</event>
<event>
 4   0  0.4892667E-02  0.9118800E+02  0.7818609E-02  0.1379984E+01
      -11   -1    0    0    0    0  0.00000000000E+00  0.00000000000E+00  0.35740347158E-01  0.35744000000E-01  0.51099999109E-03 0. -1.
       11   -1    0    0    0    0 -0.00000000000E+00 -0.00000000000E+00 -0.35740347158E-01  0.35744000000E-01  0.51099999109E-03 0.  1.
       22    1    1    2    0    0  0.17910962416E-01  0.51494305232E-02  0.30492857778E-01  0.35737005818E-01  0.00000000000E+00 0. -1.
  9000001    1    1    2    0    0 -0.17910962416E-01 -0.51494305232E-02 -0.30492857778E-01  0.35750994182E-01  0.10000000475E-02 0.  1.
</event>
<event>
 4   0  0.4892667E-02  0.9118800E+02  0.7818609E-02  0.1379984E+01
      -11   -1    0    0    0    0  0.00000000000E+00  0.00000000000E+00  0.35740347158E-01  0.35744000000E-01  0.51099999109E-03 0. -1.
       11   -1    0    0    0    0 -0.00000000000E+00 -0.00000000000E+00 -0.35740347158E-01  0.35744000000E-01  0.51099999109E-03 0.  1.
       22    1    1    2    0    0 -0.60746905392E-02  0.46373229583E-02  0.34910270058E-01  0.35737005818E-01  0.00000000000E+00 0. -1.
  9000001    1    1    2    0    0  0.60746905392E-02 -0.46373229583E-02 -0.34910270058E-01  0.35750994182E-01  0.10000000475E-02 0.  1.
</event>
<event>
 4   0  0.4892667E-02  0.9118800E+02  0.7818609E-02  0.1379984E+01
      -11   -1    0    0    0    0  0.00000000000E+00  0.00000000000E+00  0.35740347158E-01  0.35744000000E-01  0.51099999109E-03 0. -1.
       11   -1    0    0    0    0 -0.00000000000E+00 -0.00000000000E+00 -0.35740347158E-01  0.35744000000E-01  0.51099999109E-03 0.  1.
       22    1    1    2    0    0  0.46338617770E-03 -0.70254608666E-02  0.35036577426E-01  0.35737005818E-01  0.00000000000E+00 0. -1.
  9000001    1    1    2    0    0 -0.46338617770E-03  0.70254608666E-02 -0.35036577426E-01  0.35750994182E-01  0.10000000475E-02 0.  1.
</event>
<event>
 4   0  0.4892667E-02  0.9118800E+02  0.7818609E-02  0.1379984E+01
      -11   -1    0    0    0    0  0.00000000000E+00  0.00000000000E+00  0.35740347158E-01  0.35744000000E-01  0.51099999109E-03 0.  1.
       11   -1    0    0    0    0 -0.00000000000E+00 -0.00000000000E+00 -0.35740347158E-01  0.35744000000E-01  0.51099999109E-03 0. -1.
       22    1    1    2    0    0  0.43415936166E-02  0.28636892301E-02 -0.35356518971E-01  0.35737005818E-01  0.00000000000E+00 0. -1.
  9000001    1    1    2    0    0 -0.43415936166E-02 -0.28636892301E-02  0.35356518971E-01  0.35750994182E-01  0.10000000475E-02 0.  1.
</event>
<event>
 4   0  0.4892667E-02  0.9118800E+02  0.7818609E-02  0.1379984E+01
      -11   -1    0    0    0    0  0.00000000000E+00  0.00000000000E+00  0.35740347158E-01  0.35744000000E-01  0.51099999109E-03 0.  1.
       11   -1    0    0    0    0 -0.00000000000E+00 -0.00000000000E+00 -0.35740347158E-01  0.35744000000E-01  0.51099999109E-03 0.  1.
       22    1    1    2    0    0 -0.53595688239E-02  0.19715450962E-03 -0.35332276137E-01  0.35737005818E-01  0.00000000000E+00 0.  1.
  9000001    1    1    2    0    0  0.53595688239E-02 -0.19715450962E-03  0.35332276137E-01  0.35750994182E-01  0.10000000475E-02 0.  1.
</event>
<event>
 4   0  0.4892667E-02  0.9118800E+02  0.7818609E-02  0.1379984E+01
      -11   -1    0    0    0    0  0.00000000000E+00  0.00000000000E+00  0.35740347158E-01  0.35744000000E-01  0.51099999109E-03 0. -1.
       11   -1    0    0    0    0 -0.00000000000E+00 -0.00000000000E+00 -0.35740347158E-01  0.35744000000E-01  0.51099999109E-03 0.  1.
       22    1    1    2    0    0  0.14900217583E-02 -0.43761193722E-02  0.35436746454E-01  0.35737005818E-01  0.00000000000E+00 0. -1.
  9000001    1    1    2    0    0 -0.14900217583E-02  0.43761193722E-02 -0.35436746454E-01  0.35750994182E-01  0.10000000475E-02 0.  1.
</event>
<event>
 4   0  0.4892667E-02  0.9118800E+02  0.7818609E-02  0.1379984E+01
      -11   -1    0    0    0    0  0.00000000000E+00  0.00000000000E+00  0.35740347158E-01  0.35744000000E-01  0.51099999109E-03 0.  1.
       11   -1    0    0    0    0 -0.00000000000E+00 -0.00000000000E+00 -0.35740347158E-01  0.35744000000E-01  0.51099999109E-03 0. -1.
       22    1    1    2    0    0  0.34076260712E-02  0.82329967571E-02 -0.34608372308E-01  0.35737005818E-01  0.00000000000E+00 0. -1.
  9000001    1    1    2    0    0 -0.34076260712E-02 -0.82329967571E-02  0.34608372308E-01  0.35750994182E-01  0.10000000475E-02 0.  1.
</event>
<event>
 4   0  0.4892667E-02  0.9118800E+02  0.7818609E-02  0.1379984E+01
      -11   -1    0    0    0    0  0.00000000000E+00  0.00000000000E+00  0.35740347158E-01  0.35744000000E-01  0.51099999109E-03 0.  1.
       11   -1    0    0    0    0 -0.00000000000E+00 -0.00000000000E+00 -0.35740347158E-01  0.35744000000E-01  0.51099999109E-03 0. -1.
       22    1    1    2    0    0  0.29370971134E-02 -0.26205351027E-02  0.35519569834E-01  0.35737005818E-01  0.00000000000E+00 0.  1.
  9000001    1    1    2    0    0 -0.29370971134E-02  0.26205351027E-02 -0.35519569834E-01  0.35750994182E-01  0.10000000475E-02 0. -1.
</event>
<event>
 4   0  0.4892667E-02  0.9118800E+02  0.7818609E-02  0.1379984E+01
      -11   -1    0    0    0    0  0.00000000000E+00  0.00000000000E+00  0.35740347158E-01  0.35744000000E-01  0.51099999109E-03 0.  1.
       11   -1    0    0    0    0 -0.00000000000E+00 -0.00000000000E+00 -0.35740347158E-01  0.35744000000E-01  0.51099999109E-03 0. -1.
       22    1    1    2    0    0  0.10983672481E-01  0.68964133674E-02  0.33300630720E-01  0.35737005818E-01  0.00000000000E+00 0.  1.
  9000001    1    1    2    0    0 -0.10983672481E-01 -0.68964133674E-02 -0.33300630720E-01  0.35750994182E-01  0.10000000475E-02 0. -1.
</event>
<event>
 4   0  0.4892667E-02  0.9118800E+02  0.7818609E-02  0.1379984E+01
      -11   -1    0    0    0    0  0.00000000000E+00  0.00000000000E+00  0.35740347158E-01  0.35744000000E-01  0.51099999109E-03 0. -1.
       11   -1    0    0    0    0 -0.00000000000E+00 -0.00000000000E+00 -0.35740347158E-01  0.35744000000E-01  0.51099999109E-03 0.  1.
       22    1    1    2    0    0  0.69524860611E-02  0.18124820479E-02  0.35007305399E-01  0.35737005818E-01  0.00000000000E+00 0. -1.
  9000001    1    1    2    0    0 -0.69524860611E-02 -0.18124820479E-02 -0.35007305399E-01  0.35750994182E-01  0.10000000475E-02 0.  1.
</event>
<event>
 4   0  0.4892667E-02  0.9118800E+02  0.7818609E-02  0.1379984E+01
      -11   -1    0    0    0    0  0.00000000000E+00  0.00000000000E+00  0.35740347158E-01  0.35744000000E-01  0.51099999109E-03 0.  1.
       11   -1    0    0    0    0 -0.00000000000E+00 -0.00000000000E+00 -0.35740347158E-01  0.35744000000E-01  0.51099999109E-03 0. -1.
       22    1    1    2    0    0 -0.35831750944E-02  0.10393062041E-01 -0.34004098320E-01  0.35737005818E-01  0.00000000000E+00 0. -1.
  9000001    1    1    2    0    0  0.35831750944E-02 -0.10393062041E-01  0.34004098320E-01  0.35750994182E-01  0.10000000475E-02 0.  1.
</event>
<event>
 4   0  0.4892667E-02  0.9118800E+02  0.7818609E-02  0.1379984E+01
      -11   -1    0    0    0    0  0.00000000000E+00  0.00000000000E+00  0.35740347158E-01  0.35744000000E-01  0.51099999109E-03 0.  1.
       11   -1    0    0    0    0 -0.00000000000E+00 -0.00000000000E+00 -0.35740347158E-01  0.35744000000E-01  0.51099999109E-03 0. -1.
       22    1    1    2    0    0  0.55964924216E-02  0.24550733360E-02 -0.35210587504E-01  0.35737005818E-01  0.00000000000E+00 0. -1.
  9000001    1    1    2    0    0 -0.55964924216E-02 -0.24550733360E-02  0.35210587504E-01  0.35750994182E-01  0.10000000475E-02 0.  1.
</event>
<event>
 4   0  0.4892667E-02  0.9118800E+02  0.7818609E-02  0.1379984E+01
      -11   -1    0    0    0    0  0.00000000000E+00  0.00000000000E+00  0.35740347158E-01  0.35744000000E-01  0.51099999109E-03 0. -1.
       11   -1    0    0    0    0 -0.00000000000E+00 -0.00000000000E+00 -0.35740347158E-01  0.35744000000E-01  0.51099999109E-03 0.  1.
       22    1    1    2    0    0  0.91072293536E-02  0.20089765878E-01 -0.28117490381E-01  0.35737005818E-01  0.00000000000E+00 0.  1.
  9000001    1    1    2    0    0 -0.91072293536E-02 -0.20089765878E-01  0.28117490381E-01  0.35750994182E-01  0.10000000475E-02 0. -1.
</event>
<event>
 4   0  0.4892667E-02  0.9118800E+02  0.7818609E-02  0.1379984E+01
      -11   -1    0    0    0    0  0.00000000000E+00  0.00000000000E+00  0.35740347158E-01  0.35744000000E-01  0.51099999109E-03 0. -1.
       11   -1    0    0    0    0 -0.00000000000E+00 -0.00000000000E+00 -0.35740347158E-01  0.35744000000E-01  0.51099999109E-03 0.  1.
       22    1    1    2    0    0  0.79510219106E-02 -0.35163647109E-03 -0.34839506128E-01  0.35737005818E-01  0.00000000000E+00 0.  1.
  9000001    1    1    2    0    0 -0.79510219106E-02  0.35163647109E-03  0.34839506128E-01  0.35750994182E-01  0.10000000475E-02 0. -1.
</event>
<event>
 4   0  0.4892667E-02  0.9118800E+02  0.7818609E-02  0.1379984E+01
      -11   -1    0    0    0    0  0.00000000000E+00  0.00000000000E+00  0.35740347158E-01  0.35744000000E-01  0.51099999109E-03 0.  1.
       11   -1    0    0    0    0 -0.00000000000E+00 -0.00000000000E+00 -0.35740347158E-01  0.35744000000E-01  0.51099999109E-03 0. -1.
       22    1    1    2    0    0  0.28701802131E-01 -0.16125399988E-01 -0.13903654719E-01  0.35737005818E-01  0.00000000000E+00 0. -1.
  9000001    1    1    2    0    0 -0.28701802131E-01  0.16125399988E-01  0.13903654719E-01  0.35750994182E-01  0.10000000475E-02 0.  1.
</event>
<event>
 4   0  0.4892667E-02  0.9118800E+02  0.7818609E-02  0.1379984E+01
      -11   -1    0    0    0    0  0.00000000000E+00  0.00000000000E+00  0.35740347158E-01  0.35744000000E-01  0.51099999109E-03 0. -1.
       11   -1    0    0    0    0 -0.00000000000E+00 -0.00000000000E+00 -0.35740347158E-01  0.35744000000E-01  0.51099999109E-03 0.  1.
       22    1    1    2    0    0  0.35518386671E-01  0.38824336557E-02 -0.71028308352E-03  0.35737005818E-01  0.00000000000E+00 0. -1.
  9000001    1    1    2    0    0 -0.35518386671E-01 -0.38824336557E-02  0.71028308352E-03  0.35750994182E-01  0.10000000475E-02 0.  1.
</event>
<event>
 4   0  0.4892667E-02  0.9118800E+02  0.7818609E-02  0.1379984E+01
      -11   -1    0    0    0    0  0.00000000000E+00  0.00000000000E+00  0.35740347158E-01  0.35744000000E-01  0.51099999109E-03 0. -1.
       11   -1    0    0    0    0 -0.00000000000E+00 -0.00000000000E+00 -0.35740347158E-01  0.35744000000E-01  0.51099999109E-03 0.  1.
       22    1    1    2    0    0 -0.33912106820E-02  0.82774000068E-03 -0.35566109170E-01  0.35737005818E-01  0.00000000000E+00 0.  1.
  9000001    1    1    2    0    0  0.33912106820E-02 -0.82774000068E-03  0.35566109170E-01  0.35750994182E-01  0.10000000475E-02 0. -1.
</event>
<event>
 4   0  0.4892667E-02  0.9118800E+02  0.7818609E-02  0.1379984E+01
      -11   -1    0    0    0    0  0.00000000000E+00  0.00000000000E+00  0.35740347158E-01  0.35744000000E-01  0.51099999109E-03 0.  1.
       11   -1    0    0    0    0 -0.00000000000E+00 -0.00000000000E+00 -0.35740347158E-01  0.35744000000E-01  0.51099999109E-03 0. -1.
       22    1    1    2    0    0 -0.66732725686E-02 -0.79743078142E-02  0.34190809189E-01  0.35737005818E-01  0.00000000000E+00 0.  1.
  9000001    1    1    2    0    0  0.66732725686E-02  0.79743078142E-02 -0.34190809189E-01  0.35750994182E-01  0.10000000475E-02 0. -1.
</event>
<event>
 4   0  0.4892667E-02  0.9118800E+02  0.7818609E-02  0.1379984E+01
      -11   -1    0    0    0    0  0.00000000000E+00  0.00000000000E+00  0.35740347158E-01  0.35744000000E-01  0.51099999109E-03 0.  1.
       11   -1    0    0    0    0 -0.00000000000E+00 -0.00000000000E+00 -0.35740347158E-01  0.35744000000E-01  0.51099999109E-03 0. -1.
       22    1    1    2    0    0  0.42632703357E-02 -0.81727459425E-03  0.35472386065E-01  0.35737005818E-01  0.00000000000E+00 0.  1.
  9000001    1    1    2    0    0 -0.42632703357E-02  0.81727459425E-03 -0.35472386065E-01  0.35750994182E-01  0.10000000475E-02 0. -1.
</event>
<event>
 4   0  0.4892667E-02  0.9118800E+02  0.7818609E-02  0.1379984E+01
      -11   -1    0    0    0    0  0.00000000000E+00  0.00000000000E+00  0.35740347158E-01  0.35744000000E-01  0.51099999109E-03 0. -1.
       11   -1    0    0    0    0 -0.00000000000E+00 -0.00000000000E+00 -0.35740347158E-01  0.35744000000E-01  0.51099999109E-03 0.  1.
       22    1    1    2    0    0  0.44950467417E-02  0.32753926743E-01  0.13568655887E-01  0.35737005818E-01  0.00000000000E+00 0. -1.
  9000001    1    1    2    0    0 -0.44950467417E-02 -0.32753926743E-01 -0.13568655887E-01  0.35750994182E-01  0.10000000475E-02 0.  1.
</event>
<event>
 4   0  0.4892667E-02  0.9118800E+02  0.7818609E-02  0.1379984E+01
      -11   -1    0    0    0    0  0.00000000000E+00  0.00000000000E+00  0.35740347158E-01  0.35744000000E-01  0.51099999109E-03 0.  1.
       11   -1    0    0    0    0 -0.00000000000E+00 -0.00000000000E+00 -0.35740347158E-01  0.35744000000E-01  0.51099999109E-03 0. -1.
       22    1    1    2    0    0 -0.23909686977E-02  0.58544705079E-02 -0.35173029847E-01  0.35737005818E-01  0.00000000000E+00 0. -1.
  9000001    1    1    2    0    0  0.23909686977E-02 -0.58544705079E-02  0.35173029847E-01  0.35750994182E-01  0.10000000475E-02 0.  1.
</event>
<event>
 4   0  0.4892667E-02  0.9118800E+02  0.7818609E-02  0.1379984E+01
      -11   -1    0    0    0    0  0.00000000000E+00  0.00000000000E+00  0.35740347158E-01  0.35744000000E-01  0.51099999109E-03 0. -1.
       11   -1    0    0    0    0 -0.00000000000E+00 -0.00000000000E+00 -0.35740347158E-01  0.35744000000E-01  0.51099999109E-03 0.  1.
       22    1    1    2    0    0  0.56531832944E-02  0.96760799632E-02 -0.33934474802E-01  0.35737005818E-01  0.00000000000E+00 0.  1.
  9000001    1    1    2    0    0 -0.56531832944E-02 -0.96760799632E-02  0.33934474802E-01  0.35750994182E-01  0.10000000475E-02 0. -1.
</event>
<event>
 4   0  0.4892667E-02  0.9118800E+02  0.7818609E-02  0.1379984E+01
      -11   -1    0    0    0    0  0.00000000000E+00  0.00000000000E+00  0.35740347158E-01  0.35744000000E-01  0.51099999109E-03 0. -1.
       11   -1    0    0    0    0 -0.00000000000E+00 -0.00000000000E+00 -0.35740347158E-01  0.35744000000E-01  0.51099999109E-03 0.  1.
       22    1    1    2    0    0 -0.63557575409E-02  0.41928107527E-03 -0.35164785430E-01  0.35737005818E-01  0.00000000000E+00 0.  1.
  9000001    1    1    2    0    0  0.63557575409E-02 -0.41928107527E-03  0.35164785430E-01  0.35750994182E-01  0.10000000475E-02 0. -1.
</event>
<event>
 4   0  0.4892667E-02  0.9118800E+02  0.7818609E-02  0.1379984E+01
      -11   -1    0    0    0    0  0.00000000000E+00  0.00000000000E+00  0.35740347158E-01  0.35744000000E-01  0.51099999109E-03 0.  1.
       11   -1    0    0    0    0 -0.00000000000E+00 -0.00000000000E+00 -0.35740347158E-01  0.35744000000E-01  0.51099999109E-03 0. -1.
       22    1    1    2    0    0 -0.32164622717E-02  0.87488554806E-03  0.35581210359E-01  0.35737005818E-01  0.00000000000E+00 0.  1.
  9000001    1    1    2    0    0  0.32164622717E-02 -0.87488554806E-03 -0.35581210359E-01  0.35750994182E-01  0.10000000475E-02 0. -1.
</event>
<event>
 4   0  0.4892667E-02  0.9118800E+02  0.7818609E-02  0.1379984E+01
      -11   -1    0    0    0    0  0.00000000000E+00  0.00000000000E+00  0.35740347158E-01  0.35744000000E-01  0.51099999109E-03 0. -1.
       11   -1    0    0    0    0 -0.00000000000E+00 -0.00000000000E+00 -0.35740347158E-01  0.35744000000E-01  0.51099999109E-03 0.  1.
       22    1    1    2    0    0  0.82849864271E-02 -0.11506161783E-01 -0.32803975762E-01  0.35737005818E-01  0.00000000000E+00 0.  1.
  9000001    1    1    2    0    0 -0.82849864271E-02  0.11506161783E-01  0.32803975762E-01  0.35750994182E-01  0.10000000475E-02 0. -1.
</event>
<event>
 4   0  0.4892667E-02  0.9118800E+02  0.7818609E-02  0.1379984E+01
      -11   -1    0    0    0    0  0.00000000000E+00  0.00000000000E+00  0.35740347158E-01  0.35744000000E-01  0.51099999109E-03 0. -1.
       11   -1    0    0    0    0 -0.00000000000E+00 -0.00000000000E+00 -0.35740347158E-01  0.35744000000E-01  0.51099999109E-03 0.  1.
       22    1    1    2    0    0  0.12592572144E-02 -0.56141410651E-02  0.35270799200E-01  0.35737005818E-01  0.00000000000E+00 0. -1.
  9000001    1    1    2    0    0 -0.12592572144E-02  0.56141410651E-02 -0.35270799200E-01  0.35750994182E-01  0.10000000475E-02 0.  1.
</event>
<event>
 4   0  0.4892667E-02  0.9118800E+02  0.7818609E-02  0.1379984E+01
      -11   -1    0    0    0    0  0.00000000000E+00  0.00000000000E+00  0.35740347158E-01  0.35744000000E-01  0.51099999109E-03 0. -1.
       11   -1    0    0    0    0 -0.00000000000E+00 -0.00000000000E+00 -0.35740347158E-01  0.35744000000E-01  0.51099999109E-03 0.  1.
       22    1    1    2    0    0  0.25404532791E-01 -0.11724696524E-01  0.22232291604E-01  0.35737005818E-01  0.00000000000E+00 0. -1.
  9000001    1    1    2    0    0 -0.25404532791E-01  0.11724696524E-01 -0.22232291604E-01  0.35750994182E-01  0.10000000475E-02 0.  1.
</event>
<event>
 4   0  0.4892667E-02  0.9118800E+02  0.7818609E-02  0.1379984E+01
      -11   -1    0    0    0    0  0.00000000000E+00  0.00000000000E+00  0.35740347158E-01  0.35744000000E-01  0.51099999109E-03 0. -1.
       11   -1    0    0    0    0 -0.00000000000E+00 -0.00000000000E+00 -0.35740347158E-01  0.35744000000E-01  0.51099999109E-03 0.  1.
       22    1    1    2    0    0 -0.18843670098E-02  0.31295201617E-02 -0.35549808008E-01  0.35737005818E-01  0.00000000000E+00 0.  1.
  9000001    1    1    2    0    0  0.18843670098E-02 -0.31295201617E-02  0.35549808008E-01  0.35750994182E-01  0.10000000475E-02 0. -1.
</event>
<event>
 4   0  0.4892667E-02  0.9118800E+02  0.7818609E-02  0.1379984E+01
      -11   -1    0    0    0    0  0.00000000000E+00  0.00000000000E+00  0.35740347158E-01  0.35744000000E-01  0.51099999109E-03 0.  1.
       11   -1    0    0    0    0 -0.00000000000E+00 -0.00000000000E+00 -0.35740347158E-01  0.35744000000E-01  0.51099999109E-03 0. -1.
       22    1    1    2    0    0 -0.35441966699E-02  0.91031112417E-03 -0.35549171418E-01  0.35737005818E-01  0.00000000000E+00 0. -1.
  9000001    1    1    2    0    0  0.35441966699E-02 -0.91031112417E-03  0.35549171418E-01  0.35750994182E-01  0.10000000475E-02 0.  1.
</event>
<event>
 4   0  0.4892667E-02  0.9118800E+02  0.7818609E-02  0.1379984E+01
      -11   -1    0    0    0    0  0.00000000000E+00  0.00000000000E+00  0.35740347158E-01  0.35744000000E-01  0.51099999109E-03 0.  1.
       11   -1    0    0    0    0 -0.00000000000E+00 -0.00000000000E+00 -0.35740347158E-01  0.35744000000E-01  0.51099999109E-03 0. -1.
       22    1    1    2    0    0 -0.85365047950E-02  0.33258940152E-01 -0.99047751479E-02  0.35737005818E-01  0.00000000000E+00 0. -1.
  9000001    1    1    2    0    0  0.85365047950E-02 -0.33258940152E-01  0.99047751479E-02  0.35750994182E-01  0.10000000475E-02 0.  1.
</event>
<event>
 4   0  0.4892667E-02  0.9118800E+02  0.7818609E-02  0.1379984E+01
      -11   -1    0    0    0    0  0.00000000000E+00  0.00000000000E+00  0.35740347158E-01  0.35744000000E-01  0.51099999109E-03 0.  1.
       11   -1    0    0    0    0 -0.00000000000E+00 -0.00000000000E+00 -0.35740347158E-01  0.35744000000E-01  0.51099999109E-03 0. -1.
       22    1    1    2    0    0  0.31261798858E-02 -0.10581603787E-02 -0.35584278562E-01  0.35737005818E-01  0.00000000000E+00 0. -1.
  9000001    1    1    2    0    0 -0.31261798858E-02  0.10581603787E-02  0.35584278562E-01  0.35750994182E-01  0.10000000475E-02 0.  1.
</event>
<event>
 4   0  0.4892667E-02  0.9118800E+02  0.7818609E-02  0.1379984E+01
      -11   -1    0    0    0    0  0.00000000000E+00  0.00000000000E+00  0.35740347158E-01  0.35744000000E-01  0.51099999109E-03 0.  1.
       11   -1    0    0    0    0 -0.00000000000E+00 -0.00000000000E+00 -0.35740347158E-01  0.35744000000E-01  0.51099999109E-03 0. -1.
       22    1    1    2    0    0 -0.47754181814E-02 -0.15642710655E-02  0.35381944860E-01  0.35737005818E-01  0.00000000000E+00 0.  1.
  9000001    1    1    2    0    0  0.47754181814E-02  0.15642710655E-02 -0.35381944860E-01  0.35750994182E-01  0.10000000475E-02 0. -1.
</event>
<event>
 4   0  0.4892667E-02  0.9118800E+02  0.7818609E-02  0.1379984E+01
      -11   -1    0    0    0    0  0.00000000000E+00  0.00000000000E+00  0.35740347158E-01  0.35744000000E-01  0.51099999109E-03 0.  1.
       11   -1    0    0    0    0 -0.00000000000E+00 -0.00000000000E+00 -0.35740347158E-01  0.35744000000E-01  0.51099999109E-03 0. -1.
       22    1    1    2    0    0 -0.53052890064E-02 -0.19047205587E-02  0.35289651925E-01  0.35737005818E-01  0.00000000000E+00 0.  1.
  9000001    1    1    2    0    0  0.53052890064E-02  0.19047205587E-02 -0.35289651925E-01  0.35750994182E-01  0.10000000475E-02 0. -1.
</event>
<event>
 4   0  0.4892667E-02  0.9118800E+02  0.7818609E-02  0.1379984E+01
      -11   -1    0    0    0    0  0.00000000000E+00  0.00000000000E+00  0.35740347158E-01  0.35744000000E-01  0.51099999109E-03 0.  1.
       11   -1    0    0    0    0 -0.00000000000E+00 -0.00000000000E+00 -0.35740347158E-01  0.35744000000E-01  0.51099999109E-03 0. -1.
       22    1    1    2    0    0  0.69465614763E-02 -0.17357022770E-02 -0.35012372187E-01  0.35737005818E-01  0.00000000000E+00 0. -1.
  9000001    1    1    2    0    0 -0.69465614763E-02  0.17357022770E-02  0.35012372187E-01  0.35750994182E-01  0.10000000475E-02 0.  1.
</event>
<event>
 4   0  0.4892667E-02  0.9118800E+02  0.7818609E-02  0.1379984E+01
      -11   -1    0    0    0    0  0.00000000000E+00  0.00000000000E+00  0.35740347158E-01  0.35744000000E-01  0.51099999109E-03 0.  1.
       11   -1    0    0    0    0 -0.00000000000E+00 -0.00000000000E+00 -0.35740347158E-01  0.35744000000E-01  0.51099999109E-03 0. -1.
       22    1    1    2    0    0  0.78439891360E-03 -0.63554337494E-02  0.35158594470E-01  0.35737005818E-01  0.00000000000E+00 0.  1.
  9000001    1    1    2    0    0 -0.78439891360E-03  0.63554337494E-02 -0.35158594470E-01  0.35750994182E-01  0.10000000475E-02 0. -1.
</event>
<event>
 4   0  0.4892667E-02  0.9118800E+02  0.7818609E-02  0.1379984E+01
      -11   -1    0    0    0    0  0.00000000000E+00  0.00000000000E+00  0.35740347158E-01  0.35744000000E-01  0.51099999109E-03 0. -1.
       11   -1    0    0    0    0 -0.00000000000E+00 -0.00000000000E+00 -0.35740347158E-01  0.35744000000E-01  0.51099999109E-03 0.  1.
       22    1    1    2    0    0  0.37565471199E-02  0.27101648579E-02  0.35435532239E-01  0.35737005818E-01  0.00000000000E+00 0. -1.
  9000001    1    1    2    0    0 -0.37565471199E-02 -0.27101648579E-02 -0.35435532239E-01  0.35750994182E-01  0.10000000475E-02 0.  1.
</event>
<event>
 4   0  0.4892667E-02  0.9118800E+02  0.7818609E-02  0.1379984E+01
      -11   -1    0    0    0    0  0.00000000000E+00  0.00000000000E+00  0.35740347158E-01  0.35744000000E-01  0.51099999109E-03 0. -1.
       11   -1    0    0    0    0 -0.00000000000E+00 -0.00000000000E+00 -0.35740347158E-01  0.35744000000E-01  0.51099999109E-03 0.  1.
       22    1    1    2    0    0 -0.59533734786E-02 -0.73705299239E-02  0.34458180708E-01  0.35737005818E-01  0.00000000000E+00 0. -1.
  9000001    1    1    2    0    0  0.59533734786E-02  0.73705299239E-02 -0.34458180708E-01  0.35750994182E-01  0.10000000475E-02 0.  1.
</event>
<event>
 4   0  0.4892667E-02  0.9118800E+02  0.7818609E-02  0.1379984E+01
      -11   -1    0    0    0    0  0.00000000000E+00  0.00000000000E+00  0.35740347158E-01  0.35744000000E-01  0.51099999109E-03 0.  1.
       11   -1    0    0    0    0 -0.00000000000E+00 -0.00000000000E+00 -0.35740347158E-01  0.35744000000E-01  0.51099999109E-03 0. -1.
       22    1    1    2    0    0 -0.70233411891E-03  0.78127491228E-02 -0.34865473793E-01  0.35737005818E-01  0.00000000000E+00 0. -1.
  9000001    1    1    2    0    0  0.70233411891E-03 -0.78127491228E-02  0.34865473793E-01  0.35750994182E-01  0.10000000475E-02 0.  1.
</event>
<event>
 4   0  0.4892667E-02  0.9118800E+02  0.7818609E-02  0.1379984E+01
      -11   -1    0    0    0    0  0.00000000000E+00  0.00000000000E+00  0.35740347158E-01  0.35744000000E-01  0.51099999109E-03 0. -1.
       11   -1    0    0    0    0 -0.00000000000E+00 -0.00000000000E+00 -0.35740347158E-01  0.35744000000E-01  0.51099999109E-03 0.  1.
       22    1    1    2    0    0  0.13829991559E-01 -0.16264783609E-01  0.28658711285E-01  0.35737005818E-01  0.00000000000E+00 0. -1.
  9000001    1    1    2    0    0 -0.13829991559E-01  0.16264783609E-01 -0.28658711285E-01  0.35750994182E-01  0.10000000475E-02 0.  1.
</event>
<event>
 4   0  0.4892667E-02  0.9118800E+02  0.7818609E-02  0.1379984E+01
      -11   -1    0    0    0    0  0.00000000000E+00  0.00000000000E+00  0.35740347158E-01  0.35744000000E-01  0.51099999109E-03 0. -1.
       11   -1    0    0    0    0 -0.00000000000E+00 -0.00000000000E+00 -0.35740347158E-01  0.35744000000E-01  0.51099999109E-03 0.  1.
       22    1    1    2    0    0 -0.22747815760E-02 -0.80230308029E-02  0.34750394680E-01  0.35737005818E-01  0.00000000000E+00 0. -1.
  9000001    1    1    2    0    0  0.22747815760E-02  0.80230308029E-02 -0.34750394680E-01  0.35750994182E-01  0.10000000475E-02 0.  1.
</event>
<event>
 4   0  0.4892667E-02  0.9118800E+02  0.7818609E-02  0.1379984E+01
      -11   -1    0    0    0    0  0.00000000000E+00  0.00000000000E+00  0.35740347158E-01  0.35744000000E-01  0.51099999109E-03 0.  1.
       11   -1    0    0    0    0 -0.00000000000E+00 -0.00000000000E+00 -0.35740347158E-01  0.35744000000E-01  0.51099999109E-03 0. -1.
       22    1    1    2    0    0 -0.57712929283E-02  0.41957676877E-03  0.35265418162E-01  0.35737005818E-01  0.00000000000E+00 0.  1.
  9000001    1    1    2    0    0  0.57712929283E-02 -0.41957676877E-03 -0.35265418162E-01  0.35750994182E-01  0.10000000475E-02 0. -1.
</event>
<event>
 4   0  0.4892667E-02  0.9118800E+02  0.7818609E-02  0.1379984E+01
      -11   -1    0    0    0    0  0.00000000000E+00  0.00000000000E+00  0.35740347158E-01  0.35744000000E-01  0.51099999109E-03 0.  1.
       11   -1    0    0    0    0 -0.00000000000E+00 -0.00000000000E+00 -0.35740347158E-01  0.35744000000E-01  0.51099999109E-03 0. -1.
       22    1    1    2    0    0  0.21121064266E-01  0.11846145697E-01  0.26281230208E-01  0.35737005818E-01  0.00000000000E+00 0.  1.
  9000001    1    1    2    0    0 -0.21121064266E-01 -0.11846145697E-01 -0.26281230208E-01  0.35750994182E-01  0.10000000475E-02 0. -1.
</event>
<event>
 4   0  0.4892667E-02  0.9118800E+02  0.7818609E-02  0.1379984E+01
      -11   -1    0    0    0    0  0.00000000000E+00  0.00000000000E+00  0.35740347158E-01  0.35744000000E-01  0.51099999109E-03 0. -1.
       11   -1    0    0    0    0 -0.00000000000E+00 -0.00000000000E+00 -0.35740347158E-01  0.35744000000E-01  0.51099999109E-03 0.  1.
       22    1    1    2    0    0 -0.28981691933E-02  0.12341762735E-01  0.33412798338E-01  0.35737005818E-01  0.00000000000E+00 0. -1.
  9000001    1    1    2    0    0  0.28981691933E-02 -0.12341762735E-01 -0.33412798338E-01  0.35750994182E-01  0.10000000475E-02 0.  1.
</event>
<event>
 4   0  0.4892667E-02  0.9118800E+02  0.7818609E-02  0.1379984E+01
      -11   -1    0    0    0    0  0.00000000000E+00  0.00000000000E+00  0.35740347158E-01  0.35744000000E-01  0.51099999109E-03 0.  1.
       11   -1    0    0    0    0 -0.00000000000E+00 -0.00000000000E+00 -0.35740347158E-01  0.35744000000E-01  0.51099999109E-03 0. -1.
       22    1    1    2    0    0  0.32910405914E-02  0.16094976619E-02 -0.35548729288E-01  0.35737005818E-01  0.00000000000E+00 0. -1.
  9000001    1    1    2    0    0 -0.32910405914E-02 -0.16094976619E-02  0.35548729288E-01  0.35750994182E-01  0.10000000475E-02 0.  1.
</event>
<event>
 4   0  0.4892667E-02  0.9118800E+02  0.7818609E-02  0.1379984E+01
      -11   -1    0    0    0    0  0.00000000000E+00  0.00000000000E+00  0.35740347158E-01  0.35744000000E-01  0.51099999109E-03 0. -1.
       11   -1    0    0    0    0 -0.00000000000E+00 -0.00000000000E+00 -0.35740347158E-01  0.35744000000E-01  0.51099999109E-03 0.  1.
       22    1    1    2    0    0  0.21286388571E-01  0.14063134611E-01 -0.25025017311E-01  0.35737005818E-01  0.00000000000E+00 0.  1.
  9000001    1    1    2    0    0 -0.21286388571E-01 -0.14063134611E-01  0.25025017311E-01  0.35750994182E-01  0.10000000475E-02 0. -1.
</event>
<event>
 4   0  0.4892667E-02  0.9118800E+02  0.7818609E-02  0.1379984E+01
      -11   -1    0    0    0    0  0.00000000000E+00  0.00000000000E+00  0.35740347158E-01  0.35744000000E-01  0.51099999109E-03 0. -1.
       11   -1    0    0    0    0 -0.00000000000E+00 -0.00000000000E+00 -0.35740347158E-01  0.35744000000E-01  0.51099999109E-03 0.  1.
       22    1    1    2    0    0 -0.32958719650E-02 -0.14814246997E-02 -0.35553849211E-01  0.35737005818E-01  0.00000000000E+00 0.  1.
  9000001    1    1    2    0    0  0.32958719650E-02  0.14814246997E-02  0.35553849211E-01  0.35750994182E-01  0.10000000475E-02 0. -1.
</event>
<event>
 4   0  0.4892667E-02  0.9118800E+02  0.7818609E-02  0.1379984E+01
      -11   -1    0    0    0    0  0.00000000000E+00  0.00000000000E+00  0.35740347158E-01  0.35744000000E-01  0.51099999109E-03 0. -1.
       11   -1    0    0    0    0 -0.00000000000E+00 -0.00000000000E+00 -0.35740347158E-01  0.35744000000E-01  0.51099999109E-03 0.  1.
       22    1    1    2    0    0  0.85302085910E-02  0.25185601185E-01  0.23875816619E-01  0.35737005818E-01  0.00000000000E+00 0. -1.
  9000001    1    1    2    0    0 -0.85302085910E-02 -0.25185601185E-01 -0.23875816619E-01  0.35750994182E-01  0.10000000475E-02 0.  1.
</event>
<event>
 4   0  0.4892667E-02  0.9118800E+02  0.7818609E-02  0.1379984E+01
      -11   -1    0    0    0    0  0.00000000000E+00  0.00000000000E+00  0.35740347158E-01  0.35744000000E-01  0.51099999109E-03 0.  1.
       11   -1    0    0    0    0 -0.00000000000E+00 -0.00000000000E+00 -0.35740347158E-01  0.35744000000E-01  0.51099999109E-03 0. -1.
       22    1    1    2    0    0 -0.59381064061E-02  0.36531619432E-02  0.35050347858E-01  0.35737005818E-01  0.00000000000E+00 0.  1.
  9000001    1    1    2    0    0  0.59381064061E-02 -0.36531619432E-02 -0.35050347858E-01  0.35750994182E-01  0.10000000475E-02 0. -1.
</event>
<event>
 4   0  0.4892667E-02  0.9118800E+02  0.7818609E-02  0.1379984E+01
      -11   -1    0    0    0    0  0.00000000000E+00  0.00000000000E+00  0.35740347158E-01  0.35744000000E-01  0.51099999109E-03 0. -1.
       11   -1    0    0    0    0 -0.00000000000E+00 -0.00000000000E+00 -0.35740347158E-01  0.35744000000E-01  0.51099999109E-03 0.  1.
       22    1    1    2    0    0 -0.87979790584E-02 -0.16375223275E-01 -0.30521815347E-01  0.35737005818E-01  0.00000000000E+00 0.  1.
  9000001    1    1    2    0    0  0.87979790584E-02  0.16375223275E-01  0.30521815347E-01  0.35750994182E-01  0.10000000475E-02 0. -1.
</event>
<event>
 4   0  0.4892667E-02  0.9118800E+02  0.7818609E-02  0.1379984E+01
      -11   -1    0    0    0    0  0.00000000000E+00  0.00000000000E+00  0.35740347158E-01  0.35744000000E-01  0.51099999109E-03 0.  1.
       11   -1    0    0    0    0 -0.00000000000E+00 -0.00000000000E+00 -0.35740347158E-01  0.35744000000E-01  0.51099999109E-03 0. -1.
       22    1    1    2    0    0 -0.14011831091E-01  0.34061973180E-02  0.32698623735E-01  0.35737005818E-01  0.00000000000E+00 0.  1.
  9000001    1    1    2    0    0  0.14011831091E-01 -0.34061973180E-02 -0.32698623735E-01  0.35750994182E-01  0.10000000475E-02 0. -1.
</event>
<event>
 4   0  0.4892667E-02  0.9118800E+02  0.7818609E-02  0.1379984E+01
      -11   -1    0    0    0    0  0.00000000000E+00  0.00000000000E+00  0.35740347158E-01  0.35744000000E-01  0.51099999109E-03 0. -1.
       11   -1    0    0    0    0 -0.00000000000E+00 -0.00000000000E+00 -0.35740347158E-01  0.35744000000E-01  0.51099999109E-03 0.  1.
       22    1    1    2    0    0 -0.39903329772E-02 -0.32322389339E-02  0.35366134353E-01  0.35737005818E-01  0.00000000000E+00 0. -1.
  9000001    1    1    2    0    0  0.39903329772E-02  0.32322389339E-02 -0.35366134353E-01  0.35750994182E-01  0.10000000475E-02 0.  1.
</event>
<event>
 4   0  0.4892667E-02  0.9118800E+02  0.7818609E-02  0.1379984E+01
      -11   -1    0    0    0    0  0.00000000000E+00  0.00000000000E+00  0.35740347158E-01  0.35744000000E-01  0.51099999109E-03 0.  1.
       11   -1    0    0    0    0 -0.00000000000E+00 -0.00000000000E+00 -0.35740347158E-01  0.35744000000E-01  0.51099999109E-03 0. -1.
       22    1    1    2    0    0  0.39870687205E-02  0.29287572317E-03  0.35512689165E-01  0.35737005818E-01  0.00000000000E+00 0.  1.
  9000001    1    1    2    0    0 -0.39870687205E-02 -0.29287572317E-03 -0.35512689165E-01  0.35750994182E-01  0.10000000475E-02 0. -1.
</event>
<event>
 4   0  0.4892667E-02  0.9118800E+02  0.7818609E-02  0.1379984E+01
      -11   -1    0    0    0    0  0.00000000000E+00  0.00000000000E+00  0.35740347158E-01  0.35744000000E-01  0.51099999109E-03 0.  1.
       11   -1    0    0    0    0 -0.00000000000E+00 -0.00000000000E+00 -0.35740347158E-01  0.35744000000E-01  0.51099999109E-03 0. -1.
       22    1    1    2    0    0 -0.24898970454E-02 -0.30918733963E-02 -0.35515831913E-01  0.35737005818E-01  0.00000000000E+00 0. -1.
  9000001    1    1    2    0    0  0.24898970454E-02  0.30918733963E-02  0.35515831913E-01  0.35750994182E-01  0.10000000475E-02 0.  1.
</event>
<event>
 4   0  0.4892667E-02  0.9118800E+02  0.7818609E-02  0.1379984E+01
      -11   -1    0    0    0    0  0.00000000000E+00  0.00000000000E+00  0.35740347158E-01  0.35744000000E-01  0.51099999109E-03 0. -1.
       11   -1    0    0    0    0 -0.00000000000E+00 -0.00000000000E+00 -0.35740347158E-01  0.35744000000E-01  0.51099999109E-03 0.  1.
       22    1    1    2    0    0 -0.28029568705E-02  0.46849870158E-02 -0.35317529844E-01  0.35737005818E-01  0.00000000000E+00 0.  1.
  9000001    1    1    2    0    0  0.28029568705E-02 -0.46849870158E-02  0.35317529844E-01  0.35750994182E-01  0.10000000475E-02 0. -1.
</event>
<event>
 4   0  0.4892667E-02  0.9118800E+02  0.7818609E-02  0.1379984E+01
      -11   -1    0    0    0    0  0.00000000000E+00  0.00000000000E+00  0.35740347158E-01  0.35744000000E-01  0.51099999109E-03 0. -1.
       11   -1    0    0    0    0 -0.00000000000E+00 -0.00000000000E+00 -0.35740347158E-01  0.35744000000E-01  0.51099999109E-03 0.  1.
       22    1    1    2    0    0 -0.36424395484E-02 -0.28752560216E-02 -0.35434434126E-01  0.35737005818E-01  0.00000000000E+00 0.  1.
  9000001    1    1    2    0    0  0.36424395484E-02  0.28752560216E-02  0.35434434126E-01  0.35750994182E-01  0.10000000475E-02 0. -1.
</event>
<event>
 4   0  0.4892667E-02  0.9118800E+02  0.7818609E-02  0.1379984E+01
      -11   -1    0    0    0    0  0.00000000000E+00  0.00000000000E+00  0.35740347158E-01  0.35744000000E-01  0.51099999109E-03 0. -1.
       11   -1    0    0    0    0 -0.00000000000E+00 -0.00000000000E+00 -0.35740347158E-01  0.35744000000E-01  0.51099999109E-03 0.  1.
       22    1    1    2    0    0  0.15783157940E-02 -0.35648147113E-02 -0.35523718840E-01  0.35737005818E-01  0.00000000000E+00 0.  1.
  9000001    1    1    2    0    0 -0.15783157940E-02  0.35648147113E-02  0.35523718840E-01  0.35750994182E-01  0.10000000475E-02 0. -1.
</event>
<event>
 4   0  0.4892667E-02  0.9118800E+02  0.7818609E-02  0.1379984E+01
      -11   -1    0    0    0    0  0.00000000000E+00  0.00000000000E+00  0.35740347158E-01  0.35744000000E-01  0.51099999109E-03 0. -1.
       11   -1    0    0    0    0 -0.00000000000E+00 -0.00000000000E+00 -0.35740347158E-01  0.35744000000E-01  0.51099999109E-03 0.  1.
       22    1    1    2    0    0 -0.13346959854E-02 -0.28539750317E-02  0.35597851031E-01  0.35737005818E-01  0.00000000000E+00 0. -1.
  9000001    1    1    2    0    0  0.13346959854E-02  0.28539750317E-02 -0.35597851031E-01  0.35750994182E-01  0.10000000475E-02 0.  1.
</event>
<event>
 4   0  0.4892667E-02  0.9118800E+02  0.7818609E-02  0.1379984E+01
      -11   -1    0    0    0    0  0.00000000000E+00  0.00000000000E+00  0.35740347158E-01  0.35744000000E-01  0.51099999109E-03 0. -1.
       11   -1    0    0    0    0 -0.00000000000E+00 -0.00000000000E+00 -0.35740347158E-01  0.35744000000E-01  0.51099999109E-03 0.  1.
       22    1    1    2    0    0  0.77890547409E-02  0.17537132765E-02 -0.34833729356E-01  0.35737005818E-01  0.00000000000E+00 0.  1.
  9000001    1    1    2    0    0 -0.77890547409E-02 -0.17537132765E-02  0.34833729356E-01  0.35750994182E-01  0.10000000475E-02 0. -1.
</event>
<event>
 4   0  0.4892667E-02  0.9118800E+02  0.7818609E-02  0.1379984E+01
      -11   -1    0    0    0    0  0.00000000000E+00  0.00000000000E+00  0.35740347158E-01  0.35744000000E-01  0.51099999109E-03 0.  1.
       11   -1    0    0    0    0 -0.00000000000E+00 -0.00000000000E+00 -0.35740347158E-01  0.35744000000E-01  0.51099999109E-03 0. -1.
       22    1    1    2    0    0 -0.37813224208E-02 -0.42356588867E-02  0.35283060800E-01  0.35737005818E-01  0.00000000000E+00 0.  1.
  9000001    1    1    2    0    0  0.37813224208E-02  0.42356588867E-02 -0.35283060800E-01  0.35750994182E-01  0.10000000475E-02 0. -1.
</event>
<event>
 4   0  0.4892667E-02  0.9118800E+02  0.7818609E-02  0.1379984E+01
      -11   -1    0    0    0    0  0.00000000000E+00  0.00000000000E+00  0.35740347158E-01  0.35744000000E-01  0.51099999109E-03 0.  1.
       11   -1    0    0    0    0 -0.00000000000E+00 -0.00000000000E+00 -0.35740347158E-01  0.35744000000E-01  0.51099999109E-03 0. -1.
       22    1    1    2    0    0  0.93158040686E-03 -0.44525725824E-02  0.35446302208E-01  0.35737005818E-01  0.00000000000E+00 0.  1.
  9000001    1    1    2    0    0 -0.93158040686E-03  0.44525725824E-02 -0.35446302208E-01  0.35750994182E-01  0.10000000475E-02 0. -1.
</event>
<event>
 4   0  0.4892667E-02  0.9118800E+02  0.7818609E-02  0.1379984E+01
      -11   -1    0    0    0    0  0.00000000000E+00  0.00000000000E+00  0.35740347158E-01  0.35744000000E-01  0.51099999109E-03 0.  1.
       11   -1    0    0    0    0 -0.00000000000E+00 -0.00000000000E+00 -0.35740347158E-01  0.35744000000E-01  0.51099999109E-03 0. -1.
       22    1    1    2    0    0  0.10719570629E-01 -0.24236106895E-01 -0.23975727580E-01  0.35737005818E-01  0.00000000000E+00 0. -1.
  9000001    1    1    2    0    0 -0.10719570629E-01  0.24236106895E-01  0.23975727580E-01  0.35750994182E-01  0.10000000475E-02 0.  1.
</event>
<event>
 4   0  0.4892667E-02  0.9118800E+02  0.7818609E-02  0.1379984E+01
      -11   -1    0    0    0    0  0.00000000000E+00  0.00000000000E+00  0.35740347158E-01  0.35744000000E-01  0.51099999109E-03 0.  1.
       11   -1    0    0    0    0 -0.00000000000E+00 -0.00000000000E+00 -0.35740347158E-01  0.35744000000E-01  0.51099999109E-03 0. -1.
       22    1    1    2    0    0 -0.35808753001E-02 -0.44134549649E-02 -0.35282181512E-01  0.35737005818E-01  0.00000000000E+00 0. -1.
  9000001    1    1    2    0    0  0.35808753001E-02  0.44134549649E-02  0.35282181512E-01  0.35750994182E-01  0.10000000475E-02 0.  1.
</event>
<event>
 4   0  0.4892667E-02  0.9118800E+02  0.7818609E-02  0.1379984E+01
      -11   -1    0    0    0    0  0.00000000000E+00  0.00000000000E+00  0.35740347158E-01  0.35744000000E-01  0.51099999109E-03 0. -1.
       11   -1    0    0    0    0 -0.00000000000E+00 -0.00000000000E+00 -0.35740347158E-01  0.35744000000E-01  0.51099999109E-03 0.  1.
       22    1    1    2    0    0  0.58616917774E-02 -0.73561755275E-02 -0.34476960945E-01  0.35737005818E-01  0.00000000000E+00 0.  1.
  9000001    1    1    2    0    0 -0.58616917774E-02  0.73561755275E-02  0.34476960945E-01  0.35750994182E-01  0.10000000475E-02 0. -1.
</event>
<event>
 4   0  0.4892667E-02  0.9118800E+02  0.7818609E-02  0.1379984E+01
      -11   -1    0    0    0    0  0.00000000000E+00  0.00000000000E+00  0.35740347158E-01  0.35744000000E-01  0.51099999109E-03 0. -1.
       11   -1    0    0    0    0 -0.00000000000E+00 -0.00000000000E+00 -0.35740347158E-01  0.35744000000E-01  0.51099999109E-03 0.  1.
       22    1    1    2    0    0 -0.84004893375E-02  0.17588549022E-01  0.29953435647E-01  0.35737005818E-01  0.00000000000E+00 0. -1.
  9000001    1    1    2    0    0  0.84004893375E-02 -0.17588549022E-01 -0.29953435647E-01  0.35750994182E-01  0.10000000475E-02 0.  1.
</event>
<event>
 4   0  0.4892667E-02  0.9118800E+02  0.7818609E-02  0.1379984E+01
      -11   -1    0    0    0    0  0.00000000000E+00  0.00000000000E+00  0.35740347158E-01  0.35744000000E-01  0.51099999109E-03 0.  1.
       11   -1    0    0    0    0 -0.00000000000E+00 -0.00000000000E+00 -0.35740347158E-01  0.35744000000E-01  0.51099999109E-03 0. -1.
       22    1    1    2    0    0 -0.18762402858E-02  0.33040347973E-02 -0.35534443310E-01  0.35737005818E-01  0.00000000000E+00 0. -1.
  9000001    1    1    2    0    0  0.18762402858E-02 -0.33040347973E-02  0.35534443310E-01  0.35750994182E-01  0.10000000475E-02 0.  1.
</event>
<event>
 4   0  0.4892667E-02  0.9118800E+02  0.7818609E-02  0.1379984E+01
      -11   -1    0    0    0    0  0.00000000000E+00  0.00000000000E+00  0.35740347158E-01  0.35744000000E-01  0.51099999109E-03 0. -1.
       11   -1    0    0    0    0 -0.00000000000E+00 -0.00000000000E+00 -0.35740347158E-01  0.35744000000E-01  0.51099999109E-03 0.  1.
       22    1    1    2    0    0  0.89148325448E-02 -0.33834212957E-02 -0.34441425724E-01  0.35737005818E-01  0.00000000000E+00 0.  1.
  9000001    1    1    2    0    0 -0.89148325448E-02  0.33834212957E-02  0.34441425724E-01  0.35750994182E-01  0.10000000475E-02 0. -1.
</event>
<event>
 4   0  0.4892667E-02  0.9118800E+02  0.7818609E-02  0.1379984E+01
      -11   -1    0    0    0    0  0.00000000000E+00  0.00000000000E+00  0.35740347158E-01  0.35744000000E-01  0.51099999109E-03 0. -1.
       11   -1    0    0    0    0 -0.00000000000E+00 -0.00000000000E+00 -0.35740347158E-01  0.35744000000E-01  0.51099999109E-03 0.  1.
       22    1    1    2    0    0  0.78656770697E-02 -0.38281832063E-02 -0.34649815619E-01  0.35737005818E-01  0.00000000000E+00 0.  1.
  9000001    1    1    2    0    0 -0.78656770697E-02  0.38281832063E-02  0.34649815619E-01  0.35750994182E-01  0.10000000475E-02 0. -1.
</event>
<event>
 4   0  0.4892667E-02  0.9118800E+02  0.7818609E-02  0.1379984E+01
      -11   -1    0    0    0    0  0.00000000000E+00  0.00000000000E+00  0.35740347158E-01  0.35744000000E-01  0.51099999109E-03 0.  1.
       11   -1    0    0    0    0 -0.00000000000E+00 -0.00000000000E+00 -0.35740347158E-01  0.35744000000E-01  0.51099999109E-03 0. -1.
       22    1    1    2    0    0  0.96808195375E-02  0.42792614350E-02 -0.34133608651E-01  0.35737005818E-01  0.00000000000E+00 0. -1.
  9000001    1    1    2    0    0 -0.96808195375E-02 -0.42792614350E-02  0.34133608651E-01  0.35750994182E-01  0.10000000475E-02 0.  1.
</event>
<event>
 4   0  0.4892667E-02  0.9118800E+02  0.7818609E-02  0.1379984E+01
      -11   -1    0    0    0    0  0.00000000000E+00  0.00000000000E+00  0.35740347158E-01  0.35744000000E-01  0.51099999109E-03 0.  1.
       11   -1    0    0    0    0 -0.00000000000E+00 -0.00000000000E+00 -0.35740347158E-01  0.35744000000E-01  0.51099999109E-03 0. -1.
       22    1    1    2    0    0 -0.18977253767E-01  0.17741325706E-01  0.24540635414E-01  0.35737005818E-01  0.00000000000E+00 0.  1.
  9000001    1    1    2    0    0  0.18977253767E-01 -0.17741325706E-01 -0.24540635414E-01  0.35750994182E-01  0.10000000475E-02 0. -1.
</event>
<event>
 4   0  0.4892667E-02  0.9118800E+02  0.7818609E-02  0.1379984E+01
      -11   -1    0    0    0    0  0.00000000000E+00  0.00000000000E+00  0.35740347158E-01  0.35744000000E-01  0.51099999109E-03 0. -1.
       11   -1    0    0    0    0 -0.00000000000E+00 -0.00000000000E+00 -0.35740347158E-01  0.35744000000E-01  0.51099999109E-03 0.  1.
       22    1    1    2    0    0  0.30481503427E-01  0.29993963416E-02  0.18412364196E-01  0.35737005818E-01  0.00000000000E+00 0.  1.
  9000001    1    1    2    0    0 -0.30481503427E-01 -0.29993963416E-02 -0.18412364196E-01  0.35750994182E-01  0.10000000475E-02 0. -1.
</event>
<event>
 4   0  0.4892667E-02  0.9118800E+02  0.7818609E-02  0.1379984E+01
      -11   -1    0    0    0    0  0.00000000000E+00  0.00000000000E+00  0.35740347158E-01  0.35744000000E-01  0.51099999109E-03 0. -1.
       11   -1    0    0    0    0 -0.00000000000E+00 -0.00000000000E+00 -0.35740347158E-01  0.35744000000E-01  0.51099999109E-03 0.  1.
       22    1    1    2    0    0 -0.14050203341E-02 -0.26792058957E-02 -0.35608725876E-01  0.35737005818E-01  0.00000000000E+00 0.  1.
  9000001    1    1    2    0    0  0.14050203341E-02  0.26792058957E-02  0.35608725876E-01  0.35750994182E-01  0.10000000475E-02 0. -1.
</event>
<event>
 4   0  0.4892667E-02  0.9118800E+02  0.7818609E-02  0.1379984E+01
      -11   -1    0    0    0    0  0.00000000000E+00  0.00000000000E+00  0.35740347158E-01  0.35744000000E-01  0.51099999109E-03 0.  1.
       11   -1    0    0    0    0 -0.00000000000E+00 -0.00000000000E+00 -0.35740347158E-01  0.35744000000E-01  0.51099999109E-03 0. -1.
       22    1    1    2    0    0 -0.23877147991E-02 -0.90255312182E-02 -0.34495973521E-01  0.35737005818E-01  0.00000000000E+00 0. -1.
  9000001    1    1    2    0    0  0.23877147991E-02  0.90255312182E-02  0.34495973521E-01  0.35750994182E-01  0.10000000475E-02 0.  1.
</event>
<event>
 4   0  0.4892667E-02  0.9118800E+02  0.7818609E-02  0.1379984E+01
      -11   -1    0    0    0    0  0.00000000000E+00  0.00000000000E+00  0.35740347158E-01  0.35744000000E-01  0.51099999109E-03 0.  1.
       11   -1    0    0    0    0 -0.00000000000E+00 -0.00000000000E+00 -0.35740347158E-01  0.35744000000E-01  0.51099999109E-03 0. -1.
       22    1    1    2    0    0  0.26764261611E-01 -0.72091767312E-02 -0.22557385844E-01  0.35737005818E-01  0.00000000000E+00 0. -1.
  9000001    1    1    2    0    0 -0.26764261611E-01  0.72091767312E-02  0.22557385844E-01  0.35750994182E-01  0.10000000475E-02 0.  1.
</event>
<event>
 4   0  0.4892667E-02  0.9118800E+02  0.7818609E-02  0.1379984E+01
      -11   -1    0    0    0    0  0.00000000000E+00  0.00000000000E+00  0.35740347158E-01  0.35744000000E-01  0.51099999109E-03 0.  1.
       11   -1    0    0    0    0 -0.00000000000E+00 -0.00000000000E+00 -0.35740347158E-01  0.35744000000E-01  0.51099999109E-03 0. -1.
       22    1    1    2    0    0 -0.27934473558E-01  0.22058481507E-01 -0.31972121492E-02  0.35737005818E-01  0.00000000000E+00 0. -1.
  9000001    1    1    2    0    0  0.27934473558E-01 -0.22058481507E-01  0.31972121492E-02  0.35750994182E-01  0.10000000475E-02 0.  1.
</event>
<event>
 4   0  0.4892667E-02  0.9118800E+02  0.7818609E-02  0.1379984E+01
      -11   -1    0    0    0    0  0.00000000000E+00  0.00000000000E+00  0.35740347158E-01  0.35744000000E-01  0.51099999109E-03 0.  1.
       11   -1    0    0    0    0 -0.00000000000E+00 -0.00000000000E+00 -0.35740347158E-01  0.35744000000E-01  0.51099999109E-03 0. -1.
       22    1    1    2    0    0  0.81292128607E-02 -0.29915343538E-02  0.34671316752E-01  0.35737005818E-01  0.00000000000E+00 0.  1.
  9000001    1    1    2    0    0 -0.81292128607E-02  0.29915343538E-02 -0.34671316752E-01  0.35750994182E-01  0.10000000475E-02 0. -1.
</event>
<event>
 4   0  0.4892667E-02  0.9118800E+02  0.7818609E-02  0.1379984E+01
      -11   -1    0    0    0    0  0.00000000000E+00  0.00000000000E+00  0.35740347158E-01  0.35744000000E-01  0.51099999109E-03 0.  1.
       11   -1    0    0    0    0 -0.00000000000E+00 -0.00000000000E+00 -0.35740347158E-01  0.35744000000E-01  0.51099999109E-03 0. -1.
       22    1    1    2    0    0  0.38373993721E-02  0.85146104488E-03 -0.35520176872E-01  0.35737005818E-01  0.00000000000E+00 0. -1.
  9000001    1    1    2    0    0 -0.38373993721E-02 -0.85146104488E-03  0.35520176872E-01  0.35750994182E-01  0.10000000475E-02 0.  1.
</event>
<event>
 4   0  0.4892667E-02  0.9118800E+02  0.7818609E-02  0.1379984E+01
      -11   -1    0    0    0    0  0.00000000000E+00  0.00000000000E+00  0.35740347158E-01  0.35744000000E-01  0.51099999109E-03 0.  1.
       11   -1    0    0    0    0 -0.00000000000E+00 -0.00000000000E+00 -0.35740347158E-01  0.35744000000E-01  0.51099999109E-03 0. -1.
       22    1    1    2    0    0 -0.49501991785E-02 -0.28602273237E-02  0.35276737556E-01  0.35737005818E-01  0.00000000000E+00 0.  1.
  9000001    1    1    2    0    0  0.49501991785E-02  0.28602273237E-02 -0.35276737556E-01  0.35750994182E-01  0.10000000475E-02 0. -1.
</event>
<event>
 4   0  0.4892667E-02  0.9118800E+02  0.7818609E-02  0.1379984E+01
      -11   -1    0    0    0    0  0.00000000000E+00  0.00000000000E+00  0.35740347158E-01  0.35744000000E-01  0.51099999109E-03 0.  1.
       11   -1    0    0    0    0 -0.00000000000E+00 -0.00000000000E+00 -0.35740347158E-01  0.35744000000E-01  0.51099999109E-03 0. -1.
       22    1    1    2    0    0  0.60926814454E-02  0.44374071526E-02  0.34933110875E-01  0.35737005818E-01  0.00000000000E+00 0.  1.
  9000001    1    1    2    0    0 -0.60926814454E-02 -0.44374071526E-02 -0.34933110875E-01  0.35750994182E-01  0.10000000475E-02 0. -1.
</event>
<event>
 4   0  0.4892667E-02  0.9118800E+02  0.7818609E-02  0.1379984E+01
      -11   -1    0    0    0    0  0.00000000000E+00  0.00000000000E+00  0.35740347158E-01  0.35744000000E-01  0.51099999109E-03 0. -1.
       11   -1    0    0    0    0 -0.00000000000E+00 -0.00000000000E+00 -0.35740347158E-01  0.35744000000E-01  0.51099999109E-03 0.  1.
       22    1    1    2    0    0  0.56458623597E-02 -0.29515121748E-02  0.35164561692E-01  0.35737005818E-01  0.00000000000E+00 0. -1.
  9000001    1    1    2    0    0 -0.56458623597E-02  0.29515121748E-02 -0.35164561692E-01  0.35750994182E-01  0.10000000475E-02 0.  1.
</event>
<event>
 4   0  0.4892667E-02  0.9118800E+02  0.7818609E-02  0.1379984E+01
      -11   -1    0    0    0    0  0.00000000000E+00  0.00000000000E+00  0.35740347158E-01  0.35744000000E-01  0.51099999109E-03 0. -1.
       11   -1    0    0    0    0 -0.00000000000E+00 -0.00000000000E+00 -0.35740347158E-01  0.35744000000E-01  0.51099999109E-03 0.  1.
       22    1    1    2    0    0 -0.29336956766E-01 -0.19025398078E-01  0.73831416472E-02  0.35737005818E-01  0.00000000000E+00 0. -1.
  9000001    1    1    2    0    0  0.29336956766E-01  0.19025398078E-01 -0.73831416472E-02  0.35750994182E-01  0.10000000475E-02 0.  1.
</event>
<event>
 4   0  0.4892667E-02  0.9118800E+02  0.7818609E-02  0.1379984E+01
      -11   -1    0    0    0    0  0.00000000000E+00  0.00000000000E+00  0.35740347158E-01  0.35744000000E-01  0.51099999109E-03 0. -1.
       11   -1    0    0    0    0 -0.00000000000E+00 -0.00000000000E+00 -0.35740347158E-01  0.35744000000E-01  0.51099999109E-03 0.  1.
       22    1    1    2    0    0 -0.21333062040E-01  0.11685807076E-01 -0.26181595862E-01  0.35737005818E-01  0.00000000000E+00 0.  1.
  9000001    1    1    2    0    0  0.21333062040E-01 -0.11685807076E-01  0.26181595862E-01  0.35750994182E-01  0.10000000475E-02 0. -1.
</event>
<event>
 4   0  0.4892667E-02  0.9118800E+02  0.7818609E-02  0.1379984E+01
      -11   -1    0    0    0    0  0.00000000000E+00  0.00000000000E+00  0.35740347158E-01  0.35744000000E-01  0.51099999109E-03 0.  1.
       11   -1    0    0    0    0 -0.00000000000E+00 -0.00000000000E+00 -0.35740347158E-01  0.35744000000E-01  0.51099999109E-03 0. -1.
       22    1    1    2    0    0 -0.79775959698E-02  0.71664115655E-03 -0.34827833307E-01  0.35737005818E-01  0.00000000000E+00 0. -1.
  9000001    1    1    2    0    0  0.79775959698E-02 -0.71664115655E-03  0.34827833307E-01  0.35750994182E-01  0.10000000475E-02 0.  1.
</event>
<event>
 4   0  0.4892667E-02  0.9118800E+02  0.7818609E-02  0.1379984E+01
      -11   -1    0    0    0    0  0.00000000000E+00  0.00000000000E+00  0.35740347158E-01  0.35744000000E-01  0.51099999109E-03 0.  1.
       11   -1    0    0    0    0 -0.00000000000E+00 -0.00000000000E+00 -0.35740347158E-01  0.35744000000E-01  0.51099999109E-03 0. -1.
       22    1    1    2    0    0 -0.21151098301E-01  0.22274164446E-02  0.28719387903E-01  0.35737005818E-01  0.00000000000E+00 0.  1.
  9000001    1    1    2    0    0  0.21151098301E-01 -0.22274164446E-02 -0.28719387903E-01  0.35750994182E-01  0.10000000475E-02 0. -1.
</event>
<event>
 4   0  0.4892667E-02  0.9118800E+02  0.7818609E-02  0.1379984E+01
      -11   -1    0    0    0    0  0.00000000000E+00  0.00000000000E+00  0.35740347158E-01  0.35744000000E-01  0.51099999109E-03 0. -1.
       11   -1    0    0    0    0 -0.00000000000E+00 -0.00000000000E+00 -0.35740347158E-01  0.35744000000E-01  0.51099999109E-03 0.  1.
       22    1    1    2    0    0  0.28322587995E-01  0.21655268954E-02 -0.21685826879E-01  0.35737005818E-01  0.00000000000E+00 0.  1.
  9000001    1    1    2    0    0 -0.28322587995E-01 -0.21655268954E-02  0.21685826879E-01  0.35750994182E-01  0.10000000475E-02 0. -1.
</event>
<event>
 4   0  0.4892667E-02  0.9118800E+02  0.7818609E-02  0.1379984E+01
      -11   -1    0    0    0    0  0.00000000000E+00  0.00000000000E+00  0.35740347158E-01  0.35744000000E-01  0.51099999109E-03 0.  1.
       11   -1    0    0    0    0 -0.00000000000E+00 -0.00000000000E+00 -0.35740347158E-01  0.35744000000E-01  0.51099999109E-03 0. -1.
       22    1    1    2    0    0  0.13232277863E-01 -0.33138139887E-01  0.19758775863E-02  0.35737005818E-01  0.00000000000E+00 0. -1.
  9000001    1    1    2    0    0 -0.13232277863E-01  0.33138139887E-01 -0.19758775863E-02  0.35750994182E-01  0.10000000475E-02 0.  1.
</event>
<event>
 4   0  0.4892667E-02  0.9118800E+02  0.7818609E-02  0.1379984E+01
      -11   -1    0    0    0    0  0.00000000000E+00  0.00000000000E+00  0.35740347158E-01  0.35744000000E-01  0.51099999109E-03 0. -1.
       11   -1    0    0    0    0 -0.00000000000E+00 -0.00000000000E+00 -0.35740347158E-01  0.35744000000E-01  0.51099999109E-03 0.  1.
       22    1    1    2    0    0  0.60183546766E-02 -0.74285626375E-03 -0.35218761427E-01  0.35737005818E-01  0.00000000000E+00 0.  1.
  9000001    1    1    2    0    0 -0.60183546766E-02  0.74285626375E-03  0.35218761427E-01  0.35750994182E-01  0.10000000475E-02 0. -1.
</event>
<event>
 4   0  0.4892667E-02  0.9118800E+02  0.7818609E-02  0.1379984E+01
      -11   -1    0    0    0    0  0.00000000000E+00  0.00000000000E+00  0.35740347158E-01  0.35744000000E-01  0.51099999109E-03 0.  1.
       11   -1    0    0    0    0 -0.00000000000E+00 -0.00000000000E+00 -0.35740347158E-01  0.35744000000E-01  0.51099999109E-03 0. -1.
       22    1    1    2    0    0 -0.27451941074E-02  0.27527518127E-01 -0.22623731786E-01  0.35737005818E-01  0.00000000000E+00 0. -1.
  9000001    1    1    2    0    0  0.27451941074E-02 -0.27527518127E-01  0.22623731786E-01  0.35750994182E-01  0.10000000475E-02 0.  1.
</event>
<event>
 4   0  0.4892667E-02  0.9118800E+02  0.7818609E-02  0.1379984E+01
      -11   -1    0    0    0    0  0.00000000000E+00  0.00000000000E+00  0.35740347158E-01  0.35744000000E-01  0.51099999109E-03 0. -1.
       11   -1    0    0    0    0 -0.00000000000E+00 -0.00000000000E+00 -0.35740347158E-01  0.35744000000E-01  0.51099999109E-03 0.  1.
       22    1    1    2    0    0 -0.16790996096E-01 -0.21398842462E-01  0.23179421396E-01  0.35737005818E-01  0.00000000000E+00 0.  1.
  9000001    1    1    2    0    0  0.16790996096E-01  0.21398842462E-01 -0.23179421396E-01  0.35750994182E-01  0.10000000475E-02 0. -1.
</event>
<event>
 4   0  0.4892667E-02  0.9118800E+02  0.7818609E-02  0.1379984E+01
      -11   -1    0    0    0    0  0.00000000000E+00  0.00000000000E+00  0.35740347158E-01  0.35744000000E-01  0.51099999109E-03 0. -1.
       11   -1    0    0    0    0 -0.00000000000E+00 -0.00000000000E+00 -0.35740347158E-01  0.35744000000E-01  0.51099999109E-03 0.  1.
       22    1    1    2    0    0 -0.12032525207E-01 -0.80910353194E-02  0.32663237278E-01  0.35737005818E-01  0.00000000000E+00 0. -1.
  9000001    1    1    2    0    0  0.12032525207E-01  0.80910353194E-02 -0.32663237278E-01  0.35750994182E-01  0.10000000475E-02 0.  1.
</event>
<event>
 4   0  0.4892667E-02  0.9118800E+02  0.7818609E-02  0.1379984E+01
      -11   -1    0    0    0    0  0.00000000000E+00  0.00000000000E+00  0.35740347158E-01  0.35744000000E-01  0.51099999109E-03 0. -1.
       11   -1    0    0    0    0 -0.00000000000E+00 -0.00000000000E+00 -0.35740347158E-01  0.35744000000E-01  0.51099999109E-03 0.  1.
       22    1    1    2    0    0 -0.23275525838E-01 -0.18162717189E-01 -0.20137010357E-01  0.35737005818E-01  0.00000000000E+00 0.  1.
  9000001    1    1    2    0    0  0.23275525838E-01  0.18162717189E-01  0.20137010357E-01  0.35750994182E-01  0.10000000475E-02 0. -1.
</event>
<event>
 4   0  0.4892667E-02  0.9118800E+02  0.7818609E-02  0.1379984E+01
      -11   -1    0    0    0    0  0.00000000000E+00  0.00000000000E+00  0.35740347158E-01  0.35744000000E-01  0.51099999109E-03 0. -1.
       11   -1    0    0    0    0 -0.00000000000E+00 -0.00000000000E+00 -0.35740347158E-01  0.35744000000E-01  0.51099999109E-03 0.  1.
       22    1    1    2    0    0  0.20126982113E-02 -0.22119974393E-01  0.27996238384E-01  0.35737005818E-01  0.00000000000E+00 0. -1.
  9000001    1    1    2    0    0 -0.20126982113E-02  0.22119974393E-01 -0.27996238384E-01  0.35750994182E-01  0.10000000475E-02 0.  1.
</event>
<event>
 4   0  0.4892667E-02  0.9118800E+02  0.7818609E-02  0.1379984E+01
      -11   -1    0    0    0    0  0.00000000000E+00  0.00000000000E+00  0.35740347158E-01  0.35744000000E-01  0.51099999109E-03 0.  1.
       11   -1    0    0    0    0 -0.00000000000E+00 -0.00000000000E+00 -0.35740347158E-01  0.35744000000E-01  0.51099999109E-03 0. -1.
       22    1    1    2    0    0 -0.19867786381E-01 -0.11602366998E-01  0.27345744262E-01  0.35737005818E-01  0.00000000000E+00 0.  1.
  9000001    1    1    2    0    0  0.19867786381E-01  0.11602366998E-01 -0.27345744262E-01  0.35750994182E-01  0.10000000475E-02 0. -1.
</event>
<event>
 4   0  0.4892667E-02  0.9118800E+02  0.7818609E-02  0.1379984E+01
      -11   -1    0    0    0    0  0.00000000000E+00  0.00000000000E+00  0.35740347158E-01  0.35744000000E-01  0.51099999109E-03 0.  1.
       11   -1    0    0    0    0 -0.00000000000E+00 -0.00000000000E+00 -0.35740347158E-01  0.35744000000E-01  0.51099999109E-03 0. -1.
       22    1    1    2    0    0  0.12958117702E-02 -0.96112199969E-02 -0.34395914102E-01  0.35737005818E-01  0.00000000000E+00 0. -1.
  9000001    1    1    2    0    0 -0.12958117702E-02  0.96112199969E-02  0.34395914102E-01  0.35750994182E-01  0.10000000475E-02 0.  1.
</event>
<event>
 4   0  0.4892667E-02  0.9118800E+02  0.7818609E-02  0.1379984E+01
      -11   -1    0    0    0    0  0.00000000000E+00  0.00000000000E+00  0.35740347158E-01  0.35744000000E-01  0.51099999109E-03 0. -1.
       11   -1    0    0    0    0 -0.00000000000E+00 -0.00000000000E+00 -0.35740347158E-01  0.35744000000E-01  0.51099999109E-03 0.  1.
       22    1    1    2    0    0  0.34071878020E-02  0.18196164368E-03 -0.35573747991E-01  0.35737005818E-01  0.00000000000E+00 0.  1.
  9000001    1    1    2    0    0 -0.34071878020E-02 -0.18196164368E-03  0.35573747991E-01  0.35750994182E-01  0.10000000475E-02 0. -1.
</event>
<event>
 4   0  0.4892667E-02  0.9118800E+02  0.7818609E-02  0.1379984E+01
      -11   -1    0    0    0    0  0.00000000000E+00  0.00000000000E+00  0.35740347158E-01  0.35744000000E-01  0.51099999109E-03 0.  1.
       11   -1    0    0    0    0 -0.00000000000E+00 -0.00000000000E+00 -0.35740347158E-01  0.35744000000E-01  0.51099999109E-03 0. -1.
       22    1    1    2    0    0 -0.10199376320E-01 -0.13165967937E-01 -0.31619038503E-01  0.35737005818E-01  0.00000000000E+00 0. -1.
  9000001    1    1    2    0    0  0.10199376320E-01  0.13165967937E-01  0.31619038503E-01  0.35750994182E-01  0.10000000475E-02 0.  1.
</event>
<event>
 4   0  0.4892667E-02  0.9118800E+02  0.7818609E-02  0.1379984E+01
      -11   -1    0    0    0    0  0.00000000000E+00  0.00000000000E+00  0.35740347158E-01  0.35744000000E-01  0.51099999109E-03 0.  1.
       11   -1    0    0    0    0 -0.00000000000E+00 -0.00000000000E+00 -0.35740347158E-01  0.35744000000E-01  0.51099999109E-03 0. -1.
       22    1    1    2    0    0  0.27736045679E-01  0.10899852758E-01  0.19724060556E-01  0.35737005818E-01  0.00000000000E+00 0.  1.
  9000001    1    1    2    0    0 -0.27736045679E-01 -0.10899852758E-01 -0.19724060556E-01  0.35750994182E-01  0.10000000475E-02 0. -1.
</event>
<event>
 4   0  0.4892667E-02  0.9118800E+02  0.7818609E-02  0.1379984E+01
      -11   -1    0    0    0    0  0.00000000000E+00  0.00000000000E+00  0.35740347158E-01  0.35744000000E-01  0.51099999109E-03 0. -1.
       11   -1    0    0    0    0 -0.00000000000E+00 -0.00000000000E+00 -0.35740347158E-01  0.35744000000E-01  0.51099999109E-03 0.  1.
       22    1    1    2    0    0 -0.10931207883E-01  0.34678217482E-02  0.33846956900E-01  0.35737005818E-01  0.00000000000E+00 0. -1.
  9000001    1    1    2    0    0  0.10931207883E-01 -0.34678217482E-02 -0.33846956900E-01  0.35750994182E-01  0.10000000475E-02 0.  1.
</event>
<event>
 4   0  0.4892667E-02  0.9118800E+02  0.7818609E-02  0.1379984E+01
      -11   -1    0    0    0    0  0.00000000000E+00  0.00000000000E+00  0.35740347158E-01  0.35744000000E-01  0.51099999109E-03 0.  1.
       11   -1    0    0    0    0 -0.00000000000E+00 -0.00000000000E+00 -0.35740347158E-01  0.35744000000E-01  0.51099999109E-03 0. -1.
       22    1    1    2    0    0  0.30520645064E-01 -0.17881879321E-01 -0.50854893282E-02  0.35737005818E-01  0.00000000000E+00 0. -1.
  9000001    1    1    2    0    0 -0.30520645064E-01  0.17881879321E-01  0.50854893282E-02  0.35750994182E-01  0.10000000475E-02 0.  1.
</event>
<event>
 4   0  0.4892667E-02  0.9118800E+02  0.7818609E-02  0.1379984E+01
      -11   -1    0    0    0    0  0.00000000000E+00  0.00000000000E+00  0.35740347158E-01  0.35744000000E-01  0.51099999109E-03 0. -1.
       11   -1    0    0    0    0 -0.00000000000E+00 -0.00000000000E+00 -0.35740347158E-01  0.35744000000E-01  0.51099999109E-03 0.  1.
       22    1    1    2    0    0 -0.12653111105E-01  0.16656490501E-01 -0.28975743104E-01  0.35737005818E-01  0.00000000000E+00 0.  1.
  9000001    1    1    2    0    0  0.12653111105E-01 -0.16656490501E-01  0.28975743104E-01  0.35750994182E-01  0.10000000475E-02 0. -1.
</event>
<event>
 4   0  0.4892667E-02  0.9118800E+02  0.7818609E-02  0.1379984E+01
      -11   -1    0    0    0    0  0.00000000000E+00  0.00000000000E+00  0.35740347158E-01  0.35744000000E-01  0.51099999109E-03 0.  1.
       11   -1    0    0    0    0 -0.00000000000E+00 -0.00000000000E+00 -0.35740347158E-01  0.35744000000E-01  0.51099999109E-03 0. -1.
       22    1    1    2    0    0 -0.59148801665E-03 -0.49035642924E-02 -0.35394050122E-01  0.35737005818E-01  0.00000000000E+00 0. -1.
  9000001    1    1    2    0    0  0.59148801665E-03  0.49035642924E-02  0.35394050122E-01  0.35750994182E-01  0.10000000475E-02 0.  1.
</event>
<event>
 4   0  0.4892667E-02  0.9118800E+02  0.7818609E-02  0.1379984E+01
      -11   -1    0    0    0    0  0.00000000000E+00  0.00000000000E+00  0.35740347158E-01  0.35744000000E-01  0.51099999109E-03 0. -1.
       11   -1    0    0    0    0 -0.00000000000E+00 -0.00000000000E+00 -0.35740347158E-01  0.35744000000E-01  0.51099999109E-03 0.  1.
       22    1    1    2    0    0  0.62382027163E-03 -0.29938375192E-02 -0.35605917627E-01  0.35737005818E-01  0.00000000000E+00 0.  1.
  9000001    1    1    2    0    0 -0.62382027163E-03  0.29938375192E-02  0.35605917627E-01  0.35750994182E-01  0.10000000475E-02 0. -1.
</event>
<event>
 4   0  0.4892667E-02  0.9118800E+02  0.7818609E-02  0.1379984E+01
      -11   -1    0    0    0    0  0.00000000000E+00  0.00000000000E+00  0.35740347158E-01  0.35744000000E-01  0.51099999109E-03 0. -1.
       11   -1    0    0    0    0 -0.00000000000E+00 -0.00000000000E+00 -0.35740347158E-01  0.35744000000E-01  0.51099999109E-03 0.  1.
       22    1    1    2    0    0  0.10066157359E-01  0.11392126789E-01 -0.32342317606E-01  0.35737005818E-01  0.00000000000E+00 0.  1.
  9000001    1    1    2    0    0 -0.10066157359E-01 -0.11392126789E-01  0.32342317606E-01  0.35750994182E-01  0.10000000475E-02 0. -1.
</event>
<event>
 4   0  0.4892667E-02  0.9118800E+02  0.7818609E-02  0.1379984E+01
      -11   -1    0    0    0    0  0.00000000000E+00  0.00000000000E+00  0.35740347158E-01  0.35744000000E-01  0.51099999109E-03 0.  1.
       11   -1    0    0    0    0 -0.00000000000E+00 -0.00000000000E+00 -0.35740347158E-01  0.35744000000E-01  0.51099999109E-03 0. -1.
       22    1    1    2    0    0 -0.15073285854E-01  0.14641648942E-02 -0.32369520534E-01  0.35737005818E-01  0.00000000000E+00 0. -1.
  9000001    1    1    2    0    0  0.15073285854E-01 -0.14641648942E-02  0.32369520534E-01  0.35750994182E-01  0.10000000475E-02 0.  1.
</event>
<event>
 4   0  0.4892667E-02  0.9118800E+02  0.7818609E-02  0.1379984E+01
      -11   -1    0    0    0    0  0.00000000000E+00  0.00000000000E+00  0.35740347158E-01  0.35744000000E-01  0.51099999109E-03 0.  1.
       11   -1    0    0    0    0 -0.00000000000E+00 -0.00000000000E+00 -0.35740347158E-01  0.35744000000E-01  0.51099999109E-03 0. -1.
       22    1    1    2    0    0  0.50917008605E-02  0.16577700719E-01  0.31247207973E-01  0.35737005818E-01  0.00000000000E+00 0.  1.
  9000001    1    1    2    0    0 -0.50917008605E-02 -0.16577700719E-01 -0.31247207973E-01  0.35750994182E-01  0.10000000475E-02 0. -1.
</event>
<event>
 4   0  0.4892667E-02  0.9118800E+02  0.7818609E-02  0.1379984E+01
      -11   -1    0    0    0    0  0.00000000000E+00  0.00000000000E+00  0.35740347158E-01  0.35744000000E-01  0.51099999109E-03 0. -1.
       11   -1    0    0    0    0 -0.00000000000E+00 -0.00000000000E+00 -0.35740347158E-01  0.35744000000E-01  0.51099999109E-03 0.  1.
       22    1    1    2    0    0  0.24395860887E-01  0.21327078495E-01 -0.15070875202E-01  0.35737005818E-01  0.00000000000E+00 0.  1.
  9000001    1    1    2    0    0 -0.24395860887E-01 -0.21327078495E-01  0.15070875202E-01  0.35750994182E-01  0.10000000475E-02 0. -1.
</event>
<event>
 4   0  0.4892667E-02  0.9118800E+02  0.7818609E-02  0.1379984E+01
      -11   -1    0    0    0    0  0.00000000000E+00  0.00000000000E+00  0.35740347158E-01  0.35744000000E-01  0.51099999109E-03 0.  1.
       11   -1    0    0    0    0 -0.00000000000E+00 -0.00000000000E+00 -0.35740347158E-01  0.35744000000E-01  0.51099999109E-03 0. -1.
       22    1    1    2    0    0 -0.51761202965E-02  0.24380788510E-01  0.25610906177E-01  0.35737005818E-01  0.00000000000E+00 0.  1.
  9000001    1    1    2    0    0  0.51761202965E-02 -0.24380788510E-01 -0.25610906177E-01  0.35750994182E-01  0.10000000475E-02 0. -1.
</event>
<event>
 4   0  0.4892667E-02  0.9118800E+02  0.7818609E-02  0.1379984E+01
      -11   -1    0    0    0    0  0.00000000000E+00  0.00000000000E+00  0.35740347158E-01  0.35744000000E-01  0.51099999109E-03 0.  1.
       11   -1    0    0    0    0 -0.00000000000E+00 -0.00000000000E+00 -0.35740347158E-01  0.35744000000E-01  0.51099999109E-03 0. -1.
       22    1    1    2    0    0  0.26277819917E-02  0.26708832467E-02  0.35540044026E-01  0.35737005818E-01  0.00000000000E+00 0.  1.
  9000001    1    1    2    0    0 -0.26277819917E-02 -0.26708832467E-02 -0.35540044026E-01  0.35750994182E-01  0.10000000475E-02 0. -1.
</event>
<event>
 4   0  0.4892667E-02  0.9118800E+02  0.7818609E-02  0.1379984E+01
      -11   -1    0    0    0    0  0.00000000000E+00  0.00000000000E+00  0.35740347158E-01  0.35744000000E-01  0.51099999109E-03 0.  1.
       11   -1    0    0    0    0 -0.00000000000E+00 -0.00000000000E+00 -0.35740347158E-01  0.35744000000E-01  0.51099999109E-03 0. -1.
       22    1    1    2    0    0 -0.67248202851E-02  0.59884250147E-02  0.34583943425E-01  0.35737005818E-01  0.00000000000E+00 0.  1.
  9000001    1    1    2    0    0  0.67248202851E-02 -0.59884250147E-02 -0.34583943425E-01  0.35750994182E-01  0.10000000475E-02 0. -1.
</event>
<event>
 4   0  0.4892667E-02  0.9118800E+02  0.7818609E-02  0.1379984E+01
      -11   -1    0    0    0    0  0.00000000000E+00  0.00000000000E+00  0.35740347158E-01  0.35744000000E-01  0.51099999109E-03 0.  1.
       11   -1    0    0    0    0 -0.00000000000E+00 -0.00000000000E+00 -0.35740347158E-01  0.35744000000E-01  0.51099999109E-03 0. -1.
       22    1    1    2    0    0 -0.67356646444E-02 -0.50429261457E-02  0.34732309203E-01  0.35737005818E-01  0.00000000000E+00 0.  1.
  9000001    1    1    2    0    0  0.67356646444E-02  0.50429261457E-02 -0.34732309203E-01  0.35750994182E-01  0.10000000475E-02 0. -1.
</event>
<event>
 4   0  0.4892667E-02  0.9118800E+02  0.7818609E-02  0.1379984E+01
      -11   -1    0    0    0    0  0.00000000000E+00  0.00000000000E+00  0.35740347158E-01  0.35744000000E-01  0.51099999109E-03 0.  1.
       11   -1    0    0    0    0 -0.00000000000E+00 -0.00000000000E+00 -0.35740347158E-01  0.35744000000E-01  0.51099999109E-03 0. -1.
       22    1    1    2    0    0  0.17889174202E-01  0.11043293487E-01  0.28899077844E-01  0.35737005818E-01  0.00000000000E+00 0.  1.
  9000001    1    1    2    0    0 -0.17889174202E-01 -0.11043293487E-01 -0.28899077844E-01  0.35750994182E-01  0.10000000475E-02 0. -1.
</event>
<event>
 4   0  0.4892667E-02  0.9118800E+02  0.7818609E-02  0.1379984E+01
      -11   -1    0    0    0    0  0.00000000000E+00  0.00000000000E+00  0.35740347158E-01  0.35744000000E-01  0.51099999109E-03 0. -1.
       11   -1    0    0    0    0 -0.00000000000E+00 -0.00000000000E+00 -0.35740347158E-01  0.35744000000E-01  0.51099999109E-03 0.  1.
       22    1    1    2    0    0 -0.21978604599E-03 -0.79191633685E-02 -0.34847842552E-01  0.35737005818E-01  0.00000000000E+00 0.  1.
  9000001    1    1    2    0    0  0.21978604599E-03  0.79191633685E-02  0.34847842552E-01  0.35750994182E-01  0.10000000475E-02 0. -1.
</event>
<event>
 4   0  0.4892667E-02  0.9118800E+02  0.7818609E-02  0.1379984E+01
      -11   -1    0    0    0    0  0.00000000000E+00  0.00000000000E+00  0.35740347158E-01  0.35744000000E-01  0.51099999109E-03 0. -1.
       11   -1    0    0    0    0 -0.00000000000E+00 -0.00000000000E+00 -0.35740347158E-01  0.35744000000E-01  0.51099999109E-03 0.  1.
       22    1    1    2    0    0 -0.59938418170E-02  0.31607200081E-02  0.35088706077E-01  0.35737005818E-01  0.00000000000E+00 0. -1.
  9000001    1    1    2    0    0  0.59938418170E-02 -0.31607200081E-02 -0.35088706077E-01  0.35750994182E-01  0.10000000475E-02 0.  1.
</event>
<event>
 4   0  0.4892667E-02  0.9118800E+02  0.7818609E-02  0.1379984E+01
      -11   -1    0    0    0    0  0.00000000000E+00  0.00000000000E+00  0.35740347158E-01  0.35744000000E-01  0.51099999109E-03 0.  1.
       11   -1    0    0    0    0 -0.00000000000E+00 -0.00000000000E+00 -0.35740347158E-01  0.35744000000E-01  0.51099999109E-03 0. -1.
       22    1    1    2    0    0 -0.78498070367E-03 -0.63123917753E-02 -0.35166334757E-01  0.35737005818E-01  0.00000000000E+00 0. -1.
  9000001    1    1    2    0    0  0.78498070367E-03  0.63123917753E-02  0.35166334757E-01  0.35750994182E-01  0.10000000475E-02 0.  1.
</event>
<event>
 4   0  0.4892667E-02  0.9118800E+02  0.7818609E-02  0.1379984E+01
      -11   -1    0    0    0    0  0.00000000000E+00  0.00000000000E+00  0.35740347158E-01  0.35744000000E-01  0.51099999109E-03 0. -1.
       11   -1    0    0    0    0 -0.00000000000E+00 -0.00000000000E+00 -0.35740347158E-01  0.35744000000E-01  0.51099999109E-03 0.  1.
       22    1    1    2    0    0 -0.13141393662E-01 -0.44517319582E-02 -0.32933560999E-01  0.35737005818E-01  0.00000000000E+00 0.  1.
  9000001    1    1    2    0    0  0.13141393662E-01  0.44517319582E-02  0.32933560999E-01  0.35750994182E-01  0.10000000475E-02 0. -1.
</event>
<event>
 4   0  0.4892667E-02  0.9118800E+02  0.7818609E-02  0.1379984E+01
      -11   -1    0    0    0    0  0.00000000000E+00  0.00000000000E+00  0.35740347158E-01  0.35744000000E-01  0.51099999109E-03 0.  1.
       11   -1    0    0    0    0 -0.00000000000E+00 -0.00000000000E+00 -0.35740347158E-01  0.35744000000E-01  0.51099999109E-03 0. -1.
       22    1    1    2    0    0 -0.19407557392E-01  0.39852321487E-02 -0.29742196047E-01  0.35737005818E-01  0.00000000000E+00 0. -1.
  9000001    1    1    2    0    0  0.19407557392E-01 -0.39852321487E-02  0.29742196047E-01  0.35750994182E-01  0.10000000475E-02 0.  1.
</event>
<event>
 4   0  0.4892667E-02  0.9118800E+02  0.7818609E-02  0.1379984E+01
      -11   -1    0    0    0    0  0.00000000000E+00  0.00000000000E+00  0.35740347158E-01  0.35744000000E-01  0.51099999109E-03 0.  1.
       11   -1    0    0    0    0 -0.00000000000E+00 -0.00000000000E+00 -0.35740347158E-01  0.35744000000E-01  0.51099999109E-03 0. -1.
       22    1    1    2    0    0  0.44214258647E-02  0.64889491999E-02  0.34863707727E-01  0.35737005818E-01  0.00000000000E+00 0.  1.
  9000001    1    1    2    0    0 -0.44214258647E-02 -0.64889491999E-02 -0.34863707727E-01  0.35750994182E-01  0.10000000475E-02 0. -1.
</event>
<event>
 4   0  0.4892667E-02  0.9118800E+02  0.7818609E-02  0.1379984E+01
      -11   -1    0    0    0    0  0.00000000000E+00  0.00000000000E+00  0.35740347158E-01  0.35744000000E-01  0.51099999109E-03 0.  1.
       11   -1    0    0    0    0 -0.00000000000E+00 -0.00000000000E+00 -0.35740347158E-01  0.35744000000E-01  0.51099999109E-03 0.  1.
       22    1    1    2    0    0  0.76800265973E-03  0.12025818561E-01  0.33644069978E-01  0.35737005818E-01  0.00000000000E+00 0.  1.
  9000001    1    1    2    0    0 -0.76800265973E-03 -0.12025818561E-01 -0.33644069978E-01  0.35750994182E-01  0.10000000475E-02 0.  1.
</event>
<event>
 4   0  0.4892667E-02  0.9118800E+02  0.7818609E-02  0.1379984E+01
      -11   -1    0    0    0    0  0.00000000000E+00  0.00000000000E+00  0.35740347158E-01  0.35744000000E-01  0.51099999109E-03 0. -1.
       11   -1    0    0    0    0 -0.00000000000E+00 -0.00000000000E+00 -0.35740347158E-01  0.35744000000E-01  0.51099999109E-03 0.  1.
       22    1    1    2    0    0  0.98261184580E-02 -0.26307787078E-02 -0.34258721288E-01  0.35737005818E-01  0.00000000000E+00 0.  1.
  9000001    1    1    2    0    0 -0.98261184580E-02  0.26307787078E-02  0.34258721288E-01  0.35750994182E-01  0.10000000475E-02 0. -1.
</event>
<event>
 4   0  0.4892667E-02  0.9118800E+02  0.7818609E-02  0.1379984E+01
      -11   -1    0    0    0    0  0.00000000000E+00  0.00000000000E+00  0.35740347158E-01  0.35744000000E-01  0.51099999109E-03 0. -1.
       11   -1    0    0    0    0 -0.00000000000E+00 -0.00000000000E+00 -0.35740347158E-01  0.35744000000E-01  0.51099999109E-03 0.  1.
       22    1    1    2    0    0 -0.14104693000E-01  0.21943725640E-02 -0.32762416719E-01  0.35737005818E-01  0.00000000000E+00 0.  1.
  9000001    1    1    2    0    0  0.14104693000E-01 -0.21943725640E-02  0.32762416719E-01  0.35750994182E-01  0.10000000475E-02 0. -1.
</event>
<event>
 4   0  0.4892667E-02  0.9118800E+02  0.7818609E-02  0.1379984E+01
      -11   -1    0    0    0    0  0.00000000000E+00  0.00000000000E+00  0.35740347158E-01  0.35744000000E-01  0.51099999109E-03 0. -1.
       11   -1    0    0    0    0 -0.00000000000E+00 -0.00000000000E+00 -0.35740347158E-01  0.35744000000E-01  0.51099999109E-03 0.  1.
       22    1    1    2    0    0 -0.17229205853E-02 -0.94388840255E-02 -0.34424883411E-01  0.35737005818E-01  0.00000000000E+00 0.  1.
  9000001    1    1    2    0    0  0.17229205853E-02  0.94388840255E-02  0.34424883411E-01  0.35750994182E-01  0.10000000475E-02 0. -1.
</event>
<event>
 4   0  0.4892667E-02  0.9118800E+02  0.7818609E-02  0.1379984E+01
      -11   -1    0    0    0    0  0.00000000000E+00  0.00000000000E+00  0.35740347158E-01  0.35744000000E-01  0.51099999109E-03 0. -1.
       11   -1    0    0    0    0 -0.00000000000E+00 -0.00000000000E+00 -0.35740347158E-01  0.35744000000E-01  0.51099999109E-03 0.  1.
       22    1    1    2    0    0 -0.64283697937E-02  0.34696284650E-01 -0.56548632285E-02  0.35737005818E-01  0.00000000000E+00 0. -1.
  9000001    1    1    2    0    0  0.64283697937E-02 -0.34696284650E-01  0.56548632285E-02  0.35750994182E-01  0.10000000475E-02 0.  1.
</event>
<event>
 4   0  0.4892667E-02  0.9118800E+02  0.7818609E-02  0.1379984E+01
      -11   -1    0    0    0    0  0.00000000000E+00  0.00000000000E+00  0.35740347158E-01  0.35744000000E-01  0.51099999109E-03 0.  1.
       11   -1    0    0    0    0 -0.00000000000E+00 -0.00000000000E+00 -0.35740347158E-01  0.35744000000E-01  0.51099999109E-03 0. -1.
       22    1    1    2    0    0  0.72453039481E-02 -0.25838401936E-01  0.23601189397E-01  0.35737005818E-01  0.00000000000E+00 0.  1.
  9000001    1    1    2    0    0 -0.72453039481E-02  0.25838401936E-01 -0.23601189397E-01  0.35750994182E-01  0.10000000475E-02 0. -1.
</event>
<event>
 4   0  0.4892667E-02  0.9118800E+02  0.7818609E-02  0.1379984E+01
      -11   -1    0    0    0    0  0.00000000000E+00  0.00000000000E+00  0.35740347158E-01  0.35744000000E-01  0.51099999109E-03 0.  1.
       11   -1    0    0    0    0 -0.00000000000E+00 -0.00000000000E+00 -0.35740347158E-01  0.35744000000E-01  0.51099999109E-03 0. -1.
       22    1    1    2    0    0 -0.34849419798E-02 -0.23604755919E-02 -0.35488264529E-01  0.35737005818E-01  0.00000000000E+00 0. -1.
  9000001    1    1    2    0    0  0.34849419798E-02  0.23604755919E-02  0.35488264529E-01  0.35750994182E-01  0.10000000475E-02 0.  1.
</event>
<event>
 4   0  0.4892667E-02  0.9118800E+02  0.7818609E-02  0.1379984E+01
      -11   -1    0    0    0    0  0.00000000000E+00  0.00000000000E+00  0.35740347158E-01  0.35744000000E-01  0.51099999109E-03 0.  1.
       11   -1    0    0    0    0 -0.00000000000E+00 -0.00000000000E+00 -0.35740347158E-01  0.35744000000E-01  0.51099999109E-03 0. -1.
       22    1    1    2    0    0 -0.86814679900E-02 -0.35099234744E-02 -0.34488347824E-01  0.35737005818E-01  0.00000000000E+00 0. -1.
  9000001    1    1    2    0    0  0.86814679900E-02  0.35099234744E-02  0.34488347824E-01  0.35750994182E-01  0.10000000475E-02 0.  1.
</event>
<event>
 4   0  0.4892667E-02  0.9118800E+02  0.7818609E-02  0.1379984E+01
      -11   -1    0    0    0    0  0.00000000000E+00  0.00000000000E+00  0.35740347158E-01  0.35744000000E-01  0.51099999109E-03 0. -1.
       11   -1    0    0    0    0 -0.00000000000E+00 -0.00000000000E+00 -0.35740347158E-01  0.35744000000E-01  0.51099999109E-03 0.  1.
       22    1    1    2    0    0 -0.19489206767E-01  0.13626258407E-01 -0.26676384431E-01  0.35737005818E-01  0.00000000000E+00 0.  1.
  9000001    1    1    2    0    0  0.19489206767E-01 -0.13626258407E-01  0.26676384431E-01  0.35750994182E-01  0.10000000475E-02 0. -1.
</event>
<event>
 4   0  0.4892667E-02  0.9118800E+02  0.7818609E-02  0.1379984E+01
      -11   -1    0    0    0    0  0.00000000000E+00  0.00000000000E+00  0.35740347158E-01  0.35744000000E-01  0.51099999109E-03 0. -1.
       11   -1    0    0    0    0 -0.00000000000E+00 -0.00000000000E+00 -0.35740347158E-01  0.35744000000E-01  0.51099999109E-03 0.  1.
       22    1    1    2    0    0  0.41190387197E-02  0.16818340135E-02  0.35458969800E-01  0.35737005818E-01  0.00000000000E+00 0. -1.
  9000001    1    1    2    0    0 -0.41190387197E-02 -0.16818340135E-02 -0.35458969800E-01  0.35750994182E-01  0.10000000475E-02 0.  1.
</event>
<event>
 4   0  0.4892667E-02  0.9118800E+02  0.7818609E-02  0.1379984E+01
      -11   -1    0    0    0    0  0.00000000000E+00  0.00000000000E+00  0.35740347158E-01  0.35744000000E-01  0.51099999109E-03 0.  1.
       11   -1    0    0    0    0 -0.00000000000E+00 -0.00000000000E+00 -0.35740347158E-01  0.35744000000E-01  0.51099999109E-03 0. -1.
       22    1    1    2    0    0 -0.49495999612E-02  0.11719788518E-01 -0.33395832108E-01  0.35737005818E-01  0.00000000000E+00 0. -1.
  9000001    1    1    2    0    0  0.49495999612E-02 -0.11719788518E-01  0.33395832108E-01  0.35750994182E-01  0.10000000475E-02 0.  1.
</event>
<event>
 4   0  0.4892667E-02  0.9118800E+02  0.7818609E-02  0.1379984E+01
      -11   -1    0    0    0    0  0.00000000000E+00  0.00000000000E+00  0.35740347158E-01  0.35744000000E-01  0.51099999109E-03 0. -1.
       11   -1    0    0    0    0 -0.00000000000E+00 -0.00000000000E+00 -0.35740347158E-01  0.35744000000E-01  0.51099999109E-03 0.  1.
       22    1    1    2    0    0 -0.55614293796E-02  0.65928902217E-02  0.34680511626E-01  0.35737005818E-01  0.00000000000E+00 0. -1.
  9000001    1    1    2    0    0  0.55614293796E-02 -0.65928902217E-02 -0.34680511626E-01  0.35750994182E-01  0.10000000475E-02 0.  1.
</event>
<event>
 4   0  0.4892667E-02  0.9118800E+02  0.7818609E-02  0.1379984E+01
      -11   -1    0    0    0    0  0.00000000000E+00  0.00000000000E+00  0.35740347158E-01  0.35744000000E-01  0.51099999109E-03 0.  1.
       11   -1    0    0    0    0 -0.00000000000E+00 -0.00000000000E+00 -0.35740347158E-01  0.35744000000E-01  0.51099999109E-03 0. -1.
       22    1    1    2    0    0 -0.80017165609E-02 -0.24676057337E-01  0.24580445709E-01  0.35737005818E-01  0.00000000000E+00 0.  1.
  9000001    1    1    2    0    0  0.80017165609E-02  0.24676057337E-01 -0.24580445709E-01  0.35750994182E-01  0.10000000475E-02 0. -1.
</event>
<event>
 4   0  0.4892667E-02  0.9118800E+02  0.7818609E-02  0.1379984E+01
      -11   -1    0    0    0    0  0.00000000000E+00  0.00000000000E+00  0.35740347158E-01  0.35744000000E-01  0.51099999109E-03 0. -1.
       11   -1    0    0    0    0 -0.00000000000E+00 -0.00000000000E+00 -0.35740347158E-01  0.35744000000E-01  0.51099999109E-03 0.  1.
       22    1    1    2    0    0 -0.69434155582E-02  0.29713184585E-03  0.35054732604E-01  0.35737005818E-01  0.00000000000E+00 0. -1.
  9000001    1    1    2    0    0  0.69434155582E-02 -0.29713184585E-03 -0.35054732604E-01  0.35750994182E-01  0.10000000475E-02 0.  1.
</event>
<event>
 4   0  0.4892667E-02  0.9118800E+02  0.7818609E-02  0.1379984E+01
      -11   -1    0    0    0    0  0.00000000000E+00  0.00000000000E+00  0.35740347158E-01  0.35744000000E-01  0.51099999109E-03 0.  1.
       11   -1    0    0    0    0 -0.00000000000E+00 -0.00000000000E+00 -0.35740347158E-01  0.35744000000E-01  0.51099999109E-03 0. -1.
       22    1    1    2    0    0 -0.11698549762E-01  0.10909804500E-01  0.31957060004E-01  0.35737005818E-01  0.00000000000E+00 0.  1.
  9000001    1    1    2    0    0  0.11698549762E-01 -0.10909804500E-01 -0.31957060004E-01  0.35750994182E-01  0.10000000475E-02 0. -1.
</event>
<event>
 4   0  0.4892667E-02  0.9118800E+02  0.7818609E-02  0.1379984E+01
      -11   -1    0    0    0    0  0.00000000000E+00  0.00000000000E+00  0.35740347158E-01  0.35744000000E-01  0.51099999109E-03 0. -1.
       11   -1    0    0    0    0 -0.00000000000E+00 -0.00000000000E+00 -0.35740347158E-01  0.35744000000E-01  0.51099999109E-03 0.  1.
       22    1    1    2    0    0  0.54977761687E-02  0.23738841385E-01  0.26141450835E-01  0.35737005818E-01  0.00000000000E+00 0. -1.
  9000001    1    1    2    0    0 -0.54977761687E-02 -0.23738841385E-01 -0.26141450835E-01  0.35750994182E-01  0.10000000475E-02 0.  1.
</event>
<event>
 4   0  0.4892667E-02  0.9118800E+02  0.7818609E-02  0.1379984E+01
      -11   -1    0    0    0    0  0.00000000000E+00  0.00000000000E+00  0.35740347158E-01  0.35744000000E-01  0.51099999109E-03 0. -1.
       11   -1    0    0    0    0 -0.00000000000E+00 -0.00000000000E+00 -0.35740347158E-01  0.35744000000E-01  0.51099999109E-03 0.  1.
       22    1    1    2    0    0 -0.28067739263E-01 -0.98288716275E-02 -0.19817388326E-01  0.35737005818E-01  0.00000000000E+00 0.  1.
  9000001    1    1    2    0    0  0.28067739263E-01  0.98288716275E-02  0.19817388326E-01  0.35750994182E-01  0.10000000475E-02 0. -1.
</event>
<event>
 4   0  0.4892667E-02  0.9118800E+02  0.7818609E-02  0.1379984E+01
      -11   -1    0    0    0    0  0.00000000000E+00  0.00000000000E+00  0.35740347158E-01  0.35744000000E-01  0.51099999109E-03 0.  1.
       11   -1    0    0    0    0 -0.00000000000E+00 -0.00000000000E+00 -0.35740347158E-01  0.35744000000E-01  0.51099999109E-03 0. -1.
       22    1    1    2    0    0  0.11283491772E-01 -0.86576226925E-02  0.32785087580E-01  0.35737005818E-01  0.00000000000E+00 0.  1.
  9000001    1    1    2    0    0 -0.11283491772E-01  0.86576226925E-02 -0.32785087580E-01  0.35750994182E-01  0.10000000475E-02 0. -1.
</event>
<event>
 4   0  0.4892667E-02  0.9118800E+02  0.7818609E-02  0.1379984E+01
      -11   -1    0    0    0    0  0.00000000000E+00  0.00000000000E+00  0.35740347158E-01  0.35744000000E-01  0.51099999109E-03 0. -1.
       11   -1    0    0    0    0 -0.00000000000E+00 -0.00000000000E+00 -0.35740347158E-01  0.35744000000E-01  0.51099999109E-03 0.  1.
       22    1    1    2    0    0  0.46596398717E-02 -0.67156740937E-02 -0.34789668906E-01  0.35737005818E-01  0.00000000000E+00 0.  1.
  9000001    1    1    2    0    0 -0.46596398717E-02  0.67156740937E-02  0.34789668906E-01  0.35750994182E-01  0.10000000475E-02 0. -1.
</event>
<event>
 4   0  0.4892667E-02  0.9118800E+02  0.7818609E-02  0.1379984E+01
      -11   -1    0    0    0    0  0.00000000000E+00  0.00000000000E+00  0.35740347158E-01  0.35744000000E-01  0.51099999109E-03 0.  1.
       11   -1    0    0    0    0 -0.00000000000E+00 -0.00000000000E+00 -0.35740347158E-01  0.35744000000E-01  0.51099999109E-03 0. -1.
       22    1    1    2    0    0 -0.41540483258E-02 -0.64116703269E-02 -0.34910857208E-01  0.35737005818E-01  0.00000000000E+00 0. -1.
  9000001    1    1    2    0    0  0.41540483258E-02  0.64116703269E-02  0.34910857208E-01  0.35750994182E-01  0.10000000475E-02 0.  1.
</event>
<event>
 4   0  0.4892667E-02  0.9118800E+02  0.7818609E-02  0.1379984E+01
      -11   -1    0    0    0    0  0.00000000000E+00  0.00000000000E+00  0.35740347158E-01  0.35744000000E-01  0.51099999109E-03 0.  1.
       11   -1    0    0    0    0 -0.00000000000E+00 -0.00000000000E+00 -0.35740347158E-01  0.35744000000E-01  0.51099999109E-03 0. -1.
       22    1    1    2    0    0  0.28402177178E-01  0.75542201768E-02  0.20331838921E-01  0.35737005818E-01  0.00000000000E+00 0.  1.
  9000001    1    1    2    0    0 -0.28402177178E-01 -0.75542201768E-02 -0.20331838921E-01  0.35750994182E-01  0.10000000475E-02 0. -1.
</event>
<event>
 4   0  0.4892667E-02  0.9118800E+02  0.7818609E-02  0.1379984E+01
      -11   -1    0    0    0    0  0.00000000000E+00  0.00000000000E+00  0.35740347158E-01  0.35744000000E-01  0.51099999109E-03 0. -1.
       11   -1    0    0    0    0 -0.00000000000E+00 -0.00000000000E+00 -0.35740347158E-01  0.35744000000E-01  0.51099999109E-03 0.  1.
       22    1    1    2    0    0 -0.64689625969E-02 -0.14749295611E-01 -0.31902106306E-01  0.35737005818E-01  0.00000000000E+00 0.  1.
  9000001    1    1    2    0    0  0.64689625969E-02  0.14749295611E-01  0.31902106306E-01  0.35750994182E-01  0.10000000475E-02 0. -1.
</event>
<event>
 4   0  0.4892667E-02  0.9118800E+02  0.7818609E-02  0.1379984E+01
      -11   -1    0    0    0    0  0.00000000000E+00  0.00000000000E+00  0.35740347158E-01  0.35744000000E-01  0.51099999109E-03 0. -1.
       11   -1    0    0    0    0 -0.00000000000E+00 -0.00000000000E+00 -0.35740347158E-01  0.35744000000E-01  0.51099999109E-03 0.  1.
       22    1    1    2    0    0 -0.10264920513E-01 -0.89924731939E-02  0.33028781655E-01  0.35737005818E-01  0.00000000000E+00 0. -1.
  9000001    1    1    2    0    0  0.10264920513E-01  0.89924731939E-02 -0.33028781655E-01  0.35750994182E-01  0.10000000475E-02 0.  1.
</event>
<event>
 4   0  0.4892667E-02  0.9118800E+02  0.7818609E-02  0.1379984E+01
      -11   -1    0    0    0    0  0.00000000000E+00  0.00000000000E+00  0.35740347158E-01  0.35744000000E-01  0.51099999109E-03 0. -1.
       11   -1    0    0    0    0 -0.00000000000E+00 -0.00000000000E+00 -0.35740347158E-01  0.35744000000E-01  0.51099999109E-03 0.  1.
       22    1    1    2    0    0  0.23995130585E-02  0.50037701677E-02 -0.35303515492E-01  0.35737005818E-01  0.00000000000E+00 0.  1.
  9000001    1    1    2    0    0 -0.23995130585E-02 -0.50037701677E-02  0.35303515492E-01  0.35750994182E-01  0.10000000475E-02 0. -1.
</event>
<event>
 4   0  0.4892667E-02  0.9118800E+02  0.7818609E-02  0.1379984E+01
      -11   -1    0    0    0    0  0.00000000000E+00  0.00000000000E+00  0.35740347158E-01  0.35744000000E-01  0.51099999109E-03 0.  1.
       11   -1    0    0    0    0 -0.00000000000E+00 -0.00000000000E+00 -0.35740347158E-01  0.35744000000E-01  0.51099999109E-03 0. -1.
       22    1    1    2    0    0  0.54396839228E-02  0.32479426272E-01 -0.13879131555E-01  0.35737005818E-01  0.00000000000E+00 0. -1.
  9000001    1    1    2    0    0 -0.54396839228E-02 -0.32479426272E-01  0.13879131555E-01  0.35750994182E-01  0.10000000475E-02 0.  1.
</event>
<event>
 4   0  0.4892667E-02  0.9118800E+02  0.7818609E-02  0.1379984E+01
      -11   -1    0    0    0    0  0.00000000000E+00  0.00000000000E+00  0.35740347158E-01  0.35744000000E-01  0.51099999109E-03 0.  1.
       11   -1    0    0    0    0 -0.00000000000E+00 -0.00000000000E+00 -0.35740347158E-01  0.35744000000E-01  0.51099999109E-03 0. -1.
       22    1    1    2    0    0  0.77653244960E-02 -0.86435971286E-02  0.33795288858E-01  0.35737005818E-01  0.00000000000E+00 0.  1.
  9000001    1    1    2    0    0 -0.77653244960E-02  0.86435971286E-02 -0.33795288858E-01  0.35750994182E-01  0.10000000475E-02 0. -1.
</event>
<event>
 4   0  0.4892667E-02  0.9118800E+02  0.7818609E-02  0.1379984E+01
      -11   -1    0    0    0    0  0.00000000000E+00  0.00000000000E+00  0.35740347158E-01  0.35744000000E-01  0.51099999109E-03 0.  1.
       11   -1    0    0    0    0 -0.00000000000E+00 -0.00000000000E+00 -0.35740347158E-01  0.35744000000E-01  0.51099999109E-03 0. -1.
       22    1    1    2    0    0 -0.27293281787E-02 -0.12912811430E-02  0.35609225568E-01  0.35737005818E-01  0.00000000000E+00 0.  1.
  9000001    1    1    2    0    0  0.27293281787E-02  0.12912811430E-02 -0.35609225568E-01  0.35750994182E-01  0.10000000475E-02 0. -1.
</event>
<event>
 4   0  0.4892667E-02  0.9118800E+02  0.7818609E-02  0.1379984E+01
      -11   -1    0    0    0    0  0.00000000000E+00  0.00000000000E+00  0.35740347158E-01  0.35744000000E-01  0.51099999109E-03 0.  1.
       11   -1    0    0    0    0 -0.00000000000E+00 -0.00000000000E+00 -0.35740347158E-01  0.35744000000E-01  0.51099999109E-03 0. -1.
       22    1    1    2    0    0  0.50377522449E-02 -0.77876476971E-02  0.34512420670E-01  0.35737005818E-01  0.00000000000E+00 0.  1.
  9000001    1    1    2    0    0 -0.50377522449E-02  0.77876476971E-02 -0.34512420670E-01  0.35750994182E-01  0.10000000475E-02 0. -1.
</event>
<event>
 4   0  0.4892667E-02  0.9118800E+02  0.7818609E-02  0.1379984E+01
      -11   -1    0    0    0    0  0.00000000000E+00  0.00000000000E+00  0.35740347158E-01  0.35744000000E-01  0.51099999109E-03 0.  1.
       11   -1    0    0    0    0 -0.00000000000E+00 -0.00000000000E+00 -0.35740347158E-01  0.35744000000E-01  0.51099999109E-03 0. -1.
       22    1    1    2    0    0 -0.87083628753E-02  0.97144893284E-02 -0.33270507931E-01  0.35737005818E-01  0.00000000000E+00 0. -1.
  9000001    1    1    2    0    0  0.87083628753E-02 -0.97144893284E-02  0.33270507931E-01  0.35750994182E-01  0.10000000475E-02 0.  1.
</event>
<event>
 4   0  0.4892667E-02  0.9118800E+02  0.7818609E-02  0.1379984E+01
      -11   -1    0    0    0    0  0.00000000000E+00  0.00000000000E+00  0.35740347158E-01  0.35744000000E-01  0.51099999109E-03 0. -1.
       11   -1    0    0    0    0 -0.00000000000E+00 -0.00000000000E+00 -0.35740347158E-01  0.35744000000E-01  0.51099999109E-03 0.  1.
       22    1    1    2    0    0  0.49159137833E-02 -0.85121660508E-02  0.34358556513E-01  0.35737005818E-01  0.00000000000E+00 0. -1.
  9000001    1    1    2    0    0 -0.49159137833E-02  0.85121660508E-02 -0.34358556513E-01  0.35750994182E-01  0.10000000475E-02 0.  1.
</event>
<event>
 4   0  0.4892667E-02  0.9118800E+02  0.7818609E-02  0.1379984E+01
      -11   -1    0    0    0    0  0.00000000000E+00  0.00000000000E+00  0.35740347158E-01  0.35744000000E-01  0.51099999109E-03 0.  1.
       11   -1    0    0    0    0 -0.00000000000E+00 -0.00000000000E+00 -0.35740347158E-01  0.35744000000E-01  0.51099999109E-03 0. -1.
       22    1    1    2    0    0 -0.12256062869E-01  0.59131375168E-02 -0.33044777387E-01  0.35737005818E-01  0.00000000000E+00 0. -1.
  9000001    1    1    2    0    0  0.12256062869E-01 -0.59131375168E-02  0.33044777387E-01  0.35750994182E-01  0.10000000475E-02 0.  1.
</event>
<event>
 4   0  0.4892667E-02  0.9118800E+02  0.7818609E-02  0.1379984E+01
      -11   -1    0    0    0    0  0.00000000000E+00  0.00000000000E+00  0.35740347158E-01  0.35744000000E-01  0.51099999109E-03 0. -1.
       11   -1    0    0    0    0 -0.00000000000E+00 -0.00000000000E+00 -0.35740347158E-01  0.35744000000E-01  0.51099999109E-03 0.  1.
       22    1    1    2    0    0  0.24300086338E-02  0.33881258639E-02  0.35492946427E-01  0.35737005818E-01  0.00000000000E+00 0. -1.
  9000001    1    1    2    0    0 -0.24300086338E-02 -0.33881258639E-02 -0.35492946427E-01  0.35750994182E-01  0.10000000475E-02 0.  1.
</event>
<event>
 4   0  0.4892667E-02  0.9118800E+02  0.7818609E-02  0.1379984E+01
      -11   -1    0    0    0    0  0.00000000000E+00  0.00000000000E+00  0.35740347158E-01  0.35744000000E-01  0.51099999109E-03 0. -1.
       11   -1    0    0    0    0 -0.00000000000E+00 -0.00000000000E+00 -0.35740347158E-01  0.35744000000E-01  0.51099999109E-03 0.  1.
       22    1    1    2    0    0 -0.14656185870E-01  0.13138099352E-01 -0.29828177049E-01  0.35737005818E-01  0.00000000000E+00 0.  1.
  9000001    1    1    2    0    0  0.14656185870E-01 -0.13138099352E-01  0.29828177049E-01  0.35750994182E-01  0.10000000475E-02 0. -1.
</event>
<event>
 4   0  0.4892667E-02  0.9118800E+02  0.7818609E-02  0.1379984E+01
      -11   -1    0    0    0    0  0.00000000000E+00  0.00000000000E+00  0.35740347158E-01  0.35744000000E-01  0.51099999109E-03 0. -1.
       11   -1    0    0    0    0 -0.00000000000E+00 -0.00000000000E+00 -0.35740347158E-01  0.35744000000E-01  0.51099999109E-03 0.  1.
       22    1    1    2    0    0 -0.17122170008E-01  0.11354814448E-02  0.31347656387E-01  0.35737005818E-01  0.00000000000E+00 0. -1.
  9000001    1    1    2    0    0  0.17122170008E-01 -0.11354814448E-02 -0.31347656387E-01  0.35750994182E-01  0.10000000475E-02 0.  1.
</event>
<event>
 4   0  0.4892667E-02  0.9118800E+02  0.7818609E-02  0.1379984E+01
      -11   -1    0    0    0    0  0.00000000000E+00  0.00000000000E+00  0.35740347158E-01  0.35744000000E-01  0.51099999109E-03 0. -1.
       11   -1    0    0    0    0 -0.00000000000E+00 -0.00000000000E+00 -0.35740347158E-01  0.35744000000E-01  0.51099999109E-03 0.  1.
       22    1    1    2    0    0 -0.16480170014E-01 -0.36616225492E-02  0.31498096791E-01  0.35737005818E-01  0.00000000000E+00 0. -1.
  9000001    1    1    2    0    0  0.16480170014E-01  0.36616225492E-02 -0.31498096791E-01  0.35750994182E-01  0.10000000475E-02 0.  1.
</event>
<event>
 4   0  0.4892667E-02  0.9118800E+02  0.7818609E-02  0.1379984E+01
      -11   -1    0    0    0    0  0.00000000000E+00  0.00000000000E+00  0.35740347158E-01  0.35744000000E-01  0.51099999109E-03 0. -1.
       11   -1    0    0    0    0 -0.00000000000E+00 -0.00000000000E+00 -0.35740347158E-01  0.35744000000E-01  0.51099999109E-03 0.  1.
       22    1    1    2    0    0  0.83627859683E-02  0.28380663770E-03 -0.34743587171E-01  0.35737005818E-01  0.00000000000E+00 0.  1.
  9000001    1    1    2    0    0 -0.83627859683E-02 -0.28380663770E-03  0.34743587171E-01  0.35750994182E-01  0.10000000475E-02 0. -1.
</event>
<event>
 4   0  0.4892667E-02  0.9118800E+02  0.7818609E-02  0.1379984E+01
      -11   -1    0    0    0    0  0.00000000000E+00  0.00000000000E+00  0.35740347158E-01  0.35744000000E-01  0.51099999109E-03 0. -1.
       11   -1    0    0    0    0 -0.00000000000E+00 -0.00000000000E+00 -0.35740347158E-01  0.35744000000E-01  0.51099999109E-03 0.  1.
       22    1    1    2    0    0  0.21026310118E-01  0.46130134260E-02 -0.28526268155E-01  0.35737005818E-01  0.00000000000E+00 0.  1.
  9000001    1    1    2    0    0 -0.21026310118E-01 -0.46130134260E-02  0.28526268155E-01  0.35750994182E-01  0.10000000475E-02 0. -1.
</event>
<event>
 4   0  0.4892667E-02  0.9118800E+02  0.7818609E-02  0.1379984E+01
      -11   -1    0    0    0    0  0.00000000000E+00  0.00000000000E+00  0.35740347158E-01  0.35744000000E-01  0.51099999109E-03 0. -1.
       11   -1    0    0    0    0 -0.00000000000E+00 -0.00000000000E+00 -0.35740347158E-01  0.35744000000E-01  0.51099999109E-03 0.  1.
       22    1    1    2    0    0  0.22490716647E-01  0.14098532492E-01 -0.23927654109E-01  0.35737005818E-01  0.00000000000E+00 0.  1.
  9000001    1    1    2    0    0 -0.22490716647E-01 -0.14098532492E-01  0.23927654109E-01  0.35750994182E-01  0.10000000475E-02 0. -1.
</event>
<event>
 4   0  0.4892667E-02  0.9118800E+02  0.7818609E-02  0.1379984E+01
      -11   -1    0    0    0    0  0.00000000000E+00  0.00000000000E+00  0.35740347158E-01  0.35744000000E-01  0.51099999109E-03 0. -1.
       11   -1    0    0    0    0 -0.00000000000E+00 -0.00000000000E+00 -0.35740347158E-01  0.35744000000E-01  0.51099999109E-03 0.  1.
       22    1    1    2    0    0  0.29499245602E-02 -0.17931988432E-02  0.35569874443E-01  0.35737005818E-01  0.00000000000E+00 0. -1.
  9000001    1    1    2    0    0 -0.29499245602E-02  0.17931988432E-02 -0.35569874443E-01  0.35750994182E-01  0.10000000475E-02 0.  1.
</event>
<event>
 4   0  0.4892667E-02  0.9118800E+02  0.7818609E-02  0.1379984E+01
      -11   -1    0    0    0    0  0.00000000000E+00  0.00000000000E+00  0.35740347158E-01  0.35744000000E-01  0.51099999109E-03 0. -1.
       11   -1    0    0    0    0 -0.00000000000E+00 -0.00000000000E+00 -0.35740347158E-01  0.35744000000E-01  0.51099999109E-03 0.  1.
       22    1    1    2    0    0 -0.37751849901E-02 -0.59476272464E-02 -0.35035800166E-01  0.35737005818E-01  0.00000000000E+00 0.  1.
  9000001    1    1    2    0    0  0.37751849901E-02  0.59476272464E-02  0.35035800166E-01  0.35750994182E-01  0.10000000475E-02 0. -1.
</event>
<event>
 4   0  0.4892667E-02  0.9118800E+02  0.7818609E-02  0.1379984E+01
      -11   -1    0    0    0    0  0.00000000000E+00  0.00000000000E+00  0.35740347158E-01  0.35744000000E-01  0.51099999109E-03 0. -1.
       11   -1    0    0    0    0 -0.00000000000E+00 -0.00000000000E+00 -0.35740347158E-01  0.35744000000E-01  0.51099999109E-03 0.  1.
       22    1    1    2    0    0 -0.10129079956E-01 -0.18313786378E-01 -0.28967922822E-01  0.35737005818E-01  0.00000000000E+00 0.  1.
  9000001    1    1    2    0    0  0.10129079956E-01  0.18313786378E-01  0.28967922822E-01  0.35750994182E-01  0.10000000475E-02 0. -1.
</event>
<event>
 4   0  0.4892667E-02  0.9118800E+02  0.7818609E-02  0.1379984E+01
      -11   -1    0    0    0    0  0.00000000000E+00  0.00000000000E+00  0.35740347158E-01  0.35744000000E-01  0.51099999109E-03 0.  1.
       11   -1    0    0    0    0 -0.00000000000E+00 -0.00000000000E+00 -0.35740347158E-01  0.35744000000E-01  0.51099999109E-03 0. -1.
       22    1    1    2    0    0  0.32482759680E-02  0.12725190583E-01  0.33236302633E-01  0.35737005818E-01  0.00000000000E+00 0.  1.
  9000001    1    1    2    0    0 -0.32482759680E-02 -0.12725190583E-01 -0.33236302633E-01  0.35750994182E-01  0.10000000475E-02 0. -1.
</event>
<event>
 4   0  0.4892667E-02  0.9118800E+02  0.7818609E-02  0.1379984E+01
      -11   -1    0    0    0    0  0.00000000000E+00  0.00000000000E+00  0.35740347158E-01  0.35744000000E-01  0.51099999109E-03 0.  1.
       11   -1    0    0    0    0 -0.00000000000E+00 -0.00000000000E+00 -0.35740347158E-01  0.35744000000E-01  0.51099999109E-03 0. -1.
       22    1    1    2    0    0  0.29615919916E-02  0.25049980860E-02 -0.35525871451E-01  0.35737005818E-01  0.00000000000E+00 0. -1.
  9000001    1    1    2    0    0 -0.29615919916E-02 -0.25049980860E-02  0.35525871451E-01  0.35750994182E-01  0.10000000475E-02 0.  1.
</event>
<event>
 4   0  0.4892667E-02  0.9118800E+02  0.7818609E-02  0.1379984E+01
      -11   -1    0    0    0    0  0.00000000000E+00  0.00000000000E+00  0.35740347158E-01  0.35744000000E-01  0.51099999109E-03 0. -1.
       11   -1    0    0    0    0 -0.00000000000E+00 -0.00000000000E+00 -0.35740347158E-01  0.35744000000E-01  0.51099999109E-03 0.  1.
       22    1    1    2    0    0  0.60295066578E-02  0.20905649382E-02  0.35162596215E-01  0.35737005818E-01  0.00000000000E+00 0. -1.
  9000001    1    1    2    0    0 -0.60295066578E-02 -0.20905649382E-02 -0.35162596215E-01  0.35750994182E-01  0.10000000475E-02 0.  1.
</event>
<event>
 4   0  0.4892667E-02  0.9118800E+02  0.7818609E-02  0.1379984E+01
      -11   -1    0    0    0    0  0.00000000000E+00  0.00000000000E+00  0.35740347158E-01  0.35744000000E-01  0.51099999109E-03 0.  1.
       11   -1    0    0    0    0 -0.00000000000E+00 -0.00000000000E+00 -0.35740347158E-01  0.35744000000E-01  0.51099999109E-03 0. -1.
       22    1    1    2    0    0 -0.27683531708E-02  0.11036673790E-01 -0.33877155094E-01  0.35737005818E-01  0.00000000000E+00 0. -1.
  9000001    1    1    2    0    0  0.27683531708E-02 -0.11036673790E-01  0.33877155094E-01  0.35750994182E-01  0.10000000475E-02 0.  1.
</event>
<event>
 4   0  0.4892667E-02  0.9118800E+02  0.7818609E-02  0.1379984E+01
      -11   -1    0    0    0    0  0.00000000000E+00  0.00000000000E+00  0.35740347158E-01  0.35744000000E-01  0.51099999109E-03 0.  1.
       11   -1    0    0    0    0 -0.00000000000E+00 -0.00000000000E+00 -0.35740347158E-01  0.35744000000E-01  0.51099999109E-03 0. -1.
       22    1    1    2    0    0  0.69609141403E-02 -0.11620548483E-01  0.33070260237E-01  0.35737005818E-01  0.00000000000E+00 0.  1.
  9000001    1    1    2    0    0 -0.69609141403E-02  0.11620548483E-01 -0.33070260237E-01  0.35750994182E-01  0.10000000475E-02 0. -1.
</event>
<event>
 4   0  0.4892667E-02  0.9118800E+02  0.7818609E-02  0.1379984E+01
      -11   -1    0    0    0    0  0.00000000000E+00  0.00000000000E+00  0.35740347158E-01  0.35744000000E-01  0.51099999109E-03 0.  1.
       11   -1    0    0    0    0 -0.00000000000E+00 -0.00000000000E+00 -0.35740347158E-01  0.35744000000E-01  0.51099999109E-03 0. -1.
       22    1    1    2    0    0  0.63564829294E-02  0.80868845961E-03  0.35157854494E-01  0.35737005818E-01  0.00000000000E+00 0.  1.
  9000001    1    1    2    0    0 -0.63564829294E-02 -0.80868845961E-03 -0.35157854494E-01  0.35750994182E-01  0.10000000475E-02 0. -1.
</event>
<event>
 4   0  0.4892667E-02  0.9118800E+02  0.7818609E-02  0.1379984E+01
      -11   -1    0    0    0    0  0.00000000000E+00  0.00000000000E+00  0.35740347158E-01  0.35744000000E-01  0.51099999109E-03 0.  1.
       11   -1    0    0    0    0 -0.00000000000E+00 -0.00000000000E+00 -0.35740347158E-01  0.35744000000E-01  0.51099999109E-03 0. -1.
       22    1    1    2    0    0 -0.16662031303E-01  0.20953221464E-01 -0.23674306917E-01  0.35737005818E-01  0.00000000000E+00 0. -1.
  9000001    1    1    2    0    0  0.16662031303E-01 -0.20953221464E-01  0.23674306917E-01  0.35750994182E-01  0.10000000475E-02 0.  1.
</event>
<event>
 4   0  0.4892667E-02  0.9118800E+02  0.7818609E-02  0.1379984E+01
      -11   -1    0    0    0    0  0.00000000000E+00  0.00000000000E+00  0.35740347158E-01  0.35744000000E-01  0.51099999109E-03 0.  1.
       11   -1    0    0    0    0 -0.00000000000E+00 -0.00000000000E+00 -0.35740347158E-01  0.35744000000E-01  0.51099999109E-03 0. -1.
       22    1    1    2    0    0  0.15808150198E-01 -0.57733635005E-02  0.31526246939E-01  0.35737005818E-01  0.00000000000E+00 0.  1.
  9000001    1    1    2    0    0 -0.15808150198E-01  0.57733635005E-02 -0.31526246939E-01  0.35750994182E-01  0.10000000475E-02 0. -1.
</event>
<event>
 4   0  0.4892667E-02  0.9118800E+02  0.7818609E-02  0.1379984E+01
      -11   -1    0    0    0    0  0.00000000000E+00  0.00000000000E+00  0.35740347158E-01  0.35744000000E-01  0.51099999109E-03 0.  1.
       11   -1    0    0    0    0 -0.00000000000E+00 -0.00000000000E+00 -0.35740347158E-01  0.35744000000E-01  0.51099999109E-03 0. -1.
       22    1    1    2    0    0  0.31016952911E-01 -0.13630564493E-01  0.11370572921E-01  0.35737005818E-01  0.00000000000E+00 0.  1.
  9000001    1    1    2    0    0 -0.31016952911E-01  0.13630564493E-01 -0.11370572921E-01  0.35750994182E-01  0.10000000475E-02 0. -1.
</event>
<event>
 4   0  0.4892667E-02  0.9118800E+02  0.7818609E-02  0.1379984E+01
      -11   -1    0    0    0    0  0.00000000000E+00  0.00000000000E+00  0.35740347158E-01  0.35744000000E-01  0.51099999109E-03 0.  1.
       11   -1    0    0    0    0 -0.00000000000E+00 -0.00000000000E+00 -0.35740347158E-01  0.35744000000E-01  0.51099999109E-03 0. -1.
       22    1    1    2    0    0  0.22465356878E-01  0.12341390018E-01  0.24902437986E-01  0.35737005818E-01  0.00000000000E+00 0.  1.
  9000001    1    1    2    0    0 -0.22465356878E-01 -0.12341390018E-01 -0.24902437986E-01  0.35750994182E-01  0.10000000475E-02 0. -1.
</event>
<event>
 4   0  0.4892667E-02  0.9118800E+02  0.7818609E-02  0.1379984E+01
      -11   -1    0    0    0    0  0.00000000000E+00  0.00000000000E+00  0.35740347158E-01  0.35744000000E-01  0.51099999109E-03 0.  1.
       11   -1    0    0    0    0 -0.00000000000E+00 -0.00000000000E+00 -0.35740347158E-01  0.35744000000E-01  0.51099999109E-03 0. -1.
       22    1    1    2    0    0 -0.24850342452E-01  0.22106045500E-01 -0.13073515871E-01  0.35737005818E-01  0.00000000000E+00 0. -1.
  9000001    1    1    2    0    0  0.24850342452E-01 -0.22106045500E-01  0.13073515871E-01  0.35750994182E-01  0.10000000475E-02 0.  1.
</event>
<event>
 4   0  0.4892667E-02  0.9118800E+02  0.7818609E-02  0.1379984E+01
      -11   -1    0    0    0    0  0.00000000000E+00  0.00000000000E+00  0.35740347158E-01  0.35744000000E-01  0.51099999109E-03 0.  1.
       11   -1    0    0    0    0 -0.00000000000E+00 -0.00000000000E+00 -0.35740347158E-01  0.35744000000E-01  0.51099999109E-03 0. -1.
       22    1    1    2    0    0 -0.31490395067E-02  0.63901095386E-02  0.35019760638E-01  0.35737005818E-01  0.00000000000E+00 0.  1.
  9000001    1    1    2    0    0  0.31490395067E-02 -0.63901095386E-02 -0.35019760638E-01  0.35750994182E-01  0.10000000475E-02 0. -1.
</event>
<event>
 4   0  0.4892667E-02  0.9118800E+02  0.7818609E-02  0.1379984E+01
      -11   -1    0    0    0    0  0.00000000000E+00  0.00000000000E+00  0.35740347158E-01  0.35744000000E-01  0.51099999109E-03 0. -1.
       11   -1    0    0    0    0 -0.00000000000E+00 -0.00000000000E+00 -0.35740347158E-01  0.35744000000E-01  0.51099999109E-03 0.  1.
       22    1    1    2    0    0 -0.47528016625E-02 -0.38378455070E-02  0.35211012526E-01  0.35737005818E-01  0.00000000000E+00 0. -1.
  9000001    1    1    2    0    0  0.47528016625E-02  0.38378455070E-02 -0.35211012526E-01  0.35750994182E-01  0.10000000475E-02 0.  1.
</event>
<event>
 4   0  0.4892667E-02  0.9118800E+02  0.7818609E-02  0.1379984E+01
      -11   -1    0    0    0    0  0.00000000000E+00  0.00000000000E+00  0.35740347158E-01  0.35744000000E-01  0.51099999109E-03 0.  1.
       11   -1    0    0    0    0 -0.00000000000E+00 -0.00000000000E+00 -0.35740347158E-01  0.35744000000E-01  0.51099999109E-03 0. -1.
       22    1    1    2    0    0  0.15790902974E-02 -0.62597459127E-02  0.35149048918E-01  0.35737005818E-01  0.00000000000E+00 0.  1.
  9000001    1    1    2    0    0 -0.15790902974E-02  0.62597459127E-02 -0.35149048918E-01  0.35750994182E-01  0.10000000475E-02 0. -1.
</event>
<event>
 4   0  0.4892667E-02  0.9118800E+02  0.7818609E-02  0.1379984E+01
      -11   -1    0    0    0    0  0.00000000000E+00  0.00000000000E+00  0.35740347158E-01  0.35744000000E-01  0.51099999109E-03 0.  1.
       11   -1    0    0    0    0 -0.00000000000E+00 -0.00000000000E+00 -0.35740347158E-01  0.35744000000E-01  0.51099999109E-03 0. -1.
       22    1    1    2    0    0  0.78744597970E-02 -0.34719850616E-02 -0.34685325247E-01  0.35737005818E-01  0.00000000000E+00 0. -1.
  9000001    1    1    2    0    0 -0.78744597970E-02  0.34719850616E-02  0.34685325247E-01  0.35750994182E-01  0.10000000475E-02 0.  1.
</event>
<event>
 4   0  0.4892667E-02  0.9118800E+02  0.7818609E-02  0.1379984E+01
      -11   -1    0    0    0    0  0.00000000000E+00  0.00000000000E+00  0.35740347158E-01  0.35744000000E-01  0.51099999109E-03 0. -1.
       11   -1    0    0    0    0 -0.00000000000E+00 -0.00000000000E+00 -0.35740347158E-01  0.35744000000E-01  0.51099999109E-03 0.  1.
       22    1    1    2    0    0 -0.25098438665E-02  0.71567736257E-02  0.34922984694E-01  0.35737005818E-01  0.00000000000E+00 0. -1.
  9000001    1    1    2    0    0  0.25098438665E-02 -0.71567736257E-02 -0.34922984694E-01  0.35750994182E-01  0.10000000475E-02 0.  1.
</event>
<event>
 4   0  0.4892667E-02  0.9118800E+02  0.7818609E-02  0.1379984E+01
      -11   -1    0    0    0    0  0.00000000000E+00  0.00000000000E+00  0.35740347158E-01  0.35744000000E-01  0.51099999109E-03 0.  1.
       11   -1    0    0    0    0 -0.00000000000E+00 -0.00000000000E+00 -0.35740347158E-01  0.35744000000E-01  0.51099999109E-03 0. -1.
       22    1    1    2    0    0  0.11182122397E-01 -0.36072339047E-02 -0.33750282771E-01  0.35737005818E-01  0.00000000000E+00 0. -1.
  9000001    1    1    2    0    0 -0.11182122397E-01  0.36072339047E-02  0.33750282771E-01  0.35750994182E-01  0.10000000475E-02 0.  1.
</event>
<event>
 4   0  0.4892667E-02  0.9118800E+02  0.7818609E-02  0.1379984E+01
      -11   -1    0    0    0    0  0.00000000000E+00  0.00000000000E+00  0.35740347158E-01  0.35744000000E-01  0.51099999109E-03 0.  1.
       11   -1    0    0    0    0 -0.00000000000E+00 -0.00000000000E+00 -0.35740347158E-01  0.35744000000E-01  0.51099999109E-03 0. -1.
       22    1    1    2    0    0  0.32224085861E-02 -0.54690219146E-03  0.35587224755E-01  0.35737005818E-01  0.00000000000E+00 0.  1.
  9000001    1    1    2    0    0 -0.32224085861E-02  0.54690219146E-03 -0.35587224755E-01  0.35750994182E-01  0.10000000475E-02 0. -1.
</event>
<event>
 4   0  0.4892667E-02  0.9118800E+02  0.7818609E-02  0.1379984E+01
      -11   -1    0    0    0    0  0.00000000000E+00  0.00000000000E+00  0.35740347158E-01  0.35744000000E-01  0.51099999109E-03 0. -1.
       11   -1    0    0    0    0 -0.00000000000E+00 -0.00000000000E+00 -0.35740347158E-01  0.35744000000E-01  0.51099999109E-03 0.  1.
       22    1    1    2    0    0  0.27354958919E-01  0.16961598066E-01 -0.15528811882E-01  0.35737005818E-01  0.00000000000E+00 0.  1.
  9000001    1    1    2    0    0 -0.27354958919E-01 -0.16961598066E-01  0.15528811882E-01  0.35750994182E-01  0.10000000475E-02 0. -1.
</event>
<event>
 4   0  0.4892667E-02  0.9118800E+02  0.7818609E-02  0.1379984E+01
      -11   -1    0    0    0    0  0.00000000000E+00  0.00000000000E+00  0.35740347158E-01  0.35744000000E-01  0.51099999109E-03 0.  1.
       11   -1    0    0    0    0 -0.00000000000E+00 -0.00000000000E+00 -0.35740347158E-01  0.35744000000E-01  0.51099999109E-03 0. -1.
       22    1    1    2    0    0 -0.25461420340E-01 -0.18553573686E-01 -0.16870523484E-01  0.35737005818E-01  0.00000000000E+00 0. -1.
  9000001    1    1    2    0    0  0.25461420340E-01  0.18553573686E-01  0.16870523484E-01  0.35750994182E-01  0.10000000475E-02 0.  1.
</event>
<event>
 4   0  0.4892667E-02  0.9118800E+02  0.7818609E-02  0.1379984E+01
      -11   -1    0    0    0    0  0.00000000000E+00  0.00000000000E+00  0.35740347158E-01  0.35744000000E-01  0.51099999109E-03 0.  1.
       11   -1    0    0    0    0 -0.00000000000E+00 -0.00000000000E+00 -0.35740347158E-01  0.35744000000E-01  0.51099999109E-03 0. -1.
       22    1    1    2    0    0 -0.56431926178E-02 -0.75990414250E-02 -0.34460738985E-01  0.35737005818E-01  0.00000000000E+00 0. -1.
  9000001    1    1    2    0    0  0.56431926178E-02  0.75990414250E-02  0.34460738985E-01  0.35750994182E-01  0.10000000475E-02 0.  1.
</event>
<event>
 4   0  0.4892667E-02  0.9118800E+02  0.7818609E-02  0.1379984E+01
      -11   -1    0    0    0    0  0.00000000000E+00  0.00000000000E+00  0.35740347158E-01  0.35744000000E-01  0.51099999109E-03 0.  1.
       11   -1    0    0    0    0 -0.00000000000E+00 -0.00000000000E+00 -0.35740347158E-01  0.35744000000E-01  0.51099999109E-03 0. -1.
       22    1    1    2    0    0  0.26406193683E-01 -0.18413777880E-03 -0.24079298439E-01  0.35737005818E-01  0.00000000000E+00 0. -1.
  9000001    1    1    2    0    0 -0.26406193683E-01  0.18413777880E-03  0.24079298439E-01  0.35750994182E-01  0.10000000475E-02 0.  1.
</event>
<event>
 4   0  0.4892667E-02  0.9118800E+02  0.7818609E-02  0.1379984E+01
      -11   -1    0    0    0    0  0.00000000000E+00  0.00000000000E+00  0.35740347158E-01  0.35744000000E-01  0.51099999109E-03 0. -1.
       11   -1    0    0    0    0 -0.00000000000E+00 -0.00000000000E+00 -0.35740347158E-01  0.35744000000E-01  0.51099999109E-03 0.  1.
       22    1    1    2    0    0  0.64668892485E-02 -0.26332215357E-02  0.35048239223E-01  0.35737005818E-01  0.00000000000E+00 0. -1.
  9000001    1    1    2    0    0 -0.64668892485E-02  0.26332215357E-02 -0.35048239223E-01  0.35750994182E-01  0.10000000475E-02 0.  1.
</event>
<event>
 4   0  0.4892667E-02  0.9118800E+02  0.7818609E-02  0.1379984E+01
      -11   -1    0    0    0    0  0.00000000000E+00  0.00000000000E+00  0.35740347158E-01  0.35744000000E-01  0.51099999109E-03 0. -1.
       11   -1    0    0    0    0 -0.00000000000E+00 -0.00000000000E+00 -0.35740347158E-01  0.35744000000E-01  0.51099999109E-03 0.  1.
       22    1    1    2    0    0 -0.19124555583E-02 -0.24929611197E-02 -0.35598612943E-01  0.35737005818E-01  0.00000000000E+00 0.  1.
  9000001    1    1    2    0    0  0.19124555583E-02  0.24929611197E-02  0.35598612943E-01  0.35750994182E-01  0.10000000475E-02 0. -1.
</event>
<event>
 4   0  0.4892667E-02  0.9118800E+02  0.7818609E-02  0.1379984E+01
      -11   -1    0    0    0    0  0.00000000000E+00  0.00000000000E+00  0.35740347158E-01  0.35744000000E-01  0.51099999109E-03 0. -1.
       11   -1    0    0    0    0 -0.00000000000E+00 -0.00000000000E+00 -0.35740347158E-01  0.35744000000E-01  0.51099999109E-03 0.  1.
       22    1    1    2    0    0 -0.65713623298E-02  0.12572729388E-01  0.32800567948E-01  0.35737005818E-01  0.00000000000E+00 0. -1.
  9000001    1    1    2    0    0  0.65713623298E-02 -0.12572729388E-01 -0.32800567948E-01  0.35750994182E-01  0.10000000475E-02 0.  1.
</event>
<event>
 4   0  0.4892667E-02  0.9118800E+02  0.7818609E-02  0.1379984E+01
      -11   -1    0    0    0    0  0.00000000000E+00  0.00000000000E+00  0.35740347158E-01  0.35744000000E-01  0.51099999109E-03 0.  1.
       11   -1    0    0    0    0 -0.00000000000E+00 -0.00000000000E+00 -0.35740347158E-01  0.35744000000E-01  0.51099999109E-03 0. -1.
       22    1    1    2    0    0 -0.55759212303E-02 -0.31337594479E-02  0.35159952205E-01  0.35737005818E-01  0.00000000000E+00 0.  1.
  9000001    1    1    2    0    0  0.55759212303E-02  0.31337594479E-02 -0.35159952205E-01  0.35750994182E-01  0.10000000475E-02 0. -1.
</event>
<event>
 4   0  0.4892667E-02  0.9118800E+02  0.7818609E-02  0.1379984E+01
      -11   -1    0    0    0    0  0.00000000000E+00  0.00000000000E+00  0.35740347158E-01  0.35744000000E-01  0.51099999109E-03 0.  1.
       11   -1    0    0    0    0 -0.00000000000E+00 -0.00000000000E+00 -0.35740347158E-01  0.35744000000E-01  0.51099999109E-03 0. -1.
       22    1    1    2    0    0  0.38243917894E-02  0.27192186101E-02 -0.35427580534E-01  0.35737005818E-01  0.00000000000E+00 0. -1.
  9000001    1    1    2    0    0 -0.38243917894E-02 -0.27192186101E-02  0.35427580534E-01  0.35750994182E-01  0.10000000475E-02 0.  1.
</event>
<event>
 4   0  0.4892667E-02  0.9118800E+02  0.7818609E-02  0.1379984E+01
      -11   -1    0    0    0    0  0.00000000000E+00  0.00000000000E+00  0.35740347158E-01  0.35744000000E-01  0.51099999109E-03 0.  1.
       11   -1    0    0    0    0 -0.00000000000E+00 -0.00000000000E+00 -0.35740347158E-01  0.35744000000E-01  0.51099999109E-03 0. -1.
       22    1    1    2    0    0  0.52122041270E-02  0.19952766554E-01  0.29186531480E-01  0.35737005818E-01  0.00000000000E+00 0.  1.
  9000001    1    1    2    0    0 -0.52122041270E-02 -0.19952766554E-01 -0.29186531480E-01  0.35750994182E-01  0.10000000475E-02 0. -1.
</event>
<event>
 4   0  0.4892667E-02  0.9118800E+02  0.7818609E-02  0.1379984E+01
      -11   -1    0    0    0    0  0.00000000000E+00  0.00000000000E+00  0.35740347158E-01  0.35744000000E-01  0.51099999109E-03 0.  1.
       11   -1    0    0    0    0 -0.00000000000E+00 -0.00000000000E+00 -0.35740347158E-01  0.35744000000E-01  0.51099999109E-03 0. -1.
       22    1    1    2    0    0 -0.83044659661E-02  0.54839762319E-02  0.34323394858E-01  0.35737005818E-01  0.00000000000E+00 0.  1.
  9000001    1    1    2    0    0  0.83044659661E-02 -0.54839762319E-02 -0.34323394858E-01  0.35750994182E-01  0.10000000475E-02 0. -1.
</event>
<event>
 4   0  0.4892667E-02  0.9118800E+02  0.7818609E-02  0.1379984E+01
      -11   -1    0    0    0    0  0.00000000000E+00  0.00000000000E+00  0.35740347158E-01  0.35744000000E-01  0.51099999109E-03 0.  1.
       11   -1    0    0    0    0 -0.00000000000E+00 -0.00000000000E+00 -0.35740347158E-01  0.35744000000E-01  0.51099999109E-03 0. -1.
       22    1    1    2    0    0 -0.30580176284E-02 -0.12428899753E-01  0.33366218905E-01  0.35737005818E-01  0.00000000000E+00 0.  1.
  9000001    1    1    2    0    0  0.30580176284E-02  0.12428899753E-01 -0.33366218905E-01  0.35750994182E-01  0.10000000475E-02 0. -1.
</event>
<event>
 4   0  0.4892667E-02  0.9118800E+02  0.7818609E-02  0.1379984E+01
      -11   -1    0    0    0    0  0.00000000000E+00  0.00000000000E+00  0.35740347158E-01  0.35744000000E-01  0.51099999109E-03 0. -1.
       11   -1    0    0    0    0 -0.00000000000E+00 -0.00000000000E+00 -0.35740347158E-01  0.35744000000E-01  0.51099999109E-03 0.  1.
       22    1    1    2    0    0 -0.10448333451E-02  0.18730399999E-01 -0.30417330981E-01  0.35737005818E-01  0.00000000000E+00 0.  1.
  9000001    1    1    2    0    0  0.10448333451E-02 -0.18730399999E-01  0.30417330981E-01  0.35750994182E-01  0.10000000475E-02 0. -1.
</event>
<event>
 4   0  0.4892667E-02  0.9118800E+02  0.7818609E-02  0.1379984E+01
      -11   -1    0    0    0    0  0.00000000000E+00  0.00000000000E+00  0.35740347158E-01  0.35744000000E-01  0.51099999109E-03 0. -1.
       11   -1    0    0    0    0 -0.00000000000E+00 -0.00000000000E+00 -0.35740347158E-01  0.35744000000E-01  0.51099999109E-03 0.  1.
       22    1    1    2    0    0  0.63430235212E-02  0.42672263115E-02  0.34909746735E-01  0.35737005818E-01  0.00000000000E+00 0. -1.
  9000001    1    1    2    0    0 -0.63430235212E-02 -0.42672263115E-02 -0.34909746735E-01  0.35750994182E-01  0.10000000475E-02 0.  1.
</event>
<event>
 4   0  0.4892667E-02  0.9118800E+02  0.7818609E-02  0.1379984E+01
      -11   -1    0    0    0    0  0.00000000000E+00  0.00000000000E+00  0.35740347158E-01  0.35744000000E-01  0.51099999109E-03 0. -1.
       11   -1    0    0    0    0 -0.00000000000E+00 -0.00000000000E+00 -0.35740347158E-01  0.35744000000E-01  0.51099999109E-03 0.  1.
       22    1    1    2    0    0 -0.83515561856E-02  0.51484245910E-02  0.34363917390E-01  0.35737005818E-01  0.00000000000E+00 0. -1.
  9000001    1    1    2    0    0  0.83515561856E-02 -0.51484245910E-02 -0.34363917390E-01  0.35750994182E-01  0.10000000475E-02 0.  1.
</event>
<event>
 4   0  0.4892667E-02  0.9118800E+02  0.7818609E-02  0.1379984E+01
      -11   -1    0    0    0    0  0.00000000000E+00  0.00000000000E+00  0.35740347158E-01  0.35744000000E-01  0.51099999109E-03 0. -1.
       11   -1    0    0    0    0 -0.00000000000E+00 -0.00000000000E+00 -0.35740347158E-01  0.35744000000E-01  0.51099999109E-03 0.  1.
       22    1    1    2    0    0  0.22973082461E-03 -0.57022900937E-02 -0.35278388516E-01  0.35737005818E-01  0.00000000000E+00 0.  1.
  9000001    1    1    2    0    0 -0.22973082461E-03  0.57022900937E-02  0.35278388516E-01  0.35750994182E-01  0.10000000475E-02 0. -1.
</event>
<event>
 4   0  0.4892667E-02  0.9118800E+02  0.7818609E-02  0.1379984E+01
      -11   -1    0    0    0    0  0.00000000000E+00  0.00000000000E+00  0.35740347158E-01  0.35744000000E-01  0.51099999109E-03 0. -1.
       11   -1    0    0    0    0 -0.00000000000E+00 -0.00000000000E+00 -0.35740347158E-01  0.35744000000E-01  0.51099999109E-03 0.  1.
       22    1    1    2    0    0  0.15889785345E-01  0.22533170206E-02  0.31930719831E-01  0.35737005818E-01  0.00000000000E+00 0. -1.
  9000001    1    1    2    0    0 -0.15889785345E-01 -0.22533170206E-02 -0.31930719831E-01  0.35750994182E-01  0.10000000475E-02 0.  1.
</event>
<event>
 4   0  0.4892667E-02  0.9118800E+02  0.7818609E-02  0.1379984E+01
      -11   -1    0    0    0    0  0.00000000000E+00  0.00000000000E+00  0.35740347158E-01  0.35744000000E-01  0.51099999109E-03 0. -1.
       11   -1    0    0    0    0 -0.00000000000E+00 -0.00000000000E+00 -0.35740347158E-01  0.35744000000E-01  0.51099999109E-03 0.  1.
       22    1    1    2    0    0 -0.14060312220E-02  0.35844328594E-02  0.35528981158E-01  0.35737005818E-01  0.00000000000E+00 0. -1.
  9000001    1    1    2    0    0  0.14060312220E-02 -0.35844328594E-02 -0.35528981158E-01  0.35750994182E-01  0.10000000475E-02 0.  1.
</event>
<event>
 4   0  0.4892667E-02  0.9118800E+02  0.7818609E-02  0.1379984E+01
      -11   -1    0    0    0    0  0.00000000000E+00  0.00000000000E+00  0.35740347158E-01  0.35744000000E-01  0.51099999109E-03 0.  1.
       11   -1    0    0    0    0 -0.00000000000E+00 -0.00000000000E+00 -0.35740347158E-01  0.35744000000E-01  0.51099999109E-03 0. -1.
       22    1    1    2    0    0  0.65892846018E-02 -0.11578392387E-01  0.33161057628E-01  0.35737005818E-01  0.00000000000E+00 0.  1.
  9000001    1    1    2    0    0 -0.65892846018E-02  0.11578392387E-01 -0.33161057628E-01  0.35750994182E-01  0.10000000475E-02 0. -1.
</event>
<event>
 4   0  0.4892667E-02  0.9118800E+02  0.7818609E-02  0.1379984E+01
      -11   -1    0    0    0    0  0.00000000000E+00  0.00000000000E+00  0.35740347158E-01  0.35744000000E-01  0.51099999109E-03 0. -1.
       11   -1    0    0    0    0 -0.00000000000E+00 -0.00000000000E+00 -0.35740347158E-01  0.35744000000E-01  0.51099999109E-03 0.  1.
       22    1    1    2    0    0 -0.15026369494E-02 -0.33779876363E-02 -0.35545250971E-01  0.35737005818E-01  0.00000000000E+00 0.  1.
  9000001    1    1    2    0    0  0.15026369494E-02  0.33779876363E-02  0.35545250971E-01  0.35750994182E-01  0.10000000475E-02 0. -1.
</event>
<event>
 4   0  0.4892667E-02  0.9118800E+02  0.7818609E-02  0.1379984E+01
      -11   -1    0    0    0    0  0.00000000000E+00  0.00000000000E+00  0.35740347158E-01  0.35744000000E-01  0.51099999109E-03 0.  1.
       11   -1    0    0    0    0 -0.00000000000E+00 -0.00000000000E+00 -0.35740347158E-01  0.35744000000E-01  0.51099999109E-03 0. -1.
       22    1    1    2    0    0  0.12639345931E-01 -0.19738682104E-01 -0.26977118974E-01  0.35737005818E-01  0.00000000000E+00 0. -1.
  9000001    1    1    2    0    0 -0.12639345931E-01  0.19738682104E-01  0.26977118974E-01  0.35750994182E-01  0.10000000475E-02 0.  1.
</event>
<event>
 4   0  0.4892667E-02  0.9118800E+02  0.7818609E-02  0.1379984E+01
      -11   -1    0    0    0    0  0.00000000000E+00  0.00000000000E+00  0.35740347158E-01  0.35744000000E-01  0.51099999109E-03 0. -1.
       11   -1    0    0    0    0 -0.00000000000E+00 -0.00000000000E+00 -0.35740347158E-01  0.35744000000E-01  0.51099999109E-03 0.  1.
       22    1    1    2    0    0  0.23884373663E-01 -0.24622733389E-01  0.10019544903E-01  0.35737005818E-01  0.00000000000E+00 0. -1.
  9000001    1    1    2    0    0 -0.23884373663E-01  0.24622733389E-01 -0.10019544903E-01  0.35750994182E-01  0.10000000475E-02 0.  1.
</event>
<event>
 4   0  0.4892667E-02  0.9118800E+02  0.7818609E-02  0.1379984E+01
      -11   -1    0    0    0    0  0.00000000000E+00  0.00000000000E+00  0.35740347158E-01  0.35744000000E-01  0.51099999109E-03 0.  1.
       11   -1    0    0    0    0 -0.00000000000E+00 -0.00000000000E+00 -0.35740347158E-01  0.35744000000E-01  0.51099999109E-03 0. -1.
       22    1    1    2    0    0 -0.14609492352E-01 -0.29962441293E-03  0.32612981208E-01  0.35737005818E-01  0.00000000000E+00 0.  1.
  9000001    1    1    2    0    0  0.14609492352E-01  0.29962441293E-03 -0.32612981208E-01  0.35750994182E-01  0.10000000475E-02 0. -1.
</event>
<event>
 4   0  0.4892667E-02  0.9118800E+02  0.7818609E-02  0.1379984E+01
      -11   -1    0    0    0    0  0.00000000000E+00  0.00000000000E+00  0.35740347158E-01  0.35744000000E-01  0.51099999109E-03 0.  1.
       11   -1    0    0    0    0 -0.00000000000E+00 -0.00000000000E+00 -0.35740347158E-01  0.35744000000E-01  0.51099999109E-03 0. -1.
       22    1    1    2    0    0  0.29053078598E-01  0.12695218951E-01 -0.16488893978E-01  0.35737005818E-01  0.00000000000E+00 0.  1.
  9000001    1    1    2    0    0 -0.29053078598E-01 -0.12695218951E-01  0.16488893978E-01  0.35750994182E-01  0.10000000475E-02 0. -1.
</event>
<event>
 4   0  0.4892667E-02  0.9118800E+02  0.7818609E-02  0.1379984E+01
      -11   -1    0    0    0    0  0.00000000000E+00  0.00000000000E+00  0.35740347158E-01  0.35744000000E-01  0.51099999109E-03 0. -1.
       11   -1    0    0    0    0 -0.00000000000E+00 -0.00000000000E+00 -0.35740347158E-01  0.35744000000E-01  0.51099999109E-03 0.  1.
       22    1    1    2    0    0  0.13339465520E-01 -0.13975479070E-01 -0.30064567671E-01  0.35737005818E-01  0.00000000000E+00 0.  1.
  9000001    1    1    2    0    0 -0.13339465520E-01  0.13975479070E-01  0.30064567671E-01  0.35750994182E-01  0.10000000475E-02 0. -1.
</event>
<event>
 4   0  0.4892667E-02  0.9118800E+02  0.7818609E-02  0.1379984E+01
      -11   -1    0    0    0    0  0.00000000000E+00  0.00000000000E+00  0.35740347158E-01  0.35744000000E-01  0.51099999109E-03 0.  1.
       11   -1    0    0    0    0 -0.00000000000E+00 -0.00000000000E+00 -0.35740347158E-01  0.35744000000E-01  0.51099999109E-03 0. -1.
       22    1    1    2    0    0  0.13528394774E-01  0.11039088337E-01 -0.31180998194E-01  0.35737005818E-01  0.00000000000E+00 0. -1.
  9000001    1    1    2    0    0 -0.13528394774E-01 -0.11039088337E-01  0.31180998194E-01  0.35750994182E-01  0.10000000475E-02 0.  1.
</event>
<event>
 4   0  0.4892667E-02  0.9118800E+02  0.7818609E-02  0.1379984E+01
      -11   -1    0    0    0    0  0.00000000000E+00  0.00000000000E+00  0.35740347158E-01  0.35744000000E-01  0.51099999109E-03 0.  1.
       11   -1    0    0    0    0 -0.00000000000E+00 -0.00000000000E+00 -0.35740347158E-01  0.35744000000E-01  0.51099999109E-03 0. -1.
       22    1    1    2    0    0 -0.56110923036E-02 -0.50461111516E-02  0.34931160735E-01  0.35737005818E-01  0.00000000000E+00 0.  1.
  9000001    1    1    2    0    0  0.56110923036E-02  0.50461111516E-02 -0.34931160735E-01  0.35750994182E-01  0.10000000475E-02 0. -1.
</event>
<event>
 4   0  0.4892667E-02  0.9118800E+02  0.7818609E-02  0.1379984E+01
      -11   -1    0    0    0    0  0.00000000000E+00  0.00000000000E+00  0.35740347158E-01  0.35744000000E-01  0.51099999109E-03 0.  1.
       11   -1    0    0    0    0 -0.00000000000E+00 -0.00000000000E+00 -0.35740347158E-01  0.35744000000E-01  0.51099999109E-03 0. -1.
       22    1    1    2    0    0  0.12618545108E-01 -0.59324215004E-03 -0.33429836493E-01  0.35737005818E-01  0.00000000000E+00 0. -1.
  9000001    1    1    2    0    0 -0.12618545108E-01  0.59324215004E-03  0.33429836493E-01  0.35750994182E-01  0.10000000475E-02 0.  1.
</event>
<event>
 4   0  0.4892667E-02  0.9118800E+02  0.7818609E-02  0.1379984E+01
      -11   -1    0    0    0    0  0.00000000000E+00  0.00000000000E+00  0.35740347158E-01  0.35744000000E-01  0.51099999109E-03 0.  1.
       11   -1    0    0    0    0 -0.00000000000E+00 -0.00000000000E+00 -0.35740347158E-01  0.35744000000E-01  0.51099999109E-03 0. -1.
       22    1    1    2    0    0 -0.26242923391E-01 -0.23045200809E-01  0.75737227570E-02  0.35737005818E-01  0.00000000000E+00 0. -1.
  9000001    1    1    2    0    0  0.26242923391E-01  0.23045200809E-01 -0.75737227570E-02  0.35750994182E-01  0.10000000475E-02 0.  1.
</event>
<event>
 4   0  0.4892667E-02  0.9118800E+02  0.7818609E-02  0.1379984E+01
      -11   -1    0    0    0    0  0.00000000000E+00  0.00000000000E+00  0.35740347158E-01  0.35744000000E-01  0.51099999109E-03 0. -1.
       11   -1    0    0    0    0 -0.00000000000E+00 -0.00000000000E+00 -0.35740347158E-01  0.35744000000E-01  0.51099999109E-03 0.  1.
       22    1    1    2    0    0  0.17214637294E-01  0.44004602595E-02  0.31006866937E-01  0.35737005818E-01  0.00000000000E+00 0. -1.
  9000001    1    1    2    0    0 -0.17214637294E-01 -0.44004602595E-02 -0.31006866937E-01  0.35750994182E-01  0.10000000475E-02 0.  1.
</event>
<event>
 4   0  0.4892667E-02  0.9118800E+02  0.7818609E-02  0.1379984E+01
      -11   -1    0    0    0    0  0.00000000000E+00  0.00000000000E+00  0.35740347158E-01  0.35744000000E-01  0.51099999109E-03 0.  1.
       11   -1    0    0    0    0 -0.00000000000E+00 -0.00000000000E+00 -0.35740347158E-01  0.35744000000E-01  0.51099999109E-03 0. -1.
       22    1    1    2    0    0 -0.53618271623E-02  0.65410209170E-03 -0.35326428418E-01  0.35737005818E-01  0.00000000000E+00 0. -1.
  9000001    1    1    2    0    0  0.53618271623E-02 -0.65410209170E-03  0.35326428418E-01  0.35750994182E-01  0.10000000475E-02 0.  1.
</event>
<event>
 4   0  0.4892667E-02  0.9118800E+02  0.7818609E-02  0.1379984E+01
      -11   -1    0    0    0    0  0.00000000000E+00  0.00000000000E+00  0.35740347158E-01  0.35744000000E-01  0.51099999109E-03 0.  1.
       11   -1    0    0    0    0 -0.00000000000E+00 -0.00000000000E+00 -0.35740347158E-01  0.35744000000E-01  0.51099999109E-03 0. -1.
       22    1    1    2    0    0  0.29810069693E-01 -0.15723097185E-01  0.11886023082E-01  0.35737005818E-01  0.00000000000E+00 0.  1.
  9000001    1    1    2    0    0 -0.29810069693E-01  0.15723097185E-01 -0.11886023082E-01  0.35750994182E-01  0.10000000475E-02 0. -1.
</event>
<event>
 4   0  0.4892667E-02  0.9118800E+02  0.7818609E-02  0.1379984E+01
      -11   -1    0    0    0    0  0.00000000000E+00  0.00000000000E+00  0.35740347158E-01  0.35744000000E-01  0.51099999109E-03 0. -1.
       11   -1    0    0    0    0 -0.00000000000E+00 -0.00000000000E+00 -0.35740347158E-01  0.35744000000E-01  0.51099999109E-03 0.  1.
       22    1    1    2    0    0 -0.10227606245E-02 -0.13081961684E-01  0.33240785551E-01  0.35737005818E-01  0.00000000000E+00 0. -1.
  9000001    1    1    2    0    0  0.10227606245E-02  0.13081961684E-01 -0.33240785551E-01  0.35750994182E-01  0.10000000475E-02 0.  1.
</event>
<event>
 4   0  0.4892667E-02  0.9118800E+02  0.7818609E-02  0.1379984E+01
      -11   -1    0    0    0    0  0.00000000000E+00  0.00000000000E+00  0.35740347158E-01  0.35744000000E-01  0.51099999109E-03 0.  1.
       11   -1    0    0    0    0 -0.00000000000E+00 -0.00000000000E+00 -0.35740347158E-01  0.35744000000E-01  0.51099999109E-03 0. -1.
       22    1    1    2    0    0  0.30236633943E-02  0.17446146656E-02  0.35566098524E-01  0.35737005818E-01  0.00000000000E+00 0.  1.
  9000001    1    1    2    0    0 -0.30236633943E-02 -0.17446146656E-02 -0.35566098524E-01  0.35750994182E-01  0.10000000475E-02 0. -1.
</event>
<event>
 4   0  0.4892667E-02  0.9118800E+02  0.7818609E-02  0.1379984E+01
      -11   -1    0    0    0    0  0.00000000000E+00  0.00000000000E+00  0.35740347158E-01  0.35744000000E-01  0.51099999109E-03 0.  1.
       11   -1    0    0    0    0 -0.00000000000E+00 -0.00000000000E+00 -0.35740347158E-01  0.35744000000E-01  0.51099999109E-03 0. -1.
       22    1    1    2    0    0 -0.50720758051E-02  0.34526125905E-01  0.77041717208E-02  0.35737005818E-01  0.00000000000E+00 0.  1.
  9000001    1    1    2    0    0  0.50720758051E-02 -0.34526125905E-01 -0.77041717208E-02  0.35750994182E-01  0.10000000475E-02 0. -1.
</event>
<event>
 4   0  0.4892667E-02  0.9118800E+02  0.7818609E-02  0.1379984E+01
      -11   -1    0    0    0    0  0.00000000000E+00  0.00000000000E+00  0.35740347158E-01  0.35744000000E-01  0.51099999109E-03 0. -1.
       11   -1    0    0    0    0 -0.00000000000E+00 -0.00000000000E+00 -0.35740347158E-01  0.35744000000E-01  0.51099999109E-03 0.  1.
       22    1    1    2    0    0 -0.52652516607E-02  0.91829088364E-02 -0.34133339935E-01  0.35737005818E-01  0.00000000000E+00 0.  1.
  9000001    1    1    2    0    0  0.52652516607E-02 -0.91829088364E-02  0.34133339935E-01  0.35750994182E-01  0.10000000475E-02 0. -1.
</event>
<event>
 4   0  0.4892667E-02  0.9118800E+02  0.7818609E-02  0.1379984E+01
      -11   -1    0    0    0    0  0.00000000000E+00  0.00000000000E+00  0.35740347158E-01  0.35744000000E-01  0.51099999109E-03 0. -1.
       11   -1    0    0    0    0 -0.00000000000E+00 -0.00000000000E+00 -0.35740347158E-01  0.35744000000E-01  0.51099999109E-03 0.  1.
       22    1    1    2    0    0  0.26435851566E-01 -0.40458612368E-02 -0.23704648145E-01  0.35737005818E-01  0.00000000000E+00 0.  1.
  9000001    1    1    2    0    0 -0.26435851566E-01  0.40458612368E-02  0.23704648145E-01  0.35750994182E-01  0.10000000475E-02 0. -1.
</event>
<event>
 4   0  0.4892667E-02  0.9118800E+02  0.7818609E-02  0.1379984E+01
      -11   -1    0    0    0    0  0.00000000000E+00  0.00000000000E+00  0.35740347158E-01  0.35744000000E-01  0.51099999109E-03 0. -1.
       11   -1    0    0    0    0 -0.00000000000E+00 -0.00000000000E+00 -0.35740347158E-01  0.35744000000E-01  0.51099999109E-03 0.  1.
       22    1    1    2    0    0  0.59493865053E-02  0.35278918598E-02 -0.35061265866E-01  0.35737005818E-01  0.00000000000E+00 0.  1.
  9000001    1    1    2    0    0 -0.59493865053E-02 -0.35278918598E-02  0.35061265866E-01  0.35750994182E-01  0.10000000475E-02 0. -1.
</event>
<event>
 4   0  0.4892667E-02  0.9118800E+02  0.7818609E-02  0.1379984E+01
      -11   -1    0    0    0    0  0.00000000000E+00  0.00000000000E+00  0.35740347158E-01  0.35744000000E-01  0.51099999109E-03 0.  1.
       11   -1    0    0    0    0 -0.00000000000E+00 -0.00000000000E+00 -0.35740347158E-01  0.35744000000E-01  0.51099999109E-03 0. -1.
       22    1    1    2    0    0  0.14991373670E-03 -0.58161012610E-02 -0.35260233647E-01  0.35737005818E-01  0.00000000000E+00 0. -1.
  9000001    1    1    2    0    0 -0.14991373670E-03  0.58161012610E-02  0.35260233647E-01  0.35750994182E-01  0.10000000475E-02 0.  1.
</event>
<event>
 4   0  0.4892667E-02  0.9118800E+02  0.7818609E-02  0.1379984E+01
      -11   -1    0    0    0    0  0.00000000000E+00  0.00000000000E+00  0.35740347158E-01  0.35744000000E-01  0.51099999109E-03 0. -1.
       11   -1    0    0    0    0 -0.00000000000E+00 -0.00000000000E+00 -0.35740347158E-01  0.35744000000E-01  0.51099999109E-03 0.  1.
       22    1    1    2    0    0  0.86494904145E-04 -0.28215081617E-01 -0.21932516336E-01  0.35737005818E-01  0.00000000000E+00 0.  1.
  9000001    1    1    2    0    0 -0.86494904145E-04  0.28215081617E-01  0.21932516336E-01  0.35750994182E-01  0.10000000475E-02 0. -1.
</event>
<event>
 4   0  0.4892667E-02  0.9118800E+02  0.7818609E-02  0.1379984E+01
      -11   -1    0    0    0    0  0.00000000000E+00  0.00000000000E+00  0.35740347158E-01  0.35744000000E-01  0.51099999109E-03 0.  1.
       11   -1    0    0    0    0 -0.00000000000E+00 -0.00000000000E+00 -0.35740347158E-01  0.35744000000E-01  0.51099999109E-03 0. -1.
       22    1    1    2    0    0 -0.57323510422E-02 -0.32941995443E-01 -0.12613432230E-01  0.35737005818E-01  0.00000000000E+00 0. -1.
  9000001    1    1    2    0    0  0.57323510422E-02  0.32941995443E-01  0.12613432230E-01  0.35750994182E-01  0.10000000475E-02 0.  1.
</event>
<event>
 4   0  0.4892667E-02  0.9118800E+02  0.7818609E-02  0.1379984E+01
      -11   -1    0    0    0    0  0.00000000000E+00  0.00000000000E+00  0.35740347158E-01  0.35744000000E-01  0.51099999109E-03 0. -1.
       11   -1    0    0    0    0 -0.00000000000E+00 -0.00000000000E+00 -0.35740347158E-01  0.35744000000E-01  0.51099999109E-03 0.  1.
       22    1    1    2    0    0 -0.72104008183E-02 -0.42192522432E-05  0.35002052613E-01  0.35737005818E-01  0.00000000000E+00 0. -1.
  9000001    1    1    2    0    0  0.72104008183E-02  0.42192522432E-05 -0.35002052613E-01  0.35750994182E-01  0.10000000475E-02 0.  1.
</event>
<event>
 4   0  0.4892667E-02  0.9118800E+02  0.7818609E-02  0.1379984E+01
      -11   -1    0    0    0    0  0.00000000000E+00  0.00000000000E+00  0.35740347158E-01  0.35744000000E-01  0.51099999109E-03 0. -1.
       11   -1    0    0    0    0 -0.00000000000E+00 -0.00000000000E+00 -0.35740347158E-01  0.35744000000E-01  0.51099999109E-03 0.  1.
       22    1    1    2    0    0  0.98547216269E-02  0.15573771501E-01 -0.30618224765E-01  0.35737005818E-01  0.00000000000E+00 0.  1.
  9000001    1    1    2    0    0 -0.98547216269E-02 -0.15573771501E-01  0.30618224765E-01  0.35750994182E-01  0.10000000475E-02 0. -1.
</event>
<event>
 4   0  0.4892667E-02  0.9118800E+02  0.7818609E-02  0.1379984E+01
      -11   -1    0    0    0    0  0.00000000000E+00  0.00000000000E+00  0.35740347158E-01  0.35744000000E-01  0.51099999109E-03 0. -1.
       11   -1    0    0    0    0 -0.00000000000E+00 -0.00000000000E+00 -0.35740347158E-01  0.35744000000E-01  0.51099999109E-03 0.  1.
       22    1    1    2    0    0  0.32670811995E-02 -0.20760556962E-01 -0.28904308328E-01  0.35737005818E-01  0.00000000000E+00 0.  1.
  9000001    1    1    2    0    0 -0.32670811995E-02  0.20760556962E-01  0.28904308328E-01  0.35750994182E-01  0.10000000475E-02 0. -1.
</event>
<event>
 4   0  0.4892667E-02  0.9118800E+02  0.7818609E-02  0.1379984E+01
      -11   -1    0    0    0    0  0.00000000000E+00  0.00000000000E+00  0.35740347158E-01  0.35744000000E-01  0.51099999109E-03 0. -1.
       11   -1    0    0    0    0 -0.00000000000E+00 -0.00000000000E+00 -0.35740347158E-01  0.35744000000E-01  0.51099999109E-03 0.  1.
       22    1    1    2    0    0  0.12626921141E-01 -0.65897617482E-02 -0.32776050517E-01  0.35737005818E-01  0.00000000000E+00 0.  1.
  9000001    1    1    2    0    0 -0.12626921141E-01  0.65897617482E-02  0.32776050517E-01  0.35750994182E-01  0.10000000475E-02 0. -1.
</event>
<event>
 4   0  0.4892667E-02  0.9118800E+02  0.7818609E-02  0.1379984E+01
      -11   -1    0    0    0    0  0.00000000000E+00  0.00000000000E+00  0.35740347158E-01  0.35744000000E-01  0.51099999109E-03 0.  1.
       11   -1    0    0    0    0 -0.00000000000E+00 -0.00000000000E+00 -0.35740347158E-01  0.35744000000E-01  0.51099999109E-03 0. -1.
       22    1    1    2    0    0 -0.24734092002E-02  0.18291503713E-02  0.35604354238E-01  0.35737005818E-01  0.00000000000E+00 0.  1.
  9000001    1    1    2    0    0  0.24734092002E-02 -0.18291503713E-02 -0.35604354238E-01  0.35750994182E-01  0.10000000475E-02 0. -1.
</event>
<event>
 4   0  0.4892667E-02  0.9118800E+02  0.7818609E-02  0.1379984E+01
      -11   -1    0    0    0    0  0.00000000000E+00  0.00000000000E+00  0.35740347158E-01  0.35744000000E-01  0.51099999109E-03 0. -1.
       11   -1    0    0    0    0 -0.00000000000E+00 -0.00000000000E+00 -0.35740347158E-01  0.35744000000E-01  0.51099999109E-03 0.  1.
       22    1    1    2    0    0  0.27928727291E-02  0.14579864603E-02  0.35597861204E-01  0.35737005818E-01  0.00000000000E+00 0. -1.
  9000001    1    1    2    0    0 -0.27928727291E-02 -0.14579864603E-02 -0.35597861204E-01  0.35750994182E-01  0.10000000475E-02 0.  1.
</event>
<event>
 4   0  0.4892667E-02  0.9118800E+02  0.7818609E-02  0.1379984E+01
      -11   -1    0    0    0    0  0.00000000000E+00  0.00000000000E+00  0.35740347158E-01  0.35744000000E-01  0.51099999109E-03 0. -1.
       11   -1    0    0    0    0 -0.00000000000E+00 -0.00000000000E+00 -0.35740347158E-01  0.35744000000E-01  0.51099999109E-03 0.  1.
       22    1    1    2    0    0 -0.87403075056E-02 -0.94917953800E-02 -0.33326362388E-01  0.35737005818E-01  0.00000000000E+00 0.  1.
  9000001    1    1    2    0    0  0.87403075056E-02  0.94917953800E-02  0.33326362388E-01  0.35750994182E-01  0.10000000475E-02 0. -1.
</event>
<event>
 4   0  0.4892667E-02  0.9118800E+02  0.7818609E-02  0.1379984E+01
      -11   -1    0    0    0    0  0.00000000000E+00  0.00000000000E+00  0.35740347158E-01  0.35744000000E-01  0.51099999109E-03 0. -1.
       11   -1    0    0    0    0 -0.00000000000E+00 -0.00000000000E+00 -0.35740347158E-01  0.35744000000E-01  0.51099999109E-03 0.  1.
       22    1    1    2    0    0 -0.31450565792E-01 -0.15388405488E-01 -0.71548915266E-02  0.35737005818E-01  0.00000000000E+00 0. -1.
  9000001    1    1    2    0    0  0.31450565792E-01  0.15388405488E-01  0.71548915266E-02  0.35750994182E-01  0.10000000475E-02 0.  1.
</event>
<event>
 4   0  0.4892667E-02  0.9118800E+02  0.7818609E-02  0.1379984E+01
      -11   -1    0    0    0    0  0.00000000000E+00  0.00000000000E+00  0.35740347158E-01  0.35744000000E-01  0.51099999109E-03 0. -1.
       11   -1    0    0    0    0 -0.00000000000E+00 -0.00000000000E+00 -0.35740347158E-01  0.35744000000E-01  0.51099999109E-03 0.  1.
       22    1    1    2    0    0 -0.10470490325E-02 -0.81372106492E-02  0.34782511066E-01  0.35737005818E-01  0.00000000000E+00 0. -1.
  9000001    1    1    2    0    0  0.10470490325E-02  0.81372106492E-02 -0.34782511066E-01  0.35750994182E-01  0.10000000475E-02 0.  1.
</event>
<event>
 4   0  0.4892667E-02  0.9118800E+02  0.7818609E-02  0.1379984E+01
      -11   -1    0    0    0    0  0.00000000000E+00  0.00000000000E+00  0.35740347158E-01  0.35744000000E-01  0.51099999109E-03 0. -1.
       11   -1    0    0    0    0 -0.00000000000E+00 -0.00000000000E+00 -0.35740347158E-01  0.35744000000E-01  0.51099999109E-03 0.  1.
       22    1    1    2    0    0 -0.45937199233E-02  0.82924405452E-02  0.34456737395E-01  0.35737005818E-01  0.00000000000E+00 0. -1.
  9000001    1    1    2    0    0  0.45937199233E-02 -0.82924405452E-02 -0.34456737395E-01  0.35750994182E-01  0.10000000475E-02 0.  1.
</event>
<event>
 4   0  0.4892667E-02  0.9118800E+02  0.7818609E-02  0.1379984E+01
      -11   -1    0    0    0    0  0.00000000000E+00  0.00000000000E+00  0.35740347158E-01  0.35744000000E-01  0.51099999109E-03 0. -1.
       11   -1    0    0    0    0 -0.00000000000E+00 -0.00000000000E+00 -0.35740347158E-01  0.35744000000E-01  0.51099999109E-03 0.  1.
       22    1    1    2    0    0 -0.11321843595E-01 -0.80678170647E-03 -0.33886554056E-01  0.35737005818E-01  0.00000000000E+00 0.  1.
  9000001    1    1    2    0    0  0.11321843595E-01  0.80678170647E-03  0.33886554056E-01  0.35750994182E-01  0.10000000475E-02 0. -1.
</event>
<event>
 4   0  0.4892667E-02  0.9118800E+02  0.7818609E-02  0.1379984E+01
      -11   -1    0    0    0    0  0.00000000000E+00  0.00000000000E+00  0.35740347158E-01  0.35744000000E-01  0.51099999109E-03 0. -1.
       11   -1    0    0    0    0 -0.00000000000E+00 -0.00000000000E+00 -0.35740347158E-01  0.35744000000E-01  0.51099999109E-03 0.  1.
       22    1    1    2    0    0 -0.40687689491E-02  0.21257519191E-02  0.35440935130E-01  0.35737005818E-01  0.00000000000E+00 0. -1.
  9000001    1    1    2    0    0  0.40687689491E-02 -0.21257519191E-02 -0.35440935130E-01  0.35750994182E-01  0.10000000475E-02 0.  1.
</event>
<event>
 4   0  0.4892667E-02  0.9118800E+02  0.7818609E-02  0.1379984E+01
      -11   -1    0    0    0    0  0.00000000000E+00  0.00000000000E+00  0.35740347158E-01  0.35744000000E-01  0.51099999109E-03 0. -1.
       11   -1    0    0    0    0 -0.00000000000E+00 -0.00000000000E+00 -0.35740347158E-01  0.35744000000E-01  0.51099999109E-03 0.  1.
       22    1    1    2    0    0 -0.61874813854E-03  0.25482384427E-01  0.25047930444E-01  0.35737005818E-01  0.00000000000E+00 0.  1.
  9000001    1    1    2    0    0  0.61874813854E-03 -0.25482384427E-01 -0.25047930444E-01  0.35750994182E-01  0.10000000475E-02 0. -1.
</event>
<event>
 4   0  0.4892667E-02  0.9118800E+02  0.7818609E-02  0.1379984E+01
      -11   -1    0    0    0    0  0.00000000000E+00  0.00000000000E+00  0.35740347158E-01  0.35744000000E-01  0.51099999109E-03 0. -1.
       11   -1    0    0    0    0 -0.00000000000E+00 -0.00000000000E+00 -0.35740347158E-01  0.35744000000E-01  0.51099999109E-03 0.  1.
       22    1    1    2    0    0 -0.53527516931E-03 -0.53912058912E-02 -0.35323957372E-01  0.35737005818E-01  0.00000000000E+00 0.  1.
  9000001    1    1    2    0    0  0.53527516931E-03  0.53912058912E-02  0.35323957372E-01  0.35750994182E-01  0.10000000475E-02 0. -1.
</event>
<event>
 4   0  0.4892667E-02  0.9118800E+02  0.7818609E-02  0.1379984E+01
      -11   -1    0    0    0    0  0.00000000000E+00  0.00000000000E+00  0.35740347158E-01  0.35744000000E-01  0.51099999109E-03 0. -1.
       11   -1    0    0    0    0 -0.00000000000E+00 -0.00000000000E+00 -0.35740347158E-01  0.35744000000E-01  0.51099999109E-03 0.  1.
       22    1    1    2    0    0 -0.36640282363E-02 -0.40105047913E-02 -0.35321726080E-01  0.35737005818E-01  0.00000000000E+00 0.  1.
  9000001    1    1    2    0    0  0.36640282363E-02  0.40105047913E-02  0.35321726080E-01  0.35750994182E-01  0.10000000475E-02 0. -1.
</event>
<event>
 4   0  0.4892667E-02  0.9118800E+02  0.7818609E-02  0.1379984E+01
      -11   -1    0    0    0    0  0.00000000000E+00  0.00000000000E+00  0.35740347158E-01  0.35744000000E-01  0.51099999109E-03 0.  1.
       11   -1    0    0    0    0 -0.00000000000E+00 -0.00000000000E+00 -0.35740347158E-01  0.35744000000E-01  0.51099999109E-03 0. -1.
       22    1    1    2    0    0 -0.12729904658E-02  0.47722202158E-02 -0.35394053093E-01  0.35737005818E-01  0.00000000000E+00 0. -1.
  9000001    1    1    2    0    0  0.12729904658E-02 -0.47722202158E-02  0.35394053093E-01  0.35750994182E-01  0.10000000475E-02 0.  1.
</event>
<event>
 4   0  0.4892667E-02  0.9118800E+02  0.7818609E-02  0.1379984E+01
      -11   -1    0    0    0    0  0.00000000000E+00  0.00000000000E+00  0.35740347158E-01  0.35744000000E-01  0.51099999109E-03 0.  1.
       11   -1    0    0    0    0 -0.00000000000E+00 -0.00000000000E+00 -0.35740347158E-01  0.35744000000E-01  0.51099999109E-03 0. -1.
       22    1    1    2    0    0  0.20099434890E-01  0.73572819197E-03 -0.29539888389E-01  0.35737005818E-01  0.00000000000E+00 0. -1.
  9000001    1    1    2    0    0 -0.20099434890E-01 -0.73572819197E-03  0.29539888389E-01  0.35750994182E-01  0.10000000475E-02 0.  1.
</event>
<event>
 4   0  0.4892667E-02  0.9118800E+02  0.7818609E-02  0.1379984E+01
      -11   -1    0    0    0    0  0.00000000000E+00  0.00000000000E+00  0.35740347158E-01  0.35744000000E-01  0.51099999109E-03 0. -1.
       11   -1    0    0    0    0 -0.00000000000E+00 -0.00000000000E+00 -0.35740347158E-01  0.35744000000E-01  0.51099999109E-03 0.  1.
       22    1    1    2    0    0  0.37772784820E-02 -0.17181721121E-01  0.31107140844E-01  0.35737005818E-01  0.00000000000E+00 0. -1.
  9000001    1    1    2    0    0 -0.37772784820E-02  0.17181721121E-01 -0.31107140844E-01  0.35750994182E-01  0.10000000475E-02 0.  1.
</event>
<event>
 4   0  0.4892667E-02  0.9118800E+02  0.7818609E-02  0.1379984E+01
      -11   -1    0    0    0    0  0.00000000000E+00  0.00000000000E+00  0.35740347158E-01  0.35744000000E-01  0.51099999109E-03 0. -1.
       11   -1    0    0    0    0 -0.00000000000E+00 -0.00000000000E+00 -0.35740347158E-01  0.35744000000E-01  0.51099999109E-03 0.  1.
       22    1    1    2    0    0 -0.63614735501E-02 -0.32933260875E-03  0.35164709286E-01  0.35737005818E-01  0.00000000000E+00 0. -1.
  9000001    1    1    2    0    0  0.63614735501E-02  0.32933260875E-03 -0.35164709286E-01  0.35750994182E-01  0.10000000475E-02 0.  1.
</event>
<event>
 4   0  0.4892667E-02  0.9118800E+02  0.7818609E-02  0.1379984E+01
      -11   -1    0    0    0    0  0.00000000000E+00  0.00000000000E+00  0.35740347158E-01  0.35744000000E-01  0.51099999109E-03 0. -1.
       11   -1    0    0    0    0 -0.00000000000E+00 -0.00000000000E+00 -0.35740347158E-01  0.35744000000E-01  0.51099999109E-03 0.  1.
       22    1    1    2    0    0 -0.13042573184E-01  0.16961287048E-01  0.28624108917E-01  0.35737005818E-01  0.00000000000E+00 0. -1.
  9000001    1    1    2    0    0  0.13042573184E-01 -0.16961287048E-01 -0.28624108917E-01  0.35750994182E-01  0.10000000475E-02 0.  1.
</event>
<event>
 4   0  0.4892667E-02  0.9118800E+02  0.7818609E-02  0.1379984E+01
      -11   -1    0    0    0    0  0.00000000000E+00  0.00000000000E+00  0.35740347158E-01  0.35744000000E-01  0.51099999109E-03 0. -1.
       11   -1    0    0    0    0 -0.00000000000E+00 -0.00000000000E+00 -0.35740347158E-01  0.35744000000E-01  0.51099999109E-03 0.  1.
       22    1    1    2    0    0 -0.12044589102E-01  0.34245273550E-02  0.33471391824E-01  0.35737005818E-01  0.00000000000E+00 0. -1.
  9000001    1    1    2    0    0  0.12044589102E-01 -0.34245273550E-02 -0.33471391824E-01  0.35750994182E-01  0.10000000475E-02 0.  1.
</event>
<event>
 4   0  0.4892667E-02  0.9118800E+02  0.7818609E-02  0.1379984E+01
      -11   -1    0    0    0    0  0.00000000000E+00  0.00000000000E+00  0.35740347158E-01  0.35744000000E-01  0.51099999109E-03 0.  1.
       11   -1    0    0    0    0 -0.00000000000E+00 -0.00000000000E+00 -0.35740347158E-01  0.35744000000E-01  0.51099999109E-03 0. -1.
       22    1    1    2    0    0 -0.64759478203E-02  0.45992433566E-02 -0.34843114747E-01  0.35737005818E-01  0.00000000000E+00 0. -1.
  9000001    1    1    2    0    0  0.64759478203E-02 -0.45992433566E-02  0.34843114747E-01  0.35750994182E-01  0.10000000475E-02 0.  1.
</event>
<event>
 4   0  0.4892667E-02  0.9118800E+02  0.7818609E-02  0.1379984E+01
      -11   -1    0    0    0    0  0.00000000000E+00  0.00000000000E+00  0.35740347158E-01  0.35744000000E-01  0.51099999109E-03 0. -1.
       11   -1    0    0    0    0 -0.00000000000E+00 -0.00000000000E+00 -0.35740347158E-01  0.35744000000E-01  0.51099999109E-03 0.  1.
       22    1    1    2    0    0  0.21870389975E-01  0.15788458387E-01 -0.23442359288E-01  0.35737005818E-01  0.00000000000E+00 0.  1.
  9000001    1    1    2    0    0 -0.21870389975E-01 -0.15788458387E-01  0.23442359288E-01  0.35750994182E-01  0.10000000475E-02 0. -1.
</event>
<event>
 4   0  0.4892667E-02  0.9118800E+02  0.7818609E-02  0.1379984E+01
      -11   -1    0    0    0    0  0.00000000000E+00  0.00000000000E+00  0.35740347158E-01  0.35744000000E-01  0.51099999109E-03 0. -1.
       11   -1    0    0    0    0 -0.00000000000E+00 -0.00000000000E+00 -0.35740347158E-01  0.35744000000E-01  0.51099999109E-03 0.  1.
       22    1    1    2    0    0  0.42114815639E-02 -0.31253263519E-01  0.16811618818E-01  0.35737005818E-01  0.00000000000E+00 0.  1.
  9000001    1    1    2    0    0 -0.42114815639E-02  0.31253263519E-01 -0.16811618818E-01  0.35750994182E-01  0.10000000475E-02 0. -1.
</event>
<event>
 4   0  0.4892667E-02  0.9118800E+02  0.7818609E-02  0.1379984E+01
      -11   -1    0    0    0    0  0.00000000000E+00  0.00000000000E+00  0.35740347158E-01  0.35744000000E-01  0.51099999109E-03 0. -1.
       11   -1    0    0    0    0 -0.00000000000E+00 -0.00000000000E+00 -0.35740347158E-01  0.35744000000E-01  0.51099999109E-03 0.  1.
       22    1    1    2    0    0  0.16485741067E-02 -0.34859120311E-01  0.76978905819E-02  0.35737005818E-01  0.00000000000E+00 0. -1.
  9000001    1    1    2    0    0 -0.16485741067E-02  0.34859120311E-01 -0.76978905819E-02  0.35750994182E-01  0.10000000475E-02 0.  1.
</event>
<event>
 4   0  0.4892667E-02  0.9118800E+02  0.7818609E-02  0.1379984E+01
      -11   -1    0    0    0    0  0.00000000000E+00  0.00000000000E+00  0.35740347158E-01  0.35744000000E-01  0.51099999109E-03 0.  1.
       11   -1    0    0    0    0 -0.00000000000E+00 -0.00000000000E+00 -0.35740347158E-01  0.35744000000E-01  0.51099999109E-03 0. -1.
       22    1    1    2    0    0  0.55424945021E-02 -0.18444139703E-01  0.30103621878E-01  0.35737005818E-01  0.00000000000E+00 0.  1.
  9000001    1    1    2    0    0 -0.55424945021E-02  0.18444139703E-01 -0.30103621878E-01  0.35750994182E-01  0.10000000475E-02 0. -1.
</event>
<event>
 4   0  0.4892667E-02  0.9118800E+02  0.7818609E-02  0.1379984E+01
      -11   -1    0    0    0    0  0.00000000000E+00  0.00000000000E+00  0.35740347158E-01  0.35744000000E-01  0.51099999109E-03 0.  1.
       11   -1    0    0    0    0 -0.00000000000E+00 -0.00000000000E+00 -0.35740347158E-01  0.35744000000E-01  0.51099999109E-03 0. -1.
       22    1    1    2    0    0 -0.92888124925E-02 -0.14607523056E-02  0.34477786328E-01  0.35737005818E-01  0.00000000000E+00 0.  1.
  9000001    1    1    2    0    0  0.92888124925E-02  0.14607523056E-02 -0.34477786328E-01  0.35750994182E-01  0.10000000475E-02 0. -1.
</event>
<event>
 4   0  0.4892667E-02  0.9118800E+02  0.7818609E-02  0.1379984E+01
      -11   -1    0    0    0    0  0.00000000000E+00  0.00000000000E+00  0.35740347158E-01  0.35744000000E-01  0.51099999109E-03 0. -1.
       11   -1    0    0    0    0 -0.00000000000E+00 -0.00000000000E+00 -0.35740347158E-01  0.35744000000E-01  0.51099999109E-03 0.  1.
       22    1    1    2    0    0 -0.78127457861E-02  0.79961394388E-03  0.34863379149E-01  0.35737005818E-01  0.00000000000E+00 0. -1.
  9000001    1    1    2    0    0  0.78127457861E-02 -0.79961394388E-03 -0.34863379149E-01  0.35750994182E-01  0.10000000475E-02 0.  1.
</event>
<event>
 4   0  0.4892667E-02  0.9118800E+02  0.7818609E-02  0.1379984E+01
      -11   -1    0    0    0    0  0.00000000000E+00  0.00000000000E+00  0.35740347158E-01  0.35744000000E-01  0.51099999109E-03 0. -1.
       11   -1    0    0    0    0 -0.00000000000E+00 -0.00000000000E+00 -0.35740347158E-01  0.35744000000E-01  0.51099999109E-03 0.  1.
       22    1    1    2    0    0  0.10907033213E-01  0.22671786198E-02  0.33956297096E-01  0.35737005818E-01  0.00000000000E+00 0. -1.
  9000001    1    1    2    0    0 -0.10907033213E-01 -0.22671786198E-02 -0.33956297096E-01  0.35750994182E-01  0.10000000475E-02 0.  1.
</event>
<event>
 4   0  0.4892667E-02  0.9118800E+02  0.7818609E-02  0.1379984E+01
      -11   -1    0    0    0    0  0.00000000000E+00  0.00000000000E+00  0.35740347158E-01  0.35744000000E-01  0.51099999109E-03 0. -1.
       11   -1    0    0    0    0 -0.00000000000E+00 -0.00000000000E+00 -0.35740347158E-01  0.35744000000E-01  0.51099999109E-03 0.  1.
       22    1    1    2    0    0  0.16083575010E-01  0.23814992358E-01 -0.21243783531E-01  0.35737005818E-01  0.00000000000E+00 0.  1.
  9000001    1    1    2    0    0 -0.16083575010E-01 -0.23814992358E-01  0.21243783531E-01  0.35750994182E-01  0.10000000475E-02 0. -1.
</event>
<event>
 4   0  0.4892667E-02  0.9118800E+02  0.7818609E-02  0.1379984E+01
      -11   -1    0    0    0    0  0.00000000000E+00  0.00000000000E+00  0.35740347158E-01  0.35744000000E-01  0.51099999109E-03 0. -1.
       11   -1    0    0    0    0 -0.00000000000E+00 -0.00000000000E+00 -0.35740347158E-01  0.35744000000E-01  0.51099999109E-03 0.  1.
       22    1    1    2    0    0 -0.19957559272E-01  0.57946761006E-02  0.29073203155E-01  0.35737005818E-01  0.00000000000E+00 0. -1.
  9000001    1    1    2    0    0  0.19957559272E-01 -0.57946761006E-02 -0.29073203155E-01  0.35750994182E-01  0.10000000475E-02 0.  1.
</event>
<event>
 4   0  0.4892667E-02  0.9118800E+02  0.7818609E-02  0.1379984E+01
      -11   -1    0    0    0    0  0.00000000000E+00  0.00000000000E+00  0.35740347158E-01  0.35744000000E-01  0.51099999109E-03 0. -1.
       11   -1    0    0    0    0 -0.00000000000E+00 -0.00000000000E+00 -0.35740347158E-01  0.35744000000E-01  0.51099999109E-03 0.  1.
       22    1    1    2    0    0 -0.36437500020E-02 -0.79033496006E-05 -0.35550761009E-01  0.35737005818E-01  0.00000000000E+00 0.  1.
  9000001    1    1    2    0    0  0.36437500020E-02  0.79033496006E-05  0.35550761009E-01  0.35750994182E-01  0.10000000475E-02 0. -1.
</event>
<event>
 4   0  0.4892667E-02  0.9118800E+02  0.7818609E-02  0.1379984E+01
      -11   -1    0    0    0    0  0.00000000000E+00  0.00000000000E+00  0.35740347158E-01  0.35744000000E-01  0.51099999109E-03 0. -1.
       11   -1    0    0    0    0 -0.00000000000E+00 -0.00000000000E+00 -0.35740347158E-01  0.35744000000E-01  0.51099999109E-03 0.  1.
       22    1    1    2    0    0 -0.22706193010E-02 -0.20105100794E-01 -0.29457813818E-01  0.35737005818E-01  0.00000000000E+00 0.  1.
  9000001    1    1    2    0    0  0.22706193010E-02  0.20105100794E-01  0.29457813818E-01  0.35750994182E-01  0.10000000475E-02 0. -1.
</event>
<event>
 4   0  0.4892667E-02  0.9118800E+02  0.7818609E-02  0.1379984E+01
      -11   -1    0    0    0    0  0.00000000000E+00  0.00000000000E+00  0.35740347158E-01  0.35744000000E-01  0.51099999109E-03 0. -1.
       11   -1    0    0    0    0 -0.00000000000E+00 -0.00000000000E+00 -0.35740347158E-01  0.35744000000E-01  0.51099999109E-03 0.  1.
       22    1    1    2    0    0 -0.17003470208E-01  0.31416720599E-01  0.10026228429E-02  0.35737005818E-01  0.00000000000E+00 0. -1.
  9000001    1    1    2    0    0  0.17003470208E-01 -0.31416720599E-01 -0.10026228429E-02  0.35750994182E-01  0.10000000475E-02 0.  1.
</event>
<event>
 4   0  0.4892667E-02  0.9118800E+02  0.7818609E-02  0.1379984E+01
      -11   -1    0    0    0    0  0.00000000000E+00  0.00000000000E+00  0.35740347158E-01  0.35744000000E-01  0.51099999109E-03 0. -1.
       11   -1    0    0    0    0 -0.00000000000E+00 -0.00000000000E+00 -0.35740347158E-01  0.35744000000E-01  0.51099999109E-03 0.  1.
       22    1    1    2    0    0  0.33535444328E-01  0.62443905281E-02 -0.10654348667E-01  0.35737005818E-01  0.00000000000E+00 0. -1.
  9000001    1    1    2    0    0 -0.33535444328E-01 -0.62443905281E-02  0.10654348667E-01  0.35750994182E-01  0.10000000475E-02 0.  1.
</event>
<event>
 4   0  0.4892667E-02  0.9118800E+02  0.7818609E-02  0.1379984E+01
      -11   -1    0    0    0    0  0.00000000000E+00  0.00000000000E+00  0.35740347158E-01  0.35744000000E-01  0.51099999109E-03 0. -1.
       11   -1    0    0    0    0 -0.00000000000E+00 -0.00000000000E+00 -0.35740347158E-01  0.35744000000E-01  0.51099999109E-03 0.  1.
       22    1    1    2    0    0 -0.38040888720E-02 -0.54352278426E-02 -0.35115819669E-01  0.35737005818E-01  0.00000000000E+00 0.  1.
  9000001    1    1    2    0    0  0.38040888720E-02  0.54352278426E-02  0.35115819669E-01  0.35750994182E-01  0.10000000475E-02 0. -1.
</event>
<event>
 4   0  0.4892667E-02  0.9118800E+02  0.7818609E-02  0.1379984E+01
      -11   -1    0    0    0    0  0.00000000000E+00  0.00000000000E+00  0.35740347158E-01  0.35744000000E-01  0.51099999109E-03 0. -1.
       11   -1    0    0    0    0 -0.00000000000E+00 -0.00000000000E+00 -0.35740347158E-01  0.35744000000E-01  0.51099999109E-03 0.  1.
       22    1    1    2    0    0  0.18881315019E-02 -0.29090705608E-02  0.35568326539E-01  0.35737005818E-01  0.00000000000E+00 0. -1.
  9000001    1    1    2    0    0 -0.18881315019E-02  0.29090705608E-02 -0.35568326539E-01  0.35750994182E-01  0.10000000475E-02 0.  1.
</event>
<event>
 4   0  0.4892667E-02  0.9118800E+02  0.7818609E-02  0.1379984E+01
      -11   -1    0    0    0    0  0.00000000000E+00  0.00000000000E+00  0.35740347158E-01  0.35744000000E-01  0.51099999109E-03 0. -1.
       11   -1    0    0    0    0 -0.00000000000E+00 -0.00000000000E+00 -0.35740347158E-01  0.35744000000E-01  0.51099999109E-03 0.  1.
       22    1    1    2    0    0 -0.60186600485E-02 -0.12795635914E-01  0.32820435976E-01  0.35737005818E-01  0.00000000000E+00 0. -1.
  9000001    1    1    2    0    0  0.60186600485E-02  0.12795635914E-01 -0.32820435976E-01  0.35750994182E-01  0.10000000475E-02 0.  1.
</event>
<event>
 4   0  0.4892667E-02  0.9118800E+02  0.7818609E-02  0.1379984E+01
      -11   -1    0    0    0    0  0.00000000000E+00  0.00000000000E+00  0.35740347158E-01  0.35744000000E-01  0.51099999109E-03 0. -1.
       11   -1    0    0    0    0 -0.00000000000E+00 -0.00000000000E+00 -0.35740347158E-01  0.35744000000E-01  0.51099999109E-03 0.  1.
       22    1    1    2    0    0 -0.16440248601E-01  0.65592081958E-02 -0.31045589037E-01  0.35737005818E-01  0.00000000000E+00 0.  1.
  9000001    1    1    2    0    0  0.16440248601E-01 -0.65592081958E-02  0.31045589037E-01  0.35750994182E-01  0.10000000475E-02 0. -1.
</event>
<event>
 4   0  0.4892667E-02  0.9118800E+02  0.7818609E-02  0.1379984E+01
      -11   -1    0    0    0    0  0.00000000000E+00  0.00000000000E+00  0.35740347158E-01  0.35744000000E-01  0.51099999109E-03 0. -1.
       11   -1    0    0    0    0 -0.00000000000E+00 -0.00000000000E+00 -0.35740347158E-01  0.35744000000E-01  0.51099999109E-03 0.  1.
       22    1    1    2    0    0  0.53037238169E-02 -0.45046020623E-03  0.35338381176E-01  0.35737005818E-01  0.00000000000E+00 0. -1.
  9000001    1    1    2    0    0 -0.53037238169E-02  0.45046020623E-03 -0.35338381176E-01  0.35750994182E-01  0.10000000475E-02 0.  1.
</event>
<event>
 4   0  0.4892667E-02  0.9118800E+02  0.7818609E-02  0.1379984E+01
      -11   -1    0    0    0    0  0.00000000000E+00  0.00000000000E+00  0.35740347158E-01  0.35744000000E-01  0.51099999109E-03 0.  1.
       11   -1    0    0    0    0 -0.00000000000E+00 -0.00000000000E+00 -0.35740347158E-01  0.35744000000E-01  0.51099999109E-03 0. -1.
       22    1    1    2    0    0 -0.92631664103E-02  0.22077229106E-02  0.34444931303E-01  0.35737005818E-01  0.00000000000E+00 0.  1.
  9000001    1    1    2    0    0  0.92631664103E-02 -0.22077229106E-02 -0.34444931303E-01  0.35750994182E-01  0.10000000475E-02 0. -1.
</event>
<event>
 4   0  0.4892667E-02  0.9118800E+02  0.7818609E-02  0.1379984E+01
      -11   -1    0    0    0    0  0.00000000000E+00  0.00000000000E+00  0.35740347158E-01  0.35744000000E-01  0.51099999109E-03 0. -1.
       11   -1    0    0    0    0 -0.00000000000E+00 -0.00000000000E+00 -0.35740347158E-01  0.35744000000E-01  0.51099999109E-03 0.  1.
       22    1    1    2    0    0  0.10507457542E-02  0.81348763247E-02 -0.34782945612E-01  0.35737005818E-01  0.00000000000E+00 0.  1.
  9000001    1    1    2    0    0 -0.10507457542E-02 -0.81348763247E-02  0.34782945612E-01  0.35750994182E-01  0.10000000475E-02 0. -1.
</event>
<event>
 4   0  0.4892667E-02  0.9118800E+02  0.7818609E-02  0.1379984E+01
      -11   -1    0    0    0    0  0.00000000000E+00  0.00000000000E+00  0.35740347158E-01  0.35744000000E-01  0.51099999109E-03 0.  1.
       11   -1    0    0    0    0 -0.00000000000E+00 -0.00000000000E+00 -0.35740347158E-01  0.35744000000E-01  0.51099999109E-03 0. -1.
       22    1    1    2    0    0  0.50442219242E-02 -0.52357715612E-02 -0.34989657132E-01  0.35737005818E-01  0.00000000000E+00 0. -1.
  9000001    1    1    2    0    0 -0.50442219242E-02  0.52357715612E-02  0.34989657132E-01  0.35750994182E-01  0.10000000475E-02 0.  1.
</event>
<event>
 4   0  0.4892667E-02  0.9118800E+02  0.7818609E-02  0.1379984E+01
      -11   -1    0    0    0    0  0.00000000000E+00  0.00000000000E+00  0.35740347158E-01  0.35744000000E-01  0.51099999109E-03 0. -1.
       11   -1    0    0    0    0 -0.00000000000E+00 -0.00000000000E+00 -0.35740347158E-01  0.35744000000E-01  0.51099999109E-03 0.  1.
       22    1    1    2    0    0  0.71807537682E-02  0.27753077717E-02 -0.34897965943E-01  0.35737005818E-01  0.00000000000E+00 0.  1.
  9000001    1    1    2    0    0 -0.71807537682E-02 -0.27753077717E-02  0.34897965943E-01  0.35750994182E-01  0.10000000475E-02 0. -1.
</event>
<event>
 4   0  0.4892667E-02  0.9118800E+02  0.7818609E-02  0.1379984E+01
      -11   -1    0    0    0    0  0.00000000000E+00  0.00000000000E+00  0.35740347158E-01  0.35744000000E-01  0.51099999109E-03 0. -1.
       11   -1    0    0    0    0 -0.00000000000E+00 -0.00000000000E+00 -0.35740347158E-01  0.35744000000E-01  0.51099999109E-03 0.  1.
       22    1    1    2    0    0 -0.70679499036E-02 -0.43053316439E-02 -0.34765525862E-01  0.35737005818E-01  0.00000000000E+00 0.  1.
  9000001    1    1    2    0    0  0.70679499036E-02  0.43053316439E-02  0.34765525862E-01  0.35750994182E-01  0.10000000475E-02 0. -1.
</event>
<event>
 4   0  0.4892667E-02  0.9118800E+02  0.7818609E-02  0.1379984E+01
      -11   -1    0    0    0    0  0.00000000000E+00  0.00000000000E+00  0.35740347158E-01  0.35744000000E-01  0.51099999109E-03 0.  1.
       11   -1    0    0    0    0 -0.00000000000E+00 -0.00000000000E+00 -0.35740347158E-01  0.35744000000E-01  0.51099999109E-03 0. -1.
       22    1    1    2    0    0 -0.12999213274E-01  0.20625142560E-01 -0.26129629418E-01  0.35737005818E-01  0.00000000000E+00 0. -1.
  9000001    1    1    2    0    0  0.12999213274E-01 -0.20625142560E-01  0.26129629418E-01  0.35750994182E-01  0.10000000475E-02 0.  1.
</event>
<event>
 4   0  0.4892667E-02  0.9118800E+02  0.7818609E-02  0.1379984E+01
      -11   -1    0    0    0    0  0.00000000000E+00  0.00000000000E+00  0.35740347158E-01  0.35744000000E-01  0.51099999109E-03 0.  1.
       11   -1    0    0    0    0 -0.00000000000E+00 -0.00000000000E+00 -0.35740347158E-01  0.35744000000E-01  0.51099999109E-03 0. -1.
       22    1    1    2    0    0 -0.18209346113E-02 -0.40302376766E-02  0.35462303454E-01  0.35737005818E-01  0.00000000000E+00 0.  1.
  9000001    1    1    2    0    0  0.18209346113E-02  0.40302376766E-02 -0.35462303454E-01  0.35750994182E-01  0.10000000475E-02 0. -1.
</event>
<event>
 4   0  0.4892667E-02  0.9118800E+02  0.7818609E-02  0.1379984E+01
      -11   -1    0    0    0    0  0.00000000000E+00  0.00000000000E+00  0.35740347158E-01  0.35744000000E-01  0.51099999109E-03 0.  1.
       11   -1    0    0    0    0 -0.00000000000E+00 -0.00000000000E+00 -0.35740347158E-01  0.35744000000E-01  0.51099999109E-03 0. -1.
       22    1    1    2    0    0 -0.10661723447E-01 -0.98150258442E-03 -0.34095423310E-01  0.35737005818E-01  0.00000000000E+00 0. -1.
  9000001    1    1    2    0    0  0.10661723447E-01  0.98150258442E-03  0.34095423310E-01  0.35750994182E-01  0.10000000475E-02 0.  1.
</event>
<event>
 4   0  0.4892667E-02  0.9118800E+02  0.7818609E-02  0.1379984E+01
      -11   -1    0    0    0    0  0.00000000000E+00  0.00000000000E+00  0.35740347158E-01  0.35744000000E-01  0.51099999109E-03 0. -1.
       11   -1    0    0    0    0 -0.00000000000E+00 -0.00000000000E+00 -0.35740347158E-01  0.35744000000E-01  0.51099999109E-03 0.  1.
       22    1    1    2    0    0  0.16017281138E-01  0.18452569646E-01 -0.26078400321E-01  0.35737005818E-01  0.00000000000E+00 0.  1.
  9000001    1    1    2    0    0 -0.16017281138E-01 -0.18452569646E-01  0.26078400321E-01  0.35750994182E-01  0.10000000475E-02 0. -1.
</event>
<event>
 4   0  0.4892667E-02  0.9118800E+02  0.7818609E-02  0.1379984E+01
      -11   -1    0    0    0    0  0.00000000000E+00  0.00000000000E+00  0.35740347158E-01  0.35744000000E-01  0.51099999109E-03 0.  1.
       11   -1    0    0    0    0 -0.00000000000E+00 -0.00000000000E+00 -0.35740347158E-01  0.35744000000E-01  0.51099999109E-03 0. -1.
       22    1    1    2    0    0  0.19424762419E-01 -0.29251462307E-01 -0.66456107853E-02  0.35737005818E-01  0.00000000000E+00 0. -1.
  9000001    1    1    2    0    0 -0.19424762419E-01  0.29251462307E-01  0.66456107853E-02  0.35750994182E-01  0.10000000475E-02 0.  1.
</event>
<event>
 4   0  0.4892667E-02  0.9118800E+02  0.7818609E-02  0.1379984E+01
      -11   -1    0    0    0    0  0.00000000000E+00  0.00000000000E+00  0.35740347158E-01  0.35744000000E-01  0.51099999109E-03 0. -1.
       11   -1    0    0    0    0 -0.00000000000E+00 -0.00000000000E+00 -0.35740347158E-01  0.35744000000E-01  0.51099999109E-03 0.  1.
       22    1    1    2    0    0  0.32634648004E-02 -0.65605638525E-03  0.35581638135E-01  0.35737005818E-01  0.00000000000E+00 0. -1.
  9000001    1    1    2    0    0 -0.32634648004E-02  0.65605638525E-03 -0.35581638135E-01  0.35750994182E-01  0.10000000475E-02 0.  1.
</event>
<event>
 4   0  0.4892667E-02  0.9118800E+02  0.7818609E-02  0.1379984E+01
      -11   -1    0    0    0    0  0.00000000000E+00  0.00000000000E+00  0.35740347158E-01  0.35744000000E-01  0.51099999109E-03 0. -1.
       11   -1    0    0    0    0 -0.00000000000E+00 -0.00000000000E+00 -0.35740347158E-01  0.35744000000E-01  0.51099999109E-03 0.  1.
       22    1    1    2    0    0  0.12734784014E-01  0.15072986701E-01 -0.29795367642E-01  0.35737005818E-01  0.00000000000E+00 0.  1.
  9000001    1    1    2    0    0 -0.12734784014E-01 -0.15072986701E-01  0.29795367642E-01  0.35750994182E-01  0.10000000475E-02 0. -1.
</event>
<event>
 4   0  0.4892667E-02  0.9118800E+02  0.7818609E-02  0.1379984E+01
      -11   -1    0    0    0    0  0.00000000000E+00  0.00000000000E+00  0.35740347158E-01  0.35744000000E-01  0.51099999109E-03 0.  1.
       11   -1    0    0    0    0 -0.00000000000E+00 -0.00000000000E+00 -0.35740347158E-01  0.35744000000E-01  0.51099999109E-03 0. -1.
       22    1    1    2    0    0  0.14207566677E-01  0.42577677286E-03 -0.32788677133E-01  0.35737005818E-01  0.00000000000E+00 0. -1.
  9000001    1    1    2    0    0 -0.14207566677E-01 -0.42577677286E-03  0.32788677133E-01  0.35750994182E-01  0.10000000475E-02 0.  1.
</event>
<event>
 4   0  0.4892667E-02  0.9118800E+02  0.7818609E-02  0.1379984E+01
      -11   -1    0    0    0    0  0.00000000000E+00  0.00000000000E+00  0.35740347158E-01  0.35744000000E-01  0.51099999109E-03 0. -1.
       11   -1    0    0    0    0 -0.00000000000E+00 -0.00000000000E+00 -0.35740347158E-01  0.35744000000E-01  0.51099999109E-03 0.  1.
       22    1    1    2    0    0  0.15797393380E-01  0.12318911931E-01 -0.29594262216E-01  0.35737005818E-01  0.00000000000E+00 0.  1.
  9000001    1    1    2    0    0 -0.15797393380E-01 -0.12318911931E-01  0.29594262216E-01  0.35750994182E-01  0.10000000475E-02 0. -1.
</event>
<event>
 4   0  0.4892667E-02  0.9118800E+02  0.7818609E-02  0.1379984E+01
      -11   -1    0    0    0    0  0.00000000000E+00  0.00000000000E+00  0.35740347158E-01  0.35744000000E-01  0.51099999109E-03 0.  1.
       11   -1    0    0    0    0 -0.00000000000E+00 -0.00000000000E+00 -0.35740347158E-01  0.35744000000E-01  0.51099999109E-03 0. -1.
       22    1    1    2    0    0  0.21295058638E-01 -0.18777354189E-01  0.21704032624E-01  0.35737005818E-01  0.00000000000E+00 0.  1.
  9000001    1    1    2    0    0 -0.21295058638E-01  0.18777354189E-01 -0.21704032624E-01  0.35750994182E-01  0.10000000475E-02 0. -1.
</event>
<event>
 4   0  0.4892667E-02  0.9118800E+02  0.7818609E-02  0.1379984E+01
      -11   -1    0    0    0    0  0.00000000000E+00  0.00000000000E+00  0.35740347158E-01  0.35744000000E-01  0.51099999109E-03 0. -1.
       11   -1    0    0    0    0 -0.00000000000E+00 -0.00000000000E+00 -0.35740347158E-01  0.35744000000E-01  0.51099999109E-03 0.  1.
       22    1    1    2    0    0 -0.43100862033E-02  0.30542137532E-02 -0.35344427003E-01  0.35737005818E-01  0.00000000000E+00 0.  1.
  9000001    1    1    2    0    0  0.43100862033E-02 -0.30542137532E-02  0.35344427003E-01  0.35750994182E-01  0.10000000475E-02 0. -1.
</event>
<event>
 4   0  0.4892667E-02  0.9118800E+02  0.7818609E-02  0.1379984E+01
      -11   -1    0    0    0    0  0.00000000000E+00  0.00000000000E+00  0.35740347158E-01  0.35744000000E-01  0.51099999109E-03 0.  1.
       11   -1    0    0    0    0 -0.00000000000E+00 -0.00000000000E+00 -0.35740347158E-01  0.35744000000E-01  0.51099999109E-03 0. -1.
       22    1    1    2    0    0  0.69660749852E-02 -0.52018927199E-02  0.34663348025E-01  0.35737005818E-01  0.00000000000E+00 0.  1.
  9000001    1    1    2    0    0 -0.69660749852E-02  0.52018927199E-02 -0.34663348025E-01  0.35750994182E-01  0.10000000475E-02 0. -1.
</event>
<event>
 4   0  0.4892667E-02  0.9118800E+02  0.7818609E-02  0.1379984E+01
      -11   -1    0    0    0    0  0.00000000000E+00  0.00000000000E+00  0.35740347158E-01  0.35744000000E-01  0.51099999109E-03 0.  1.
       11   -1    0    0    0    0 -0.00000000000E+00 -0.00000000000E+00 -0.35740347158E-01  0.35744000000E-01  0.51099999109E-03 0. -1.
       22    1    1    2    0    0 -0.39507617401E-02  0.55919736302E-05 -0.35517953703E-01  0.35737005818E-01  0.00000000000E+00 0. -1.
  9000001    1    1    2    0    0  0.39507617401E-02 -0.55919736302E-05  0.35517953703E-01  0.35750994182E-01  0.10000000475E-02 0.  1.
</event>
<event>
 4   0  0.4892667E-02  0.9118800E+02  0.7818609E-02  0.1379984E+01
      -11   -1    0    0    0    0  0.00000000000E+00  0.00000000000E+00  0.35740347158E-01  0.35744000000E-01  0.51099999109E-03 0. -1.
       11   -1    0    0    0    0 -0.00000000000E+00 -0.00000000000E+00 -0.35740347158E-01  0.35744000000E-01  0.51099999109E-03 0.  1.
       22    1    1    2    0    0  0.85582779430E-02  0.78110206789E-02 -0.33806470083E-01  0.35737005818E-01  0.00000000000E+00 0.  1.
  9000001    1    1    2    0    0 -0.85582779430E-02 -0.78110206789E-02  0.33806470083E-01  0.35750994182E-01  0.10000000475E-02 0. -1.
</event>
<event>
 4   0  0.4892667E-02  0.9118800E+02  0.7818609E-02  0.1379984E+01
      -11   -1    0    0    0    0  0.00000000000E+00  0.00000000000E+00  0.35740347158E-01  0.35744000000E-01  0.51099999109E-03 0. -1.
       11   -1    0    0    0    0 -0.00000000000E+00 -0.00000000000E+00 -0.35740347158E-01  0.35744000000E-01  0.51099999109E-03 0.  1.
       22    1    1    2    0    0 -0.15402038565E-01  0.18836508627E-01  0.26174352631E-01  0.35737005818E-01  0.00000000000E+00 0. -1.
  9000001    1    1    2    0    0  0.15402038565E-01 -0.18836508627E-01 -0.26174352631E-01  0.35750994182E-01  0.10000000475E-02 0.  1.
</event>
<event>
 4   0  0.4892667E-02  0.9118800E+02  0.7818609E-02  0.1379984E+01
      -11   -1    0    0    0    0  0.00000000000E+00  0.00000000000E+00  0.35740347158E-01  0.35744000000E-01  0.51099999109E-03 0.  1.
       11   -1    0    0    0    0 -0.00000000000E+00 -0.00000000000E+00 -0.35740347158E-01  0.35744000000E-01  0.51099999109E-03 0. -1.
       22    1    1    2    0    0 -0.18785123099E-01 -0.18006321652E-01  0.24495410093E-01  0.35737005818E-01  0.00000000000E+00 0.  1.
  9000001    1    1    2    0    0  0.18785123099E-01  0.18006321652E-01 -0.24495410093E-01  0.35750994182E-01  0.10000000475E-02 0. -1.
</event>
<event>
 4   0  0.4892667E-02  0.9118800E+02  0.7818609E-02  0.1379984E+01
      -11   -1    0    0    0    0  0.00000000000E+00  0.00000000000E+00  0.35740347158E-01  0.35744000000E-01  0.51099999109E-03 0.  1.
       11   -1    0    0    0    0 -0.00000000000E+00 -0.00000000000E+00 -0.35740347158E-01  0.35744000000E-01  0.51099999109E-03 0. -1.
       22    1    1    2    0    0  0.30184966905E-01  0.39827145621E-02 -0.18712010650E-01  0.35737005818E-01  0.00000000000E+00 0. -1.
  9000001    1    1    2    0    0 -0.30184966905E-01 -0.39827145621E-02  0.18712010650E-01  0.35750994182E-01  0.10000000475E-02 0.  1.
</event>
<event>
 4   0  0.4892667E-02  0.9118800E+02  0.7818609E-02  0.1379984E+01
      -11   -1    0    0    0    0  0.00000000000E+00  0.00000000000E+00  0.35740347158E-01  0.35744000000E-01  0.51099999109E-03 0. -1.
       11   -1    0    0    0    0 -0.00000000000E+00 -0.00000000000E+00 -0.35740347158E-01  0.35744000000E-01  0.51099999109E-03 0.  1.
       22    1    1    2    0    0 -0.54414438257E-02 -0.11897078218E-01 -0.33256334793E-01  0.35737005818E-01  0.00000000000E+00 0.  1.
  9000001    1    1    2    0    0  0.54414438257E-02  0.11897078218E-01  0.33256334793E-01  0.35750994182E-01  0.10000000475E-02 0. -1.
</event>
<event>
 4   0  0.4892667E-02  0.9118800E+02  0.7818609E-02  0.1379984E+01
      -11   -1    0    0    0    0  0.00000000000E+00  0.00000000000E+00  0.35740347158E-01  0.35744000000E-01  0.51099999109E-03 0. -1.
       11   -1    0    0    0    0 -0.00000000000E+00 -0.00000000000E+00 -0.35740347158E-01  0.35744000000E-01  0.51099999109E-03 0.  1.
       22    1    1    2    0    0  0.61978241763E-02 -0.20531185117E-02  0.35135527102E-01  0.35737005818E-01  0.00000000000E+00 0. -1.
  9000001    1    1    2    0    0 -0.61978241763E-02  0.20531185117E-02 -0.35135527102E-01  0.35750994182E-01  0.10000000475E-02 0.  1.
</event>
<event>
 4   0  0.4892667E-02  0.9118800E+02  0.7818609E-02  0.1379984E+01
      -11   -1    0    0    0    0  0.00000000000E+00  0.00000000000E+00  0.35740347158E-01  0.35744000000E-01  0.51099999109E-03 0.  1.
       11   -1    0    0    0    0 -0.00000000000E+00 -0.00000000000E+00 -0.35740347158E-01  0.35744000000E-01  0.51099999109E-03 0. -1.
       22    1    1    2    0    0  0.35630622891E-02  0.55633453515E-02  0.35121038716E-01  0.35737005818E-01  0.00000000000E+00 0.  1.
  9000001    1    1    2    0    0 -0.35630622891E-02 -0.55633453515E-02 -0.35121038716E-01  0.35750994182E-01  0.10000000475E-02 0. -1.
</event>
<event>
 4   0  0.4892667E-02  0.9118800E+02  0.7818609E-02  0.1379984E+01
      -11   -1    0    0    0    0  0.00000000000E+00  0.00000000000E+00  0.35740347158E-01  0.35744000000E-01  0.51099999109E-03 0.  1.
       11   -1    0    0    0    0 -0.00000000000E+00 -0.00000000000E+00 -0.35740347158E-01  0.35744000000E-01  0.51099999109E-03 0. -1.
       22    1    1    2    0    0 -0.29326420201E-02  0.91315630404E-03 -0.35604765709E-01  0.35737005818E-01  0.00000000000E+00 0. -1.
  9000001    1    1    2    0    0  0.29326420201E-02 -0.91315630404E-03  0.35604765709E-01  0.35750994182E-01  0.10000000475E-02 0.  1.
</event>
<event>
 4   0  0.4892667E-02  0.9118800E+02  0.7818609E-02  0.1379984E+01
      -11   -1    0    0    0    0  0.00000000000E+00  0.00000000000E+00  0.35740347158E-01  0.35744000000E-01  0.51099999109E-03 0. -1.
       11   -1    0    0    0    0 -0.00000000000E+00 -0.00000000000E+00 -0.35740347158E-01  0.35744000000E-01  0.51099999109E-03 0.  1.
       22    1    1    2    0    0 -0.25778230512E-01 -0.24360418181E-01 -0.43802331638E-02  0.35737005818E-01  0.00000000000E+00 0. -1.
  9000001    1    1    2    0    0  0.25778230512E-01  0.24360418181E-01  0.43802331638E-02  0.35750994182E-01  0.10000000475E-02 0.  1.
</event>
<event>
 4   0  0.4892667E-02  0.9118800E+02  0.7818609E-02  0.1379984E+01
      -11   -1    0    0    0    0  0.00000000000E+00  0.00000000000E+00  0.35740347158E-01  0.35744000000E-01  0.51099999109E-03 0. -1.
       11   -1    0    0    0    0 -0.00000000000E+00 -0.00000000000E+00 -0.35740347158E-01  0.35744000000E-01  0.51099999109E-03 0.  1.
       22    1    1    2    0    0  0.40799496876E-03  0.34427620869E-01  0.95763273905E-02  0.35737005818E-01  0.00000000000E+00 0. -1.
  9000001    1    1    2    0    0 -0.40799496876E-03 -0.34427620869E-01 -0.95763273905E-02  0.35750994182E-01  0.10000000475E-02 0.  1.
</event>
<event>
 4   0  0.4892667E-02  0.9118800E+02  0.7818609E-02  0.1379984E+01
      -11   -1    0    0    0    0  0.00000000000E+00  0.00000000000E+00  0.35740347158E-01  0.35744000000E-01  0.51099999109E-03 0. -1.
       11   -1    0    0    0    0 -0.00000000000E+00 -0.00000000000E+00 -0.35740347158E-01  0.35744000000E-01  0.51099999109E-03 0.  1.
       22    1    1    2    0    0 -0.17664678702E-03  0.85395941182E-02  0.34701263854E-01  0.35737005818E-01  0.00000000000E+00 0. -1.
  9000001    1    1    2    0    0  0.17664678702E-03 -0.85395941182E-02 -0.34701263854E-01  0.35750994182E-01  0.10000000475E-02 0.  1.
</event>
<event>
 4   0  0.4892667E-02  0.9118800E+02  0.7818609E-02  0.1379984E+01
      -11   -1    0    0    0    0  0.00000000000E+00  0.00000000000E+00  0.35740347158E-01  0.35744000000E-01  0.51099999109E-03 0. -1.
       11   -1    0    0    0    0 -0.00000000000E+00 -0.00000000000E+00 -0.35740347158E-01  0.35744000000E-01  0.51099999109E-03 0.  1.
       22    1    1    2    0    0 -0.32891456617E-02 -0.12845753625E-01  0.33185866261E-01  0.35737005818E-01  0.00000000000E+00 0. -1.
  9000001    1    1    2    0    0  0.32891456617E-02  0.12845753625E-01 -0.33185866261E-01  0.35750994182E-01  0.10000000475E-02 0.  1.
</event>
<event>
 4   0  0.4892667E-02  0.9118800E+02  0.7818609E-02  0.1379984E+01
      -11   -1    0    0    0    0  0.00000000000E+00  0.00000000000E+00  0.35740347158E-01  0.35744000000E-01  0.51099999109E-03 0.  1.
       11   -1    0    0    0    0 -0.00000000000E+00 -0.00000000000E+00 -0.35740347158E-01  0.35744000000E-01  0.51099999109E-03 0. -1.
       22    1    1    2    0    0  0.30254936878E-02  0.32966391550E-02 -0.35455777288E-01  0.35737005818E-01  0.00000000000E+00 0. -1.
  9000001    1    1    2    0    0 -0.30254936878E-02 -0.32966391550E-02  0.35455777288E-01  0.35750994182E-01  0.10000000475E-02 0.  1.
</event>
<event>
 4   0  0.4892667E-02  0.9118800E+02  0.7818609E-02  0.1379984E+01
      -11   -1    0    0    0    0  0.00000000000E+00  0.00000000000E+00  0.35740347158E-01  0.35744000000E-01  0.51099999109E-03 0.  1.
       11   -1    0    0    0    0 -0.00000000000E+00 -0.00000000000E+00 -0.35740347158E-01  0.35744000000E-01  0.51099999109E-03 0. -1.
       22    1    1    2    0    0  0.43542952735E-02 -0.37913792548E-02 -0.35267536643E-01  0.35737005818E-01  0.00000000000E+00 0. -1.
  9000001    1    1    2    0    0 -0.43542952735E-02  0.37913792548E-02  0.35267536643E-01  0.35750994182E-01  0.10000000475E-02 0.  1.
</event>
<event>
 4   0  0.4892667E-02  0.9118800E+02  0.7818609E-02  0.1379984E+01
      -11   -1    0    0    0    0  0.00000000000E+00  0.00000000000E+00  0.35740347158E-01  0.35744000000E-01  0.51099999109E-03 0.  1.
       11   -1    0    0    0    0 -0.00000000000E+00 -0.00000000000E+00 -0.35740347158E-01  0.35744000000E-01  0.51099999109E-03 0. -1.
       22    1    1    2    0    0 -0.36467846560E-02 -0.44158450914E-02  0.35275130881E-01  0.35737005818E-01  0.00000000000E+00 0.  1.
  9000001    1    1    2    0    0  0.36467846560E-02  0.44158450914E-02 -0.35275130881E-01  0.35750994182E-01  0.10000000475E-02 0. -1.
</event>
<event>
 4   0  0.4892667E-02  0.9118800E+02  0.7818609E-02  0.1379984E+01
      -11   -1    0    0    0    0  0.00000000000E+00  0.00000000000E+00  0.35740347158E-01  0.35744000000E-01  0.51099999109E-03 0.  1.
       11   -1    0    0    0    0 -0.00000000000E+00 -0.00000000000E+00 -0.35740347158E-01  0.35744000000E-01  0.51099999109E-03 0. -1.
       22    1    1    2    0    0 -0.97147128952E-03 -0.45375712313E-02 -0.35434450408E-01  0.35737005818E-01  0.00000000000E+00 0. -1.
  9000001    1    1    2    0    0  0.97147128952E-03  0.45375712313E-02  0.35434450408E-01  0.35750994182E-01  0.10000000475E-02 0.  1.
</event>
<event>
 4   0  0.4892667E-02  0.9118800E+02  0.7818609E-02  0.1379984E+01
      -11   -1    0    0    0    0  0.00000000000E+00  0.00000000000E+00  0.35740347158E-01  0.35744000000E-01  0.51099999109E-03 0. -1.
       11   -1    0    0    0    0 -0.00000000000E+00 -0.00000000000E+00 -0.35740347158E-01  0.35744000000E-01  0.51099999109E-03 0.  1.
       22    1    1    2    0    0  0.14492503006E-02 -0.35169156253E-02 -0.35533991655E-01  0.35737005818E-01  0.00000000000E+00 0.  1.
  9000001    1    1    2    0    0 -0.14492503006E-02  0.35169156253E-02  0.35533991655E-01  0.35750994182E-01  0.10000000475E-02 0. -1.
</event>
<event>
 4   0  0.4892667E-02  0.9118800E+02  0.7818609E-02  0.1379984E+01
      -11   -1    0    0    0    0  0.00000000000E+00  0.00000000000E+00  0.35740347158E-01  0.35744000000E-01  0.51099999109E-03 0. -1.
       11   -1    0    0    0    0 -0.00000000000E+00 -0.00000000000E+00 -0.35740347158E-01  0.35744000000E-01  0.51099999109E-03 0.  1.
       22    1    1    2    0    0 -0.70509105534E-02 -0.10805684347E-01  0.33326497431E-01  0.35737005818E-01  0.00000000000E+00 0. -1.
  9000001    1    1    2    0    0  0.70509105534E-02  0.10805684347E-01 -0.33326497431E-01  0.35750994182E-01  0.10000000475E-02 0.  1.
</event>
<event>
 4   0  0.4892667E-02  0.9118800E+02  0.7818609E-02  0.1379984E+01
      -11   -1    0    0    0    0  0.00000000000E+00  0.00000000000E+00  0.35740347158E-01  0.35744000000E-01  0.51099999109E-03 0.  1.
       11   -1    0    0    0    0 -0.00000000000E+00 -0.00000000000E+00 -0.35740347158E-01  0.35744000000E-01  0.51099999109E-03 0. -1.
       22    1    1    2    0    0  0.31545259992E-01  0.75442455034E-02 -0.15003816738E-01  0.35737005818E-01  0.00000000000E+00 0. -1.
  9000001    1    1    2    0    0 -0.31545259992E-01 -0.75442455034E-02  0.15003816738E-01  0.35750994182E-01  0.10000000475E-02 0.  1.
</event>
<event>
 4   0  0.4892667E-02  0.9118800E+02  0.7818609E-02  0.1379984E+01
      -11   -1    0    0    0    0  0.00000000000E+00  0.00000000000E+00  0.35740347158E-01  0.35744000000E-01  0.51099999109E-03 0.  1.
       11   -1    0    0    0    0 -0.00000000000E+00 -0.00000000000E+00 -0.35740347158E-01  0.35744000000E-01  0.51099999109E-03 0. -1.
       22    1    1    2    0    0 -0.30941948446E-02 -0.16187934514E-02 -0.35565981652E-01  0.35737005818E-01  0.00000000000E+00 0. -1.
  9000001    1    1    2    0    0  0.30941948446E-02  0.16187934514E-02  0.35565981652E-01  0.35750994182E-01  0.10000000475E-02 0.  1.
</event>
<event>
 4   0  0.4892667E-02  0.9118800E+02  0.7818609E-02  0.1379984E+01
      -11   -1    0    0    0    0  0.00000000000E+00  0.00000000000E+00  0.35740347158E-01  0.35744000000E-01  0.51099999109E-03 0. -1.
       11   -1    0    0    0    0 -0.00000000000E+00 -0.00000000000E+00 -0.35740347158E-01  0.35744000000E-01  0.51099999109E-03 0.  1.
       22    1    1    2    0    0  0.42387265990E-02 -0.63121102631E-02  0.34918820795E-01  0.35737005818E-01  0.00000000000E+00 0. -1.
  9000001    1    1    2    0    0 -0.42387265990E-02  0.63121102631E-02 -0.34918820795E-01  0.35750994182E-01  0.10000000475E-02 0.  1.
</event>
<event>
 4   0  0.4892667E-02  0.9118800E+02  0.7818609E-02  0.1379984E+01
      -11   -1    0    0    0    0  0.00000000000E+00  0.00000000000E+00  0.35740347158E-01  0.35744000000E-01  0.51099999109E-03 0. -1.
       11   -1    0    0    0    0 -0.00000000000E+00 -0.00000000000E+00 -0.35740347158E-01  0.35744000000E-01  0.51099999109E-03 0.  1.
       22    1    1    2    0    0 -0.63306767330E-02  0.63819805095E-02  0.34587952263E-01  0.35737005818E-01  0.00000000000E+00 0. -1.
  9000001    1    1    2    0    0  0.63306767330E-02 -0.63819805095E-02 -0.34587952263E-01  0.35750994182E-01  0.10000000475E-02 0.  1.
</event>
<event>
 4   0  0.4892667E-02  0.9118800E+02  0.7818609E-02  0.1379984E+01
      -11   -1    0    0    0    0  0.00000000000E+00  0.00000000000E+00  0.35740347158E-01  0.35744000000E-01  0.51099999109E-03 0.  1.
       11   -1    0    0    0    0 -0.00000000000E+00 -0.00000000000E+00 -0.35740347158E-01  0.35744000000E-01  0.51099999109E-03 0. -1.
       22    1    1    2    0    0  0.19000290275E-02  0.61357495554E-02  0.35155028829E-01  0.35737005818E-01  0.00000000000E+00 0.  1.
  9000001    1    1    2    0    0 -0.19000290275E-02 -0.61357495554E-02 -0.35155028829E-01  0.35750994182E-01  0.10000000475E-02 0. -1.
</event>
<event>
 4   0  0.4892667E-02  0.9118800E+02  0.7818609E-02  0.1379984E+01
      -11   -1    0    0    0    0  0.00000000000E+00  0.00000000000E+00  0.35740347158E-01  0.35744000000E-01  0.51099999109E-03 0. -1.
       11   -1    0    0    0    0 -0.00000000000E+00 -0.00000000000E+00 -0.35740347158E-01  0.35744000000E-01  0.51099999109E-03 0.  1.
       22    1    1    2    0    0  0.77406504999E-02  0.24240614969E-02 -0.34804307788E-01  0.35737005818E-01  0.00000000000E+00 0.  1.
  9000001    1    1    2    0    0 -0.77406504999E-02 -0.24240614969E-02  0.34804307788E-01  0.35750994182E-01  0.10000000475E-02 0. -1.
</event>
<event>
 4   0  0.4892667E-02  0.9118800E+02  0.7818609E-02  0.1379984E+01
      -11   -1    0    0    0    0  0.00000000000E+00  0.00000000000E+00  0.35740347158E-01  0.35744000000E-01  0.51099999109E-03 0.  1.
       11   -1    0    0    0    0 -0.00000000000E+00 -0.00000000000E+00 -0.35740347158E-01  0.35744000000E-01  0.51099999109E-03 0. -1.
       22    1    1    2    0    0  0.55393211910E-02 -0.12251981489E-02 -0.35283826254E-01  0.35737005818E-01  0.00000000000E+00 0. -1.
  9000001    1    1    2    0    0 -0.55393211910E-02  0.12251981489E-02  0.35283826254E-01  0.35750994182E-01  0.10000000475E-02 0.  1.
</event>
<event>
 4   0  0.4892667E-02  0.9118800E+02  0.7818609E-02  0.1379984E+01
      -11   -1    0    0    0    0  0.00000000000E+00  0.00000000000E+00  0.35740347158E-01  0.35744000000E-01  0.51099999109E-03 0.  1.
       11   -1    0    0    0    0 -0.00000000000E+00 -0.00000000000E+00 -0.35740347158E-01  0.35744000000E-01  0.51099999109E-03 0. -1.
       22    1    1    2    0    0  0.27372055243E-01 -0.70344351455E-02  0.21872834723E-01  0.35737005818E-01  0.00000000000E+00 0.  1.
  9000001    1    1    2    0    0 -0.27372055243E-01  0.70344351455E-02 -0.21872834723E-01  0.35750994182E-01  0.10000000475E-02 0. -1.
</event>
<event>
 4   0  0.4892667E-02  0.9118800E+02  0.7818609E-02  0.1379984E+01
      -11   -1    0    0    0    0  0.00000000000E+00  0.00000000000E+00  0.35740347158E-01  0.35744000000E-01  0.51099999109E-03 0.  1.
       11   -1    0    0    0    0 -0.00000000000E+00 -0.00000000000E+00 -0.35740347158E-01  0.35744000000E-01  0.51099999109E-03 0. -1.
       22    1    1    2    0    0  0.12301090278E-02 -0.24760476659E-01 -0.25739837068E-01  0.35737005818E-01  0.00000000000E+00 0. -1.
  9000001    1    1    2    0    0 -0.12301090278E-02  0.24760476659E-01  0.25739837068E-01  0.35750994182E-01  0.10000000475E-02 0.  1.
</event>
<event>
 4   0  0.4892667E-02  0.9118800E+02  0.7818609E-02  0.1379984E+01
      -11   -1    0    0    0    0  0.00000000000E+00  0.00000000000E+00  0.35740347158E-01  0.35744000000E-01  0.51099999109E-03 0.  1.
       11   -1    0    0    0    0 -0.00000000000E+00 -0.00000000000E+00 -0.35740347158E-01  0.35744000000E-01  0.51099999109E-03 0. -1.
       22    1    1    2    0    0 -0.51011562367E-02  0.96209176695E-03 -0.35357971794E-01  0.35737005818E-01  0.00000000000E+00 0. -1.
  9000001    1    1    2    0    0  0.51011562367E-02 -0.96209176695E-03  0.35357971794E-01  0.35750994182E-01  0.10000000475E-02 0.  1.
</event>
<event>
 4   0  0.4892667E-02  0.9118800E+02  0.7818609E-02  0.1379984E+01
      -11   -1    0    0    0    0  0.00000000000E+00  0.00000000000E+00  0.35740347158E-01  0.35744000000E-01  0.51099999109E-03 0.  1.
       11   -1    0    0    0    0 -0.00000000000E+00 -0.00000000000E+00 -0.35740347158E-01  0.35744000000E-01  0.51099999109E-03 0. -1.
       22    1    1    2    0    0 -0.49066382472E-02 -0.80558169246E-02 -0.34469730194E-01  0.35737005818E-01  0.00000000000E+00 0. -1.
  9000001    1    1    2    0    0  0.49066382472E-02  0.80558169246E-02  0.34469730194E-01  0.35750994182E-01  0.10000000475E-02 0.  1.
</event>
<event>
 4   0  0.4892667E-02  0.9118800E+02  0.7818609E-02  0.1379984E+01
      -11   -1    0    0    0    0  0.00000000000E+00  0.00000000000E+00  0.35740347158E-01  0.35744000000E-01  0.51099999109E-03 0. -1.
       11   -1    0    0    0    0 -0.00000000000E+00 -0.00000000000E+00 -0.35740347158E-01  0.35744000000E-01  0.51099999109E-03 0.  1.
       22    1    1    2    0    0 -0.11283627221E-01 -0.92577746225E-02  0.32620652211E-01  0.35737005818E-01  0.00000000000E+00 0. -1.
  9000001    1    1    2    0    0  0.11283627221E-01  0.92577746225E-02 -0.32620652211E-01  0.35750994182E-01  0.10000000475E-02 0.  1.
</event>
<event>
 4   0  0.4892667E-02  0.9118800E+02  0.7818609E-02  0.1379984E+01
      -11   -1    0    0    0    0  0.00000000000E+00  0.00000000000E+00  0.35740347158E-01  0.35744000000E-01  0.51099999109E-03 0. -1.
       11   -1    0    0    0    0 -0.00000000000E+00 -0.00000000000E+00 -0.35740347158E-01  0.35744000000E-01  0.51099999109E-03 0.  1.
       22    1    1    2    0    0 -0.25124905198E-01 -0.82039620087E-02 -0.24053434912E-01  0.35737005818E-01  0.00000000000E+00 0.  1.
  9000001    1    1    2    0    0  0.25124905198E-01  0.82039620087E-02  0.24053434912E-01  0.35750994182E-01  0.10000000475E-02 0. -1.
</event>
<event>
 4   0  0.4892667E-02  0.9118800E+02  0.7818609E-02  0.1379984E+01
      -11   -1    0    0    0    0  0.00000000000E+00  0.00000000000E+00  0.35740347158E-01  0.35744000000E-01  0.51099999109E-03 0.  1.
       11   -1    0    0    0    0 -0.00000000000E+00 -0.00000000000E+00 -0.35740347158E-01  0.35744000000E-01  0.51099999109E-03 0. -1.
       22    1    1    2    0    0  0.17817030410E-01  0.14025639877E-01  0.27621883323E-01  0.35737005818E-01  0.00000000000E+00 0.  1.
  9000001    1    1    2    0    0 -0.17817030410E-01 -0.14025639877E-01 -0.27621883323E-01  0.35750994182E-01  0.10000000475E-02 0. -1.
</event>
<event>
 4   0  0.4892667E-02  0.9118800E+02  0.7818609E-02  0.1379984E+01
      -11   -1    0    0    0    0  0.00000000000E+00  0.00000000000E+00  0.35740347158E-01  0.35744000000E-01  0.51099999109E-03 0.  1.
       11   -1    0    0    0    0 -0.00000000000E+00 -0.00000000000E+00 -0.35740347158E-01  0.35744000000E-01  0.51099999109E-03 0. -1.
       22    1    1    2    0    0 -0.13749665645E-01 -0.25197465435E-01 -0.21287743309E-01  0.35737005818E-01  0.00000000000E+00 0. -1.
  9000001    1    1    2    0    0  0.13749665645E-01  0.25197465435E-01  0.21287743309E-01  0.35750994182E-01  0.10000000475E-02 0.  1.
</event>
<event>
 4   0  0.4892667E-02  0.9118800E+02  0.7818609E-02  0.1379984E+01
      -11   -1    0    0    0    0  0.00000000000E+00  0.00000000000E+00  0.35740347158E-01  0.35744000000E-01  0.51099999109E-03 0.  1.
       11   -1    0    0    0    0 -0.00000000000E+00 -0.00000000000E+00 -0.35740347158E-01  0.35744000000E-01  0.51099999109E-03 0. -1.
       22    1    1    2    0    0  0.72359048881E-02 -0.50871366694E-02 -0.34625082034E-01  0.35737005818E-01  0.00000000000E+00 0. -1.
  9000001    1    1    2    0    0 -0.72359048881E-02  0.50871366694E-02  0.34625082034E-01  0.35750994182E-01  0.10000000475E-02 0.  1.
</event>
<event>
 4   0  0.4892667E-02  0.9118800E+02  0.7818609E-02  0.1379984E+01
      -11   -1    0    0    0    0  0.00000000000E+00  0.00000000000E+00  0.35740347158E-01  0.35744000000E-01  0.51099999109E-03 0. -1.
       11   -1    0    0    0    0 -0.00000000000E+00 -0.00000000000E+00 -0.35740347158E-01  0.35744000000E-01  0.51099999109E-03 0.  1.
       22    1    1    2    0    0 -0.18542460241E-01  0.83651250437E-02  0.29382570277E-01  0.35737005818E-01  0.00000000000E+00 0. -1.
  9000001    1    1    2    0    0  0.18542460241E-01 -0.83651250437E-02 -0.29382570277E-01  0.35750994182E-01  0.10000000475E-02 0.  1.
</event>
<event>
 4   0  0.4892667E-02  0.9118800E+02  0.7818609E-02  0.1379984E+01
      -11   -1    0    0    0    0  0.00000000000E+00  0.00000000000E+00  0.35740347158E-01  0.35744000000E-01  0.51099999109E-03 0.  1.
       11   -1    0    0    0    0 -0.00000000000E+00 -0.00000000000E+00 -0.35740347158E-01  0.35744000000E-01  0.51099999109E-03 0. -1.
       22    1    1    2    0    0 -0.18177185862E-01 -0.95562153366E-02 -0.29247260512E-01  0.35737005818E-01  0.00000000000E+00 0. -1.
  9000001    1    1    2    0    0  0.18177185862E-01  0.95562153366E-02  0.29247260512E-01  0.35750994182E-01  0.10000000475E-02 0.  1.
</event>
<event>
 4   0  0.4892667E-02  0.9118800E+02  0.7818609E-02  0.1379984E+01
      -11   -1    0    0    0    0  0.00000000000E+00  0.00000000000E+00  0.35740347158E-01  0.35744000000E-01  0.51099999109E-03 0.  1.
       11   -1    0    0    0    0 -0.00000000000E+00 -0.00000000000E+00 -0.35740347158E-01  0.35744000000E-01  0.51099999109E-03 0. -1.
       22    1    1    2    0    0  0.21352007409E-02 -0.12385398886E-01 -0.33454093877E-01  0.35737005818E-01  0.00000000000E+00 0. -1.
  9000001    1    1    2    0    0 -0.21352007409E-02  0.12385398886E-01  0.33454093877E-01  0.35750994182E-01  0.10000000475E-02 0.  1.
</event>
<event>
 4   0  0.4892667E-02  0.9118800E+02  0.7818609E-02  0.1379984E+01
      -11   -1    0    0    0    0  0.00000000000E+00  0.00000000000E+00  0.35740347158E-01  0.35744000000E-01  0.51099999109E-03 0. -1.
       11   -1    0    0    0    0 -0.00000000000E+00 -0.00000000000E+00 -0.35740347158E-01  0.35744000000E-01  0.51099999109E-03 0.  1.
       22    1    1    2    0    0  0.46359470079E-02 -0.21450213709E-02 -0.35370050375E-01  0.35737005818E-01  0.00000000000E+00 0.  1.
  9000001    1    1    2    0    0 -0.46359470079E-02  0.21450213709E-02  0.35370050375E-01  0.35750994182E-01  0.10000000475E-02 0. -1.
</event>
<event>
 4   0  0.4892667E-02  0.9118800E+02  0.7818609E-02  0.1379984E+01
      -11   -1    0    0    0    0  0.00000000000E+00  0.00000000000E+00  0.35740347158E-01  0.35744000000E-01  0.51099999109E-03 0.  1.
       11   -1    0    0    0    0 -0.00000000000E+00 -0.00000000000E+00 -0.35740347158E-01  0.35744000000E-01  0.51099999109E-03 0. -1.
       22    1    1    2    0    0 -0.45328988499E-03 -0.32797910445E-02 -0.35583297822E-01  0.35737005818E-01  0.00000000000E+00 0. -1.
  9000001    1    1    2    0    0  0.45328988499E-03  0.32797910445E-02  0.35583297822E-01  0.35750994182E-01  0.10000000475E-02 0.  1.
</event>
<event>
 4   0  0.4892667E-02  0.9118800E+02  0.7818609E-02  0.1379984E+01
      -11   -1    0    0    0    0  0.00000000000E+00  0.00000000000E+00  0.35740347158E-01  0.35744000000E-01  0.51099999109E-03 0.  1.
       11   -1    0    0    0    0 -0.00000000000E+00 -0.00000000000E+00 -0.35740347158E-01  0.35744000000E-01  0.51099999109E-03 0. -1.
       22    1    1    2    0    0 -0.14987079178E-01  0.57771192439E-03  0.32437436574E-01  0.35737005818E-01  0.00000000000E+00 0.  1.
  9000001    1    1    2    0    0  0.14987079178E-01 -0.57771192439E-03 -0.32437436574E-01  0.35750994182E-01  0.10000000475E-02 0. -1.
</event>
<event>
 4   0  0.4892667E-02  0.9118800E+02  0.7818609E-02  0.1379984E+01
      -11   -1    0    0    0    0  0.00000000000E+00  0.00000000000E+00  0.35740347158E-01  0.35744000000E-01  0.51099999109E-03 0. -1.
       11   -1    0    0    0    0 -0.00000000000E+00 -0.00000000000E+00 -0.35740347158E-01  0.35744000000E-01  0.51099999109E-03 0.  1.
       22    1    1    2    0    0 -0.43102380893E-02  0.16159978209E-02  0.35439299986E-01  0.35737005818E-01  0.00000000000E+00 0. -1.
  9000001    1    1    2    0    0  0.43102380893E-02 -0.16159978209E-02 -0.35439299986E-01  0.35750994182E-01  0.10000000475E-02 0.  1.
</event>
<event>
 4   0  0.4892667E-02  0.9118800E+02  0.7818609E-02  0.1379984E+01
      -11   -1    0    0    0    0  0.00000000000E+00  0.00000000000E+00  0.35740347158E-01  0.35744000000E-01  0.51099999109E-03 0. -1.
       11   -1    0    0    0    0 -0.00000000000E+00 -0.00000000000E+00 -0.35740347158E-01  0.35744000000E-01  0.51099999109E-03 0.  1.
       22    1    1    2    0    0  0.12963823278E-01 -0.11592625380E-01 -0.31219928054E-01  0.35737005818E-01  0.00000000000E+00 0.  1.
  9000001    1    1    2    0    0 -0.12963823278E-01  0.11592625380E-01  0.31219928054E-01  0.35750994182E-01  0.10000000475E-02 0. -1.
</event>
<event>
 4   0  0.4892667E-02  0.9118800E+02  0.7818609E-02  0.1379984E+01
      -11   -1    0    0    0    0  0.00000000000E+00  0.00000000000E+00  0.35740347158E-01  0.35744000000E-01  0.51099999109E-03 0. -1.
       11   -1    0    0    0    0 -0.00000000000E+00 -0.00000000000E+00 -0.35740347158E-01  0.35744000000E-01  0.51099999109E-03 0.  1.
       22    1    1    2    0    0  0.54685300832E-02  0.35504276370E-03  0.35314341396E-01  0.35737005818E-01  0.00000000000E+00 0. -1.
  9000001    1    1    2    0    0 -0.54685300832E-02 -0.35504276370E-03 -0.35314341396E-01  0.35750994182E-01  0.10000000475E-02 0.  1.
</event>
<event>
 4   0  0.4892667E-02  0.9118800E+02  0.7818609E-02  0.1379984E+01
      -11   -1    0    0    0    0  0.00000000000E+00  0.00000000000E+00  0.35740347158E-01  0.35744000000E-01  0.51099999109E-03 0.  1.
       11   -1    0    0    0    0 -0.00000000000E+00 -0.00000000000E+00 -0.35740347158E-01  0.35744000000E-01  0.51099999109E-03 0. -1.
       22    1    1    2    0    0 -0.26725343428E-02  0.38811404652E-02  0.35424961450E-01  0.35737005818E-01  0.00000000000E+00 0.  1.
  9000001    1    1    2    0    0  0.26725343428E-02 -0.38811404652E-02 -0.35424961450E-01  0.35750994182E-01  0.10000000475E-02 0. -1.
</event>
<event>
 4   0  0.4892667E-02  0.9118800E+02  0.7818609E-02  0.1379984E+01
      -11   -1    0    0    0    0  0.00000000000E+00  0.00000000000E+00  0.35740347158E-01  0.35744000000E-01  0.51099999109E-03 0. -1.
       11   -1    0    0    0    0 -0.00000000000E+00 -0.00000000000E+00 -0.35740347158E-01  0.35744000000E-01  0.51099999109E-03 0.  1.
       22    1    1    2    0    0  0.96792525486E-02  0.13211833785E-01 -0.31763077669E-01  0.35737005818E-01  0.00000000000E+00 0.  1.
  9000001    1    1    2    0    0 -0.96792525486E-02 -0.13211833785E-01  0.31763077669E-01  0.35750994182E-01  0.10000000475E-02 0. -1.
</event>
<event>
 4   0  0.4892667E-02  0.9118800E+02  0.7818609E-02  0.1379984E+01
      -11   -1    0    0    0    0  0.00000000000E+00  0.00000000000E+00  0.35740347158E-01  0.35744000000E-01  0.51099999109E-03 0.  1.
       11   -1    0    0    0    0 -0.00000000000E+00 -0.00000000000E+00 -0.35740347158E-01  0.35744000000E-01  0.51099999109E-03 0. -1.
       22    1    1    2    0    0  0.10599421024E-02 -0.63803176961E-02  0.35146858376E-01  0.35737005818E-01  0.00000000000E+00 0.  1.
  9000001    1    1    2    0    0 -0.10599421024E-02  0.63803176961E-02 -0.35146858376E-01  0.35750994182E-01  0.10000000475E-02 0. -1.
</event>
<event>
 4   0  0.4892667E-02  0.9118800E+02  0.7818609E-02  0.1379984E+01
      -11   -1    0    0    0    0  0.00000000000E+00  0.00000000000E+00  0.35740347158E-01  0.35744000000E-01  0.51099999109E-03 0. -1.
       11   -1    0    0    0    0 -0.00000000000E+00 -0.00000000000E+00 -0.35740347158E-01  0.35744000000E-01  0.51099999109E-03 0.  1.
       22    1    1    2    0    0 -0.31059757307E-01  0.10365712221E-01  0.14317020327E-01  0.35737005818E-01  0.00000000000E+00 0. -1.
  9000001    1    1    2    0    0  0.31059757307E-01 -0.10365712221E-01 -0.14317020327E-01  0.35750994182E-01  0.10000000475E-02 0.  1.
</event>
<event>
 4   0  0.4892667E-02  0.9118800E+02  0.7818609E-02  0.1379984E+01
      -11   -1    0    0    0    0  0.00000000000E+00  0.00000000000E+00  0.35740347158E-01  0.35744000000E-01  0.51099999109E-03 0.  1.
       11   -1    0    0    0    0 -0.00000000000E+00 -0.00000000000E+00 -0.35740347158E-01  0.35744000000E-01  0.51099999109E-03 0. -1.
       22    1    1    2    0    0 -0.63451165264E-02 -0.73448668030E-02  0.34393691468E-01  0.35737005818E-01  0.00000000000E+00 0.  1.
  9000001    1    1    2    0    0  0.63451165264E-02  0.73448668030E-02 -0.34393691468E-01  0.35750994182E-01  0.10000000475E-02 0. -1.
</event>
<event>
 4   0  0.4892667E-02  0.9118800E+02  0.7818609E-02  0.1379984E+01
      -11   -1    0    0    0    0  0.00000000000E+00  0.00000000000E+00  0.35740347158E-01  0.35744000000E-01  0.51099999109E-03 0.  1.
       11   -1    0    0    0    0 -0.00000000000E+00 -0.00000000000E+00 -0.35740347158E-01  0.35744000000E-01  0.51099999109E-03 0. -1.
       22    1    1    2    0    0  0.21194754911E-01  0.12930399187E-01 -0.25704488441E-01  0.35737005818E-01  0.00000000000E+00 0. -1.
  9000001    1    1    2    0    0 -0.21194754911E-01 -0.12930399187E-01  0.25704488441E-01  0.35750994182E-01  0.10000000475E-02 0.  1.
</event>
<event>
 4   0  0.4892667E-02  0.9118800E+02  0.7818609E-02  0.1379984E+01
      -11   -1    0    0    0    0  0.00000000000E+00  0.00000000000E+00  0.35740347158E-01  0.35744000000E-01  0.51099999109E-03 0. -1.
       11   -1    0    0    0    0 -0.00000000000E+00 -0.00000000000E+00 -0.35740347158E-01  0.35744000000E-01  0.51099999109E-03 0.  1.
       22    1    1    2    0    0  0.29211522897E-02 -0.38614137924E-02 -0.35407484205E-01  0.35737005818E-01  0.00000000000E+00 0.  1.
  9000001    1    1    2    0    0 -0.29211522897E-02  0.38614137924E-02  0.35407484205E-01  0.35750994182E-01  0.10000000475E-02 0. -1.
</event>
<event>
 4   0  0.4892667E-02  0.9118800E+02  0.7818609E-02  0.1379984E+01
      -11   -1    0    0    0    0  0.00000000000E+00  0.00000000000E+00  0.35740347158E-01  0.35744000000E-01  0.51099999109E-03 0.  1.
       11   -1    0    0    0    0 -0.00000000000E+00 -0.00000000000E+00 -0.35740347158E-01  0.35744000000E-01  0.51099999109E-03 0. -1.
       22    1    1    2    0    0 -0.14024792321E-02  0.58217959608E-02  0.35231709136E-01  0.35737005818E-01  0.00000000000E+00 0.  1.
  9000001    1    1    2    0    0  0.14024792321E-02 -0.58217959608E-02 -0.35231709136E-01  0.35750994182E-01  0.10000000475E-02 0. -1.
</event>
<event>
 4   0  0.4892667E-02  0.9118800E+02  0.7818609E-02  0.1379984E+01
      -11   -1    0    0    0    0  0.00000000000E+00  0.00000000000E+00  0.35740347158E-01  0.35744000000E-01  0.51099999109E-03 0.  1.
       11   -1    0    0    0    0 -0.00000000000E+00 -0.00000000000E+00 -0.35740347158E-01  0.35744000000E-01  0.51099999109E-03 0. -1.
       22    1    1    2    0    0  0.84658483973E-02 -0.54270988252E-02  0.34292996284E-01  0.35737005818E-01  0.00000000000E+00 0. -1.
  9000001    1    1    2    0    0 -0.84658483973E-02  0.54270988252E-02 -0.34292996284E-01  0.35750994182E-01  0.10000000475E-02 0.  1.
</event>
<event>
 4   0  0.4892667E-02  0.9118800E+02  0.7818609E-02  0.1379984E+01
      -11   -1    0    0    0    0  0.00000000000E+00  0.00000000000E+00  0.35740347158E-01  0.35744000000E-01  0.51099999109E-03 0. -1.
       11   -1    0    0    0    0 -0.00000000000E+00 -0.00000000000E+00 -0.35740347158E-01  0.35744000000E-01  0.51099999109E-03 0.  1.
       22    1    1    2    0    0 -0.92237458561E-02 -0.98020108880E-02 -0.33105538506E-01  0.35737005818E-01  0.00000000000E+00 0.  1.
  9000001    1    1    2    0    0  0.92237458561E-02  0.98020108880E-02  0.33105538506E-01  0.35750994182E-01  0.10000000475E-02 0. -1.
</event>
<event>
 4   0  0.4892667E-02  0.9118800E+02  0.7818609E-02  0.1379984E+01
      -11   -1    0    0    0    0  0.00000000000E+00  0.00000000000E+00  0.35740347158E-01  0.35744000000E-01  0.51099999109E-03 0.  1.
       11   -1    0    0    0    0 -0.00000000000E+00 -0.00000000000E+00 -0.35740347158E-01  0.35744000000E-01  0.51099999109E-03 0. -1.
       22    1    1    2    0    0 -0.33321474171E-02  0.61327184527E-02 -0.35048825128E-01  0.35737005818E-01  0.00000000000E+00 0. -1.
  9000001    1    1    2    0    0  0.33321474171E-02 -0.61327184527E-02  0.35048825128E-01  0.35750994182E-01  0.10000000475E-02 0.  1.
</event>
<event>
 4   0  0.4892667E-02  0.9118800E+02  0.7818609E-02  0.1379984E+01
      -11   -1    0    0    0    0  0.00000000000E+00  0.00000000000E+00  0.35740347158E-01  0.35744000000E-01  0.51099999109E-03 0. -1.
       11   -1    0    0    0    0 -0.00000000000E+00 -0.00000000000E+00 -0.35740347158E-01  0.35744000000E-01  0.51099999109E-03 0.  1.
       22    1    1    2    0    0  0.98161555295E-04 -0.64771354036E-02 -0.35144994895E-01  0.35737005818E-01  0.00000000000E+00 0.  1.
  9000001    1    1    2    0    0 -0.98161555295E-04  0.64771354036E-02  0.35144994895E-01  0.35750994182E-01  0.10000000475E-02 0. -1.
</event>
<event>
 4   0  0.4892667E-02  0.9118800E+02  0.7818609E-02  0.1379984E+01
      -11   -1    0    0    0    0  0.00000000000E+00  0.00000000000E+00  0.35740347158E-01  0.35744000000E-01  0.51099999109E-03 0. -1.
       11   -1    0    0    0    0 -0.00000000000E+00 -0.00000000000E+00 -0.35740347158E-01  0.35744000000E-01  0.51099999109E-03 0.  1.
       22    1    1    2    0    0  0.50049449527E-02  0.38161725579E-02 -0.35178415796E-01  0.35737005818E-01  0.00000000000E+00 0.  1.
  9000001    1    1    2    0    0 -0.50049449527E-02 -0.38161725579E-02  0.35178415796E-01  0.35750994182E-01  0.10000000475E-02 0. -1.
</event>
<event>
 4   0  0.4892667E-02  0.9118800E+02  0.7818609E-02  0.1379984E+01
      -11   -1    0    0    0    0  0.00000000000E+00  0.00000000000E+00  0.35740347158E-01  0.35744000000E-01  0.51099999109E-03 0.  1.
       11   -1    0    0    0    0 -0.00000000000E+00 -0.00000000000E+00 -0.35740347158E-01  0.35744000000E-01  0.51099999109E-03 0. -1.
       22    1    1    2    0    0 -0.42220910304E-02 -0.10202772949E-02  0.35472053316E-01  0.35737005818E-01  0.00000000000E+00 0.  1.
  9000001    1    1    2    0    0  0.42220910304E-02  0.10202772949E-02 -0.35472053316E-01  0.35750994182E-01  0.10000000475E-02 0. -1.
</event>
<event>
 4   0  0.4892667E-02  0.9118800E+02  0.7818609E-02  0.1379984E+01
      -11   -1    0    0    0    0  0.00000000000E+00  0.00000000000E+00  0.35740347158E-01  0.35744000000E-01  0.51099999109E-03 0. -1.
       11   -1    0    0    0    0 -0.00000000000E+00 -0.00000000000E+00 -0.35740347158E-01  0.35744000000E-01  0.51099999109E-03 0.  1.
       22    1    1    2    0    0 -0.96582293207E-02  0.10473202651E-02  0.34391209800E-01  0.35737005818E-01  0.00000000000E+00 0. -1.
  9000001    1    1    2    0    0  0.96582293207E-02 -0.10473202651E-02 -0.34391209800E-01  0.35750994182E-01  0.10000000475E-02 0.  1.
</event>
<event>
 4   0  0.4892667E-02  0.9118800E+02  0.7818609E-02  0.1379984E+01
      -11   -1    0    0    0    0  0.00000000000E+00  0.00000000000E+00  0.35740347158E-01  0.35744000000E-01  0.51099999109E-03 0. -1.
       11   -1    0    0    0    0 -0.00000000000E+00 -0.00000000000E+00 -0.35740347158E-01  0.35744000000E-01  0.51099999109E-03 0.  1.
       22    1    1    2    0    0 -0.13430630145E-01 -0.30103571818E-02 -0.32980138090E-01  0.35737005818E-01  0.00000000000E+00 0.  1.
  9000001    1    1    2    0    0  0.13430630145E-01  0.30103571818E-02  0.32980138090E-01  0.35750994182E-01  0.10000000475E-02 0. -1.
</event>
<event>
 4   0  0.4892667E-02  0.9118800E+02  0.7818609E-02  0.1379984E+01
      -11   -1    0    0    0    0  0.00000000000E+00  0.00000000000E+00  0.35740347158E-01  0.35744000000E-01  0.51099999109E-03 0. -1.
       11   -1    0    0    0    0 -0.00000000000E+00 -0.00000000000E+00 -0.35740347158E-01  0.35744000000E-01  0.51099999109E-03 0.  1.
       22    1    1    2    0    0 -0.64291169688E-02  0.19182628913E-02  0.35101571295E-01  0.35737005818E-01  0.00000000000E+00 0. -1.
  9000001    1    1    2    0    0  0.64291169688E-02 -0.19182628913E-02 -0.35101571295E-01  0.35750994182E-01  0.10000000475E-02 0.  1.
</event>
<event>
 4   0  0.4892667E-02  0.9118800E+02  0.7818609E-02  0.1379984E+01
      -11   -1    0    0    0    0  0.00000000000E+00  0.00000000000E+00  0.35740347158E-01  0.35744000000E-01  0.51099999109E-03 0. -1.
       11   -1    0    0    0    0 -0.00000000000E+00 -0.00000000000E+00 -0.35740347158E-01  0.35744000000E-01  0.51099999109E-03 0.  1.
       22    1    1    2    0    0 -0.58691833363E-02 -0.42460594716E-02 -0.34995103240E-01  0.35737005818E-01  0.00000000000E+00 0.  1.
  9000001    1    1    2    0    0  0.58691833363E-02  0.42460594716E-02  0.34995103240E-01  0.35750994182E-01  0.10000000475E-02 0. -1.
</event>
<event>
 4   0  0.4892667E-02  0.9118800E+02  0.7818609E-02  0.1379984E+01
      -11   -1    0    0    0    0  0.00000000000E+00  0.00000000000E+00  0.35740347158E-01  0.35744000000E-01  0.51099999109E-03 0. -1.
       11   -1    0    0    0    0 -0.00000000000E+00 -0.00000000000E+00 -0.35740347158E-01  0.35744000000E-01  0.51099999109E-03 0.  1.
       22    1    1    2    0    0  0.19660445811E-01 -0.29072288207E-01 -0.67381387509E-02  0.35737005818E-01  0.00000000000E+00 0.  1.
  9000001    1    1    2    0    0 -0.19660445811E-01  0.29072288207E-01  0.67381387509E-02  0.35750994182E-01  0.10000000475E-02 0. -1.
</event>
<event>
 4   0  0.4892667E-02  0.9118800E+02  0.7818609E-02  0.1379984E+01
      -11   -1    0    0    0    0  0.00000000000E+00  0.00000000000E+00  0.35740347158E-01  0.35744000000E-01  0.51099999109E-03 0.  1.
       11   -1    0    0    0    0 -0.00000000000E+00 -0.00000000000E+00 -0.35740347158E-01  0.35744000000E-01  0.51099999109E-03 0. -1.
       22    1    1    2    0    0  0.49943738876E-03 -0.33707185334E-02 -0.35574181702E-01  0.35737005818E-01  0.00000000000E+00 0. -1.
  9000001    1    1    2    0    0 -0.49943738876E-03  0.33707185334E-02  0.35574181702E-01  0.35750994182E-01  0.10000000475E-02 0.  1.
</event>
<event>
 4   0  0.4892667E-02  0.9118800E+02  0.7818609E-02  0.1379984E+01
      -11   -1    0    0    0    0  0.00000000000E+00  0.00000000000E+00  0.35740347158E-01  0.35744000000E-01  0.51099999109E-03 0.  1.
       11   -1    0    0    0    0 -0.00000000000E+00 -0.00000000000E+00 -0.35740347158E-01  0.35744000000E-01  0.51099999109E-03 0. -1.
       22    1    1    2    0    0 -0.89995367474E-02 -0.20692277747E-01  0.27712299884E-01  0.35737005818E-01  0.00000000000E+00 0.  1.
  9000001    1    1    2    0    0  0.89995367474E-02  0.20692277747E-01 -0.27712299884E-01  0.35750994182E-01  0.10000000475E-02 0. -1.
</event>
<event>
 4   0  0.4892667E-02  0.9118800E+02  0.7818609E-02  0.1379984E+01
      -11   -1    0    0    0    0  0.00000000000E+00  0.00000000000E+00  0.35740347158E-01  0.35744000000E-01  0.51099999109E-03 0. -1.
       11   -1    0    0    0    0 -0.00000000000E+00 -0.00000000000E+00 -0.35740347158E-01  0.35744000000E-01  0.51099999109E-03 0.  1.
       22    1    1    2    0    0 -0.27279237483E-01  0.10255821722E-03 -0.23086062224E-01  0.35737005818E-01  0.00000000000E+00 0.  1.
  9000001    1    1    2    0    0  0.27279237483E-01 -0.10255821722E-03  0.23086062224E-01  0.35750994182E-01  0.10000000475E-02 0. -1.
</event>
<event>
 4   0  0.4892667E-02  0.9118800E+02  0.7818609E-02  0.1379984E+01
      -11   -1    0    0    0    0  0.00000000000E+00  0.00000000000E+00  0.35740347158E-01  0.35744000000E-01  0.51099999109E-03 0.  1.
       11   -1    0    0    0    0 -0.00000000000E+00 -0.00000000000E+00 -0.35740347158E-01  0.35744000000E-01  0.51099999109E-03 0. -1.
       22    1    1    2    0    0 -0.16423144794E-02  0.73521002524E-02  0.34933980734E-01  0.35737005818E-01  0.00000000000E+00 0.  1.
  9000001    1    1    2    0    0  0.16423144794E-02 -0.73521002524E-02 -0.34933980734E-01  0.35750994182E-01  0.10000000475E-02 0. -1.
</event>
<event>
 4   0  0.4892667E-02  0.9118800E+02  0.7818609E-02  0.1379984E+01
      -11   -1    0    0    0    0  0.00000000000E+00  0.00000000000E+00  0.35740347158E-01  0.35744000000E-01  0.51099999109E-03 0.  1.
       11   -1    0    0    0    0 -0.00000000000E+00 -0.00000000000E+00 -0.35740347158E-01  0.35744000000E-01  0.51099999109E-03 0. -1.
       22    1    1    2    0    0 -0.21507017685E-01 -0.44283330502E-02 -0.28195241470E-01  0.35737005818E-01  0.00000000000E+00 0. -1.
  9000001    1    1    2    0    0  0.21507017685E-01  0.44283330502E-02  0.28195241470E-01  0.35750994182E-01  0.10000000475E-02 0.  1.
</event>
<event>
 4   0  0.4892667E-02  0.9118800E+02  0.7818609E-02  0.1379984E+01
      -11   -1    0    0    0    0  0.00000000000E+00  0.00000000000E+00  0.35740347158E-01  0.35744000000E-01  0.51099999109E-03 0. -1.
       11   -1    0    0    0    0 -0.00000000000E+00 -0.00000000000E+00 -0.35740347158E-01  0.35744000000E-01  0.51099999109E-03 0.  1.
       22    1    1    2    0    0 -0.28185651785E-02 -0.53423907389E-02  0.35222835440E-01  0.35737005818E-01  0.00000000000E+00 0. -1.
  9000001    1    1    2    0    0  0.28185651785E-02  0.53423907389E-02 -0.35222835440E-01  0.35750994182E-01  0.10000000475E-02 0.  1.
</event>
<event>
 4   0  0.4892667E-02  0.9118800E+02  0.7818609E-02  0.1379984E+01
      -11   -1    0    0    0    0  0.00000000000E+00  0.00000000000E+00  0.35740347158E-01  0.35744000000E-01  0.51099999109E-03 0. -1.
       11   -1    0    0    0    0 -0.00000000000E+00 -0.00000000000E+00 -0.35740347158E-01  0.35744000000E-01  0.51099999109E-03 0.  1.
       22    1    1    2    0    0  0.99292208401E-03  0.43233323420E-02 -0.35460632934E-01  0.35737005818E-01  0.00000000000E+00 0.  1.
  9000001    1    1    2    0    0 -0.99292208401E-03 -0.43233323420E-02  0.35460632934E-01  0.35750994182E-01  0.10000000475E-02 0. -1.
</event>
<event>
 4   0  0.4892667E-02  0.9118800E+02  0.7818609E-02  0.1379984E+01
      -11   -1    0    0    0    0  0.00000000000E+00  0.00000000000E+00  0.35740347158E-01  0.35744000000E-01  0.51099999109E-03 0. -1.
       11   -1    0    0    0    0 -0.00000000000E+00 -0.00000000000E+00 -0.35740347158E-01  0.35744000000E-01  0.51099999109E-03 0.  1.
       22    1    1    2    0    0 -0.61418120912E-02  0.67212403239E-02  0.34557729347E-01  0.35737005818E-01  0.00000000000E+00 0. -1.
  9000001    1    1    2    0    0  0.61418120912E-02 -0.67212403239E-02 -0.34557729347E-01  0.35750994182E-01  0.10000000475E-02 0.  1.
</event>
<event>
 4   0  0.4892667E-02  0.9118800E+02  0.7818609E-02  0.1379984E+01
      -11   -1    0    0    0    0  0.00000000000E+00  0.00000000000E+00  0.35740347158E-01  0.35744000000E-01  0.51099999109E-03 0. -1.
       11   -1    0    0    0    0 -0.00000000000E+00 -0.00000000000E+00 -0.35740347158E-01  0.35744000000E-01  0.51099999109E-03 0.  1.
       22    1    1    2    0    0  0.22015625851E-01  0.20882894355E-01 -0.18877248916E-01  0.35737005818E-01  0.00000000000E+00 0.  1.
  9000001    1    1    2    0    0 -0.22015625851E-01 -0.20882894355E-01  0.18877248916E-01  0.35750994182E-01  0.10000000475E-02 0. -1.
</event>
<event>
 4   0  0.4892667E-02  0.9118800E+02  0.7818609E-02  0.1379984E+01
      -11   -1    0    0    0    0  0.00000000000E+00  0.00000000000E+00  0.35740347158E-01  0.35744000000E-01  0.51099999109E-03 0. -1.
       11   -1    0    0    0    0 -0.00000000000E+00 -0.00000000000E+00 -0.35740347158E-01  0.35744000000E-01  0.51099999109E-03 0.  1.
       22    1    1    2    0    0 -0.11725273592E-01 -0.73762006258E-02 -0.32943029739E-01  0.35737005818E-01  0.00000000000E+00 0.  1.
  9000001    1    1    2    0    0  0.11725273592E-01  0.73762006258E-02  0.32943029739E-01  0.35750994182E-01  0.10000000475E-02 0. -1.
</event>
<event>
 4   0  0.4892667E-02  0.9118800E+02  0.7818609E-02  0.1379984E+01
      -11   -1    0    0    0    0  0.00000000000E+00  0.00000000000E+00  0.35740347158E-01  0.35744000000E-01  0.51099999109E-03 0.  1.
       11   -1    0    0    0    0 -0.00000000000E+00 -0.00000000000E+00 -0.35740347158E-01  0.35744000000E-01  0.51099999109E-03 0. -1.
       22    1    1    2    0    0  0.39154027511E-02  0.35212109440E-01  0.46808711719E-02  0.35737005818E-01  0.00000000000E+00 0. -1.
  9000001    1    1    2    0    0 -0.39154027511E-02 -0.35212109440E-01 -0.46808711719E-02  0.35750994182E-01  0.10000000475E-02 0.  1.
</event>
<event>
 4   0  0.4892667E-02  0.9118800E+02  0.7818609E-02  0.1379984E+01
      -11   -1    0    0    0    0  0.00000000000E+00  0.00000000000E+00  0.35740347158E-01  0.35744000000E-01  0.51099999109E-03 0. -1.
       11   -1    0    0    0    0 -0.00000000000E+00 -0.00000000000E+00 -0.35740347158E-01  0.35744000000E-01  0.51099999109E-03 0.  1.
       22    1    1    2    0    0  0.28209399300E-01  0.17958788457E-01  0.12603384195E-01  0.35737005818E-01  0.00000000000E+00 0. -1.
  9000001    1    1    2    0    0 -0.28209399300E-01 -0.17958788457E-01 -0.12603384195E-01  0.35750994182E-01  0.10000000475E-02 0.  1.
</event>
<event>
 4   0  0.4892667E-02  0.9118800E+02  0.7818609E-02  0.1379984E+01
      -11   -1    0    0    0    0  0.00000000000E+00  0.00000000000E+00  0.35740347158E-01  0.35744000000E-01  0.51099999109E-03 0.  1.
       11   -1    0    0    0    0 -0.00000000000E+00 -0.00000000000E+00 -0.35740347158E-01  0.35744000000E-01  0.51099999109E-03 0. -1.
       22    1    1    2    0    0 -0.47427420026E-02 -0.10959088684E-01  0.33682908995E-01  0.35737005818E-01  0.00000000000E+00 0.  1.
  9000001    1    1    2    0    0  0.47427420026E-02  0.10959088684E-01 -0.33682908995E-01  0.35750994182E-01  0.10000000475E-02 0. -1.
</event>
<event>
 4   0  0.4892667E-02  0.9118800E+02  0.7818609E-02  0.1379984E+01
      -11   -1    0    0    0    0  0.00000000000E+00  0.00000000000E+00  0.35740347158E-01  0.35744000000E-01  0.51099999109E-03 0.  1.
       11   -1    0    0    0    0 -0.00000000000E+00 -0.00000000000E+00 -0.35740347158E-01  0.35744000000E-01  0.51099999109E-03 0. -1.
       22    1    1    2    0    0 -0.91805043660E-02  0.29046004893E-01 -0.18686399444E-01  0.35737005818E-01  0.00000000000E+00 0. -1.
  9000001    1    1    2    0    0  0.91805043660E-02 -0.29046004893E-01  0.18686399444E-01  0.35750994182E-01  0.10000000475E-02 0.  1.
</event>
<event>
 4   0  0.4892667E-02  0.9118800E+02  0.7818609E-02  0.1379984E+01
      -11   -1    0    0    0    0  0.00000000000E+00  0.00000000000E+00  0.35740347158E-01  0.35744000000E-01  0.51099999109E-03 0.  1.
       11   -1    0    0    0    0 -0.00000000000E+00 -0.00000000000E+00 -0.35740347158E-01  0.35744000000E-01  0.51099999109E-03 0. -1.
       22    1    1    2    0    0 -0.14057983502E-01 -0.12437296800E-01  0.30410858801E-01  0.35737005818E-01  0.00000000000E+00 0.  1.
  9000001    1    1    2    0    0  0.14057983502E-01  0.12437296800E-01 -0.30410858801E-01  0.35750994182E-01  0.10000000475E-02 0. -1.
</event>
<event>
 4   0  0.4892667E-02  0.9118800E+02  0.7818609E-02  0.1379984E+01
      -11   -1    0    0    0    0  0.00000000000E+00  0.00000000000E+00  0.35740347158E-01  0.35744000000E-01  0.51099999109E-03 0.  1.
       11   -1    0    0    0    0 -0.00000000000E+00 -0.00000000000E+00 -0.35740347158E-01  0.35744000000E-01  0.51099999109E-03 0. -1.
       22    1    1    2    0    0 -0.28865126380E-02 -0.44771318077E-02  0.35337754887E-01  0.35737005818E-01  0.00000000000E+00 0.  1.
  9000001    1    1    2    0    0  0.28865126380E-02  0.44771318077E-02 -0.35337754887E-01  0.35750994182E-01  0.10000000475E-02 0. -1.
</event>
<event>
 4   0  0.4892667E-02  0.9118800E+02  0.7818609E-02  0.1379984E+01
      -11   -1    0    0    0    0  0.00000000000E+00  0.00000000000E+00  0.35740347158E-01  0.35744000000E-01  0.51099999109E-03 0. -1.
       11   -1    0    0    0    0 -0.00000000000E+00 -0.00000000000E+00 -0.35740347158E-01  0.35744000000E-01  0.51099999109E-03 0.  1.
       22    1    1    2    0    0 -0.20201229719E-02 -0.10682680510E-01 -0.34043105399E-01  0.35737005818E-01  0.00000000000E+00 0.  1.
  9000001    1    1    2    0    0  0.20201229719E-02  0.10682680510E-01  0.34043105399E-01  0.35750994182E-01  0.10000000475E-02 0. -1.
</event>
<event>
 4   0  0.4892667E-02  0.9118800E+02  0.7818609E-02  0.1379984E+01
      -11   -1    0    0    0    0  0.00000000000E+00  0.00000000000E+00  0.35740347158E-01  0.35744000000E-01  0.51099999109E-03 0. -1.
       11   -1    0    0    0    0 -0.00000000000E+00 -0.00000000000E+00 -0.35740347158E-01  0.35744000000E-01  0.51099999109E-03 0.  1.
       22    1    1    2    0    0  0.38800144900E-02  0.32214787021E-02 -0.35379388737E-01  0.35737005818E-01  0.00000000000E+00 0.  1.
  9000001    1    1    2    0    0 -0.38800144900E-02 -0.32214787021E-02  0.35379388737E-01  0.35750994182E-01  0.10000000475E-02 0. -1.
</event>
<event>
 4   0  0.4892667E-02  0.9118800E+02  0.7818609E-02  0.1379984E+01
      -11   -1    0    0    0    0  0.00000000000E+00  0.00000000000E+00  0.35740347158E-01  0.35744000000E-01  0.51099999109E-03 0.  1.
       11   -1    0    0    0    0 -0.00000000000E+00 -0.00000000000E+00 -0.35740347158E-01  0.35744000000E-01  0.51099999109E-03 0. -1.
       22    1    1    2    0    0  0.25831693563E-01  0.18221075386E-01  0.16668821324E-01  0.35737005818E-01  0.00000000000E+00 0.  1.
  9000001    1    1    2    0    0 -0.25831693563E-01 -0.18221075386E-01 -0.16668821324E-01  0.35750994182E-01  0.10000000475E-02 0. -1.
</event>
<event>
 4   0  0.4892667E-02  0.9118800E+02  0.7818609E-02  0.1379984E+01
      -11   -1    0    0    0    0  0.00000000000E+00  0.00000000000E+00  0.35740347158E-01  0.35744000000E-01  0.51099999109E-03 0.  1.
       11   -1    0    0    0    0 -0.00000000000E+00 -0.00000000000E+00 -0.35740347158E-01  0.35744000000E-01  0.51099999109E-03 0. -1.
       22    1    1    2    0    0 -0.23425967774E-01 -0.13612291040E-01 -0.23303715398E-01  0.35737005818E-01  0.00000000000E+00 0.  1.
  9000001    1    1    2    0    0  0.23425967774E-01  0.13612291040E-01  0.23303715398E-01  0.35750994182E-01  0.10000000475E-02 0. -1.
</event>
<event>
 4   0  0.4892667E-02  0.9118800E+02  0.7818609E-02  0.1379984E+01
      -11   -1    0    0    0    0  0.00000000000E+00  0.00000000000E+00  0.35740347158E-01  0.35744000000E-01  0.51099999109E-03 0. -1.
       11   -1    0    0    0    0 -0.00000000000E+00 -0.00000000000E+00 -0.35740347158E-01  0.35744000000E-01  0.51099999109E-03 0.  1.
       22    1    1    2    0    0 -0.18843379022E-02  0.32579080500E-02  0.35538273603E-01  0.35737005818E-01  0.00000000000E+00 0. -1.
  9000001    1    1    2    0    0  0.18843379022E-02 -0.32579080500E-02 -0.35538273603E-01  0.35750994182E-01  0.10000000475E-02 0.  1.
</event>
<event>
 4   0  0.4892667E-02  0.9118800E+02  0.7818609E-02  0.1379984E+01
      -11   -1    0    0    0    0  0.00000000000E+00  0.00000000000E+00  0.35740347158E-01  0.35744000000E-01  0.51099999109E-03 0.  1.
       11   -1    0    0    0    0 -0.00000000000E+00 -0.00000000000E+00 -0.35740347158E-01  0.35744000000E-01  0.51099999109E-03 0. -1.
       22    1    1    2    0    0  0.75338240774E-02  0.33263743286E-03 -0.34932283521E-01  0.35737005818E-01  0.00000000000E+00 0. -1.
  9000001    1    1    2    0    0 -0.75338240774E-02 -0.33263743286E-03  0.34932283521E-01  0.35750994182E-01  0.10000000475E-02 0.  1.
</event>
<event>
 4   0  0.4892667E-02  0.9118800E+02  0.7818609E-02  0.1379984E+01
      -11   -1    0    0    0    0  0.00000000000E+00  0.00000000000E+00  0.35740347158E-01  0.35744000000E-01  0.51099999109E-03 0.  1.
       11   -1    0    0    0    0 -0.00000000000E+00 -0.00000000000E+00 -0.35740347158E-01  0.35744000000E-01  0.51099999109E-03 0. -1.
       22    1    1    2    0    0 -0.15002570541E-02  0.28816801747E-01  0.21082569832E-01  0.35737005818E-01  0.00000000000E+00 0.  1.
  9000001    1    1    2    0    0  0.15002570541E-02 -0.28816801747E-01 -0.21082569832E-01  0.35750994182E-01  0.10000000475E-02 0. -1.
</event>
<event>
 4   0  0.4892667E-02  0.9118800E+02  0.7818609E-02  0.1379984E+01
      -11   -1    0    0    0    0  0.00000000000E+00  0.00000000000E+00  0.35740347158E-01  0.35744000000E-01  0.51099999109E-03 0.  1.
       11   -1    0    0    0    0 -0.00000000000E+00 -0.00000000000E+00 -0.35740347158E-01  0.35744000000E-01  0.51099999109E-03 0. -1.
       22    1    1    2    0    0  0.13746098178E-01 -0.13660297512E-01 -0.30026232558E-01  0.35737005818E-01  0.00000000000E+00 0. -1.
  9000001    1    1    2    0    0 -0.13746098178E-01  0.13660297512E-01  0.30026232558E-01  0.35750994182E-01  0.10000000475E-02 0.  1.
</event>
<event>
 4   0  0.4892667E-02  0.9118800E+02  0.7818609E-02  0.1379984E+01
      -11   -1    0    0    0    0  0.00000000000E+00  0.00000000000E+00  0.35740347158E-01  0.35744000000E-01  0.51099999109E-03 0.  1.
       11   -1    0    0    0    0 -0.00000000000E+00 -0.00000000000E+00 -0.35740347158E-01  0.35744000000E-01  0.51099999109E-03 0. -1.
       22    1    1    2    0    0 -0.42323640791E-02 -0.49490902577E-02 -0.35138685018E-01  0.35737005818E-01  0.00000000000E+00 0. -1.
  9000001    1    1    2    0    0  0.42323640791E-02  0.49490902577E-02  0.35138685018E-01  0.35750994182E-01  0.10000000475E-02 0.  1.
</event>
<event>
 4   0  0.4892667E-02  0.9118800E+02  0.7818609E-02  0.1379984E+01
      -11   -1    0    0    0    0  0.00000000000E+00  0.00000000000E+00  0.35740347158E-01  0.35744000000E-01  0.51099999109E-03 0. -1.
       11   -1    0    0    0    0 -0.00000000000E+00 -0.00000000000E+00 -0.35740347158E-01  0.35744000000E-01  0.51099999109E-03 0.  1.
       22    1    1    2    0    0 -0.15091238467E-01  0.22898089793E-01 -0.22914309727E-01  0.35737005818E-01  0.00000000000E+00 0.  1.
  9000001    1    1    2    0    0  0.15091238467E-01 -0.22898089793E-01  0.22914309727E-01  0.35750994182E-01  0.10000000475E-02 0. -1.
</event>
<event>
 4   0  0.4892667E-02  0.9118800E+02  0.7818609E-02  0.1379984E+01
      -11   -1    0    0    0    0  0.00000000000E+00  0.00000000000E+00  0.35740347158E-01  0.35744000000E-01  0.51099999109E-03 0.  1.
       11   -1    0    0    0    0 -0.00000000000E+00 -0.00000000000E+00 -0.35740347158E-01  0.35744000000E-01  0.51099999109E-03 0.  1.
       22    1    1    2    0    0  0.34534389519E-02 -0.27391724533E-02  0.35464126643E-01  0.35737005818E-01  0.00000000000E+00 0.  1.
  9000001    1    1    2    0    0 -0.34534389519E-02  0.27391724533E-02 -0.35464126643E-01  0.35750994182E-01  0.10000000475E-02 0.  1.
</event>
<event>
 4   0  0.4892667E-02  0.9118800E+02  0.7818609E-02  0.1379984E+01
      -11   -1    0    0    0    0  0.00000000000E+00  0.00000000000E+00  0.35740347158E-01  0.35744000000E-01  0.51099999109E-03 0.  1.
       11   -1    0    0    0    0 -0.00000000000E+00 -0.00000000000E+00 -0.35740347158E-01  0.35744000000E-01  0.51099999109E-03 0. -1.
       22    1    1    2    0    0  0.60611488093E-02 -0.83013050615E-03 -0.35209472352E-01  0.35737005818E-01  0.00000000000E+00 0. -1.
  9000001    1    1    2    0    0 -0.60611488093E-02  0.83013050615E-03  0.35209472352E-01  0.35750994182E-01  0.10000000475E-02 0.  1.
</event>
<event>
 4   0  0.4892667E-02  0.9118800E+02  0.7818609E-02  0.1379984E+01
      -11   -1    0    0    0    0  0.00000000000E+00  0.00000000000E+00  0.35740347158E-01  0.35744000000E-01  0.51099999109E-03 0.  1.
       11   -1    0    0    0    0 -0.00000000000E+00 -0.00000000000E+00 -0.35740347158E-01  0.35744000000E-01  0.51099999109E-03 0. -1.
       22    1    1    2    0    0 -0.73026426636E-03  0.24397809310E-01 -0.26102628217E-01  0.35737005818E-01  0.00000000000E+00 0. -1.
  9000001    1    1    2    0    0  0.73026426636E-03 -0.24397809310E-01  0.26102628217E-01  0.35750994182E-01  0.10000000475E-02 0.  1.
</event>
<event>
 4   0  0.4892667E-02  0.9118800E+02  0.7818609E-02  0.1379984E+01
      -11   -1    0    0    0    0  0.00000000000E+00  0.00000000000E+00  0.35740347158E-01  0.35744000000E-01  0.51099999109E-03 0. -1.
       11   -1    0    0    0    0 -0.00000000000E+00 -0.00000000000E+00 -0.35740347158E-01  0.35744000000E-01  0.51099999109E-03 0.  1.
       22    1    1    2    0    0  0.29952926565E-01 -0.17548537657E-01  0.84855524969E-02  0.35737005818E-01  0.00000000000E+00 0. -1.
  9000001    1    1    2    0    0 -0.29952926565E-01  0.17548537657E-01 -0.84855524969E-02  0.35750994182E-01  0.10000000475E-02 0.  1.
</event>
<event>
 4   0  0.4892667E-02  0.9118800E+02  0.7818609E-02  0.1379984E+01
      -11   -1    0    0    0    0  0.00000000000E+00  0.00000000000E+00  0.35740347158E-01  0.35744000000E-01  0.51099999109E-03 0. -1.
       11   -1    0    0    0    0 -0.00000000000E+00 -0.00000000000E+00 -0.35740347158E-01  0.35744000000E-01  0.51099999109E-03 0.  1.
       22    1    1    2    0    0 -0.11524262857E-01  0.78919336484E-02  0.32894411893E-01  0.35737005818E-01  0.00000000000E+00 0. -1.
  9000001    1    1    2    0    0  0.11524262857E-01 -0.78919336484E-02 -0.32894411893E-01  0.35750994182E-01  0.10000000475E-02 0.  1.
</event>
<event>
 4   0  0.4892667E-02  0.9118800E+02  0.7818609E-02  0.1379984E+01
      -11   -1    0    0    0    0  0.00000000000E+00  0.00000000000E+00  0.35740347158E-01  0.35744000000E-01  0.51099999109E-03 0.  1.
       11   -1    0    0    0    0 -0.00000000000E+00 -0.00000000000E+00 -0.35740347158E-01  0.35744000000E-01  0.51099999109E-03 0. -1.
       22    1    1    2    0    0 -0.10288200445E-01 -0.40080158365E-02  0.33988561687E-01  0.35737005818E-01  0.00000000000E+00 0.  1.
  9000001    1    1    2    0    0  0.10288200445E-01  0.40080158365E-02 -0.33988561687E-01  0.35750994182E-01  0.10000000475E-02 0. -1.
</event>
<event>
 4   0  0.4892667E-02  0.9118800E+02  0.7818609E-02  0.1379984E+01
      -11   -1    0    0    0    0  0.00000000000E+00  0.00000000000E+00  0.35740347158E-01  0.35744000000E-01  0.51099999109E-03 0. -1.
       11   -1    0    0    0    0 -0.00000000000E+00 -0.00000000000E+00 -0.35740347158E-01  0.35744000000E-01  0.51099999109E-03 0.  1.
       22    1    1    2    0    0 -0.26580513793E-02  0.17448065187E-01 -0.31074641896E-01  0.35737005818E-01  0.00000000000E+00 0.  1.
  9000001    1    1    2    0    0  0.26580513793E-02 -0.17448065187E-01  0.31074641896E-01  0.35750994182E-01  0.10000000475E-02 0. -1.
</event>
<event>
 4   0  0.4892667E-02  0.9118800E+02  0.7818609E-02  0.1379984E+01
      -11   -1    0    0    0    0  0.00000000000E+00  0.00000000000E+00  0.35740347158E-01  0.35744000000E-01  0.51099999109E-03 0.  1.
       11   -1    0    0    0    0 -0.00000000000E+00 -0.00000000000E+00 -0.35740347158E-01  0.35744000000E-01  0.51099999109E-03 0. -1.
       22    1    1    2    0    0  0.29296576999E-02  0.64990221032E-03  0.35610789345E-01  0.35737005818E-01  0.00000000000E+00 0.  1.
  9000001    1    1    2    0    0 -0.29296576999E-02 -0.64990221032E-03 -0.35610789345E-01  0.35750994182E-01  0.10000000475E-02 0. -1.
</event>
<event>
 4   0  0.4892667E-02  0.9118800E+02  0.7818609E-02  0.1379984E+01
      -11   -1    0    0    0    0  0.00000000000E+00  0.00000000000E+00  0.35740347158E-01  0.35744000000E-01  0.51099999109E-03 0.  1.
       11   -1    0    0    0    0 -0.00000000000E+00 -0.00000000000E+00 -0.35740347158E-01  0.35744000000E-01  0.51099999109E-03 0. -1.
       22    1    1    2    0    0 -0.34729255339E-01 -0.11610698126E-02  0.83465157613E-02  0.35737005818E-01  0.00000000000E+00 0.  1.
  9000001    1    1    2    0    0  0.34729255339E-01  0.11610698126E-02 -0.83465157613E-02  0.35750994182E-01  0.10000000475E-02 0. -1.
</event>
<event>
 4   0  0.4892667E-02  0.9118800E+02  0.7818609E-02  0.1379984E+01
      -11   -1    0    0    0    0  0.00000000000E+00  0.00000000000E+00  0.35740347158E-01  0.35744000000E-01  0.51099999109E-03 0. -1.
       11   -1    0    0    0    0 -0.00000000000E+00 -0.00000000000E+00 -0.35740347158E-01  0.35744000000E-01  0.51099999109E-03 0.  1.
       22    1    1    2    0    0 -0.18022322719E-02 -0.10402540338E-01  0.34141949245E-01  0.35737005818E-01  0.00000000000E+00 0. -1.
  9000001    1    1    2    0    0  0.18022322719E-02  0.10402540338E-01 -0.34141949245E-01  0.35750994182E-01  0.10000000475E-02 0.  1.
</event>
<event>
 4   0  0.4892667E-02  0.9118800E+02  0.7818609E-02  0.1379984E+01
      -11   -1    0    0    0    0  0.00000000000E+00  0.00000000000E+00  0.35740347158E-01  0.35744000000E-01  0.51099999109E-03 0. -1.
       11   -1    0    0    0    0 -0.00000000000E+00 -0.00000000000E+00 -0.35740347158E-01  0.35744000000E-01  0.51099999109E-03 0.  1.
       22    1    1    2    0    0  0.24095180030E-02  0.37368368866E-02  0.35459326812E-01  0.35737005818E-01  0.00000000000E+00 0. -1.
  9000001    1    1    2    0    0 -0.24095180030E-02 -0.37368368866E-02 -0.35459326812E-01  0.35750994182E-01  0.10000000475E-02 0.  1.
</event>
<event>
 4   0  0.4892667E-02  0.9118800E+02  0.7818609E-02  0.1379984E+01
      -11   -1    0    0    0    0  0.00000000000E+00  0.00000000000E+00  0.35740347158E-01  0.35744000000E-01  0.51099999109E-03 0. -1.
       11   -1    0    0    0    0 -0.00000000000E+00 -0.00000000000E+00 -0.35740347158E-01  0.35744000000E-01  0.51099999109E-03 0.  1.
       22    1    1    2    0    0 -0.27264796824E-01  0.22890989064E-01  0.31252293819E-02  0.35737005818E-01  0.00000000000E+00 0.  1.
  9000001    1    1    2    0    0  0.27264796824E-01 -0.22890989064E-01 -0.31252293819E-02  0.35750994182E-01  0.10000000475E-02 0. -1.
</event>
<event>
 4   0  0.4892667E-02  0.9118800E+02  0.7818609E-02  0.1379984E+01
      -11   -1    0    0    0    0  0.00000000000E+00  0.00000000000E+00  0.35740347158E-01  0.35744000000E-01  0.51099999109E-03 0. -1.
       11   -1    0    0    0    0 -0.00000000000E+00 -0.00000000000E+00 -0.35740347158E-01  0.35744000000E-01  0.51099999109E-03 0.  1.
       22    1    1    2    0    0 -0.39076660538E-02  0.11427660910E-01  0.33634391581E-01  0.35737005818E-01  0.00000000000E+00 0. -1.
  9000001    1    1    2    0    0  0.39076660538E-02 -0.11427660910E-01 -0.33634391581E-01  0.35750994182E-01  0.10000000475E-02 0.  1.
</event>
<event>
 4   0  0.4892667E-02  0.9118800E+02  0.7818609E-02  0.1379984E+01
      -11   -1    0    0    0    0  0.00000000000E+00  0.00000000000E+00  0.35740347158E-01  0.35744000000E-01  0.51099999109E-03 0. -1.
       11   -1    0    0    0    0 -0.00000000000E+00 -0.00000000000E+00 -0.35740347158E-01  0.35744000000E-01  0.51099999109E-03 0.  1.
       22    1    1    2    0    0 -0.10639784030E-02 -0.58793077499E-02 -0.35234007368E-01  0.35737005818E-01  0.00000000000E+00 0.  1.
  9000001    1    1    2    0    0  0.10639784030E-02  0.58793077499E-02  0.35234007368E-01  0.35750994182E-01  0.10000000475E-02 0. -1.
</event>
<event>
 4   0  0.4892667E-02  0.9118800E+02  0.7818609E-02  0.1379984E+01
      -11   -1    0    0    0    0  0.00000000000E+00  0.00000000000E+00  0.35740347158E-01  0.35744000000E-01  0.51099999109E-03 0.  1.
       11   -1    0    0    0    0 -0.00000000000E+00 -0.00000000000E+00 -0.35740347158E-01  0.35744000000E-01  0.51099999109E-03 0. -1.
       22    1    1    2    0    0 -0.31167541320E-01  0.92761259939E-02 -0.14821317063E-01  0.35737005818E-01  0.00000000000E+00 0. -1.
  9000001    1    1    2    0    0  0.31167541320E-01 -0.92761259939E-02  0.14821317063E-01  0.35750994182E-01  0.10000000475E-02 0.  1.
</event>
<event>
 4   0  0.4892667E-02  0.9118800E+02  0.7818609E-02  0.1379984E+01
      -11   -1    0    0    0    0  0.00000000000E+00  0.00000000000E+00  0.35740347158E-01  0.35744000000E-01  0.51099999109E-03 0. -1.
       11   -1    0    0    0    0 -0.00000000000E+00 -0.00000000000E+00 -0.35740347158E-01  0.35744000000E-01  0.51099999109E-03 0.  1.
       22    1    1    2    0    0 -0.15043339390E-01  0.39739789354E-02 -0.32172022260E-01  0.35737005818E-01  0.00000000000E+00 0.  1.
  9000001    1    1    2    0    0  0.15043339390E-01 -0.39739789354E-02  0.32172022260E-01  0.35750994182E-01  0.10000000475E-02 0. -1.
</event>
<event>
 4   0  0.4892667E-02  0.9118800E+02  0.7818609E-02  0.1379984E+01
      -11   -1    0    0    0    0  0.00000000000E+00  0.00000000000E+00  0.35740347158E-01  0.35744000000E-01  0.51099999109E-03 0.  1.
       11   -1    0    0    0    0 -0.00000000000E+00 -0.00000000000E+00 -0.35740347158E-01  0.35744000000E-01  0.51099999109E-03 0. -1.
       22    1    1    2    0    0 -0.78613188570E-02 -0.79686562345E-02  0.33938676588E-01  0.35737005818E-01  0.00000000000E+00 0.  1.
  9000001    1    1    2    0    0  0.78613188570E-02  0.79686562345E-02 -0.33938676588E-01  0.35750994182E-01  0.10000000475E-02 0. -1.
</event>
<event>
 4   0  0.4892667E-02  0.9118800E+02  0.7818609E-02  0.1379984E+01
      -11   -1    0    0    0    0  0.00000000000E+00  0.00000000000E+00  0.35740347158E-01  0.35744000000E-01  0.51099999109E-03 0. -1.
       11   -1    0    0    0    0 -0.00000000000E+00 -0.00000000000E+00 -0.35740347158E-01  0.35744000000E-01  0.51099999109E-03 0.  1.
       22    1    1    2    0    0  0.19138417883E-01 -0.38423768369E-02 -0.29934773860E-01  0.35737005818E-01  0.00000000000E+00 0.  1.
  9000001    1    1    2    0    0 -0.19138417883E-01  0.38423768369E-02  0.29934773860E-01  0.35750994182E-01  0.10000000475E-02 0. -1.
</event>
<event>
 4   0  0.4892667E-02  0.9118800E+02  0.7818609E-02  0.1379984E+01
      -11   -1    0    0    0    0  0.00000000000E+00  0.00000000000E+00  0.35740347158E-01  0.35744000000E-01  0.51099999109E-03 0.  1.
       11   -1    0    0    0    0 -0.00000000000E+00 -0.00000000000E+00 -0.35740347158E-01  0.35744000000E-01  0.51099999109E-03 0. -1.
       22    1    1    2    0    0 -0.14039773274E-02 -0.38002589418E-02 -0.35506625642E-01  0.35737005818E-01  0.00000000000E+00 0. -1.
  9000001    1    1    2    0    0  0.14039773274E-02  0.38002589418E-02  0.35506625642E-01  0.35750994182E-01  0.10000000475E-02 0.  1.
</event>
<event>
 4   0  0.4892667E-02  0.9118800E+02  0.7818609E-02  0.1379984E+01
      -11   -1    0    0    0    0  0.00000000000E+00  0.00000000000E+00  0.35740347158E-01  0.35744000000E-01  0.51099999109E-03 0. -1.
       11   -1    0    0    0    0 -0.00000000000E+00 -0.00000000000E+00 -0.35740347158E-01  0.35744000000E-01  0.51099999109E-03 0.  1.
       22    1    1    2    0    0  0.33008308899E-02  0.25555631573E-03  0.35583321813E-01  0.35737005818E-01  0.00000000000E+00 0. -1.
  9000001    1    1    2    0    0 -0.33008308899E-02 -0.25555631573E-03 -0.35583321813E-01  0.35750994182E-01  0.10000000475E-02 0.  1.
</event>
<event>
 4   0  0.4892667E-02  0.9118800E+02  0.7818609E-02  0.1379984E+01
      -11   -1    0    0    0    0  0.00000000000E+00  0.00000000000E+00  0.35740347158E-01  0.35744000000E-01  0.51099999109E-03 0. -1.
       11   -1    0    0    0    0 -0.00000000000E+00 -0.00000000000E+00 -0.35740347158E-01  0.35744000000E-01  0.51099999109E-03 0.  1.
       22    1    1    2    0    0  0.30504771260E-02  0.58712177274E-02 -0.35119182459E-01  0.35737005818E-01  0.00000000000E+00 0.  1.
  9000001    1    1    2    0    0 -0.30504771260E-02 -0.58712177274E-02  0.35119182459E-01  0.35750994182E-01  0.10000000475E-02 0. -1.
</event>
<event>
 4   0  0.4892667E-02  0.9118800E+02  0.7818609E-02  0.1379984E+01
      -11   -1    0    0    0    0  0.00000000000E+00  0.00000000000E+00  0.35740347158E-01  0.35744000000E-01  0.51099999109E-03 0.  1.
       11   -1    0    0    0    0 -0.00000000000E+00 -0.00000000000E+00 -0.35740347158E-01  0.35744000000E-01  0.51099999109E-03 0. -1.
       22    1    1    2    0    0  0.15294232116E-01  0.14536368884E-01  0.28842919903E-01  0.35737005818E-01  0.00000000000E+00 0.  1.
  9000001    1    1    2    0    0 -0.15294232116E-01 -0.14536368884E-01 -0.28842919903E-01  0.35750994182E-01  0.10000000475E-02 0. -1.
</event>
<event>
 4   0  0.4892667E-02  0.9118800E+02  0.7818609E-02  0.1379984E+01
      -11   -1    0    0    0    0  0.00000000000E+00  0.00000000000E+00  0.35740347158E-01  0.35744000000E-01  0.51099999109E-03 0. -1.
       11   -1    0    0    0    0 -0.00000000000E+00 -0.00000000000E+00 -0.35740347158E-01  0.35744000000E-01  0.51099999109E-03 0.  1.
       22    1    1    2    0    0  0.83066558133E-03  0.50866023314E-02 -0.35363399954E-01  0.35737005818E-01  0.00000000000E+00 0.  1.
  9000001    1    1    2    0    0 -0.83066558133E-03 -0.50866023314E-02  0.35363399954E-01  0.35750994182E-01  0.10000000475E-02 0. -1.
</event>
<event>
 4   0  0.4892667E-02  0.9118800E+02  0.7818609E-02  0.1379984E+01
      -11   -1    0    0    0    0  0.00000000000E+00  0.00000000000E+00  0.35740347158E-01  0.35744000000E-01  0.51099999109E-03 0.  1.
       11   -1    0    0    0    0 -0.00000000000E+00 -0.00000000000E+00 -0.35740347158E-01  0.35744000000E-01  0.51099999109E-03 0. -1.
       22    1    1    2    0    0 -0.25849677788E-02  0.11339188985E-01  0.33791630911E-01  0.35737005818E-01  0.00000000000E+00 0.  1.
  9000001    1    1    2    0    0  0.25849677788E-02 -0.11339188985E-01 -0.33791630911E-01  0.35750994182E-01  0.10000000475E-02 0. -1.
</event>
<event>
 4   0  0.4892667E-02  0.9118800E+02  0.7818609E-02  0.1379984E+01
      -11   -1    0    0    0    0  0.00000000000E+00  0.00000000000E+00  0.35740347158E-01  0.35744000000E-01  0.51099999109E-03 0.  1.
       11   -1    0    0    0    0 -0.00000000000E+00 -0.00000000000E+00 -0.35740347158E-01  0.35744000000E-01  0.51099999109E-03 0. -1.
       22    1    1    2    0    0  0.12493177771E-01 -0.11991569126E-02  0.33460665217E-01  0.35737005818E-01  0.00000000000E+00 0.  1.
  9000001    1    1    2    0    0 -0.12493177771E-01  0.11991569126E-02 -0.33460665217E-01  0.35750994182E-01  0.10000000475E-02 0. -1.
</event>
<event>
 4   0  0.4892667E-02  0.9118800E+02  0.7818609E-02  0.1379984E+01
      -11   -1    0    0    0    0  0.00000000000E+00  0.00000000000E+00  0.35740347158E-01  0.35744000000E-01  0.51099999109E-03 0. -1.
       11   -1    0    0    0    0 -0.00000000000E+00 -0.00000000000E+00 -0.35740347158E-01  0.35744000000E-01  0.51099999109E-03 0.  1.
       22    1    1    2    0    0  0.88005213642E-02 -0.96632288844E-02  0.33261184827E-01  0.35737005818E-01  0.00000000000E+00 0. -1.
  9000001    1    1    2    0    0 -0.88005213642E-02  0.96632288844E-02 -0.33261184827E-01  0.35750994182E-01  0.10000000475E-02 0.  1.
</event>
<event>
 4   0  0.4892667E-02  0.9118800E+02  0.7818609E-02  0.1379984E+01
      -11   -1    0    0    0    0  0.00000000000E+00  0.00000000000E+00  0.35740347158E-01  0.35744000000E-01  0.51099999109E-03 0. -1.
       11   -1    0    0    0    0 -0.00000000000E+00 -0.00000000000E+00 -0.35740347158E-01  0.35744000000E-01  0.51099999109E-03 0.  1.
       22    1    1    2    0    0 -0.76913210334E-02 -0.91224094815E-02  0.33686181305E-01  0.35737005818E-01  0.00000000000E+00 0. -1.
  9000001    1    1    2    0    0  0.76913210334E-02  0.91224094815E-02 -0.33686181305E-01  0.35750994182E-01  0.10000000475E-02 0.  1.
</event>
<event>
 4   0  0.4892667E-02  0.9118800E+02  0.7818609E-02  0.1379984E+01
      -11   -1    0    0    0    0  0.00000000000E+00  0.00000000000E+00  0.35740347158E-01  0.35744000000E-01  0.51099999109E-03 0.  1.
       11   -1    0    0    0    0 -0.00000000000E+00 -0.00000000000E+00 -0.35740347158E-01  0.35744000000E-01  0.51099999109E-03 0. -1.
       22    1    1    2    0    0 -0.47999257655E-02  0.11341218153E-01 -0.33548041199E-01  0.35737005818E-01  0.00000000000E+00 0. -1.
  9000001    1    1    2    0    0  0.47999257655E-02 -0.11341218153E-01  0.33548041199E-01  0.35750994182E-01  0.10000000475E-02 0.  1.
</event>
<event>
 4   0  0.4892667E-02  0.9118800E+02  0.7818609E-02  0.1379984E+01
      -11   -1    0    0    0    0  0.00000000000E+00  0.00000000000E+00  0.35740347158E-01  0.35744000000E-01  0.51099999109E-03 0.  1.
       11   -1    0    0    0    0 -0.00000000000E+00 -0.00000000000E+00 -0.35740347158E-01  0.35744000000E-01  0.51099999109E-03 0. -1.
       22    1    1    2    0    0 -0.58034919678E-02  0.23820109676E-02 -0.35182084782E-01  0.35737005818E-01  0.00000000000E+00 0. -1.
  9000001    1    1    2    0    0  0.58034919678E-02 -0.23820109676E-02  0.35182084782E-01  0.35750994182E-01  0.10000000475E-02 0.  1.
</event>
<event>
 4   0  0.4892667E-02  0.9118800E+02  0.7818609E-02  0.1379984E+01
      -11   -1    0    0    0    0  0.00000000000E+00  0.00000000000E+00  0.35740347158E-01  0.35744000000E-01  0.51099999109E-03 0. -1.
       11   -1    0    0    0    0 -0.00000000000E+00 -0.00000000000E+00 -0.35740347158E-01  0.35744000000E-01  0.51099999109E-03 0.  1.
       22    1    1    2    0    0 -0.40401259610E-02  0.39663175984E-02  0.35285681116E-01  0.35737005818E-01  0.00000000000E+00 0. -1.
  9000001    1    1    2    0    0  0.40401259610E-02 -0.39663175984E-02 -0.35285681116E-01  0.35750994182E-01  0.10000000475E-02 0.  1.
</event>
<event>
 4   0  0.4892667E-02  0.9118800E+02  0.7818609E-02  0.1379984E+01
      -11   -1    0    0    0    0  0.00000000000E+00  0.00000000000E+00  0.35740347158E-01  0.35744000000E-01  0.51099999109E-03 0. -1.
       11   -1    0    0    0    0 -0.00000000000E+00 -0.00000000000E+00 -0.35740347158E-01  0.35744000000E-01  0.51099999109E-03 0.  1.
       22    1    1    2    0    0  0.17091282384E-01 -0.22830178426E-01  0.21536123244E-01  0.35737005818E-01  0.00000000000E+00 0. -1.
  9000001    1    1    2    0    0 -0.17091282384E-01  0.22830178426E-01 -0.21536123244E-01  0.35750994182E-01  0.10000000475E-02 0.  1.
</event>
<event>
 4   0  0.4892667E-02  0.9118800E+02  0.7818609E-02  0.1379984E+01
      -11   -1    0    0    0    0  0.00000000000E+00  0.00000000000E+00  0.35740347158E-01  0.35744000000E-01  0.51099999109E-03 0.  1.
       11   -1    0    0    0    0 -0.00000000000E+00 -0.00000000000E+00 -0.35740347158E-01  0.35744000000E-01  0.51099999109E-03 0. -1.
       22    1    1    2    0    0  0.22257942050E-02 -0.28383174115E-02  0.35554512784E-01  0.35737005818E-01  0.00000000000E+00 0.  1.
  9000001    1    1    2    0    0 -0.22257942050E-02  0.28383174115E-02 -0.35554512784E-01  0.35750994182E-01  0.10000000475E-02 0. -1.
</event>
<event>
 4   0  0.4892667E-02  0.9118800E+02  0.7818609E-02  0.1379984E+01
      -11   -1    0    0    0    0  0.00000000000E+00  0.00000000000E+00  0.35740347158E-01  0.35744000000E-01  0.51099999109E-03 0. -1.
       11   -1    0    0    0    0 -0.00000000000E+00 -0.00000000000E+00 -0.35740347158E-01  0.35744000000E-01  0.51099999109E-03 0.  1.
       22    1    1    2    0    0  0.21826156306E-02  0.52077770351E-02  0.35288083431E-01  0.35737005818E-01  0.00000000000E+00 0. -1.
  9000001    1    1    2    0    0 -0.21826156306E-02 -0.52077770351E-02 -0.35288083431E-01  0.35750994182E-01  0.10000000475E-02 0.  1.
</event>
<event>
 4   0  0.4892667E-02  0.9118800E+02  0.7818609E-02  0.1379984E+01
      -11   -1    0    0    0    0  0.00000000000E+00  0.00000000000E+00  0.35740347158E-01  0.35744000000E-01  0.51099999109E-03 0. -1.
       11   -1    0    0    0    0 -0.00000000000E+00 -0.00000000000E+00 -0.35740347158E-01  0.35744000000E-01  0.51099999109E-03 0.  1.
       22    1    1    2    0    0  0.66120822781E-02  0.31421272317E-02  0.34979150780E-01  0.35737005818E-01  0.00000000000E+00 0. -1.
  9000001    1    1    2    0    0 -0.66120822781E-02 -0.31421272317E-02 -0.34979150780E-01  0.35750994182E-01  0.10000000475E-02 0.  1.
</event>
<event>
 4   0  0.4892667E-02  0.9118800E+02  0.7818609E-02  0.1379984E+01
      -11   -1    0    0    0    0  0.00000000000E+00  0.00000000000E+00  0.35740347158E-01  0.35744000000E-01  0.51099999109E-03 0.  1.
       11   -1    0    0    0    0 -0.00000000000E+00 -0.00000000000E+00 -0.35740347158E-01  0.35744000000E-01  0.51099999109E-03 0. -1.
       22    1    1    2    0    0  0.36793432484E-02 -0.35144410040E-01 -0.53353969912E-02  0.35737005818E-01  0.00000000000E+00 0. -1.
  9000001    1    1    2    0    0 -0.36793432484E-02  0.35144410040E-01  0.53353969912E-02  0.35750994182E-01  0.10000000475E-02 0.  1.
</event>
<event>
 4   0  0.4892667E-02  0.9118800E+02  0.7818609E-02  0.1379984E+01
      -11   -1    0    0    0    0  0.00000000000E+00  0.00000000000E+00  0.35740347158E-01  0.35744000000E-01  0.51099999109E-03 0. -1.
       11   -1    0    0    0    0 -0.00000000000E+00 -0.00000000000E+00 -0.35740347158E-01  0.35744000000E-01  0.51099999109E-03 0.  1.
       22    1    1    2    0    0  0.35103550457E-02  0.12687946056E-01 -0.33223892264E-01  0.35737005818E-01  0.00000000000E+00 0.  1.
  9000001    1    1    2    0    0 -0.35103550457E-02 -0.12687946056E-01  0.33223892264E-01  0.35750994182E-01  0.10000000475E-02 0. -1.
</event>
<event>
 4   0  0.4892667E-02  0.9118800E+02  0.7818609E-02  0.1379984E+01
      -11   -1    0    0    0    0  0.00000000000E+00  0.00000000000E+00  0.35740347158E-01  0.35744000000E-01  0.51099999109E-03 0. -1.
       11   -1    0    0    0    0 -0.00000000000E+00 -0.00000000000E+00 -0.35740347158E-01  0.35744000000E-01  0.51099999109E-03 0.  1.
       22    1    1    2    0    0 -0.99822034989E-02 -0.12381091007E-02  0.34292219001E-01  0.35737005818E-01  0.00000000000E+00 0. -1.
  9000001    1    1    2    0    0  0.99822034989E-02  0.12381091007E-02 -0.34292219001E-01  0.35750994182E-01  0.10000000475E-02 0.  1.
</event>
<event>
 4   0  0.4892667E-02  0.9118800E+02  0.7818609E-02  0.1379984E+01
      -11   -1    0    0    0    0  0.00000000000E+00  0.00000000000E+00  0.35740347158E-01  0.35744000000E-01  0.51099999109E-03 0. -1.
       11   -1    0    0    0    0 -0.00000000000E+00 -0.00000000000E+00 -0.35740347158E-01  0.35744000000E-01  0.51099999109E-03 0.  1.
       22    1    1    2    0    0  0.13839624046E-01  0.40317986336E-03 -0.32945953274E-01  0.35737005818E-01  0.00000000000E+00 0.  1.
  9000001    1    1    2    0    0 -0.13839624046E-01 -0.40317986336E-03  0.32945953274E-01  0.35750994182E-01  0.10000000475E-02 0. -1.
</event>
<event>
 4   0  0.4892667E-02  0.9118800E+02  0.7818609E-02  0.1379984E+01
      -11   -1    0    0    0    0  0.00000000000E+00  0.00000000000E+00  0.35740347158E-01  0.35744000000E-01  0.51099999109E-03 0. -1.
       11   -1    0    0    0    0 -0.00000000000E+00 -0.00000000000E+00 -0.35740347158E-01  0.35744000000E-01  0.51099999109E-03 0.  1.
       22    1    1    2    0    0 -0.49960724670E-02 -0.18776254618E-02 -0.35336204768E-01  0.35737005818E-01  0.00000000000E+00 0.  1.
  9000001    1    1    2    0    0  0.49960724670E-02  0.18776254618E-02  0.35336204768E-01  0.35750994182E-01  0.10000000475E-02 0. -1.
</event>
<event>
 4   0  0.4892667E-02  0.9118800E+02  0.7818609E-02  0.1379984E+01
      -11   -1    0    0    0    0  0.00000000000E+00  0.00000000000E+00  0.35740347158E-01  0.35744000000E-01  0.51099999109E-03 0. -1.
       11   -1    0    0    0    0 -0.00000000000E+00 -0.00000000000E+00 -0.35740347158E-01  0.35744000000E-01  0.51099999109E-03 0.  1.
       22    1    1    2    0    0  0.75186355299E-02  0.93742403211E-02 -0.33656014664E-01  0.35737005818E-01  0.00000000000E+00 0.  1.
  9000001    1    1    2    0    0 -0.75186355299E-02 -0.93742403211E-02  0.33656014664E-01  0.35750994182E-01  0.10000000475E-02 0. -1.
</event>
<event>
 4   0  0.4892667E-02  0.9118800E+02  0.7818609E-02  0.1379984E+01
      -11   -1    0    0    0    0  0.00000000000E+00  0.00000000000E+00  0.35740347158E-01  0.35744000000E-01  0.51099999109E-03 0. -1.
       11   -1    0    0    0    0 -0.00000000000E+00 -0.00000000000E+00 -0.35740347158E-01  0.35744000000E-01  0.51099999109E-03 0.  1.
       22    1    1    2    0    0  0.70517218322E-02 -0.45906266316E-02 -0.34732304145E-01  0.35737005818E-01  0.00000000000E+00 0.  1.
  9000001    1    1    2    0    0 -0.70517218322E-02  0.45906266316E-02  0.34732304145E-01  0.35750994182E-01  0.10000000475E-02 0. -1.
</event>
<event>
 4   0  0.4892667E-02  0.9118800E+02  0.7818609E-02  0.1379984E+01
      -11   -1    0    0    0    0  0.00000000000E+00  0.00000000000E+00  0.35740347158E-01  0.35744000000E-01  0.51099999109E-03 0. -1.
       11   -1    0    0    0    0 -0.00000000000E+00 -0.00000000000E+00 -0.35740347158E-01  0.35744000000E-01  0.51099999109E-03 0.  1.
       22    1    1    2    0    0 -0.12064753573E-01  0.47776141874E-02 -0.33297893458E-01  0.35737005818E-01  0.00000000000E+00 0.  1.
  9000001    1    1    2    0    0  0.12064753573E-01 -0.47776141874E-02  0.33297893458E-01  0.35750994182E-01  0.10000000475E-02 0. -1.
</event>
<event>
 4   0  0.4892667E-02  0.9118800E+02  0.7818609E-02  0.1379984E+01
      -11   -1    0    0    0    0  0.00000000000E+00  0.00000000000E+00  0.35740347158E-01  0.35744000000E-01  0.51099999109E-03 0.  1.
       11   -1    0    0    0    0 -0.00000000000E+00 -0.00000000000E+00 -0.35740347158E-01  0.35744000000E-01  0.51099999109E-03 0. -1.
       22    1    1    2    0    0 -0.20800125637E-01  0.89724946070E-02  0.27640236954E-01  0.35737005818E-01  0.00000000000E+00 0.  1.
  9000001    1    1    2    0    0  0.20800125637E-01 -0.89724946070E-02 -0.27640236954E-01  0.35750994182E-01  0.10000000475E-02 0. -1.
</event>
<event>
 4   0  0.4892667E-02  0.9118800E+02  0.7818609E-02  0.1379984E+01
      -11   -1    0    0    0    0  0.00000000000E+00  0.00000000000E+00  0.35740347158E-01  0.35744000000E-01  0.51099999109E-03 0.  1.
       11   -1    0    0    0    0 -0.00000000000E+00 -0.00000000000E+00 -0.35740347158E-01  0.35744000000E-01  0.51099999109E-03 0. -1.
       22    1    1    2    0    0  0.11123476727E-01 -0.15686674499E-02  0.33925523324E-01  0.35737005818E-01  0.00000000000E+00 0.  1.
  9000001    1    1    2    0    0 -0.11123476727E-01  0.15686674499E-02 -0.33925523324E-01  0.35750994182E-01  0.10000000475E-02 0. -1.
</event>
<event>
 4   0  0.4892667E-02  0.9118800E+02  0.7818609E-02  0.1379984E+01
      -11   -1    0    0    0    0  0.00000000000E+00  0.00000000000E+00  0.35740347158E-01  0.35744000000E-01  0.51099999109E-03 0.  1.
       11   -1    0    0    0    0 -0.00000000000E+00 -0.00000000000E+00 -0.35740347158E-01  0.35744000000E-01  0.51099999109E-03 0. -1.
       22    1    1    2    0    0  0.63221827762E-02  0.64440422581E-02  0.34577997472E-01  0.35737005818E-01  0.00000000000E+00 0.  1.
  9000001    1    1    2    0    0 -0.63221827762E-02 -0.64440422581E-02 -0.34577997472E-01  0.35750994182E-01  0.10000000475E-02 0. -1.
</event>
<event>
 4   0  0.4892667E-02  0.9118800E+02  0.7818609E-02  0.1379984E+01
      -11   -1    0    0    0    0  0.00000000000E+00  0.00000000000E+00  0.35740347158E-01  0.35744000000E-01  0.51099999109E-03 0.  1.
       11   -1    0    0    0    0 -0.00000000000E+00 -0.00000000000E+00 -0.35740347158E-01  0.35744000000E-01  0.51099999109E-03 0. -1.
       22    1    1    2    0    0  0.63957244634E-03 -0.55859858550E-02 -0.35291943755E-01  0.35737005818E-01  0.00000000000E+00 0. -1.
  9000001    1    1    2    0    0 -0.63957244634E-03  0.55859858550E-02  0.35291943755E-01  0.35750994182E-01  0.10000000475E-02 0.  1.
</event>
<event>
 4   0  0.4892667E-02  0.9118800E+02  0.7818609E-02  0.1379984E+01
      -11   -1    0    0    0    0  0.00000000000E+00  0.00000000000E+00  0.35740347158E-01  0.35744000000E-01  0.51099999109E-03 0.  1.
       11   -1    0    0    0    0 -0.00000000000E+00 -0.00000000000E+00 -0.35740347158E-01  0.35744000000E-01  0.51099999109E-03 0. -1.
       22    1    1    2    0    0  0.33576477392E-02  0.36906021046E-02  0.35386992563E-01  0.35737005818E-01  0.00000000000E+00 0.  1.
  9000001    1    1    2    0    0 -0.33576477392E-02 -0.36906021046E-02 -0.35386992563E-01  0.35750994182E-01  0.10000000475E-02 0. -1.
</event>
<event>
 4   0  0.4892667E-02  0.9118800E+02  0.7818609E-02  0.1379984E+01
      -11   -1    0    0    0    0  0.00000000000E+00  0.00000000000E+00  0.35740347158E-01  0.35744000000E-01  0.51099999109E-03 0. -1.
       11   -1    0    0    0    0 -0.00000000000E+00 -0.00000000000E+00 -0.35740347158E-01  0.35744000000E-01  0.51099999109E-03 0.  1.
       22    1    1    2    0    0 -0.98845126664E-02  0.15102969690E-01  0.30843642793E-01  0.35737005818E-01  0.00000000000E+00 0. -1.
  9000001    1    1    2    0    0  0.98845126664E-02 -0.15102969690E-01 -0.30843642793E-01  0.35750994182E-01  0.10000000475E-02 0.  1.
</event>
<event>
 4   0  0.4892667E-02  0.9118800E+02  0.7818609E-02  0.1379984E+01
      -11   -1    0    0    0    0  0.00000000000E+00  0.00000000000E+00  0.35740347158E-01  0.35744000000E-01  0.51099999109E-03 0.  1.
       11   -1    0    0    0    0 -0.00000000000E+00 -0.00000000000E+00 -0.35740347158E-01  0.35744000000E-01  0.51099999109E-03 0. -1.
       22    1    1    2    0    0 -0.71467591278E-02 -0.29807992234E-02 -0.34887995856E-01  0.35737005818E-01  0.00000000000E+00 0. -1.
  9000001    1    1    2    0    0  0.71467591278E-02  0.29807992234E-02  0.34887995856E-01  0.35750994182E-01  0.10000000475E-02 0.  1.
</event>
<event>
 4   0  0.4892667E-02  0.9118800E+02  0.7818609E-02  0.1379984E+01
      -11   -1    0    0    0    0  0.00000000000E+00  0.00000000000E+00  0.35740347158E-01  0.35744000000E-01  0.51099999109E-03 0. -1.
       11   -1    0    0    0    0 -0.00000000000E+00 -0.00000000000E+00 -0.35740347158E-01  0.35744000000E-01  0.51099999109E-03 0.  1.
       22    1    1    2    0    0  0.34118520606E-01  0.25238759924E-02  0.10329094175E-01  0.35737005818E-01  0.00000000000E+00 0. -1.
  9000001    1    1    2    0    0 -0.34118520606E-01 -0.25238759924E-02 -0.10329094175E-01  0.35750994182E-01  0.10000000475E-02 0.  1.
</event>
<event>
 4   0  0.4892667E-02  0.9118800E+02  0.7818609E-02  0.1379984E+01
      -11   -1    0    0    0    0  0.00000000000E+00  0.00000000000E+00  0.35740347158E-01  0.35744000000E-01  0.51099999109E-03 0. -1.
       11   -1    0    0    0    0 -0.00000000000E+00 -0.00000000000E+00 -0.35740347158E-01  0.35744000000E-01  0.51099999109E-03 0.  1.
       22    1    1    2    0    0  0.32417093332E-02 -0.53807031119E-03  0.35585606442E-01  0.35737005818E-01  0.00000000000E+00 0. -1.
  9000001    1    1    2    0    0 -0.32417093332E-02  0.53807031119E-03 -0.35585606442E-01  0.35750994182E-01  0.10000000475E-02 0.  1.
</event>
<event>
 4   0  0.4892667E-02  0.9118800E+02  0.7818609E-02  0.1379984E+01
      -11   -1    0    0    0    0  0.00000000000E+00  0.00000000000E+00  0.35740347158E-01  0.35744000000E-01  0.51099999109E-03 0. -1.
       11   -1    0    0    0    0 -0.00000000000E+00 -0.00000000000E+00 -0.35740347158E-01  0.35744000000E-01  0.51099999109E-03 0.  1.
       22    1    1    2    0    0 -0.96474893003E-02  0.46949124419E-02  0.34088375324E-01  0.35737005818E-01  0.00000000000E+00 0. -1.
  9000001    1    1    2    0    0  0.96474893003E-02 -0.46949124419E-02 -0.34088375324E-01  0.35750994182E-01  0.10000000475E-02 0.  1.
</event>
<event>
 4   0  0.4892667E-02  0.9118800E+02  0.7818609E-02  0.1379984E+01
      -11   -1    0    0    0    0  0.00000000000E+00  0.00000000000E+00  0.35740347158E-01  0.35744000000E-01  0.51099999109E-03 0.  1.
       11   -1    0    0    0    0 -0.00000000000E+00 -0.00000000000E+00 -0.35740347158E-01  0.35744000000E-01  0.51099999109E-03 0. -1.
       22    1    1    2    0    0 -0.32970119300E-02  0.26224501718E-02  0.35487829636E-01  0.35737005818E-01  0.00000000000E+00 0.  1.
  9000001    1    1    2    0    0  0.32970119300E-02 -0.26224501718E-02 -0.35487829636E-01  0.35750994182E-01  0.10000000475E-02 0. -1.
</event>
<event>
 4   0  0.4892667E-02  0.9118800E+02  0.7818609E-02  0.1379984E+01
      -11   -1    0    0    0    0  0.00000000000E+00  0.00000000000E+00  0.35740347158E-01  0.35744000000E-01  0.51099999109E-03 0.  1.
       11   -1    0    0    0    0 -0.00000000000E+00 -0.00000000000E+00 -0.35740347158E-01  0.35744000000E-01  0.51099999109E-03 0. -1.
       22    1    1    2    0    0 -0.90584376547E-02  0.39667653539E-02 -0.34341564681E-01  0.35737005818E-01  0.00000000000E+00 0. -1.
  9000001    1    1    2    0    0  0.90584376547E-02 -0.39667653539E-02  0.34341564681E-01  0.35750994182E-01  0.10000000475E-02 0.  1.
</event>
<event>
 4   0  0.4892667E-02  0.9118800E+02  0.7818609E-02  0.1379984E+01
      -11   -1    0    0    0    0  0.00000000000E+00  0.00000000000E+00  0.35740347158E-01  0.35744000000E-01  0.51099999109E-03 0.  1.
       11   -1    0    0    0    0 -0.00000000000E+00 -0.00000000000E+00 -0.35740347158E-01  0.35744000000E-01  0.51099999109E-03 0. -1.
       22    1    1    2    0    0 -0.40425341767E-02  0.35023263408E-02  0.35334476259E-01  0.35737005818E-01  0.00000000000E+00 0.  1.
  9000001    1    1    2    0    0  0.40425341767E-02 -0.35023263408E-02 -0.35334476259E-01  0.35750994182E-01  0.10000000475E-02 0. -1.
</event>
<event>
 4   0  0.4892667E-02  0.9118800E+02  0.7818609E-02  0.1379984E+01
      -11   -1    0    0    0    0  0.00000000000E+00  0.00000000000E+00  0.35740347158E-01  0.35744000000E-01  0.51099999109E-03 0. -1.
       11   -1    0    0    0    0 -0.00000000000E+00 -0.00000000000E+00 -0.35740347158E-01  0.35744000000E-01  0.51099999109E-03 0.  1.
       22    1    1    2    0    0  0.40436990293E-02  0.34808716116E-01  0.70096622894E-02  0.35737005818E-01  0.00000000000E+00 0. -1.
  9000001    1    1    2    0    0 -0.40436990293E-02 -0.34808716116E-01 -0.70096622894E-02  0.35750994182E-01  0.10000000475E-02 0.  1.
</event>
<event>
 4   0  0.4892667E-02  0.9118800E+02  0.7818609E-02  0.1379984E+01
      -11   -1    0    0    0    0  0.00000000000E+00  0.00000000000E+00  0.35740347158E-01  0.35744000000E-01  0.51099999109E-03 0.  1.
       11   -1    0    0    0    0 -0.00000000000E+00 -0.00000000000E+00 -0.35740347158E-01  0.35744000000E-01  0.51099999109E-03 0. -1.
       22    1    1    2    0    0  0.25256609087E-01  0.62810087495E-02 -0.24490533097E-01  0.35737005818E-01  0.00000000000E+00 0. -1.
  9000001    1    1    2    0    0 -0.25256609087E-01 -0.62810087495E-02  0.24490533097E-01  0.35750994182E-01  0.10000000475E-02 0.  1.
</event>
<event>
 4   0  0.4892667E-02  0.9118800E+02  0.7818609E-02  0.1379984E+01
      -11   -1    0    0    0    0  0.00000000000E+00  0.00000000000E+00  0.35740347158E-01  0.35744000000E-01  0.51099999109E-03 0. -1.
       11   -1    0    0    0    0 -0.00000000000E+00 -0.00000000000E+00 -0.35740347158E-01  0.35744000000E-01  0.51099999109E-03 0.  1.
       22    1    1    2    0    0  0.98727912509E-02 -0.12938891397E-03 -0.34345958078E-01  0.35737005818E-01  0.00000000000E+00 0.  1.
  9000001    1    1    2    0    0 -0.98727912509E-02  0.12938891397E-03  0.34345958078E-01  0.35750994182E-01  0.10000000475E-02 0. -1.
</event>
<event>
 4   0  0.4892667E-02  0.9118800E+02  0.7818609E-02  0.1379984E+01
      -11   -1    0    0    0    0  0.00000000000E+00  0.00000000000E+00  0.35740347158E-01  0.35744000000E-01  0.51099999109E-03 0.  1.
       11   -1    0    0    0    0 -0.00000000000E+00 -0.00000000000E+00 -0.35740347158E-01  0.35744000000E-01  0.51099999109E-03 0. -1.
       22    1    1    2    0    0 -0.19953705829E-02  0.13808029260E-01 -0.32901221999E-01  0.35737005818E-01  0.00000000000E+00 0. -1.
  9000001    1    1    2    0    0  0.19953705829E-02 -0.13808029260E-01  0.32901221999E-01  0.35750994182E-01  0.10000000475E-02 0.  1.
</event>
<event>
 4   0  0.4892667E-02  0.9118800E+02  0.7818609E-02  0.1379984E+01
      -11   -1    0    0    0    0  0.00000000000E+00  0.00000000000E+00  0.35740347158E-01  0.35744000000E-01  0.51099999109E-03 0. -1.
       11   -1    0    0    0    0 -0.00000000000E+00 -0.00000000000E+00 -0.35740347158E-01  0.35744000000E-01  0.51099999109E-03 0.  1.
       22    1    1    2    0    0 -0.14972985284E-01 -0.26606804798E-01  0.18574747239E-01  0.35737005818E-01  0.00000000000E+00 0. -1.
  9000001    1    1    2    0    0  0.14972985284E-01  0.26606804798E-01 -0.18574747239E-01  0.35750994182E-01  0.10000000475E-02 0.  1.
</event>
<event>
 4   0  0.4892667E-02  0.9118800E+02  0.7818609E-02  0.1379984E+01
      -11   -1    0    0    0    0  0.00000000000E+00  0.00000000000E+00  0.35740347158E-01  0.35744000000E-01  0.51099999109E-03 0. -1.
       11   -1    0    0    0    0 -0.00000000000E+00 -0.00000000000E+00 -0.35740347158E-01  0.35744000000E-01  0.51099999109E-03 0.  1.
       22    1    1    2    0    0 -0.93102785193E-02  0.33164128773E-02  0.34343175514E-01  0.35737005818E-01  0.00000000000E+00 0. -1.
  9000001    1    1    2    0    0  0.93102785193E-02 -0.33164128773E-02 -0.34343175514E-01  0.35750994182E-01  0.10000000475E-02 0.  1.
</event>
<event>
 4   0  0.4892667E-02  0.9118800E+02  0.7818609E-02  0.1379984E+01
      -11   -1    0    0    0    0  0.00000000000E+00  0.00000000000E+00  0.35740347158E-01  0.35744000000E-01  0.51099999109E-03 0. -1.
       11   -1    0    0    0    0 -0.00000000000E+00 -0.00000000000E+00 -0.35740347158E-01  0.35744000000E-01  0.51099999109E-03 0.  1.
       22    1    1    2    0    0 -0.34519085751E-01 -0.85400643842E-02 -0.35543781614E-02  0.35737005818E-01  0.00000000000E+00 0.  1.
  9000001    1    1    2    0    0  0.34519085751E-01  0.85400643842E-02  0.35543781614E-02  0.35750994182E-01  0.10000000475E-02 0. -1.
</event>
<event>
 4   0  0.4892667E-02  0.9118800E+02  0.7818609E-02  0.1379984E+01
      -11   -1    0    0    0    0  0.00000000000E+00  0.00000000000E+00  0.35740347158E-01  0.35744000000E-01  0.51099999109E-03 0.  1.
       11   -1    0    0    0    0 -0.00000000000E+00 -0.00000000000E+00 -0.35740347158E-01  0.35744000000E-01  0.51099999109E-03 0. -1.
       22    1    1    2    0    0 -0.10654703381E-01 -0.19439819328E-02  0.34056303601E-01  0.35737005818E-01  0.00000000000E+00 0.  1.
  9000001    1    1    2    0    0  0.10654703381E-01  0.19439819328E-02 -0.34056303601E-01  0.35750994182E-01  0.10000000475E-02 0. -1.
</event>
<event>
 4   0  0.4892667E-02  0.9118800E+02  0.7818609E-02  0.1379984E+01
      -11   -1    0    0    0    0  0.00000000000E+00  0.00000000000E+00  0.35740347158E-01  0.35744000000E-01  0.51099999109E-03 0.  1.
       11   -1    0    0    0    0 -0.00000000000E+00 -0.00000000000E+00 -0.35740347158E-01  0.35744000000E-01  0.51099999109E-03 0. -1.
       22    1    1    2    0    0  0.31104404105E-03 -0.15487625719E-01  0.32205128257E-01  0.35737005818E-01  0.00000000000E+00 0.  1.
  9000001    1    1    2    0    0 -0.31104404105E-03  0.15487625719E-01 -0.32205128257E-01  0.35750994182E-01  0.10000000475E-02 0. -1.
</event>
<event>
 4   0  0.4892667E-02  0.9118800E+02  0.7818609E-02  0.1379984E+01
      -11   -1    0    0    0    0  0.00000000000E+00  0.00000000000E+00  0.35740347158E-01  0.35744000000E-01  0.51099999109E-03 0. -1.
       11   -1    0    0    0    0 -0.00000000000E+00 -0.00000000000E+00 -0.35740347158E-01  0.35744000000E-01  0.51099999109E-03 0.  1.
       22    1    1    2    0    0  0.31364638033E-02 -0.11453394995E-01  0.33706318737E-01  0.35737005818E-01  0.00000000000E+00 0. -1.
  9000001    1    1    2    0    0 -0.31364638033E-02  0.11453394995E-01 -0.33706318737E-01  0.35750994182E-01  0.10000000475E-02 0.  1.
</event>
<event>
 4   0  0.4892667E-02  0.9118800E+02  0.7818609E-02  0.1379984E+01
      -11   -1    0    0    0    0  0.00000000000E+00  0.00000000000E+00  0.35740347158E-01  0.35744000000E-01  0.51099999109E-03 0.  1.
       11   -1    0    0    0    0 -0.00000000000E+00 -0.00000000000E+00 -0.35740347158E-01  0.35744000000E-01  0.51099999109E-03 0. -1.
       22    1    1    2    0    0  0.10033696863E-01 -0.34294442047E-01  0.59140239672E-03  0.35737005818E-01  0.00000000000E+00 0. -1.
  9000001    1    1    2    0    0 -0.10033696863E-01  0.34294442047E-01 -0.59140239672E-03  0.35750994182E-01  0.10000000475E-02 0.  1.
</event>
<event>
 4   0  0.4892667E-02  0.9118800E+02  0.7818609E-02  0.1379984E+01
      -11   -1    0    0    0    0  0.00000000000E+00  0.00000000000E+00  0.35740347158E-01  0.35744000000E-01  0.51099999109E-03 0. -1.
       11   -1    0    0    0    0 -0.00000000000E+00 -0.00000000000E+00 -0.35740347158E-01  0.35744000000E-01  0.51099999109E-03 0.  1.
       22    1    1    2    0    0 -0.17924246130E-01 -0.94145086248E-02  0.29448633464E-01  0.35737005818E-01  0.00000000000E+00 0. -1.
  9000001    1    1    2    0    0  0.17924246130E-01  0.94145086248E-02 -0.29448633464E-01  0.35750994182E-01  0.10000000475E-02 0.  1.
</event>
<event>
 4   0  0.4892667E-02  0.9118800E+02  0.7818609E-02  0.1379984E+01
      -11   -1    0    0    0    0  0.00000000000E+00  0.00000000000E+00  0.35740347158E-01  0.35744000000E-01  0.51099999109E-03 0.  1.
       11   -1    0    0    0    0 -0.00000000000E+00 -0.00000000000E+00 -0.35740347158E-01  0.35744000000E-01  0.51099999109E-03 0. -1.
       22    1    1    2    0    0 -0.39858320705E-02  0.53501972130E-02 -0.35108718538E-01  0.35737005818E-01  0.00000000000E+00 0. -1.
  9000001    1    1    2    0    0  0.39858320705E-02 -0.53501972130E-02  0.35108718538E-01  0.35750994182E-01  0.10000000475E-02 0.  1.
</event>
<event>
 4   0  0.4892667E-02  0.9118800E+02  0.7818609E-02  0.1379984E+01
      -11   -1    0    0    0    0  0.00000000000E+00  0.00000000000E+00  0.35740347158E-01  0.35744000000E-01  0.51099999109E-03 0.  1.
       11   -1    0    0    0    0 -0.00000000000E+00 -0.00000000000E+00 -0.35740347158E-01  0.35744000000E-01  0.51099999109E-03 0. -1.
       22    1    1    2    0    0  0.65212506192E-02 -0.14090283492E-02 -0.35108709950E-01  0.35737005818E-01  0.00000000000E+00 0. -1.
  9000001    1    1    2    0    0 -0.65212506192E-02  0.14090283492E-02  0.35108709950E-01  0.35750994182E-01  0.10000000475E-02 0.  1.
</event>
<event>
 4   0  0.4892667E-02  0.9118800E+02  0.7818609E-02  0.1379984E+01
      -11   -1    0    0    0    0  0.00000000000E+00  0.00000000000E+00  0.35740347158E-01  0.35744000000E-01  0.51099999109E-03 0.  1.
       11   -1    0    0    0    0 -0.00000000000E+00 -0.00000000000E+00 -0.35740347158E-01  0.35744000000E-01  0.51099999109E-03 0. -1.
       22    1    1    2    0    0  0.33214721318E-01  0.11346881360E-01  0.67204282636E-02  0.35737005818E-01  0.00000000000E+00 0. -1.
  9000001    1    1    2    0    0 -0.33214721318E-01 -0.11346881360E-01 -0.67204282636E-02  0.35750994182E-01  0.10000000475E-02 0.  1.
</event>
<event>
 4   0  0.4892667E-02  0.9118800E+02  0.7818609E-02  0.1379984E+01
      -11   -1    0    0    0    0  0.00000000000E+00  0.00000000000E+00  0.35740347158E-01  0.35744000000E-01  0.51099999109E-03 0. -1.
       11   -1    0    0    0    0 -0.00000000000E+00 -0.00000000000E+00 -0.35740347158E-01  0.35744000000E-01  0.51099999109E-03 0.  1.
       22    1    1    2    0    0 -0.30744003812E-01  0.14631176554E-01 -0.10856725434E-01  0.35737005818E-01  0.00000000000E+00 0.  1.
  9000001    1    1    2    0    0  0.30744003812E-01 -0.14631176554E-01  0.10856725434E-01  0.35750994182E-01  0.10000000475E-02 0. -1.
</event>
<event>
 4   0  0.4892667E-02  0.9118800E+02  0.7818609E-02  0.1379984E+01
      -11   -1    0    0    0    0  0.00000000000E+00  0.00000000000E+00  0.35740347158E-01  0.35744000000E-01  0.51099999109E-03 0. -1.
       11   -1    0    0    0    0 -0.00000000000E+00 -0.00000000000E+00 -0.35740347158E-01  0.35744000000E-01  0.51099999109E-03 0.  1.
       22    1    1    2    0    0 -0.25152091245E-02  0.98021378656E-02  0.34274267333E-01  0.35737005818E-01  0.00000000000E+00 0. -1.
  9000001    1    1    2    0    0  0.25152091245E-02 -0.98021378656E-02 -0.34274267333E-01  0.35750994182E-01  0.10000000475E-02 0.  1.
</event>
<event>
 4   0  0.4892667E-02  0.9118800E+02  0.7818609E-02  0.1379984E+01
      -11   -1    0    0    0    0  0.00000000000E+00  0.00000000000E+00  0.35740347158E-01  0.35744000000E-01  0.51099999109E-03 0.  1.
       11   -1    0    0    0    0 -0.00000000000E+00 -0.00000000000E+00 -0.35740347158E-01  0.35744000000E-01  0.51099999109E-03 0. -1.
       22    1    1    2    0    0  0.21787030036E-01  0.22649382900E-01  0.17013652205E-01  0.35737005818E-01  0.00000000000E+00 0.  1.
  9000001    1    1    2    0    0 -0.21787030036E-01 -0.22649382900E-01 -0.17013652205E-01  0.35750994182E-01  0.10000000475E-02 0. -1.
</event>
<event>
 4   0  0.4892667E-02  0.9118800E+02  0.7818609E-02  0.1379984E+01
      -11   -1    0    0    0    0  0.00000000000E+00  0.00000000000E+00  0.35740347158E-01  0.35744000000E-01  0.51099999109E-03 0. -1.
       11   -1    0    0    0    0 -0.00000000000E+00 -0.00000000000E+00 -0.35740347158E-01  0.35744000000E-01  0.51099999109E-03 0.  1.
       22    1    1    2    0    0  0.12081062687E-01 -0.46142748834E-02 -0.33315011279E-01  0.35737005818E-01  0.00000000000E+00 0.  1.
  9000001    1    1    2    0    0 -0.12081062687E-01  0.46142748834E-02  0.33315011279E-01  0.35750994182E-01  0.10000000475E-02 0. -1.
</event>
<event>
 4   0  0.4892667E-02  0.9118800E+02  0.7818609E-02  0.1379984E+01
      -11   -1    0    0    0    0  0.00000000000E+00  0.00000000000E+00  0.35740347158E-01  0.35744000000E-01  0.51099999109E-03 0.  1.
       11   -1    0    0    0    0 -0.00000000000E+00 -0.00000000000E+00 -0.35740347158E-01  0.35744000000E-01  0.51099999109E-03 0. -1.
       22    1    1    2    0    0  0.21583727423E-02  0.11182250151E-01  0.33873769993E-01  0.35737005818E-01  0.00000000000E+00 0.  1.
  9000001    1    1    2    0    0 -0.21583727423E-02 -0.11182250151E-01 -0.33873769993E-01  0.35750994182E-01  0.10000000475E-02 0. -1.
</event>
<event>
 4   0  0.4892667E-02  0.9118800E+02  0.7818609E-02  0.1379984E+01
      -11   -1    0    0    0    0  0.00000000000E+00  0.00000000000E+00  0.35740347158E-01  0.35744000000E-01  0.51099999109E-03 0. -1.
       11   -1    0    0    0    0 -0.00000000000E+00 -0.00000000000E+00 -0.35740347158E-01  0.35744000000E-01  0.51099999109E-03 0.  1.
       22    1    1    2    0    0  0.94350569998E-02 -0.53828797731E-02 -0.34046114163E-01  0.35737005818E-01  0.00000000000E+00 0.  1.
  9000001    1    1    2    0    0 -0.94350569998E-02  0.53828797731E-02  0.34046114163E-01  0.35750994182E-01  0.10000000475E-02 0. -1.
</event>
<event>
 4   0  0.4892667E-02  0.9118800E+02  0.7818609E-02  0.1379984E+01
      -11   -1    0    0    0    0  0.00000000000E+00  0.00000000000E+00  0.35740347158E-01  0.35744000000E-01  0.51099999109E-03 0.  1.
       11   -1    0    0    0    0 -0.00000000000E+00 -0.00000000000E+00 -0.35740347158E-01  0.35744000000E-01  0.51099999109E-03 0. -1.
       22    1    1    2    0    0  0.17833165329E-01  0.10187538585E-01  0.29245954537E-01  0.35737005818E-01  0.00000000000E+00 0.  1.
  9000001    1    1    2    0    0 -0.17833165329E-01 -0.10187538585E-01 -0.29245954537E-01  0.35750994182E-01  0.10000000475E-02 0. -1.
</event>
<event>
 4   0  0.4892667E-02  0.9118800E+02  0.7818609E-02  0.1379984E+01
      -11   -1    0    0    0    0  0.00000000000E+00  0.00000000000E+00  0.35740347158E-01  0.35744000000E-01  0.51099999109E-03 0.  1.
       11   -1    0    0    0    0 -0.00000000000E+00 -0.00000000000E+00 -0.35740347158E-01  0.35744000000E-01  0.51099999109E-03 0. -1.
       22    1    1    2    0    0 -0.19521910716E-01 -0.16581127322E-01 -0.24921773685E-01  0.35737005818E-01  0.00000000000E+00 0. -1.
  9000001    1    1    2    0    0  0.19521910716E-01  0.16581127322E-01  0.24921773685E-01  0.35750994182E-01  0.10000000475E-02 0.  1.
</event>
<event>
 4   0  0.4892667E-02  0.9118800E+02  0.7818609E-02  0.1379984E+01
      -11   -1    0    0    0    0  0.00000000000E+00  0.00000000000E+00  0.35740347158E-01  0.35744000000E-01  0.51099999109E-03 0.  1.
       11   -1    0    0    0    0 -0.00000000000E+00 -0.00000000000E+00 -0.35740347158E-01  0.35744000000E-01  0.51099999109E-03 0. -1.
       22    1    1    2    0    0 -0.35369594119E-02 -0.45471261137E-02 -0.35269634916E-01  0.35737005818E-01  0.00000000000E+00 0. -1.
  9000001    1    1    2    0    0  0.35369594119E-02  0.45471261137E-02  0.35269634916E-01  0.35750994182E-01  0.10000000475E-02 0.  1.
</event>
<event>
 4   0  0.4892667E-02  0.9118800E+02  0.7818609E-02  0.1379984E+01
      -11   -1    0    0    0    0  0.00000000000E+00  0.00000000000E+00  0.35740347158E-01  0.35744000000E-01  0.51099999109E-03 0.  1.
       11   -1    0    0    0    0 -0.00000000000E+00 -0.00000000000E+00 -0.35740347158E-01  0.35744000000E-01  0.51099999109E-03 0. -1.
       22    1    1    2    0    0 -0.29960590052E-02  0.26169221575E-03 -0.35610233536E-01  0.35737005818E-01  0.00000000000E+00 0. -1.
  9000001    1    1    2    0    0  0.29960590052E-02 -0.26169221575E-03  0.35610233536E-01  0.35750994182E-01  0.10000000475E-02 0.  1.
</event>
<event>
 4   0  0.4892667E-02  0.9118800E+02  0.7818609E-02  0.1379984E+01
      -11   -1    0    0    0    0  0.00000000000E+00  0.00000000000E+00  0.35740347158E-01  0.35744000000E-01  0.51099999109E-03 0.  1.
       11   -1    0    0    0    0 -0.00000000000E+00 -0.00000000000E+00 -0.35740347158E-01  0.35744000000E-01  0.51099999109E-03 0. -1.
       22    1    1    2    0    0  0.16623412692E-01 -0.21726819314E-01  0.22994370133E-01  0.35737005818E-01  0.00000000000E+00 0.  1.
  9000001    1    1    2    0    0 -0.16623412692E-01  0.21726819314E-01 -0.22994370133E-01  0.35750994182E-01  0.10000000475E-02 0. -1.
</event>
<event>
 4   0  0.4892667E-02  0.9118800E+02  0.7818609E-02  0.1379984E+01
      -11   -1    0    0    0    0  0.00000000000E+00  0.00000000000E+00  0.35740347158E-01  0.35744000000E-01  0.51099999109E-03 0.  1.
       11   -1    0    0    0    0 -0.00000000000E+00 -0.00000000000E+00 -0.35740347158E-01  0.35744000000E-01  0.51099999109E-03 0. -1.
       22    1    1    2    0    0  0.29098890035E-01 -0.13420478367E-01  0.15820206826E-01  0.35737005818E-01  0.00000000000E+00 0.  1.
  9000001    1    1    2    0    0 -0.29098890035E-01  0.13420478367E-01 -0.15820206826E-01  0.35750994182E-01  0.10000000475E-02 0. -1.
</event>
<event>
 4   0  0.4892667E-02  0.9118800E+02  0.7818609E-02  0.1379984E+01
      -11   -1    0    0    0    0  0.00000000000E+00  0.00000000000E+00  0.35740347158E-01  0.35744000000E-01  0.51099999109E-03 0.  1.
       11   -1    0    0    0    0 -0.00000000000E+00 -0.00000000000E+00 -0.35740347158E-01  0.35744000000E-01  0.51099999109E-03 0. -1.
       22    1    1    2    0    0  0.30845807688E-01  0.14308758649E-01  0.10996779477E-01  0.35737005818E-01  0.00000000000E+00 0.  1.
  9000001    1    1    2    0    0 -0.30845807688E-01 -0.14308758649E-01 -0.10996779477E-01  0.35750994182E-01  0.10000000475E-02 0. -1.
</event>
<event>
 4   0  0.4892667E-02  0.9118800E+02  0.7818609E-02  0.1379984E+01
      -11   -1    0    0    0    0  0.00000000000E+00  0.00000000000E+00  0.35740347158E-01  0.35744000000E-01  0.51099999109E-03 0.  1.
       11   -1    0    0    0    0 -0.00000000000E+00 -0.00000000000E+00 -0.35740347158E-01  0.35744000000E-01  0.51099999109E-03 0. -1.
       22    1    1    2    0    0 -0.12806275811E-01  0.21081113745E-01 -0.25859611907E-01  0.35737005818E-01  0.00000000000E+00 0. -1.
  9000001    1    1    2    0    0  0.12806275811E-01 -0.21081113745E-01  0.25859611907E-01  0.35750994182E-01  0.10000000475E-02 0.  1.
</event>
<event>
 4   0  0.4892667E-02  0.9118800E+02  0.7818609E-02  0.1379984E+01
      -11   -1    0    0    0    0  0.00000000000E+00  0.00000000000E+00  0.35740347158E-01  0.35744000000E-01  0.51099999109E-03 0. -1.
       11   -1    0    0    0    0 -0.00000000000E+00 -0.00000000000E+00 -0.35740347158E-01  0.35744000000E-01  0.51099999109E-03 0.  1.
       22    1    1    2    0    0  0.26273210831E-02  0.18642975995E-02  0.35591504088E-01  0.35737005818E-01  0.00000000000E+00 0. -1.
  9000001    1    1    2    0    0 -0.26273210831E-02 -0.18642975995E-02 -0.35591504088E-01  0.35750994182E-01  0.10000000475E-02 0.  1.
</event>
<event>
 4   0  0.4892667E-02  0.9118800E+02  0.7818609E-02  0.1379984E+01
      -11   -1    0    0    0    0  0.00000000000E+00  0.00000000000E+00  0.35740347158E-01  0.35744000000E-01  0.51099999109E-03 0. -1.
       11   -1    0    0    0    0 -0.00000000000E+00 -0.00000000000E+00 -0.35740347158E-01  0.35744000000E-01  0.51099999109E-03 0.  1.
       22    1    1    2    0    0  0.61715430620E-02  0.11258576013E-01  0.33351013587E-01  0.35737005818E-01  0.00000000000E+00 0. -1.
  9000001    1    1    2    0    0 -0.61715430620E-02 -0.11258576013E-01 -0.33351013587E-01  0.35750994182E-01  0.10000000475E-02 0.  1.
</event>
<event>
 4   0  0.4892667E-02  0.9118800E+02  0.7818609E-02  0.1379984E+01
      -11   -1    0    0    0    0  0.00000000000E+00  0.00000000000E+00  0.35740347158E-01  0.35744000000E-01  0.51099999109E-03 0.  1.
       11   -1    0    0    0    0 -0.00000000000E+00 -0.00000000000E+00 -0.35740347158E-01  0.35744000000E-01  0.51099999109E-03 0. -1.
       22    1    1    2    0    0 -0.15159863896E-01  0.35201124610E-02 -0.32170186816E-01  0.35737005818E-01  0.00000000000E+00 0. -1.
  9000001    1    1    2    0    0  0.15159863896E-01 -0.35201124610E-02  0.32170186816E-01  0.35750994182E-01  0.10000000475E-02 0.  1.
</event>
<event>
 4   0  0.4892667E-02  0.9118800E+02  0.7818609E-02  0.1379984E+01
      -11   -1    0    0    0    0  0.00000000000E+00  0.00000000000E+00  0.35740347158E-01  0.35744000000E-01  0.51099999109E-03 0.  1.
       11   -1    0    0    0    0 -0.00000000000E+00 -0.00000000000E+00 -0.35740347158E-01  0.35744000000E-01  0.51099999109E-03 0. -1.
       22    1    1    2    0    0 -0.11781520070E-01 -0.60662901224E-03 -0.33733683033E-01  0.35737005818E-01  0.00000000000E+00 0. -1.
  9000001    1    1    2    0    0  0.11781520070E-01  0.60662901224E-03  0.33733683033E-01  0.35750994182E-01  0.10000000475E-02 0.  1.
</event>
<event>
 4   0  0.4892667E-02  0.9118800E+02  0.7818609E-02  0.1379984E+01
      -11   -1    0    0    0    0  0.00000000000E+00  0.00000000000E+00  0.35740347158E-01  0.35744000000E-01  0.51099999109E-03 0. -1.
       11   -1    0    0    0    0 -0.00000000000E+00 -0.00000000000E+00 -0.35740347158E-01  0.35744000000E-01  0.51099999109E-03 0.  1.
       22    1    1    2    0    0  0.76731160782E-02  0.91478800425E-02  0.33683425676E-01  0.35737005818E-01  0.00000000000E+00 0. -1.
  9000001    1    1    2    0    0 -0.76731160782E-02 -0.91478800425E-02 -0.33683425676E-01  0.35750994182E-01  0.10000000475E-02 0.  1.
</event>
<event>
 4   0  0.4892667E-02  0.9118800E+02  0.7818609E-02  0.1379984E+01
      -11   -1    0    0    0    0  0.00000000000E+00  0.00000000000E+00  0.35740347158E-01  0.35744000000E-01  0.51099999109E-03 0. -1.
       11   -1    0    0    0    0 -0.00000000000E+00 -0.00000000000E+00 -0.35740347158E-01  0.35744000000E-01  0.51099999109E-03 0.  1.
       22    1    1    2    0    0  0.31626049384E-03  0.36834489531E-02  0.35545263650E-01  0.35737005818E-01  0.00000000000E+00 0. -1.
  9000001    1    1    2    0    0 -0.31626049384E-03 -0.36834489531E-02 -0.35545263650E-01  0.35750994182E-01  0.10000000475E-02 0.  1.
</event>
<event>
 4   0  0.4892667E-02  0.9118800E+02  0.7818609E-02  0.1379984E+01
      -11   -1    0    0    0    0  0.00000000000E+00  0.00000000000E+00  0.35740347158E-01  0.35744000000E-01  0.51099999109E-03 0. -1.
       11   -1    0    0    0    0 -0.00000000000E+00 -0.00000000000E+00 -0.35740347158E-01  0.35744000000E-01  0.51099999109E-03 0.  1.
       22    1    1    2    0    0  0.12992611729E-02  0.14060194587E-01 -0.32829200926E-01  0.35737005818E-01  0.00000000000E+00 0.  1.
  9000001    1    1    2    0    0 -0.12992611729E-02 -0.14060194587E-01  0.32829200926E-01  0.35750994182E-01  0.10000000475E-02 0. -1.
</event>
<event>
 4   0  0.4892667E-02  0.9118800E+02  0.7818609E-02  0.1379984E+01
      -11   -1    0    0    0    0  0.00000000000E+00  0.00000000000E+00  0.35740347158E-01  0.35744000000E-01  0.51099999109E-03 0. -1.
       11   -1    0    0    0    0 -0.00000000000E+00 -0.00000000000E+00 -0.35740347158E-01  0.35744000000E-01  0.51099999109E-03 0.  1.
       22    1    1    2    0    0  0.19011931450E-02 -0.47719572810E-02  0.35365908347E-01  0.35737005818E-01  0.00000000000E+00 0. -1.
  9000001    1    1    2    0    0 -0.19011931450E-02  0.47719572810E-02 -0.35365908347E-01  0.35750994182E-01  0.10000000475E-02 0.  1.
</event>
<event>
 4   0  0.4892667E-02  0.9118800E+02  0.7818609E-02  0.1379984E+01
      -11   -1    0    0    0    0  0.00000000000E+00  0.00000000000E+00  0.35740347158E-01  0.35744000000E-01  0.51099999109E-03 0.  1.
       11   -1    0    0    0    0 -0.00000000000E+00 -0.00000000000E+00 -0.35740347158E-01  0.35744000000E-01  0.51099999109E-03 0. -1.
       22    1    1    2    0    0 -0.75976902319E-02  0.58810012428E-02  0.34421250884E-01  0.35737005818E-01  0.00000000000E+00 0.  1.
  9000001    1    1    2    0    0  0.75976902319E-02 -0.58810012428E-02 -0.34421250884E-01  0.35750994182E-01  0.10000000475E-02 0. -1.
</event>
<event>
 4   0  0.4892667E-02  0.9118800E+02  0.7818609E-02  0.1379984E+01
      -11   -1    0    0    0    0  0.00000000000E+00  0.00000000000E+00  0.35740347158E-01  0.35744000000E-01  0.51099999109E-03 0.  1.
       11   -1    0    0    0    0 -0.00000000000E+00 -0.00000000000E+00 -0.35740347158E-01  0.35744000000E-01  0.51099999109E-03 0. -1.
       22    1    1    2    0    0  0.35600256598E-01 -0.15826359273E-02 -0.26926898296E-02  0.35737005818E-01  0.00000000000E+00 0.  1.
  9000001    1    1    2    0    0 -0.35600256598E-01  0.15826359273E-02  0.26926898296E-02  0.35750994182E-01  0.10000000475E-02 0. -1.
</event>
<event>
 4   0  0.4892667E-02  0.9118800E+02  0.7818609E-02  0.1379984E+01
      -11   -1    0    0    0    0  0.00000000000E+00  0.00000000000E+00  0.35740347158E-01  0.35744000000E-01  0.51099999109E-03 0.  1.
       11   -1    0    0    0    0 -0.00000000000E+00 -0.00000000000E+00 -0.35740347158E-01  0.35744000000E-01  0.51099999109E-03 0. -1.
       22    1    1    2    0    0  0.38367762574E-02  0.11845597254E-02 -0.35510696291E-01  0.35737005818E-01  0.00000000000E+00 0. -1.
  9000001    1    1    2    0    0 -0.38367762574E-02 -0.11845597254E-02  0.35510696291E-01  0.35750994182E-01  0.10000000475E-02 0.  1.
</event>
<event>
 4   0  0.4892667E-02  0.9118800E+02  0.7818609E-02  0.1379984E+01
      -11   -1    0    0    0    0  0.00000000000E+00  0.00000000000E+00  0.35740347158E-01  0.35744000000E-01  0.51099999109E-03 0. -1.
       11   -1    0    0    0    0 -0.00000000000E+00 -0.00000000000E+00 -0.35740347158E-01  0.35744000000E-01  0.51099999109E-03 0.  1.
       22    1    1    2    0    0 -0.18249680234E-02 -0.35961950414E-02  0.35508737767E-01  0.35737005818E-01  0.00000000000E+00 0. -1.
  9000001    1    1    2    0    0  0.18249680234E-02  0.35961950414E-02 -0.35508737767E-01  0.35750994182E-01  0.10000000475E-02 0.  1.
</event>
<event>
 4   0  0.4892667E-02  0.9118800E+02  0.7818609E-02  0.1379984E+01
      -11   -1    0    0    0    0  0.00000000000E+00  0.00000000000E+00  0.35740347158E-01  0.35744000000E-01  0.51099999109E-03 0.  1.
       11   -1    0    0    0    0 -0.00000000000E+00 -0.00000000000E+00 -0.35740347158E-01  0.35744000000E-01  0.51099999109E-03 0. -1.
       22    1    1    2    0    0  0.27037438060E-01 -0.20493985978E-01  0.11229740279E-01  0.35737005818E-01  0.00000000000E+00 0. -1.
  9000001    1    1    2    0    0 -0.27037438060E-01  0.20493985978E-01 -0.11229740279E-01  0.35750994182E-01  0.10000000475E-02 0.  1.
</event>
<event>
 4   0  0.4892667E-02  0.9118800E+02  0.7818609E-02  0.1379984E+01
      -11   -1    0    0    0    0  0.00000000000E+00  0.00000000000E+00  0.35740347158E-01  0.35744000000E-01  0.51099999109E-03 0. -1.
       11   -1    0    0    0    0 -0.00000000000E+00 -0.00000000000E+00 -0.35740347158E-01  0.35744000000E-01  0.51099999109E-03 0.  1.
       22    1    1    2    0    0 -0.80698144705E-02  0.50452099870E-02 -0.34446444453E-01  0.35737005818E-01  0.00000000000E+00 0.  1.
  9000001    1    1    2    0    0  0.80698144705E-02 -0.50452099870E-02  0.34446444453E-01  0.35750994182E-01  0.10000000475E-02 0. -1.
</event>
<event>
 4   0  0.4892667E-02  0.9118800E+02  0.7818609E-02  0.1379984E+01
      -11   -1    0    0    0    0  0.00000000000E+00  0.00000000000E+00  0.35740347158E-01  0.35744000000E-01  0.51099999109E-03 0. -1.
       11   -1    0    0    0    0 -0.00000000000E+00 -0.00000000000E+00 -0.35740347158E-01  0.35744000000E-01  0.51099999109E-03 0.  1.
       22    1    1    2    0    0 -0.27442765777E-02  0.64567080106E-02  0.35041596034E-01  0.35737005818E-01  0.00000000000E+00 0. -1.
  9000001    1    1    2    0    0  0.27442765777E-02 -0.64567080106E-02 -0.35041596034E-01  0.35750994182E-01  0.10000000475E-02 0.  1.
</event>
<event>
 4   0  0.4892667E-02  0.9118800E+02  0.7818609E-02  0.1379984E+01
      -11   -1    0    0    0    0  0.00000000000E+00  0.00000000000E+00  0.35740347158E-01  0.35744000000E-01  0.51099999109E-03 0. -1.
       11   -1    0    0    0    0 -0.00000000000E+00 -0.00000000000E+00 -0.35740347158E-01  0.35744000000E-01  0.51099999109E-03 0.  1.
       22    1    1    2    0    0  0.55433560809E-02  0.47796820692E-03 -0.35301222849E-01  0.35737005818E-01  0.00000000000E+00 0.  1.
  9000001    1    1    2    0    0 -0.55433560809E-02 -0.47796820692E-03  0.35301222849E-01  0.35750994182E-01  0.10000000475E-02 0. -1.
</event>
<event>
 4   0  0.4892667E-02  0.9118800E+02  0.7818609E-02  0.1379984E+01
      -11   -1    0    0    0    0  0.00000000000E+00  0.00000000000E+00  0.35740347158E-01  0.35744000000E-01  0.51099999109E-03 0.  1.
       11   -1    0    0    0    0 -0.00000000000E+00 -0.00000000000E+00 -0.35740347158E-01  0.35744000000E-01  0.51099999109E-03 0. -1.
       22    1    1    2    0    0 -0.13234226335E-01 -0.10501239110E-01 -0.31491472105E-01  0.35737005818E-01  0.00000000000E+00 0. -1.
  9000001    1    1    2    0    0  0.13234226335E-01  0.10501239110E-01  0.31491472105E-01  0.35750994182E-01  0.10000000475E-02 0.  1.
</event>
<event>
 4   0  0.4892667E-02  0.9118800E+02  0.7818609E-02  0.1379984E+01
      -11   -1    0    0    0    0  0.00000000000E+00  0.00000000000E+00  0.35740347158E-01  0.35744000000E-01  0.51099999109E-03 0.  1.
       11   -1    0    0    0    0 -0.00000000000E+00 -0.00000000000E+00 -0.35740347158E-01  0.35744000000E-01  0.51099999109E-03 0. -1.
       22    1    1    2    0    0  0.18165632395E-02 -0.27341738244E-02 -0.35585923852E-01  0.35737005818E-01  0.00000000000E+00 0. -1.
  9000001    1    1    2    0    0 -0.18165632395E-02  0.27341738244E-02  0.35585923852E-01  0.35750994182E-01  0.10000000475E-02 0.  1.
</event>
<event>
 4   0  0.4892667E-02  0.9118800E+02  0.7818609E-02  0.1379984E+01
      -11   -1    0    0    0    0  0.00000000000E+00  0.00000000000E+00  0.35740347158E-01  0.35744000000E-01  0.51099999109E-03 0. -1.
       11   -1    0    0    0    0 -0.00000000000E+00 -0.00000000000E+00 -0.35740347158E-01  0.35744000000E-01  0.51099999109E-03 0.  1.
       22    1    1    2    0    0  0.98903080887E-02  0.14672519393E-01  0.31048873819E-01  0.35737005818E-01  0.00000000000E+00 0. -1.
  9000001    1    1    2    0    0 -0.98903080887E-02 -0.14672519393E-01 -0.31048873819E-01  0.35750994182E-01  0.10000000475E-02 0.  1.
</event>
<event>
 4   0  0.4892667E-02  0.9118800E+02  0.7818609E-02  0.1379984E+01
      -11   -1    0    0    0    0  0.00000000000E+00  0.00000000000E+00  0.35740347158E-01  0.35744000000E-01  0.51099999109E-03 0. -1.
       11   -1    0    0    0    0 -0.00000000000E+00 -0.00000000000E+00 -0.35740347158E-01  0.35744000000E-01  0.51099999109E-03 0.  1.
       22    1    1    2    0    0  0.16952178395E-02  0.36096377354E-02  0.35513804876E-01  0.35737005818E-01  0.00000000000E+00 0. -1.
  9000001    1    1    2    0    0 -0.16952178395E-02 -0.36096377354E-02 -0.35513804876E-01  0.35750994182E-01  0.10000000475E-02 0.  1.
</event>
<event>
 4   0  0.4892667E-02  0.9118800E+02  0.7818609E-02  0.1379984E+01
      -11   -1    0    0    0    0  0.00000000000E+00  0.00000000000E+00  0.35740347158E-01  0.35744000000E-01  0.51099999109E-03 0.  1.
       11   -1    0    0    0    0 -0.00000000000E+00 -0.00000000000E+00 -0.35740347158E-01  0.35744000000E-01  0.51099999109E-03 0. -1.
       22    1    1    2    0    0  0.78518785925E-02  0.27425132291E-02 -0.34755721955E-01  0.35737005818E-01  0.00000000000E+00 0. -1.
  9000001    1    1    2    0    0 -0.78518785925E-02 -0.27425132291E-02  0.34755721955E-01  0.35750994182E-01  0.10000000475E-02 0.  1.
</event>
<event>
 4   0  0.4892667E-02  0.9118800E+02  0.7818609E-02  0.1379984E+01
      -11   -1    0    0    0    0  0.00000000000E+00  0.00000000000E+00  0.35740347158E-01  0.35744000000E-01  0.51099999109E-03 0. -1.
       11   -1    0    0    0    0 -0.00000000000E+00 -0.00000000000E+00 -0.35740347158E-01  0.35744000000E-01  0.51099999109E-03 0.  1.
       22    1    1    2    0    0  0.39099598772E-02  0.16738298458E-02  0.35483011319E-01  0.35737005818E-01  0.00000000000E+00 0. -1.
  9000001    1    1    2    0    0 -0.39099598772E-02 -0.16738298458E-02 -0.35483011319E-01  0.35750994182E-01  0.10000000475E-02 0.  1.
</event>
<event>
 4   0  0.4892667E-02  0.9118800E+02  0.7818609E-02  0.1379984E+01
      -11   -1    0    0    0    0  0.00000000000E+00  0.00000000000E+00  0.35740347158E-01  0.35744000000E-01  0.51099999109E-03 0.  1.
       11   -1    0    0    0    0 -0.00000000000E+00 -0.00000000000E+00 -0.35740347158E-01  0.35744000000E-01  0.51099999109E-03 0. -1.
       22    1    1    2    0    0  0.12017619343E-01 -0.61498885426E-02  0.33089111217E-01  0.35737005818E-01  0.00000000000E+00 0.  1.
  9000001    1    1    2    0    0 -0.12017619343E-01  0.61498885426E-02 -0.33089111217E-01  0.35750994182E-01  0.10000000475E-02 0. -1.
</event>
<event>
 4   0  0.4892667E-02  0.9118800E+02  0.7818609E-02  0.1379984E+01
      -11   -1    0    0    0    0  0.00000000000E+00  0.00000000000E+00  0.35740347158E-01  0.35744000000E-01  0.51099999109E-03 0. -1.
       11   -1    0    0    0    0 -0.00000000000E+00 -0.00000000000E+00 -0.35740347158E-01  0.35744000000E-01  0.51099999109E-03 0.  1.
       22    1    1    2    0    0 -0.85041093252E-02  0.78827551938E-03  0.34701474481E-01  0.35737005818E-01  0.00000000000E+00 0. -1.
  9000001    1    1    2    0    0  0.85041093252E-02 -0.78827551938E-03 -0.34701474481E-01  0.35750994182E-01  0.10000000475E-02 0.  1.
</event>
<event>
 4   0  0.4892667E-02  0.9118800E+02  0.7818609E-02  0.1379984E+01
      -11   -1    0    0    0    0  0.00000000000E+00  0.00000000000E+00  0.35740347158E-01  0.35744000000E-01  0.51099999109E-03 0.  1.
       11   -1    0    0    0    0 -0.00000000000E+00 -0.00000000000E+00 -0.35740347158E-01  0.35744000000E-01  0.51099999109E-03 0. -1.
       22    1    1    2    0    0 -0.10298602846E-01  0.30444883990E-01 -0.15626304846E-01  0.35737005818E-01  0.00000000000E+00 0. -1.
  9000001    1    1    2    0    0  0.10298602846E-01 -0.30444883990E-01  0.15626304846E-01  0.35750994182E-01  0.10000000475E-02 0.  1.
</event>
<event>
 4   0  0.4892667E-02  0.9118800E+02  0.7818609E-02  0.1379984E+01
      -11   -1    0    0    0    0  0.00000000000E+00  0.00000000000E+00  0.35740347158E-01  0.35744000000E-01  0.51099999109E-03 0.  1.
       11   -1    0    0    0    0 -0.00000000000E+00 -0.00000000000E+00 -0.35740347158E-01  0.35744000000E-01  0.51099999109E-03 0. -1.
       22    1    1    2    0    0 -0.22824078029E-01 -0.22068854964E-01 -0.16406117382E-01  0.35737005818E-01  0.00000000000E+00 0. -1.
  9000001    1    1    2    0    0  0.22824078029E-01  0.22068854964E-01  0.16406117382E-01  0.35750994182E-01  0.10000000475E-02 0.  1.
</event>
<event>
 4   0  0.4892667E-02  0.9118800E+02  0.7818609E-02  0.1379984E+01
      -11   -1    0    0    0    0  0.00000000000E+00  0.00000000000E+00  0.35740347158E-01  0.35744000000E-01  0.51099999109E-03 0.  1.
       11   -1    0    0    0    0 -0.00000000000E+00 -0.00000000000E+00 -0.35740347158E-01  0.35744000000E-01  0.51099999109E-03 0. -1.
       22    1    1    2    0    0 -0.22998543330E-02 -0.45325356213E-02 -0.35373724369E-01  0.35737005818E-01  0.00000000000E+00 0. -1.
  9000001    1    1    2    0    0  0.22998543330E-02  0.45325356213E-02  0.35373724369E-01  0.35750994182E-01  0.10000000475E-02 0.  1.
</event>
<event>
 4   0  0.4892667E-02  0.9118800E+02  0.7818609E-02  0.1379984E+01
      -11   -1    0    0    0    0  0.00000000000E+00  0.00000000000E+00  0.35740347158E-01  0.35744000000E-01  0.51099999109E-03 0. -1.
       11   -1    0    0    0    0 -0.00000000000E+00 -0.00000000000E+00 -0.35740347158E-01  0.35744000000E-01  0.51099999109E-03 0.  1.
       22    1    1    2    0    0 -0.31475109626E-02  0.10302283471E-02 -0.35583217802E-01  0.35737005818E-01  0.00000000000E+00 0.  1.
  9000001    1    1    2    0    0  0.31475109626E-02 -0.10302283471E-02  0.35583217802E-01  0.35750994182E-01  0.10000000475E-02 0. -1.
</event>
<event>
 4   0  0.4892667E-02  0.9118800E+02  0.7818609E-02  0.1379984E+01
      -11   -1    0    0    0    0  0.00000000000E+00  0.00000000000E+00  0.35740347158E-01  0.35744000000E-01  0.51099999109E-03 0. -1.
       11   -1    0    0    0    0 -0.00000000000E+00 -0.00000000000E+00 -0.35740347158E-01  0.35744000000E-01  0.51099999109E-03 0.  1.
       22    1    1    2    0    0 -0.64405877581E-02  0.56795275581E-02 -0.34689989636E-01  0.35737005818E-01  0.00000000000E+00 0.  1.
  9000001    1    1    2    0    0  0.64405877581E-02 -0.56795275581E-02  0.34689989636E-01  0.35750994182E-01  0.10000000475E-02 0. -1.
</event>
<event>
 4   0  0.4892667E-02  0.9118800E+02  0.7818609E-02  0.1379984E+01
      -11   -1    0    0    0    0  0.00000000000E+00  0.00000000000E+00  0.35740347158E-01  0.35744000000E-01  0.51099999109E-03 0.  1.
       11   -1    0    0    0    0 -0.00000000000E+00 -0.00000000000E+00 -0.35740347158E-01  0.35744000000E-01  0.51099999109E-03 0. -1.
       22    1    1    2    0    0  0.40878617306E-02 -0.51057066818E-03 -0.35498764611E-01  0.35737005818E-01  0.00000000000E+00 0. -1.
  9000001    1    1    2    0    0 -0.40878617306E-02  0.51057066818E-03  0.35498764611E-01  0.35750994182E-01  0.10000000475E-02 0.  1.
</event>
<event>
 4   0  0.4892667E-02  0.9118800E+02  0.7818609E-02  0.1379984E+01
      -11   -1    0    0    0    0  0.00000000000E+00  0.00000000000E+00  0.35740347158E-01  0.35744000000E-01  0.51099999109E-03 0. -1.
       11   -1    0    0    0    0 -0.00000000000E+00 -0.00000000000E+00 -0.35740347158E-01  0.35744000000E-01  0.51099999109E-03 0.  1.
       22    1    1    2    0    0  0.53696658289E-02 -0.17525062033E-01 -0.30678534425E-01  0.35737005818E-01  0.00000000000E+00 0.  1.
  9000001    1    1    2    0    0 -0.53696658289E-02  0.17525062033E-01  0.30678534425E-01  0.35750994182E-01  0.10000000475E-02 0. -1.
</event>
<event>
 4   0  0.4892667E-02  0.9118800E+02  0.7818609E-02  0.1379984E+01
      -11   -1    0    0    0    0  0.00000000000E+00  0.00000000000E+00  0.35740347158E-01  0.35744000000E-01  0.51099999109E-03 0. -1.
       11   -1    0    0    0    0 -0.00000000000E+00 -0.00000000000E+00 -0.35740347158E-01  0.35744000000E-01  0.51099999109E-03 0.  1.
       22    1    1    2    0    0 -0.19484275030E-01 -0.12103777641E-01  0.27404291238E-01  0.35737005818E-01  0.00000000000E+00 0. -1.
  9000001    1    1    2    0    0  0.19484275030E-01  0.12103777641E-01 -0.27404291238E-01  0.35750994182E-01  0.10000000475E-02 0.  1.
</event>
<event>
 4   0  0.4892667E-02  0.9118800E+02  0.7818609E-02  0.1379984E+01
      -11   -1    0    0    0    0  0.00000000000E+00  0.00000000000E+00  0.35740347158E-01  0.35744000000E-01  0.51099999109E-03 0. -1.
       11   -1    0    0    0    0 -0.00000000000E+00 -0.00000000000E+00 -0.35740347158E-01  0.35744000000E-01  0.51099999109E-03 0.  1.
       22    1    1    2    0    0  0.19728716720E-01 -0.48283863656E-02 -0.29404047452E-01  0.35737005818E-01  0.00000000000E+00 0.  1.
  9000001    1    1    2    0    0 -0.19728716720E-01  0.48283863656E-02  0.29404047452E-01  0.35750994182E-01  0.10000000475E-02 0. -1.
</event>
<event>
 4   0  0.4892667E-02  0.9118800E+02  0.7818609E-02  0.1379984E+01
      -11   -1    0    0    0    0  0.00000000000E+00  0.00000000000E+00  0.35740347158E-01  0.35744000000E-01  0.51099999109E-03 0.  1.
       11   -1    0    0    0    0 -0.00000000000E+00 -0.00000000000E+00 -0.35740347158E-01  0.35744000000E-01  0.51099999109E-03 0. -1.
       22    1    1    2    0    0 -0.81298492130E-02 -0.23167410915E-02  0.34722785709E-01  0.35737005818E-01  0.00000000000E+00 0.  1.
  9000001    1    1    2    0    0  0.81298492130E-02  0.23167410915E-02 -0.34722785709E-01  0.35750994182E-01  0.10000000475E-02 0. -1.
</event>
<event>
 4   0  0.4892667E-02  0.9118800E+02  0.7818609E-02  0.1379984E+01
      -11   -1    0    0    0    0  0.00000000000E+00  0.00000000000E+00  0.35740347158E-01  0.35744000000E-01  0.51099999109E-03 0.  1.
       11   -1    0    0    0    0 -0.00000000000E+00 -0.00000000000E+00 -0.35740347158E-01  0.35744000000E-01  0.51099999109E-03 0. -1.
       22    1    1    2    0    0 -0.30198028748E-01  0.17050624458E-01 -0.86306923346E-02  0.35737005818E-01  0.00000000000E+00 0.  1.
  9000001    1    1    2    0    0  0.30198028748E-01 -0.17050624458E-01  0.86306923346E-02  0.35750994182E-01  0.10000000475E-02 0. -1.
</event>
<event>
 4   0  0.4892667E-02  0.9118800E+02  0.7818609E-02  0.1379984E+01
      -11   -1    0    0    0    0  0.00000000000E+00  0.00000000000E+00  0.35740347158E-01  0.35744000000E-01  0.51099999109E-03 0. -1.
       11   -1    0    0    0    0 -0.00000000000E+00 -0.00000000000E+00 -0.35740347158E-01  0.35744000000E-01  0.51099999109E-03 0.  1.
       22    1    1    2    0    0 -0.31312216740E-02 -0.22856235712E-02  0.35526116599E-01  0.35737005818E-01  0.00000000000E+00 0. -1.
  9000001    1    1    2    0    0  0.31312216740E-02  0.22856235712E-02 -0.35526116599E-01  0.35750994182E-01  0.10000000475E-02 0.  1.
</event>
<event>
 4   0  0.4892667E-02  0.9118800E+02  0.7818609E-02  0.1379984E+01
      -11   -1    0    0    0    0  0.00000000000E+00  0.00000000000E+00  0.35740347158E-01  0.35744000000E-01  0.51099999109E-03 0.  1.
       11   -1    0    0    0    0 -0.00000000000E+00 -0.00000000000E+00 -0.35740347158E-01  0.35744000000E-01  0.51099999109E-03 0. -1.
       22    1    1    2    0    0  0.32953840999E-02 -0.11334241358E-01  0.33731424538E-01  0.35737005818E-01  0.00000000000E+00 0.  1.
  9000001    1    1    2    0    0 -0.32953840999E-02  0.11334241358E-01 -0.33731424538E-01  0.35750994182E-01  0.10000000475E-02 0. -1.
</event>
<event>
 4   0  0.4892667E-02  0.9118800E+02  0.7818609E-02  0.1379984E+01
      -11   -1    0    0    0    0  0.00000000000E+00  0.00000000000E+00  0.35740347158E-01  0.35744000000E-01  0.51099999109E-03 0. -1.
       11   -1    0    0    0    0 -0.00000000000E+00 -0.00000000000E+00 -0.35740347158E-01  0.35744000000E-01  0.51099999109E-03 0.  1.
       22    1    1    2    0    0  0.26546872503E-02  0.24748625105E-01  0.25643552326E-01  0.35737005818E-01  0.00000000000E+00 0. -1.
  9000001    1    1    2    0    0 -0.26546872503E-02 -0.24748625105E-01 -0.25643552326E-01  0.35750994182E-01  0.10000000475E-02 0.  1.
</event>
<event>
 4   0  0.4892667E-02  0.9118800E+02  0.7818609E-02  0.1379984E+01
      -11   -1    0    0    0    0  0.00000000000E+00  0.00000000000E+00  0.35740347158E-01  0.35744000000E-01  0.51099999109E-03 0. -1.
       11   -1    0    0    0    0 -0.00000000000E+00 -0.00000000000E+00 -0.35740347158E-01  0.35744000000E-01  0.51099999109E-03 0.  1.
       22    1    1    2    0    0 -0.79857993355E-02  0.38558363653E-02  0.34619259376E-01  0.35737005818E-01  0.00000000000E+00 0. -1.
  9000001    1    1    2    0    0  0.79857993355E-02 -0.38558363653E-02 -0.34619259376E-01  0.35750994182E-01  0.10000000475E-02 0.  1.
</event>
<event>
 4   0  0.4892667E-02  0.9118800E+02  0.7818609E-02  0.1379984E+01
      -11   -1    0    0    0    0  0.00000000000E+00  0.00000000000E+00  0.35740347158E-01  0.35744000000E-01  0.51099999109E-03 0.  1.
       11   -1    0    0    0    0 -0.00000000000E+00 -0.00000000000E+00 -0.35740347158E-01  0.35744000000E-01  0.51099999109E-03 0. -1.
       22    1    1    2    0    0 -0.14346634656E-01 -0.40558729765E-02 -0.32478570679E-01  0.35737005818E-01  0.00000000000E+00 0. -1.
  9000001    1    1    2    0    0  0.14346634656E-01  0.40558729765E-02  0.32478570679E-01  0.35750994182E-01  0.10000000475E-02 0.  1.
</event>
<event>
 4   0  0.4892667E-02  0.9118800E+02  0.7818609E-02  0.1379984E+01
      -11   -1    0    0    0    0  0.00000000000E+00  0.00000000000E+00  0.35740347158E-01  0.35744000000E-01  0.51099999109E-03 0.  1.
       11   -1    0    0    0    0 -0.00000000000E+00 -0.00000000000E+00 -0.35740347158E-01  0.35744000000E-01  0.51099999109E-03 0. -1.
       22    1    1    2    0    0  0.11605994035E-01  0.47509157844E-02 -0.33464358451E-01  0.35737005818E-01  0.00000000000E+00 0. -1.
  9000001    1    1    2    0    0 -0.11605994035E-01 -0.47509157844E-02  0.33464358451E-01  0.35750994182E-01  0.10000000475E-02 0.  1.
</event>
<event>
 4   0  0.4892667E-02  0.9118800E+02  0.7818609E-02  0.1379984E+01
      -11   -1    0    0    0    0  0.00000000000E+00  0.00000000000E+00  0.35740347158E-01  0.35744000000E-01  0.51099999109E-03 0. -1.
       11   -1    0    0    0    0 -0.00000000000E+00 -0.00000000000E+00 -0.35740347158E-01  0.35744000000E-01  0.51099999109E-03 0.  1.
       22    1    1    2    0    0  0.14901987327E-02  0.13078636664E-01 -0.33224421073E-01  0.35737005818E-01  0.00000000000E+00 0.  1.
  9000001    1    1    2    0    0 -0.14901987327E-02 -0.13078636664E-01  0.33224421073E-01  0.35750994182E-01  0.10000000475E-02 0. -1.
</event>
<event>
 4   0  0.4892667E-02  0.9118800E+02  0.7818609E-02  0.1379984E+01
      -11   -1    0    0    0    0  0.00000000000E+00  0.00000000000E+00  0.35740347158E-01  0.35744000000E-01  0.51099999109E-03 0.  1.
       11   -1    0    0    0    0 -0.00000000000E+00 -0.00000000000E+00 -0.35740347158E-01  0.35744000000E-01  0.51099999109E-03 0. -1.
       22    1    1    2    0    0 -0.28785768442E-01 -0.82186956111E-02  0.19518354504E-01  0.35737005818E-01  0.00000000000E+00 0.  1.
  9000001    1    1    2    0    0  0.28785768442E-01  0.82186956111E-02 -0.19518354504E-01  0.35750994182E-01  0.10000000475E-02 0. -1.
</event>
<event>
 4   0  0.4892667E-02  0.9118800E+02  0.7818609E-02  0.1379984E+01
      -11   -1    0    0    0    0  0.00000000000E+00  0.00000000000E+00  0.35740347158E-01  0.35744000000E-01  0.51099999109E-03 0. -1.
       11   -1    0    0    0    0 -0.00000000000E+00 -0.00000000000E+00 -0.35740347158E-01  0.35744000000E-01  0.51099999109E-03 0.  1.
       22    1    1    2    0    0 -0.29616055236E-02 -0.56912480130E-02  0.35156395914E-01  0.35737005818E-01  0.00000000000E+00 0. -1.
  9000001    1    1    2    0    0  0.29616055236E-02  0.56912480130E-02 -0.35156395914E-01  0.35750994182E-01  0.10000000475E-02 0.  1.
</event>
<event>
 4   0  0.4892667E-02  0.9118800E+02  0.7818609E-02  0.1379984E+01
      -11   -1    0    0    0    0  0.00000000000E+00  0.00000000000E+00  0.35740347158E-01  0.35744000000E-01  0.51099999109E-03 0.  1.
       11   -1    0    0    0    0 -0.00000000000E+00 -0.00000000000E+00 -0.35740347158E-01  0.35744000000E-01  0.51099999109E-03 0. -1.
       22    1    1    2    0    0 -0.21131837964E-02  0.32684543139E-02  0.35524431671E-01  0.35737005818E-01  0.00000000000E+00 0.  1.
  9000001    1    1    2    0    0  0.21131837964E-02 -0.32684543139E-02 -0.35524431671E-01  0.35750994182E-01  0.10000000475E-02 0. -1.
</event>
<event>
 4   0  0.4892667E-02  0.9118800E+02  0.7818609E-02  0.1379984E+01
      -11   -1    0    0    0    0  0.00000000000E+00  0.00000000000E+00  0.35740347158E-01  0.35744000000E-01  0.51099999109E-03 0. -1.
       11   -1    0    0    0    0 -0.00000000000E+00 -0.00000000000E+00 -0.35740347158E-01  0.35744000000E-01  0.51099999109E-03 0.  1.
       22    1    1    2    0    0  0.36576758615E-02  0.82659705113E-03  0.35539720447E-01  0.35737005818E-01  0.00000000000E+00 0. -1.
  9000001    1    1    2    0    0 -0.36576758615E-02 -0.82659705113E-03 -0.35539720447E-01  0.35750994182E-01  0.10000000475E-02 0.  1.
</event>
<event>
 4   0  0.4892667E-02  0.9118800E+02  0.7818609E-02  0.1379984E+01
      -11   -1    0    0    0    0  0.00000000000E+00  0.00000000000E+00  0.35740347158E-01  0.35744000000E-01  0.51099999109E-03 0.  1.
       11   -1    0    0    0    0 -0.00000000000E+00 -0.00000000000E+00 -0.35740347158E-01  0.35744000000E-01  0.51099999109E-03 0. -1.
       22    1    1    2    0    0 -0.63273966811E-02  0.32289979290E-01  0.13944707727E-01  0.35737005818E-01  0.00000000000E+00 0.  1.
  9000001    1    1    2    0    0  0.63273966811E-02 -0.32289979290E-01 -0.13944707727E-01  0.35750994182E-01  0.10000000475E-02 0. -1.
</event>
<event>
 4   0  0.4892667E-02  0.9118800E+02  0.7818609E-02  0.1379984E+01
      -11   -1    0    0    0    0  0.00000000000E+00  0.00000000000E+00  0.35740347158E-01  0.35744000000E-01  0.51099999109E-03 0.  1.
       11   -1    0    0    0    0 -0.00000000000E+00 -0.00000000000E+00 -0.35740347158E-01  0.35744000000E-01  0.51099999109E-03 0. -1.
       22    1    1    2    0    0  0.33022015906E-02  0.82712651830E-02 -0.34609467228E-01  0.35737005818E-01  0.00000000000E+00 0. -1.
  9000001    1    1    2    0    0 -0.33022015906E-02 -0.82712651830E-02  0.34609467228E-01  0.35750994182E-01  0.10000000475E-02 0.  1.
</event>
<event>
 4   0  0.4892667E-02  0.9118800E+02  0.7818609E-02  0.1379984E+01
      -11   -1    0    0    0    0  0.00000000000E+00  0.00000000000E+00  0.35740347158E-01  0.35744000000E-01  0.51099999109E-03 0.  1.
       11   -1    0    0    0    0 -0.00000000000E+00 -0.00000000000E+00 -0.35740347158E-01  0.35744000000E-01  0.51099999109E-03 0. -1.
       22    1    1    2    0    0 -0.85290108899E-02  0.38994630181E-02  0.34484543585E-01  0.35737005818E-01  0.00000000000E+00 0.  1.
  9000001    1    1    2    0    0  0.85290108899E-02 -0.38994630181E-02 -0.34484543585E-01  0.35750994182E-01  0.10000000475E-02 0. -1.
</event>
<event>
 4   0  0.4892667E-02  0.9118800E+02  0.7818609E-02  0.1379984E+01
      -11   -1    0    0    0    0  0.00000000000E+00  0.00000000000E+00  0.35740347158E-01  0.35744000000E-01  0.51099999109E-03 0.  1.
       11   -1    0    0    0    0 -0.00000000000E+00 -0.00000000000E+00 -0.35740347158E-01  0.35744000000E-01  0.51099999109E-03 0. -1.
       22    1    1    2    0    0  0.13163518497E-01  0.83636455820E-02 -0.32154390030E-01  0.35737005818E-01  0.00000000000E+00 0. -1.
  9000001    1    1    2    0    0 -0.13163518497E-01 -0.83636455820E-02  0.32154390030E-01  0.35750994182E-01  0.10000000475E-02 0.  1.
</event>
<event>
 4   0  0.4892667E-02  0.9118800E+02  0.7818609E-02  0.1379984E+01
      -11   -1    0    0    0    0  0.00000000000E+00  0.00000000000E+00  0.35740347158E-01  0.35744000000E-01  0.51099999109E-03 0.  1.
       11   -1    0    0    0    0 -0.00000000000E+00 -0.00000000000E+00 -0.35740347158E-01  0.35744000000E-01  0.51099999109E-03 0. -1.
       22    1    1    2    0    0 -0.63278593301E-02 -0.32210545450E-02 -0.35024514112E-01  0.35737005818E-01  0.00000000000E+00 0. -1.
  9000001    1    1    2    0    0  0.63278593301E-02  0.32210545450E-02  0.35024514112E-01  0.35750994182E-01  0.10000000475E-02 0.  1.
</event>
<event>
 4   0  0.4892667E-02  0.9118800E+02  0.7818609E-02  0.1379984E+01
      -11   -1    0    0    0    0  0.00000000000E+00  0.00000000000E+00  0.35740347158E-01  0.35744000000E-01  0.51099999109E-03 0.  1.
       11   -1    0    0    0    0 -0.00000000000E+00 -0.00000000000E+00 -0.35740347158E-01  0.35744000000E-01  0.51099999109E-03 0. -1.
       22    1    1    2    0    0 -0.46275590595E-02 -0.67856548440E-03 -0.35429632102E-01  0.35737005818E-01  0.00000000000E+00 0. -1.
  9000001    1    1    2    0    0  0.46275590595E-02  0.67856548440E-03  0.35429632102E-01  0.35750994182E-01  0.10000000475E-02 0.  1.
</event>
<event>
 4   0  0.4892667E-02  0.9118800E+02  0.7818609E-02  0.1379984E+01
      -11   -1    0    0    0    0  0.00000000000E+00  0.00000000000E+00  0.35740347158E-01  0.35744000000E-01  0.51099999109E-03 0. -1.
       11   -1    0    0    0    0 -0.00000000000E+00 -0.00000000000E+00 -0.35740347158E-01  0.35744000000E-01  0.51099999109E-03 0.  1.
       22    1    1    2    0    0  0.31646280170E-01 -0.13977828075E-01 -0.89591773369E-02  0.35737005818E-01  0.00000000000E+00 0. -1.
  9000001    1    1    2    0    0 -0.31646280170E-01  0.13977828075E-01  0.89591773369E-02  0.35750994182E-01  0.10000000475E-02 0.  1.
</event>
<event>
 4   0  0.4892667E-02  0.9118800E+02  0.7818609E-02  0.1379984E+01
      -11   -1    0    0    0    0  0.00000000000E+00  0.00000000000E+00  0.35740347158E-01  0.35744000000E-01  0.51099999109E-03 0.  1.
       11   -1    0    0    0    0 -0.00000000000E+00 -0.00000000000E+00 -0.35740347158E-01  0.35744000000E-01  0.51099999109E-03 0. -1.
       22    1    1    2    0    0 -0.17494806985E-01  0.28142735967E-01  0.13381021100E-01  0.35737005818E-01  0.00000000000E+00 0.  1.
  9000001    1    1    2    0    0  0.17494806985E-01 -0.28142735967E-01 -0.13381021100E-01  0.35750994182E-01  0.10000000475E-02 0. -1.
</event>
<event>
 4   0  0.4892667E-02  0.9118800E+02  0.7818609E-02  0.1379984E+01
      -11   -1    0    0    0    0  0.00000000000E+00  0.00000000000E+00  0.35740347158E-01  0.35744000000E-01  0.51099999109E-03 0.  1.
       11   -1    0    0    0    0 -0.00000000000E+00 -0.00000000000E+00 -0.35740347158E-01  0.35744000000E-01  0.51099999109E-03 0. -1.
       22    1    1    2    0    0  0.36003704756E-02 -0.52013063267E-03 -0.35551376646E-01  0.35737005818E-01  0.00000000000E+00 0. -1.
  9000001    1    1    2    0    0 -0.36003704756E-02  0.52013063267E-03  0.35551376646E-01  0.35750994182E-01  0.10000000475E-02 0.  1.
</event>
<event>
 4   0  0.4892667E-02  0.9118800E+02  0.7818609E-02  0.1379984E+01
      -11   -1    0    0    0    0  0.00000000000E+00  0.00000000000E+00  0.35740347158E-01  0.35744000000E-01  0.51099999109E-03 0.  1.
       11   -1    0    0    0    0 -0.00000000000E+00 -0.00000000000E+00 -0.35740347158E-01  0.35744000000E-01  0.51099999109E-03 0. -1.
       22    1    1    2    0    0  0.23230620807E-01  0.20925320496E-01  0.17309038215E-01  0.35737005818E-01  0.00000000000E+00 0.  1.
  9000001    1    1    2    0    0 -0.23230620807E-01 -0.20925320496E-01 -0.17309038215E-01  0.35750994182E-01  0.10000000475E-02 0. -1.
</event>
<event>
 4   0  0.4892667E-02  0.9118800E+02  0.7818609E-02  0.1379984E+01
      -11   -1    0    0    0    0  0.00000000000E+00  0.00000000000E+00  0.35740347158E-01  0.35744000000E-01  0.51099999109E-03 0.  1.
       11   -1    0    0    0    0 -0.00000000000E+00 -0.00000000000E+00 -0.35740347158E-01  0.35744000000E-01  0.51099999109E-03 0. -1.
       22    1    1    2    0    0 -0.30608800854E-01  0.52289914452E-02  0.17688768855E-01  0.35737005818E-01  0.00000000000E+00 0.  1.
  9000001    1    1    2    0    0  0.30608800854E-01 -0.52289914452E-02 -0.17688768855E-01  0.35750994182E-01  0.10000000475E-02 0. -1.
</event>
<event>
 4   0  0.4892667E-02  0.9118800E+02  0.7818609E-02  0.1379984E+01
      -11   -1    0    0    0    0  0.00000000000E+00  0.00000000000E+00  0.35740347158E-01  0.35744000000E-01  0.51099999109E-03 0.  1.
       11   -1    0    0    0    0 -0.00000000000E+00 -0.00000000000E+00 -0.35740347158E-01  0.35744000000E-01  0.51099999109E-03 0. -1.
       22    1    1    2    0    0 -0.20347878138E-02  0.30141071353E-02  0.35551489162E-01  0.35737005818E-01  0.00000000000E+00 0.  1.
  9000001    1    1    2    0    0  0.20347878138E-02 -0.30141071353E-02 -0.35551489162E-01  0.35750994182E-01  0.10000000475E-02 0. -1.
</event>
<event>
 4   0  0.4892667E-02  0.9118800E+02  0.7818609E-02  0.1379984E+01
      -11   -1    0    0    0    0  0.00000000000E+00  0.00000000000E+00  0.35740347158E-01  0.35744000000E-01  0.51099999109E-03 0.  1.
       11   -1    0    0    0    0 -0.00000000000E+00 -0.00000000000E+00 -0.35740347158E-01  0.35744000000E-01  0.51099999109E-03 0. -1.
       22    1    1    2    0    0  0.30494824951E-02  0.31024178947E-02  0.35471245321E-01  0.35737005818E-01  0.00000000000E+00 0.  1.
  9000001    1    1    2    0    0 -0.30494824951E-02 -0.31024178947E-02 -0.35471245321E-01  0.35750994182E-01  0.10000000475E-02 0. -1.
</event>
<event>
 4   0  0.4892667E-02  0.9118800E+02  0.7818609E-02  0.1379984E+01
      -11   -1    0    0    0    0  0.00000000000E+00  0.00000000000E+00  0.35740347158E-01  0.35744000000E-01  0.51099999109E-03 0.  1.
       11   -1    0    0    0    0 -0.00000000000E+00 -0.00000000000E+00 -0.35740347158E-01  0.35744000000E-01  0.51099999109E-03 0. -1.
       22    1    1    2    0    0  0.79513470684E-03  0.85459534916E-02  0.34691036661E-01  0.35737005818E-01  0.00000000000E+00 0.  1.
  9000001    1    1    2    0    0 -0.79513470684E-03 -0.85459534916E-02 -0.34691036661E-01  0.35750994182E-01  0.10000000475E-02 0. -1.
</event>
<event>
 4   0  0.4892667E-02  0.9118800E+02  0.7818609E-02  0.1379984E+01
      -11   -1    0    0    0    0  0.00000000000E+00  0.00000000000E+00  0.35740347158E-01  0.35744000000E-01  0.51099999109E-03 0.  1.
       11   -1    0    0    0    0 -0.00000000000E+00 -0.00000000000E+00 -0.35740347158E-01  0.35744000000E-01  0.51099999109E-03 0. -1.
       22    1    1    2    0    0  0.64008685965E-02  0.92891225422E-03  0.35146828991E-01  0.35737005818E-01  0.00000000000E+00 0.  1.
  9000001    1    1    2    0    0 -0.64008685965E-02 -0.92891225422E-03 -0.35146828991E-01  0.35750994182E-01  0.10000000475E-02 0. -1.
</event>
<event>
 4   0  0.4892667E-02  0.9118800E+02  0.7818609E-02  0.1379984E+01
      -11   -1    0    0    0    0  0.00000000000E+00  0.00000000000E+00  0.35740347158E-01  0.35744000000E-01  0.51099999109E-03 0.  1.
       11   -1    0    0    0    0 -0.00000000000E+00 -0.00000000000E+00 -0.35740347158E-01  0.35744000000E-01  0.51099999109E-03 0. -1.
       22    1    1    2    0    0 -0.13996807015E-02 -0.42120163684E-02  0.35460307344E-01  0.35737005818E-01  0.00000000000E+00 0.  1.
  9000001    1    1    2    0    0  0.13996807015E-02  0.42120163684E-02 -0.35460307344E-01  0.35750994182E-01  0.10000000475E-02 0. -1.
</event>
<event>
 4   0  0.4892667E-02  0.9118800E+02  0.7818609E-02  0.1379984E+01
      -11   -1    0    0    0    0  0.00000000000E+00  0.00000000000E+00  0.35740347158E-01  0.35744000000E-01  0.51099999109E-03 0. -1.
       11   -1    0    0    0    0 -0.00000000000E+00 -0.00000000000E+00 -0.35740347158E-01  0.35744000000E-01  0.51099999109E-03 0.  1.
       22    1    1    2    0    0 -0.12301779910E-01 -0.17903652783E-01 -0.28377086055E-01  0.35737005818E-01  0.00000000000E+00 0.  1.
  9000001    1    1    2    0    0  0.12301779910E-01  0.17903652783E-01  0.28377086055E-01  0.35750994182E-01  0.10000000475E-02 0. -1.
</event>
<event>
 4   0  0.4892667E-02  0.9118800E+02  0.7818609E-02  0.1379984E+01
      -11   -1    0    0    0    0  0.00000000000E+00  0.00000000000E+00  0.35740347158E-01  0.35744000000E-01  0.51099999109E-03 0. -1.
       11   -1    0    0    0    0 -0.00000000000E+00 -0.00000000000E+00 -0.35740347158E-01  0.35744000000E-01  0.51099999109E-03 0.  1.
       22    1    1    2    0    0  0.31916693401E-02  0.84155018504E-03 -0.35584246865E-01  0.35737005818E-01  0.00000000000E+00 0.  1.
  9000001    1    1    2    0    0 -0.31916693401E-02 -0.84155018504E-03  0.35584246865E-01  0.35750994182E-01  0.10000000475E-02 0. -1.
</event>
<event>
 4   0  0.4892667E-02  0.9118800E+02  0.7818609E-02  0.1379984E+01
      -11   -1    0    0    0    0  0.00000000000E+00  0.00000000000E+00  0.35740347158E-01  0.35744000000E-01  0.51099999109E-03 0. -1.
       11   -1    0    0    0    0 -0.00000000000E+00 -0.00000000000E+00 -0.35740347158E-01  0.35744000000E-01  0.51099999109E-03 0.  1.
       22    1    1    2    0    0  0.21586387846E-02 -0.12177594481E-01 -0.33528794433E-01  0.35737005818E-01  0.00000000000E+00 0.  1.
  9000001    1    1    2    0    0 -0.21586387846E-02  0.12177594481E-01  0.33528794433E-01  0.35750994182E-01  0.10000000475E-02 0. -1.
</event>
<event>
 4   0  0.4892667E-02  0.9118800E+02  0.7818609E-02  0.1379984E+01
      -11   -1    0    0    0    0  0.00000000000E+00  0.00000000000E+00  0.35740347158E-01  0.35744000000E-01  0.51099999109E-03 0.  1.
       11   -1    0    0    0    0 -0.00000000000E+00 -0.00000000000E+00 -0.35740347158E-01  0.35744000000E-01  0.51099999109E-03 0. -1.
       22    1    1    2    0    0  0.23106042718E-01  0.25801374394E-01 -0.88053082962E-02  0.35737005818E-01  0.00000000000E+00 0. -1.
  9000001    1    1    2    0    0 -0.23106042718E-01 -0.25801374394E-01  0.88053082962E-02  0.35750994182E-01  0.10000000475E-02 0.  1.
</event>
<event>
 4   0  0.4892667E-02  0.9118800E+02  0.7818609E-02  0.1379984E+01
      -11   -1    0    0    0    0  0.00000000000E+00  0.00000000000E+00  0.35740347158E-01  0.35744000000E-01  0.51099999109E-03 0.  1.
       11   -1    0    0    0    0 -0.00000000000E+00 -0.00000000000E+00 -0.35740347158E-01  0.35744000000E-01  0.51099999109E-03 0. -1.
       22    1    1    2    0    0 -0.11757922734E-01 -0.24984704043E-01  0.22685885518E-01  0.35737005818E-01  0.00000000000E+00 0.  1.
  9000001    1    1    2    0    0  0.11757922734E-01  0.24984704043E-01 -0.22685885518E-01  0.35750994182E-01  0.10000000475E-02 0. -1.
</event>
<event>
 4   0  0.4892667E-02  0.9118800E+02  0.7818609E-02  0.1379984E+01
      -11   -1    0    0    0    0  0.00000000000E+00  0.00000000000E+00  0.35740347158E-01  0.35744000000E-01  0.51099999109E-03 0.  1.
       11   -1    0    0    0    0 -0.00000000000E+00 -0.00000000000E+00 -0.35740347158E-01  0.35744000000E-01  0.51099999109E-03 0. -1.
       22    1    1    2    0    0  0.83913630494E-02  0.50416314826E-02 -0.34370053288E-01  0.35737005818E-01  0.00000000000E+00 0. -1.
  9000001    1    1    2    0    0 -0.83913630494E-02 -0.50416314826E-02  0.34370053288E-01  0.35750994182E-01  0.10000000475E-02 0.  1.
</event>
<event>
 4   0  0.4892667E-02  0.9118800E+02  0.7818609E-02  0.1379984E+01
      -11   -1    0    0    0    0  0.00000000000E+00  0.00000000000E+00  0.35740347158E-01  0.35744000000E-01  0.51099999109E-03 0.  1.
       11   -1    0    0    0    0 -0.00000000000E+00 -0.00000000000E+00 -0.35740347158E-01  0.35744000000E-01  0.51099999109E-03 0. -1.
       22    1    1    2    0    0 -0.38099279500E-02 -0.13618372633E-01  0.32820084715E-01  0.35737005818E-01  0.00000000000E+00 0.  1.
  9000001    1    1    2    0    0  0.38099279500E-02  0.13618372633E-01 -0.32820084715E-01  0.35750994182E-01  0.10000000475E-02 0. -1.
</event>
<event>
 4   0  0.4892667E-02  0.9118800E+02  0.7818609E-02  0.1379984E+01
      -11   -1    0    0    0    0  0.00000000000E+00  0.00000000000E+00  0.35740347158E-01  0.35744000000E-01  0.51099999109E-03 0.  1.
       11   -1    0    0    0    0 -0.00000000000E+00 -0.00000000000E+00 -0.35740347158E-01  0.35744000000E-01  0.51099999109E-03 0. -1.
       22    1    1    2    0    0 -0.20017528046E-01 -0.13828646950E-01  0.26176338158E-01  0.35737005818E-01  0.00000000000E+00 0.  1.
  9000001    1    1    2    0    0  0.20017528046E-01  0.13828646950E-01 -0.26176338158E-01  0.35750994182E-01  0.10000000475E-02 0. -1.
</event>
<event>
 4   0  0.4892667E-02  0.9118800E+02  0.7818609E-02  0.1379984E+01
      -11   -1    0    0    0    0  0.00000000000E+00  0.00000000000E+00  0.35740347158E-01  0.35744000000E-01  0.51099999109E-03 0.  1.
       11   -1    0    0    0    0 -0.00000000000E+00 -0.00000000000E+00 -0.35740347158E-01  0.35744000000E-01  0.51099999109E-03 0. -1.
       22    1    1    2    0    0  0.12264132817E-02  0.32318224064E-02 -0.35569436589E-01  0.35737005818E-01  0.00000000000E+00 0. -1.
  9000001    1    1    2    0    0 -0.12264132817E-02 -0.32318224064E-02  0.35569436589E-01  0.35750994182E-01  0.10000000475E-02 0.  1.
</event>
<event>
 4   0  0.4892667E-02  0.9118800E+02  0.7818609E-02  0.1379984E+01
      -11   -1    0    0    0    0  0.00000000000E+00  0.00000000000E+00  0.35740347158E-01  0.35744000000E-01  0.51099999109E-03 0.  1.
       11   -1    0    0    0    0 -0.00000000000E+00 -0.00000000000E+00 -0.35740347158E-01  0.35744000000E-01  0.51099999109E-03 0. -1.
       22    1    1    2    0    0  0.44229095593E-02  0.16293148055E-02 -0.35424804716E-01  0.35737005818E-01  0.00000000000E+00 0. -1.
  9000001    1    1    2    0    0 -0.44229095593E-02 -0.16293148055E-02  0.35424804716E-01  0.35750994182E-01  0.10000000475E-02 0.  1.
</event>
<event>
 4   0  0.4892667E-02  0.9118800E+02  0.7818609E-02  0.1379984E+01
      -11   -1    0    0    0    0  0.00000000000E+00  0.00000000000E+00  0.35740347158E-01  0.35744000000E-01  0.51099999109E-03 0. -1.
       11   -1    0    0    0    0 -0.00000000000E+00 -0.00000000000E+00 -0.35740347158E-01  0.35744000000E-01  0.51099999109E-03 0.  1.
       22    1    1    2    0    0 -0.32992819798E-02 -0.69974295656E-03 -0.35577502485E-01  0.35737005818E-01  0.00000000000E+00 0.  1.
  9000001    1    1    2    0    0  0.32992819798E-02  0.69974295656E-03  0.35577502485E-01  0.35750994182E-01  0.10000000475E-02 0. -1.
</event>
<event>
 4   0  0.4892667E-02  0.9118800E+02  0.7818609E-02  0.1379984E+01
      -11   -1    0    0    0    0  0.00000000000E+00  0.00000000000E+00  0.35740347158E-01  0.35744000000E-01  0.51099999109E-03 0. -1.
       11   -1    0    0    0    0 -0.00000000000E+00 -0.00000000000E+00 -0.35740347158E-01  0.35744000000E-01  0.51099999109E-03 0.  1.
       22    1    1    2    0    0  0.10836410512E-02  0.56799060552E-02  0.35266102338E-01  0.35737005818E-01  0.00000000000E+00 0. -1.
  9000001    1    1    2    0    0 -0.10836410512E-02 -0.56799060552E-02 -0.35266102338E-01  0.35750994182E-01  0.10000000475E-02 0.  1.
</event>
<event>
 4   0  0.4892667E-02  0.9118800E+02  0.7818609E-02  0.1379984E+01
      -11   -1    0    0    0    0  0.00000000000E+00  0.00000000000E+00  0.35740347158E-01  0.35744000000E-01  0.51099999109E-03 0.  1.
       11   -1    0    0    0    0 -0.00000000000E+00 -0.00000000000E+00 -0.35740347158E-01  0.35744000000E-01  0.51099999109E-03 0. -1.
       22    1    1    2    0    0 -0.89797180641E-02 -0.91824604098E-03 -0.34578245655E-01  0.35737005818E-01  0.00000000000E+00 0. -1.
  9000001    1    1    2    0    0  0.89797180641E-02  0.91824604098E-03  0.34578245655E-01  0.35750994182E-01  0.10000000475E-02 0.  1.
</event>
<event>
 4   0  0.4892667E-02  0.9118800E+02  0.7818609E-02  0.1379984E+01
      -11   -1    0    0    0    0  0.00000000000E+00  0.00000000000E+00  0.35740347158E-01  0.35744000000E-01  0.51099999109E-03 0.  1.
       11   -1    0    0    0    0 -0.00000000000E+00 -0.00000000000E+00 -0.35740347158E-01  0.35744000000E-01  0.51099999109E-03 0. -1.
       22    1    1    2    0    0 -0.38642442294E-02 -0.72590335464E-02  0.34777976269E-01  0.35737005818E-01  0.00000000000E+00 0.  1.
  9000001    1    1    2    0    0  0.38642442294E-02  0.72590335464E-02 -0.34777976269E-01  0.35750994182E-01  0.10000000475E-02 0. -1.
</event>
<event>
 4   0  0.4892667E-02  0.9118800E+02  0.7818609E-02  0.1379984E+01
      -11   -1    0    0    0    0  0.00000000000E+00  0.00000000000E+00  0.35740347158E-01  0.35744000000E-01  0.51099999109E-03 0. -1.
       11   -1    0    0    0    0 -0.00000000000E+00 -0.00000000000E+00 -0.35740347158E-01  0.35744000000E-01  0.51099999109E-03 0.  1.
       22    1    1    2    0    0  0.25202052544E-01  0.57836764857E-02  0.24668587693E-01  0.35737005818E-01  0.00000000000E+00 0. -1.
  9000001    1    1    2    0    0 -0.25202052544E-01 -0.57836764857E-02 -0.24668587693E-01  0.35750994182E-01  0.10000000475E-02 0.  1.
</event>
<event>
 4   0  0.4892667E-02  0.9118800E+02  0.7818609E-02  0.1379984E+01
      -11   -1    0    0    0    0  0.00000000000E+00  0.00000000000E+00  0.35740347158E-01  0.35744000000E-01  0.51099999109E-03 0. -1.
       11   -1    0    0    0    0 -0.00000000000E+00 -0.00000000000E+00 -0.35740347158E-01  0.35744000000E-01  0.51099999109E-03 0.  1.
       22    1    1    2    0    0  0.26120632634E-01  0.44716667486E-02 -0.23976036623E-01  0.35737005818E-01  0.00000000000E+00 0.  1.
  9000001    1    1    2    0    0 -0.26120632634E-01 -0.44716667486E-02  0.23976036623E-01  0.35750994182E-01  0.10000000475E-02 0. -1.
</event>
<event>
 4   0  0.4892667E-02  0.9118800E+02  0.7818609E-02  0.1379984E+01
      -11   -1    0    0    0    0  0.00000000000E+00  0.00000000000E+00  0.35740347158E-01  0.35744000000E-01  0.51099999109E-03 0.  1.
       11   -1    0    0    0    0 -0.00000000000E+00 -0.00000000000E+00 -0.35740347158E-01  0.35744000000E-01  0.51099999109E-03 0. -1.
       22    1    1    2    0    0 -0.31637683309E-01  0.57010219658E-02 -0.15610539012E-01  0.35737005818E-01  0.00000000000E+00 0. -1.
  9000001    1    1    2    0    0  0.31637683309E-01 -0.57010219658E-02  0.15610539012E-01  0.35750994182E-01  0.10000000475E-02 0.  1.
</event>
<event>
 4   0  0.4892667E-02  0.9118800E+02  0.7818609E-02  0.1379984E+01
      -11   -1    0    0    0    0  0.00000000000E+00  0.00000000000E+00  0.35740347158E-01  0.35744000000E-01  0.51099999109E-03 0.  1.
       11   -1    0    0    0    0 -0.00000000000E+00 -0.00000000000E+00 -0.35740347158E-01  0.35744000000E-01  0.51099999109E-03 0. -1.
       22    1    1    2    0    0  0.10360607090E-02  0.33131636167E-01  0.13354955933E-01  0.35737005818E-01  0.00000000000E+00 0.  1.
  9000001    1    1    2    0    0 -0.10360607090E-02 -0.33131636167E-01 -0.13354955933E-01  0.35750994182E-01  0.10000000475E-02 0. -1.
</event>
<event>
 4   0  0.4892667E-02  0.9118800E+02  0.7818609E-02  0.1379984E+01
      -11   -1    0    0    0    0  0.00000000000E+00  0.00000000000E+00  0.35740347158E-01  0.35744000000E-01  0.51099999109E-03 0.  1.
       11   -1    0    0    0    0 -0.00000000000E+00 -0.00000000000E+00 -0.35740347158E-01  0.35744000000E-01  0.51099999109E-03 0. -1.
       22    1    1    2    0    0 -0.20340140054E-03  0.10325570915E-01 -0.34212202472E-01  0.35737005818E-01  0.00000000000E+00 0. -1.
  9000001    1    1    2    0    0  0.20340140054E-03 -0.10325570915E-01  0.34212202472E-01  0.35750994182E-01  0.10000000475E-02 0.  1.
</event>
<event>
 4   0  0.4892667E-02  0.9118800E+02  0.7818609E-02  0.1379984E+01
      -11   -1    0    0    0    0  0.00000000000E+00  0.00000000000E+00  0.35740347158E-01  0.35744000000E-01  0.51099999109E-03 0. -1.
       11   -1    0    0    0    0 -0.00000000000E+00 -0.00000000000E+00 -0.35740347158E-01  0.35744000000E-01  0.51099999109E-03 0.  1.
       22    1    1    2    0    0  0.23070151179E-01 -0.17608084563E-01 -0.20853226788E-01  0.35737005818E-01  0.00000000000E+00 0.  1.
  9000001    1    1    2    0    0 -0.23070151179E-01  0.17608084563E-01  0.20853226788E-01  0.35750994182E-01  0.10000000475E-02 0. -1.
</event>
<event>
 4   0  0.4892667E-02  0.9118800E+02  0.7818609E-02  0.1379984E+01
      -11   -1    0    0    0    0  0.00000000000E+00  0.00000000000E+00  0.35740347158E-01  0.35744000000E-01  0.51099999109E-03 0.  1.
       11   -1    0    0    0    0 -0.00000000000E+00 -0.00000000000E+00 -0.35740347158E-01  0.35744000000E-01  0.51099999109E-03 0. -1.
       22    1    1    2    0    0 -0.77357392061E-02 -0.39941602832E-02 -0.34660331900E-01  0.35737005818E-01  0.00000000000E+00 0. -1.
  9000001    1    1    2    0    0  0.77357392061E-02  0.39941602832E-02  0.34660331900E-01  0.35750994182E-01  0.10000000475E-02 0.  1.
</event>
<event>
 4   0  0.4892667E-02  0.9118800E+02  0.7818609E-02  0.1379984E+01
      -11   -1    0    0    0    0  0.00000000000E+00  0.00000000000E+00  0.35740347158E-01  0.35744000000E-01  0.51099999109E-03 0. -1.
       11   -1    0    0    0    0 -0.00000000000E+00 -0.00000000000E+00 -0.35740347158E-01  0.35744000000E-01  0.51099999109E-03 0.  1.
       22    1    1    2    0    0 -0.10377461516E-01 -0.11480861827E-01  0.32212290963E-01  0.35737005818E-01  0.00000000000E+00 0. -1.
  9000001    1    1    2    0    0  0.10377461516E-01  0.11480861827E-01 -0.32212290963E-01  0.35750994182E-01  0.10000000475E-02 0.  1.
</event>
<event>
 4   0  0.4892667E-02  0.9118800E+02  0.7818609E-02  0.1379984E+01
      -11   -1    0    0    0    0  0.00000000000E+00  0.00000000000E+00  0.35740347158E-01  0.35744000000E-01  0.51099999109E-03 0. -1.
       11   -1    0    0    0    0 -0.00000000000E+00 -0.00000000000E+00 -0.35740347158E-01  0.35744000000E-01  0.51099999109E-03 0.  1.
       22    1    1    2    0    0 -0.49510947623E-02 -0.18779349563E-02 -0.35342518385E-01  0.35737005818E-01  0.00000000000E+00 0.  1.
  9000001    1    1    2    0    0  0.49510947623E-02  0.18779349563E-02  0.35342518385E-01  0.35750994182E-01  0.10000000475E-02 0. -1.
</event>
<event>
 4   0  0.4892667E-02  0.9118800E+02  0.7818609E-02  0.1379984E+01
      -11   -1    0    0    0    0  0.00000000000E+00  0.00000000000E+00  0.35740347158E-01  0.35744000000E-01  0.51099999109E-03 0. -1.
       11   -1    0    0    0    0 -0.00000000000E+00 -0.00000000000E+00 -0.35740347158E-01  0.35744000000E-01  0.51099999109E-03 0.  1.
       22    1    1    2    0    0 -0.12880433608E-01  0.10057943250E-01 -0.31781532256E-01  0.35737005818E-01  0.00000000000E+00 0.  1.
  9000001    1    1    2    0    0  0.12880433608E-01 -0.10057943250E-01  0.31781532256E-01  0.35750994182E-01  0.10000000475E-02 0. -1.
</event>
<event>
 4   0  0.4892667E-02  0.9118800E+02  0.7818609E-02  0.1379984E+01
      -11   -1    0    0    0    0  0.00000000000E+00  0.00000000000E+00  0.35740347158E-01  0.35744000000E-01  0.51099999109E-03 0.  1.
       11   -1    0    0    0    0 -0.00000000000E+00 -0.00000000000E+00 -0.35740347158E-01  0.35744000000E-01  0.51099999109E-03 0. -1.
       22    1    1    2    0    0 -0.34694210847E-02 -0.35731382341E-04 -0.35568179957E-01  0.35737005818E-01  0.00000000000E+00 0. -1.
  9000001    1    1    2    0    0  0.34694210847E-02  0.35731382341E-04  0.35568179957E-01  0.35750994182E-01  0.10000000475E-02 0.  1.
</event>
<event>
 4   0  0.4892667E-02  0.9118800E+02  0.7818609E-02  0.1379984E+01
      -11   -1    0    0    0    0  0.00000000000E+00  0.00000000000E+00  0.35740347158E-01  0.35744000000E-01  0.51099999109E-03 0.  1.
       11   -1    0    0    0    0 -0.00000000000E+00 -0.00000000000E+00 -0.35740347158E-01  0.35744000000E-01  0.51099999109E-03 0. -1.
       22    1    1    2    0    0 -0.11125801240E-01  0.59778802574E-02 -0.33430750504E-01  0.35737005818E-01  0.00000000000E+00 0. -1.
  9000001    1    1    2    0    0  0.11125801240E-01 -0.59778802574E-02  0.33430750504E-01  0.35750994182E-01  0.10000000475E-02 0.  1.
</event>
<event>
 4   0  0.4892667E-02  0.9118800E+02  0.7818609E-02  0.1379984E+01
      -11   -1    0    0    0    0  0.00000000000E+00  0.00000000000E+00  0.35740347158E-01  0.35744000000E-01  0.51099999109E-03 0.  1.
       11   -1    0    0    0    0 -0.00000000000E+00 -0.00000000000E+00 -0.35740347158E-01  0.35744000000E-01  0.51099999109E-03 0. -1.
       22    1    1    2    0    0 -0.34398791317E-02 -0.36515280078E-03 -0.35569192848E-01  0.35737005818E-01  0.00000000000E+00 0. -1.
  9000001    1    1    2    0    0  0.34398791317E-02  0.36515280078E-03  0.35569192848E-01  0.35750994182E-01  0.10000000475E-02 0.  1.
</event>
<event>
 4   0  0.4892667E-02  0.9118800E+02  0.7818609E-02  0.1379984E+01
      -11   -1    0    0    0    0  0.00000000000E+00  0.00000000000E+00  0.35740347158E-01  0.35744000000E-01  0.51099999109E-03 0.  1.
       11   -1    0    0    0    0 -0.00000000000E+00 -0.00000000000E+00 -0.35740347158E-01  0.35744000000E-01  0.51099999109E-03 0. -1.
       22    1    1    2    0    0 -0.33578402837E-02  0.79950047062E-02  0.34668983159E-01  0.35737005818E-01  0.00000000000E+00 0.  1.
  9000001    1    1    2    0    0  0.33578402837E-02 -0.79950047062E-02 -0.34668983159E-01  0.35750994182E-01  0.10000000475E-02 0. -1.
</event>
<event>
 4   0  0.4892667E-02  0.9118800E+02  0.7818609E-02  0.1379984E+01
      -11   -1    0    0    0    0  0.00000000000E+00  0.00000000000E+00  0.35740347158E-01  0.35744000000E-01  0.51099999109E-03 0. -1.
       11   -1    0    0    0    0 -0.00000000000E+00 -0.00000000000E+00 -0.35740347158E-01  0.35744000000E-01  0.51099999109E-03 0.  1.
       22    1    1    2    0    0 -0.23163195026E-01  0.88176025453E-02  0.25745870861E-01  0.35737005818E-01  0.00000000000E+00 0. -1.
  9000001    1    1    2    0    0  0.23163195026E-01 -0.88176025453E-02 -0.25745870861E-01  0.35750994182E-01  0.10000000475E-02 0.  1.
</event>
<event>
 4   0  0.4892667E-02  0.9118800E+02  0.7818609E-02  0.1379984E+01
      -11   -1    0    0    0    0  0.00000000000E+00  0.00000000000E+00  0.35740347158E-01  0.35744000000E-01  0.51099999109E-03 0.  1.
       11   -1    0    0    0    0 -0.00000000000E+00 -0.00000000000E+00 -0.35740347158E-01  0.35744000000E-01  0.51099999109E-03 0. -1.
       22    1    1    2    0    0  0.12463163855E-01  0.15574370996E-01  0.29652016789E-01  0.35737005818E-01  0.00000000000E+00 0.  1.
  9000001    1    1    2    0    0 -0.12463163855E-01 -0.15574370996E-01 -0.29652016789E-01  0.35750994182E-01  0.10000000475E-02 0. -1.
</event>
<event>
 4   0  0.4892667E-02  0.9118800E+02  0.7818609E-02  0.1379984E+01
      -11   -1    0    0    0    0  0.00000000000E+00  0.00000000000E+00  0.35740347158E-01  0.35744000000E-01  0.51099999109E-03 0. -1.
       11   -1    0    0    0    0 -0.00000000000E+00 -0.00000000000E+00 -0.35740347158E-01  0.35744000000E-01  0.51099999109E-03 0.  1.
       22    1    1    2    0    0 -0.14073362465E-01  0.20434468967E-01  0.25719769281E-01  0.35737005818E-01  0.00000000000E+00 0. -1.
  9000001    1    1    2    0    0  0.14073362465E-01 -0.20434468967E-01 -0.25719769281E-01  0.35750994182E-01  0.10000000475E-02 0.  1.
</event>
<event>
 4   0  0.4892667E-02  0.9118800E+02  0.7818609E-02  0.1379984E+01
      -11   -1    0    0    0    0  0.00000000000E+00  0.00000000000E+00  0.35740347158E-01  0.35744000000E-01  0.51099999109E-03 0.  1.
       11   -1    0    0    0    0 -0.00000000000E+00 -0.00000000000E+00 -0.35740347158E-01  0.35744000000E-01  0.51099999109E-03 0. -1.
       22    1    1    2    0    0  0.13198923813E-01  0.85057376405E-02  0.32102560992E-01  0.35737005818E-01  0.00000000000E+00 0.  1.
  9000001    1    1    2    0    0 -0.13198923813E-01 -0.85057376405E-02 -0.32102560992E-01  0.35750994182E-01  0.10000000475E-02 0. -1.
</event>
<event>
 4   0  0.4892667E-02  0.9118800E+02  0.7818609E-02  0.1379984E+01
      -11   -1    0    0    0    0  0.00000000000E+00  0.00000000000E+00  0.35740347158E-01  0.35744000000E-01  0.51099999109E-03 0. -1.
       11   -1    0    0    0    0 -0.00000000000E+00 -0.00000000000E+00 -0.35740347158E-01  0.35744000000E-01  0.51099999109E-03 0.  1.
       22    1    1    2    0    0 -0.25703484272E-02 -0.22394775569E-02 -0.35574030333E-01  0.35737005818E-01  0.00000000000E+00 0.  1.
  9000001    1    1    2    0    0  0.25703484272E-02  0.22394775569E-02  0.35574030333E-01  0.35750994182E-01  0.10000000475E-02 0. -1.
</event>
<event>
 4   0  0.4892667E-02  0.9118800E+02  0.7818609E-02  0.1379984E+01
      -11   -1    0    0    0    0  0.00000000000E+00  0.00000000000E+00  0.35740347158E-01  0.35744000000E-01  0.51099999109E-03 0. -1.
       11   -1    0    0    0    0 -0.00000000000E+00 -0.00000000000E+00 -0.35740347158E-01  0.35744000000E-01  0.51099999109E-03 0.  1.
       22    1    1    2    0    0 -0.13081899358E-02 -0.16936345557E-01 -0.31441730600E-01  0.35737005818E-01  0.00000000000E+00 0.  1.
  9000001    1    1    2    0    0  0.13081899358E-02  0.16936345557E-01  0.31441730600E-01  0.35750994182E-01  0.10000000475E-02 0. -1.
</event>
<event>
 4   0  0.4892667E-02  0.9118800E+02  0.7818609E-02  0.1379984E+01
      -11   -1    0    0    0    0  0.00000000000E+00  0.00000000000E+00  0.35740347158E-01  0.35744000000E-01  0.51099999109E-03 0. -1.
       11   -1    0    0    0    0 -0.00000000000E+00 -0.00000000000E+00 -0.35740347158E-01  0.35744000000E-01  0.51099999109E-03 0.  1.
       22    1    1    2    0    0  0.34962187133E-02 -0.63078767133E-02 -0.35001724685E-01  0.35737005818E-01  0.00000000000E+00 0.  1.
  9000001    1    1    2    0    0 -0.34962187133E-02  0.63078767133E-02  0.35001724685E-01  0.35750994182E-01  0.10000000475E-02 0. -1.
</event>
<event>
 4   0  0.4892667E-02  0.9118800E+02  0.7818609E-02  0.1379984E+01
      -11   -1    0    0    0    0  0.00000000000E+00  0.00000000000E+00  0.35740347158E-01  0.35744000000E-01  0.51099999109E-03 0. -1.
       11   -1    0    0    0    0 -0.00000000000E+00 -0.00000000000E+00 -0.35740347158E-01  0.35744000000E-01  0.51099999109E-03 0.  1.
       22    1    1    2    0    0  0.39257936185E-02  0.23683848740E-02 -0.35441677195E-01  0.35737005818E-01  0.00000000000E+00 0.  1.
  9000001    1    1    2    0    0 -0.39257936185E-02 -0.23683848740E-02  0.35441677195E-01  0.35750994182E-01  0.10000000475E-02 0. -1.
</event>
<event>
 4   0  0.4892667E-02  0.9118800E+02  0.7818609E-02  0.1379984E+01
      -11   -1    0    0    0    0  0.00000000000E+00  0.00000000000E+00  0.35740347158E-01  0.35744000000E-01  0.51099999109E-03 0. -1.
       11   -1    0    0    0    0 -0.00000000000E+00 -0.00000000000E+00 -0.35740347158E-01  0.35744000000E-01  0.51099999109E-03 0.  1.
       22    1    1    2    0    0  0.49922653671E-02 -0.13989446910E-01 -0.32503942015E-01  0.35737005818E-01  0.00000000000E+00 0.  1.
  9000001    1    1    2    0    0 -0.49922653671E-02  0.13989446910E-01  0.32503942015E-01  0.35750994182E-01  0.10000000475E-02 0. -1.
</event>
<event>
 4   0  0.4892667E-02  0.9118800E+02  0.7818609E-02  0.1379984E+01
      -11   -1    0    0    0    0  0.00000000000E+00  0.00000000000E+00  0.35740347158E-01  0.35744000000E-01  0.51099999109E-03 0. -1.
       11   -1    0    0    0    0 -0.00000000000E+00 -0.00000000000E+00 -0.35740347158E-01  0.35744000000E-01  0.51099999109E-03 0.  1.
       22    1    1    2    0    0 -0.55022774718E-03 -0.38847895949E-02 -0.35520969076E-01  0.35737005818E-01  0.00000000000E+00 0.  1.
  9000001    1    1    2    0    0  0.55022774718E-03  0.38847895949E-02  0.35520969076E-01  0.35750994182E-01  0.10000000475E-02 0. -1.
</event>
<event>
 4   0  0.4892667E-02  0.9118800E+02  0.7818609E-02  0.1379984E+01
      -11   -1    0    0    0    0  0.00000000000E+00  0.00000000000E+00  0.35740347158E-01  0.35744000000E-01  0.51099999109E-03 0. -1.
       11   -1    0    0    0    0 -0.00000000000E+00 -0.00000000000E+00 -0.35740347158E-01  0.35744000000E-01  0.51099999109E-03 0.  1.
       22    1    1    2    0    0 -0.97348098044E-02 -0.56394187929E-02  0.33919964897E-01  0.35737005818E-01  0.00000000000E+00 0. -1.
  9000001    1    1    2    0    0  0.97348098044E-02  0.56394187929E-02 -0.33919964897E-01  0.35750994182E-01  0.10000000475E-02 0.  1.
</event>
<event>
 4   0  0.4892667E-02  0.9118800E+02  0.7818609E-02  0.1379984E+01
      -11   -1    0    0    0    0  0.00000000000E+00  0.00000000000E+00  0.35740347158E-01  0.35744000000E-01  0.51099999109E-03 0.  1.
       11   -1    0    0    0    0 -0.00000000000E+00 -0.00000000000E+00 -0.35740347158E-01  0.35744000000E-01  0.51099999109E-03 0. -1.
       22    1    1    2    0    0  0.42569390989E-02 -0.28555704294E-02 -0.35367467706E-01  0.35737005818E-01  0.00000000000E+00 0. -1.
  9000001    1    1    2    0    0 -0.42569390989E-02  0.28555704294E-02  0.35367467706E-01  0.35750994182E-01  0.10000000475E-02 0.  1.
</event>
<event>
 4   0  0.4892667E-02  0.9118800E+02  0.7818609E-02  0.1379984E+01
      -11   -1    0    0    0    0  0.00000000000E+00  0.00000000000E+00  0.35740347158E-01  0.35744000000E-01  0.51099999109E-03 0. -1.
       11   -1    0    0    0    0 -0.00000000000E+00 -0.00000000000E+00 -0.35740347158E-01  0.35744000000E-01  0.51099999109E-03 0.  1.
       22    1    1    2    0    0 -0.49770872675E-03  0.33665467757E-01  0.11980073106E-01  0.35737005818E-01  0.00000000000E+00 0.  1.
  9000001    1    1    2    0    0  0.49770872675E-03 -0.33665467757E-01 -0.11980073106E-01  0.35750994182E-01  0.10000000475E-02 0. -1.
</event>
<event>
 4   0  0.4892667E-02  0.9118800E+02  0.7818609E-02  0.1379984E+01
      -11   -1    0    0    0    0  0.00000000000E+00  0.00000000000E+00  0.35740347158E-01  0.35744000000E-01  0.51099999109E-03 0. -1.
       11   -1    0    0    0    0 -0.00000000000E+00 -0.00000000000E+00 -0.35740347158E-01  0.35744000000E-01  0.51099999109E-03 0.  1.
       22    1    1    2    0    0  0.46093110313E-03  0.45069502133E-02 -0.35448674547E-01  0.35737005818E-01  0.00000000000E+00 0.  1.
  9000001    1    1    2    0    0 -0.46093110313E-03 -0.45069502133E-02  0.35448674547E-01  0.35750994182E-01  0.10000000475E-02 0. -1.
</event>
<event>
 4   0  0.4892667E-02  0.9118800E+02  0.7818609E-02  0.1379984E+01
      -11   -1    0    0    0    0  0.00000000000E+00  0.00000000000E+00  0.35740347158E-01  0.35744000000E-01  0.51099999109E-03 0. -1.
       11   -1    0    0    0    0 -0.00000000000E+00 -0.00000000000E+00 -0.35740347158E-01  0.35744000000E-01  0.51099999109E-03 0.  1.
       22    1    1    2    0    0 -0.73054462760E-02 -0.34048856202E-01 -0.80274174504E-02  0.35737005818E-01  0.00000000000E+00 0.  1.
  9000001    1    1    2    0    0  0.73054462760E-02  0.34048856202E-01  0.80274174504E-02  0.35750994182E-01  0.10000000475E-02 0. -1.
</event>
<event>
 4   0  0.4892667E-02  0.9118800E+02  0.7818609E-02  0.1379984E+01
      -11   -1    0    0    0    0  0.00000000000E+00  0.00000000000E+00  0.35740347158E-01  0.35744000000E-01  0.51099999109E-03 0.  1.
       11   -1    0    0    0    0 -0.00000000000E+00 -0.00000000000E+00 -0.35740347158E-01  0.35744000000E-01  0.51099999109E-03 0. -1.
       22    1    1    2    0    0 -0.16778149572E-01 -0.31353518849E-01  0.35474128011E-02  0.35737005818E-01  0.00000000000E+00 0. -1.
  9000001    1    1    2    0    0  0.16778149572E-01  0.31353518849E-01 -0.35474128011E-02  0.35750994182E-01  0.10000000475E-02 0.  1.
</event>
<event>
 4   0  0.4892667E-02  0.9118800E+02  0.7818609E-02  0.1379984E+01
      -11   -1    0    0    0    0  0.00000000000E+00  0.00000000000E+00  0.35740347158E-01  0.35744000000E-01  0.51099999109E-03 0. -1.
       11   -1    0    0    0    0 -0.00000000000E+00 -0.00000000000E+00 -0.35740347158E-01  0.35744000000E-01  0.51099999109E-03 0.  1.
       22    1    1    2    0    0 -0.49505910009E-02 -0.12286484819E-01 -0.33191377260E-01  0.35737005818E-01  0.00000000000E+00 0.  1.
  9000001    1    1    2    0    0  0.49505910009E-02  0.12286484819E-01  0.33191377260E-01  0.35750994182E-01  0.10000000475E-02 0. -1.
</event>
<event>
 4   0  0.4892667E-02  0.9118800E+02  0.7818609E-02  0.1379984E+01
      -11   -1    0    0    0    0  0.00000000000E+00  0.00000000000E+00  0.35740347158E-01  0.35744000000E-01  0.51099999109E-03 0.  1.
       11   -1    0    0    0    0 -0.00000000000E+00 -0.00000000000E+00 -0.35740347158E-01  0.35744000000E-01  0.51099999109E-03 0. -1.
       22    1    1    2    0    0 -0.21537044879E-02 -0.30720314579E-02  0.35539523978E-01  0.35737005818E-01  0.00000000000E+00 0.  1.
  9000001    1    1    2    0    0  0.21537044879E-02  0.30720314579E-02 -0.35539523978E-01  0.35750994182E-01  0.10000000475E-02 0. -1.
</event>
<event>
 4   0  0.4892667E-02  0.9118800E+02  0.7818609E-02  0.1379984E+01
      -11   -1    0    0    0    0  0.00000000000E+00  0.00000000000E+00  0.35740347158E-01  0.35744000000E-01  0.51099999109E-03 0.  1.
       11   -1    0    0    0    0 -0.00000000000E+00 -0.00000000000E+00 -0.35740347158E-01  0.35744000000E-01  0.51099999109E-03 0. -1.
       22    1    1    2    0    0 -0.47031694298E-02  0.26386537173E-02 -0.35327769371E-01  0.35737005818E-01  0.00000000000E+00 0. -1.
  9000001    1    1    2    0    0  0.47031694298E-02 -0.26386537173E-02  0.35327769371E-01  0.35750994182E-01  0.10000000475E-02 0.  1.
</event>
<event>
 4   0  0.4892667E-02  0.9118800E+02  0.7818609E-02  0.1379984E+01
      -11   -1    0    0    0    0  0.00000000000E+00  0.00000000000E+00  0.35740347158E-01  0.35744000000E-01  0.51099999109E-03 0.  1.
       11   -1    0    0    0    0 -0.00000000000E+00 -0.00000000000E+00 -0.35740347158E-01  0.35744000000E-01  0.51099999109E-03 0. -1.
       22    1    1    2    0    0  0.28461777064E-02 -0.45584156316E-02 -0.35330634077E-01  0.35737005818E-01  0.00000000000E+00 0. -1.
  9000001    1    1    2    0    0 -0.28461777064E-02  0.45584156316E-02  0.35330634077E-01  0.35750994182E-01  0.10000000475E-02 0.  1.
</event>
<event>
 4   0  0.4892667E-02  0.9118800E+02  0.7818609E-02  0.1379984E+01
      -11   -1    0    0    0    0  0.00000000000E+00  0.00000000000E+00  0.35740347158E-01  0.35744000000E-01  0.51099999109E-03 0. -1.
       11   -1    0    0    0    0 -0.00000000000E+00 -0.00000000000E+00 -0.35740347158E-01  0.35744000000E-01  0.51099999109E-03 0.  1.
       22    1    1    2    0    0  0.30901450122E-01  0.11730356170E-02  0.17912508275E-01  0.35737005818E-01  0.00000000000E+00 0. -1.
  9000001    1    1    2    0    0 -0.30901450122E-01 -0.11730356170E-02 -0.17912508275E-01  0.35750994182E-01  0.10000000475E-02 0.  1.
</event>
<event>
 4   0  0.4892667E-02  0.9118800E+02  0.7818609E-02  0.1379984E+01
      -11   -1    0    0    0    0  0.00000000000E+00  0.00000000000E+00  0.35740347158E-01  0.35744000000E-01  0.51099999109E-03 0.  1.
       11   -1    0    0    0    0 -0.00000000000E+00 -0.00000000000E+00 -0.35740347158E-01  0.35744000000E-01  0.51099999109E-03 0. -1.
       22    1    1    2    0    0 -0.25891762467E-02  0.24579768414E-02  0.35558235348E-01  0.35737005818E-01  0.00000000000E+00 0.  1.
  9000001    1    1    2    0    0  0.25891762467E-02 -0.24579768414E-02 -0.35558235348E-01  0.35750994182E-01  0.10000000475E-02 0. -1.
</event>
<event>
 4   0  0.4892667E-02  0.9118800E+02  0.7818609E-02  0.1379984E+01
      -11   -1    0    0    0    0  0.00000000000E+00  0.00000000000E+00  0.35740347158E-01  0.35744000000E-01  0.51099999109E-03 0.  1.
       11   -1    0    0    0    0 -0.00000000000E+00 -0.00000000000E+00 -0.35740347158E-01  0.35744000000E-01  0.51099999109E-03 0. -1.
       22    1    1    2    0    0  0.48918203716E-02  0.24457346744E-02  0.35316031207E-01  0.35737005818E-01  0.00000000000E+00 0.  1.
  9000001    1    1    2    0    0 -0.48918203716E-02 -0.24457346744E-02 -0.35316031207E-01  0.35750994182E-01  0.10000000475E-02 0. -1.
</event>
<event>
 4   0  0.4892667E-02  0.9118800E+02  0.7818609E-02  0.1379984E+01
      -11   -1    0    0    0    0  0.00000000000E+00  0.00000000000E+00  0.35740347158E-01  0.35744000000E-01  0.51099999109E-03 0.  1.
       11   -1    0    0    0    0 -0.00000000000E+00 -0.00000000000E+00 -0.35740347158E-01  0.35744000000E-01  0.51099999109E-03 0. -1.
       22    1    1    2    0    0  0.75337180664E-03  0.62952978880E-02  0.35170090138E-01  0.35737005818E-01  0.00000000000E+00 0.  1.
  9000001    1    1    2    0    0 -0.75337180664E-03 -0.62952978880E-02 -0.35170090138E-01  0.35750994182E-01  0.10000000475E-02 0. -1.
</event>
<event>
 4   0  0.4892667E-02  0.9118800E+02  0.7818609E-02  0.1379984E+01
      -11   -1    0    0    0    0  0.00000000000E+00  0.00000000000E+00  0.35740347158E-01  0.35744000000E-01  0.51099999109E-03 0.  1.
       11   -1    0    0    0    0 -0.00000000000E+00 -0.00000000000E+00 -0.35740347158E-01  0.35744000000E-01  0.51099999109E-03 0. -1.
       22    1    1    2    0    0 -0.20736134417E-01 -0.14274032478E-01  0.25365297379E-01  0.35737005818E-01  0.00000000000E+00 0.  1.
  9000001    1    1    2    0    0  0.20736134417E-01  0.14274032478E-01 -0.25365297379E-01  0.35750994182E-01  0.10000000475E-02 0. -1.
</event>
<event>
 4   0  0.4892667E-02  0.9118800E+02  0.7818609E-02  0.1379984E+01
      -11   -1    0    0    0    0  0.00000000000E+00  0.00000000000E+00  0.35740347158E-01  0.35744000000E-01  0.51099999109E-03 0. -1.
       11   -1    0    0    0    0 -0.00000000000E+00 -0.00000000000E+00 -0.35740347158E-01  0.35744000000E-01  0.51099999109E-03 0.  1.
       22    1    1    2    0    0  0.27634929518E-01 -0.22514132234E-01  0.25608797636E-02  0.35737005818E-01  0.00000000000E+00 0. -1.
  9000001    1    1    2    0    0 -0.27634929518E-01  0.22514132234E-01 -0.25608797636E-02  0.35750994182E-01  0.10000000475E-02 0.  1.
</event>
<event>
 4   0  0.4892667E-02  0.9118800E+02  0.7818609E-02  0.1379984E+01
      -11   -1    0    0    0    0  0.00000000000E+00  0.00000000000E+00  0.35740347158E-01  0.35744000000E-01  0.51099999109E-03 0. -1.
       11   -1    0    0    0    0 -0.00000000000E+00 -0.00000000000E+00 -0.35740347158E-01  0.35744000000E-01  0.51099999109E-03 0.  1.
       22    1    1    2    0    0 -0.43852862290E-02  0.11529545022E-01  0.33540608837E-01  0.35737005818E-01  0.00000000000E+00 0. -1.
  9000001    1    1    2    0    0  0.43852862290E-02 -0.11529545022E-01 -0.33540608837E-01  0.35750994182E-01  0.10000000475E-02 0.  1.
</event>
<event>
 4   0  0.4892667E-02  0.9118800E+02  0.7818609E-02  0.1379984E+01
      -11   -1    0    0    0    0  0.00000000000E+00  0.00000000000E+00  0.35740347158E-01  0.35744000000E-01  0.51099999109E-03 0. -1.
       11   -1    0    0    0    0 -0.00000000000E+00 -0.00000000000E+00 -0.35740347158E-01  0.35744000000E-01  0.51099999109E-03 0.  1.
       22    1    1    2    0    0 -0.15490484505E-02 -0.28608238162E-02  0.35588617855E-01  0.35737005818E-01  0.00000000000E+00 0. -1.
  9000001    1    1    2    0    0  0.15490484505E-02  0.28608238162E-02 -0.35588617855E-01  0.35750994182E-01  0.10000000475E-02 0.  1.
</event>
<event>
 4   0  0.4892667E-02  0.9118800E+02  0.7818609E-02  0.1379984E+01
      -11   -1    0    0    0    0  0.00000000000E+00  0.00000000000E+00  0.35740347158E-01  0.35744000000E-01  0.51099999109E-03 0.  1.
       11   -1    0    0    0    0 -0.00000000000E+00 -0.00000000000E+00 -0.35740347158E-01  0.35744000000E-01  0.51099999109E-03 0. -1.
       22    1    1    2    0    0 -0.66537866377E-02 -0.10841562301E-01  0.33396425484E-01  0.35737005818E-01  0.00000000000E+00 0.  1.
  9000001    1    1    2    0    0  0.66537866377E-02  0.10841562301E-01 -0.33396425484E-01  0.35750994182E-01  0.10000000475E-02 0. -1.
</event>
<event>
 4   0  0.4892667E-02  0.9118800E+02  0.7818609E-02  0.1379984E+01
      -11   -1    0    0    0    0  0.00000000000E+00  0.00000000000E+00  0.35740347158E-01  0.35744000000E-01  0.51099999109E-03 0. -1.
       11   -1    0    0    0    0 -0.00000000000E+00 -0.00000000000E+00 -0.35740347158E-01  0.35744000000E-01  0.51099999109E-03 0.  1.
       22    1    1    2    0    0 -0.26991997693E-01 -0.11839760420E-01  0.20208555579E-01  0.35737005818E-01  0.00000000000E+00 0. -1.
  9000001    1    1    2    0    0  0.26991997693E-01  0.11839760420E-01 -0.20208555579E-01  0.35750994182E-01  0.10000000475E-02 0.  1.
</event>
<event>
 4   0  0.4892667E-02  0.9118800E+02  0.7818609E-02  0.1379984E+01
      -11   -1    0    0    0    0  0.00000000000E+00  0.00000000000E+00  0.35740347158E-01  0.35744000000E-01  0.51099999109E-03 0. -1.
       11   -1    0    0    0    0 -0.00000000000E+00 -0.00000000000E+00 -0.35740347158E-01  0.35744000000E-01  0.51099999109E-03 0.  1.
       22    1    1    2    0    0 -0.64592455110E-02  0.28020431093E-02 -0.35036556433E-01  0.35737005818E-01  0.00000000000E+00 0.  1.
  9000001    1    1    2    0    0  0.64592455110E-02 -0.28020431093E-02  0.35036556433E-01  0.35750994182E-01  0.10000000475E-02 0. -1.
</event>
<event>
 4   0  0.4892667E-02  0.9118800E+02  0.7818609E-02  0.1379984E+01
      -11   -1    0    0    0    0  0.00000000000E+00  0.00000000000E+00  0.35740347158E-01  0.35744000000E-01  0.51099999109E-03 0.  1.
       11   -1    0    0    0    0 -0.00000000000E+00 -0.00000000000E+00 -0.35740347158E-01  0.35744000000E-01  0.51099999109E-03 0. -1.
       22    1    1    2    0    0  0.13260783014E-01  0.16695244328E-02 -0.33143595262E-01  0.35737005818E-01  0.00000000000E+00 0. -1.
  9000001    1    1    2    0    0 -0.13260783014E-01 -0.16695244328E-02  0.33143595262E-01  0.35750994182E-01  0.10000000475E-02 0.  1.
</event>
<event>
 4   0  0.4892667E-02  0.9118800E+02  0.7818609E-02  0.1379984E+01
      -11   -1    0    0    0    0  0.00000000000E+00  0.00000000000E+00  0.35740347158E-01  0.35744000000E-01  0.51099999109E-03 0. -1.
       11   -1    0    0    0    0 -0.00000000000E+00 -0.00000000000E+00 -0.35740347158E-01  0.35744000000E-01  0.51099999109E-03 0.  1.
       22    1    1    2    0    0 -0.23710529366E-01 -0.89310454157E-02 -0.25202793691E-01  0.35737005818E-01  0.00000000000E+00 0.  1.
  9000001    1    1    2    0    0  0.23710529366E-01  0.89310454157E-02  0.25202793691E-01  0.35750994182E-01  0.10000000475E-02 0. -1.
</event>
<event>
 4   0  0.4892667E-02  0.9118800E+02  0.7818609E-02  0.1379984E+01
      -11   -1    0    0    0    0  0.00000000000E+00  0.00000000000E+00  0.35740347158E-01  0.35744000000E-01  0.51099999109E-03 0. -1.
       11   -1    0    0    0    0 -0.00000000000E+00 -0.00000000000E+00 -0.35740347158E-01  0.35744000000E-01  0.51099999109E-03 0.  1.
       22    1    1    2    0    0 -0.80366024531E-02 -0.22355955880E-01  0.26697525027E-01  0.35737005818E-01  0.00000000000E+00 0. -1.
  9000001    1    1    2    0    0  0.80366024531E-02  0.22355955880E-01 -0.26697525027E-01  0.35750994182E-01  0.10000000475E-02 0.  1.
</event>
<event>
 4   0  0.4892667E-02  0.9118800E+02  0.7818609E-02  0.1379984E+01
      -11   -1    0    0    0    0  0.00000000000E+00  0.00000000000E+00  0.35740347158E-01  0.35744000000E-01  0.51099999109E-03 0. -1.
       11   -1    0    0    0    0 -0.00000000000E+00 -0.00000000000E+00 -0.35740347158E-01  0.35744000000E-01  0.51099999109E-03 0.  1.
       22    1    1    2    0    0 -0.13421119081E-02  0.69726572643E-02  0.35024482454E-01  0.35737005818E-01  0.00000000000E+00 0. -1.
  9000001    1    1    2    0    0  0.13421119081E-02 -0.69726572643E-02 -0.35024482454E-01  0.35750994182E-01  0.10000000475E-02 0.  1.
</event>
<event>
 4   0  0.4892667E-02  0.9118800E+02  0.7818609E-02  0.1379984E+01
      -11   -1    0    0    0    0  0.00000000000E+00  0.00000000000E+00  0.35740347158E-01  0.35744000000E-01  0.51099999109E-03 0.  1.
       11   -1    0    0    0    0 -0.00000000000E+00 -0.00000000000E+00 -0.35740347158E-01  0.35744000000E-01  0.51099999109E-03 0. -1.
       22    1    1    2    0    0 -0.37935064202E-02 -0.39168770078E-02  0.35318564076E-01  0.35737005818E-01  0.00000000000E+00 0.  1.
  9000001    1    1    2    0    0  0.37935064202E-02  0.39168770078E-02 -0.35318564076E-01  0.35750994182E-01  0.10000000475E-02 0. -1.
</event>
<event>
 4   0  0.4892667E-02  0.9118800E+02  0.7818609E-02  0.1379984E+01
      -11   -1    0    0    0    0  0.00000000000E+00  0.00000000000E+00  0.35740347158E-01  0.35744000000E-01  0.51099999109E-03 0. -1.
       11   -1    0    0    0    0 -0.00000000000E+00 -0.00000000000E+00 -0.35740347158E-01  0.35744000000E-01  0.51099999109E-03 0.  1.
       22    1    1    2    0    0  0.60663425467E-02  0.10055292296E-01  0.33752395023E-01  0.35737005818E-01  0.00000000000E+00 0. -1.
  9000001    1    1    2    0    0 -0.60663425467E-02 -0.10055292296E-01 -0.33752395023E-01  0.35750994182E-01  0.10000000475E-02 0.  1.
</event>
<event>
 4   0  0.4892667E-02  0.9118800E+02  0.7818609E-02  0.1379984E+01
      -11   -1    0    0    0    0  0.00000000000E+00  0.00000000000E+00  0.35740347158E-01  0.35744000000E-01  0.51099999109E-03 0. -1.
       11   -1    0    0    0    0 -0.00000000000E+00 -0.00000000000E+00 -0.35740347158E-01  0.35744000000E-01  0.51099999109E-03 0.  1.
       22    1    1    2    0    0  0.24396776084E-02 -0.62840068948E-02  0.35095481410E-01  0.35737005818E-01  0.00000000000E+00 0. -1.
  9000001    1    1    2    0    0 -0.24396776084E-02  0.62840068948E-02 -0.35095481410E-01  0.35750994182E-01  0.10000000475E-02 0.  1.
</event>
<event>
 4   0  0.4892667E-02  0.9118800E+02  0.7818609E-02  0.1379984E+01
      -11   -1    0    0    0    0  0.00000000000E+00  0.00000000000E+00  0.35740347158E-01  0.35744000000E-01  0.51099999109E-03 0. -1.
       11   -1    0    0    0    0 -0.00000000000E+00 -0.00000000000E+00 -0.35740347158E-01  0.35744000000E-01  0.51099999109E-03 0.  1.
       22    1    1    2    0    0  0.25172084659E-02 -0.32050319558E-01 -0.15606865882E-01  0.35737005818E-01  0.00000000000E+00 0.  1.
  9000001    1    1    2    0    0 -0.25172084659E-02  0.32050319558E-01  0.15606865882E-01  0.35750994182E-01  0.10000000475E-02 0. -1.
</event>
<event>
 4   0  0.4892667E-02  0.9118800E+02  0.7818609E-02  0.1379984E+01
      -11   -1    0    0    0    0  0.00000000000E+00  0.00000000000E+00  0.35740347158E-01  0.35744000000E-01  0.51099999109E-03 0.  1.
       11   -1    0    0    0    0 -0.00000000000E+00 -0.00000000000E+00 -0.35740347158E-01  0.35744000000E-01  0.51099999109E-03 0. -1.
       22    1    1    2    0    0 -0.45037706892E-02 -0.59301669831E-02  0.34952578646E-01  0.35737005818E-01  0.00000000000E+00 0.  1.
  9000001    1    1    2    0    0  0.45037706892E-02  0.59301669831E-02 -0.34952578646E-01  0.35750994182E-01  0.10000000475E-02 0. -1.
</event>
<event>
 4   0  0.4892667E-02  0.9118800E+02  0.7818609E-02  0.1379984E+01
      -11   -1    0    0    0    0  0.00000000000E+00  0.00000000000E+00  0.35740347158E-01  0.35744000000E-01  0.51099999109E-03 0.  1.
       11   -1    0    0    0    0 -0.00000000000E+00 -0.00000000000E+00 -0.35740347158E-01  0.35744000000E-01  0.51099999109E-03 0. -1.
       22    1    1    2    0    0 -0.20067825854E-02 -0.58129498920E-02 -0.35203920550E-01  0.35737005818E-01  0.00000000000E+00 0. -1.
  9000001    1    1    2    0    0  0.20067825854E-02  0.58129498920E-02  0.35203920550E-01  0.35750994182E-01  0.10000000475E-02 0.  1.
</event>
<event>
 4   0  0.4892667E-02  0.9118800E+02  0.7818609E-02  0.1379984E+01
      -11   -1    0    0    0    0  0.00000000000E+00  0.00000000000E+00  0.35740347158E-01  0.35744000000E-01  0.51099999109E-03 0.  1.
       11   -1    0    0    0    0 -0.00000000000E+00 -0.00000000000E+00 -0.35740347158E-01  0.35744000000E-01  0.51099999109E-03 0. -1.
       22    1    1    2    0    0  0.75854619498E-03  0.41779651532E-02  0.35483838571E-01  0.35737005818E-01  0.00000000000E+00 0.  1.
  9000001    1    1    2    0    0 -0.75854619498E-03 -0.41779651532E-02 -0.35483838571E-01  0.35750994182E-01  0.10000000475E-02 0. -1.
</event>
<event>
 4   0  0.4892667E-02  0.9118800E+02  0.7818609E-02  0.1379984E+01
      -11   -1    0    0    0    0  0.00000000000E+00  0.00000000000E+00  0.35740347158E-01  0.35744000000E-01  0.51099999109E-03 0. -1.
       11   -1    0    0    0    0 -0.00000000000E+00 -0.00000000000E+00 -0.35740347158E-01  0.35744000000E-01  0.51099999109E-03 0.  1.
       22    1    1    2    0    0  0.21443760146E-01 -0.11431352190E-01 -0.26203490660E-01  0.35737005818E-01  0.00000000000E+00 0.  1.
  9000001    1    1    2    0    0 -0.21443760146E-01  0.11431352190E-01  0.26203490660E-01  0.35750994182E-01  0.10000000475E-02 0. -1.
</event>
<event>
 4   0  0.4892667E-02  0.9118800E+02  0.7818609E-02  0.1379984E+01
      -11   -1    0    0    0    0  0.00000000000E+00  0.00000000000E+00  0.35740347158E-01  0.35744000000E-01  0.51099999109E-03 0. -1.
       11   -1    0    0    0    0 -0.00000000000E+00 -0.00000000000E+00 -0.35740347158E-01  0.35744000000E-01  0.51099999109E-03 0.  1.
       22    1    1    2    0    0  0.23178346615E-01  0.10659984587E-01 -0.25025238494E-01  0.35737005818E-01  0.00000000000E+00 0.  1.
  9000001    1    1    2    0    0 -0.23178346615E-01 -0.10659984587E-01  0.25025238494E-01  0.35750994182E-01  0.10000000475E-02 0. -1.
</event>
<event>
 4   0  0.4892667E-02  0.9118800E+02  0.7818609E-02  0.1379984E+01
      -11   -1    0    0    0    0  0.00000000000E+00  0.00000000000E+00  0.35740347158E-01  0.35744000000E-01  0.51099999109E-03 0. -1.
       11   -1    0    0    0    0 -0.00000000000E+00 -0.00000000000E+00 -0.35740347158E-01  0.35744000000E-01  0.51099999109E-03 0.  1.
       22    1    1    2    0    0 -0.92343084353E-02  0.22059139721E-02 -0.34452794896E-01  0.35737005818E-01  0.00000000000E+00 0.  1.
  9000001    1    1    2    0    0  0.92343084353E-02 -0.22059139721E-02  0.34452794896E-01  0.35750994182E-01  0.10000000475E-02 0. -1.
</event>
<event>
 4   0  0.4892667E-02  0.9118800E+02  0.7818609E-02  0.1379984E+01
      -11   -1    0    0    0    0  0.00000000000E+00  0.00000000000E+00  0.35740347158E-01  0.35744000000E-01  0.51099999109E-03 0. -1.
       11   -1    0    0    0    0 -0.00000000000E+00 -0.00000000000E+00 -0.35740347158E-01  0.35744000000E-01  0.51099999109E-03 0.  1.
       22    1    1    2    0    0  0.45396424887E-02  0.25163498620E-02  0.35358071417E-01  0.35737005818E-01  0.00000000000E+00 0. -1.
  9000001    1    1    2    0    0 -0.45396424887E-02 -0.25163498620E-02 -0.35358071417E-01  0.35750994182E-01  0.10000000475E-02 0.  1.
</event>
<event>
 4   0  0.4892667E-02  0.9118800E+02  0.7818609E-02  0.1379984E+01
      -11   -1    0    0    0    0  0.00000000000E+00  0.00000000000E+00  0.35740347158E-01  0.35744000000E-01  0.51099999109E-03 0.  1.
       11   -1    0    0    0    0 -0.00000000000E+00 -0.00000000000E+00 -0.35740347158E-01  0.35744000000E-01  0.51099999109E-03 0. -1.
       22    1    1    2    0    0 -0.30475510724E-02 -0.52773819615E-02  0.35213566377E-01  0.35737005818E-01  0.00000000000E+00 0.  1.
  9000001    1    1    2    0    0  0.30475510724E-02  0.52773819615E-02 -0.35213566377E-01  0.35750994182E-01  0.10000000475E-02 0. -1.
</event>
<event>
 4   0  0.4892667E-02  0.9118800E+02  0.7818609E-02  0.1379984E+01
      -11   -1    0    0    0    0  0.00000000000E+00  0.00000000000E+00  0.35740347158E-01  0.35744000000E-01  0.51099999109E-03 0. -1.
       11   -1    0    0    0    0 -0.00000000000E+00 -0.00000000000E+00 -0.35740347158E-01  0.35744000000E-01  0.51099999109E-03 0.  1.
       22    1    1    2    0    0 -0.28834829847E-01 -0.20229101075E-01 -0.60390100397E-02  0.35737005818E-01  0.00000000000E+00 0. -1.
  9000001    1    1    2    0    0  0.28834829847E-01  0.20229101075E-01  0.60390100397E-02  0.35750994182E-01  0.10000000475E-02 0.  1.
</event>
<event>
 4   0  0.4892667E-02  0.9118800E+02  0.7818609E-02  0.1379984E+01
      -11   -1    0    0    0    0  0.00000000000E+00  0.00000000000E+00  0.35740347158E-01  0.35744000000E-01  0.51099999109E-03 0.  1.
       11   -1    0    0    0    0 -0.00000000000E+00 -0.00000000000E+00 -0.35740347158E-01  0.35744000000E-01  0.51099999109E-03 0. -1.
       22    1    1    2    0    0  0.92583694204E-02  0.12538576014E-01 -0.32158984625E-01  0.35737005818E-01  0.00000000000E+00 0. -1.
  9000001    1    1    2    0    0 -0.92583694204E-02 -0.12538576014E-01  0.32158984625E-01  0.35750994182E-01  0.10000000475E-02 0.  1.
</event>
<event>
 4   0  0.4892667E-02  0.9118800E+02  0.7818609E-02  0.1379984E+01
      -11   -1    0    0    0    0  0.00000000000E+00  0.00000000000E+00  0.35740347158E-01  0.35744000000E-01  0.51099999109E-03 0. -1.
       11   -1    0    0    0    0 -0.00000000000E+00 -0.00000000000E+00 -0.35740347158E-01  0.35744000000E-01  0.51099999109E-03 0.  1.
       22    1    1    2    0    0  0.22159343159E-01  0.18414926607E-01 -0.21142080637E-01  0.35737005818E-01  0.00000000000E+00 0.  1.
  9000001    1    1    2    0    0 -0.22159343159E-01 -0.18414926607E-01  0.21142080637E-01  0.35750994182E-01  0.10000000475E-02 0. -1.
</event>
<event>
 4   0  0.4892667E-02  0.9118800E+02  0.7818609E-02  0.1379984E+01
      -11   -1    0    0    0    0  0.00000000000E+00  0.00000000000E+00  0.35740347158E-01  0.35744000000E-01  0.51099999109E-03 0. -1.
       11   -1    0    0    0    0 -0.00000000000E+00 -0.00000000000E+00 -0.35740347158E-01  0.35744000000E-01  0.51099999109E-03 0.  1.
       22    1    1    2    0    0  0.35024106094E-02  0.93805627064E-03  0.35552591400E-01  0.35737005818E-01  0.00000000000E+00 0. -1.
  9000001    1    1    2    0    0 -0.35024106094E-02 -0.93805627064E-03 -0.35552591400E-01  0.35750994182E-01  0.10000000475E-02 0.  1.
</event>
<event>
 4   0  0.4892667E-02  0.9118800E+02  0.7818609E-02  0.1379984E+01
      -11   -1    0    0    0    0  0.00000000000E+00  0.00000000000E+00  0.35740347158E-01  0.35744000000E-01  0.51099999109E-03 0.  1.
       11   -1    0    0    0    0 -0.00000000000E+00 -0.00000000000E+00 -0.35740347158E-01  0.35744000000E-01  0.51099999109E-03 0. -1.
       22    1    1    2    0    0 -0.13860543294E-02  0.24397175492E-01 -0.26076622985E-01  0.35737005818E-01  0.00000000000E+00 0. -1.
  9000001    1    1    2    0    0  0.13860543294E-02 -0.24397175492E-01  0.26076622985E-01  0.35750994182E-01  0.10000000475E-02 0.  1.
</event>
<event>
 4   0  0.4892667E-02  0.9118800E+02  0.7818609E-02  0.1379984E+01
      -11   -1    0    0    0    0  0.00000000000E+00  0.00000000000E+00  0.35740347158E-01  0.35744000000E-01  0.51099999109E-03 0.  1.
       11   -1    0    0    0    0 -0.00000000000E+00 -0.00000000000E+00 -0.35740347158E-01  0.35744000000E-01  0.51099999109E-03 0. -1.
       22    1    1    2    0    0 -0.17454928337E-01  0.18932984589E-01  0.24779046716E-01  0.35737005818E-01  0.00000000000E+00 0.  1.
  9000001    1    1    2    0    0  0.17454928337E-01 -0.18932984589E-01 -0.24779046716E-01  0.35750994182E-01  0.10000000475E-02 0. -1.
</event>
<event>
 4   0  0.4892667E-02  0.9118800E+02  0.7818609E-02  0.1379984E+01
      -11   -1    0    0    0    0  0.00000000000E+00  0.00000000000E+00  0.35740347158E-01  0.35744000000E-01  0.51099999109E-03 0.  1.
       11   -1    0    0    0    0 -0.00000000000E+00 -0.00000000000E+00 -0.35740347158E-01  0.35744000000E-01  0.51099999109E-03 0. -1.
       22    1    1    2    0    0  0.60413145183E-03  0.45092962314E-02 -0.35446224870E-01  0.35737005818E-01  0.00000000000E+00 0. -1.
  9000001    1    1    2    0    0 -0.60413145183E-03 -0.45092962314E-02  0.35446224870E-01  0.35750994182E-01  0.10000000475E-02 0.  1.
</event>
<event>
 4   0  0.4892667E-02  0.9118800E+02  0.7818609E-02  0.1379984E+01
      -11   -1    0    0    0    0  0.00000000000E+00  0.00000000000E+00  0.35740347158E-01  0.35744000000E-01  0.51099999109E-03 0. -1.
       11   -1    0    0    0    0 -0.00000000000E+00 -0.00000000000E+00 -0.35740347158E-01  0.35744000000E-01  0.51099999109E-03 0.  1.
       22    1    1    2    0    0 -0.74344013775E-02  0.57118070876E-02  0.34485337766E-01  0.35737005818E-01  0.00000000000E+00 0. -1.
  9000001    1    1    2    0    0  0.74344013775E-02 -0.57118070876E-02 -0.34485337766E-01  0.35750994182E-01  0.10000000475E-02 0.  1.
</event>
<event>
 4   0  0.4892667E-02  0.9118800E+02  0.7818609E-02  0.1379984E+01
      -11   -1    0    0    0    0  0.00000000000E+00  0.00000000000E+00  0.35740347158E-01  0.35744000000E-01  0.51099999109E-03 0.  1.
       11   -1    0    0    0    0 -0.00000000000E+00 -0.00000000000E+00 -0.35740347158E-01  0.35744000000E-01  0.51099999109E-03 0. -1.
       22    1    1    2    0    0  0.23286719552E-02  0.85418757884E-02  0.34622929249E-01  0.35737005818E-01  0.00000000000E+00 0.  1.
  9000001    1    1    2    0    0 -0.23286719552E-02 -0.85418757884E-02 -0.34622929249E-01  0.35750994182E-01  0.10000000475E-02 0. -1.
</event>
<event>
 4   0  0.4892667E-02  0.9118800E+02  0.7818609E-02  0.1379984E+01
      -11   -1    0    0    0    0  0.00000000000E+00  0.00000000000E+00  0.35740347158E-01  0.35744000000E-01  0.51099999109E-03 0. -1.
       11   -1    0    0    0    0 -0.00000000000E+00 -0.00000000000E+00 -0.35740347158E-01  0.35744000000E-01  0.51099999109E-03 0.  1.
       22    1    1    2    0    0  0.28707436342E-02  0.59240138470E-02 -0.35125467624E-01  0.35737005818E-01  0.00000000000E+00 0.  1.
  9000001    1    1    2    0    0 -0.28707436342E-02 -0.59240138470E-02  0.35125467624E-01  0.35750994182E-01  0.10000000475E-02 0. -1.
</event>
<event>
 4   0  0.4892667E-02  0.9118800E+02  0.7818609E-02  0.1379984E+01
      -11   -1    0    0    0    0  0.00000000000E+00  0.00000000000E+00  0.35740347158E-01  0.35744000000E-01  0.51099999109E-03 0.  1.
       11   -1    0    0    0    0 -0.00000000000E+00 -0.00000000000E+00 -0.35740347158E-01  0.35744000000E-01  0.51099999109E-03 0. -1.
       22    1    1    2    0    0  0.18931102052E-02 -0.49236024937E-02  0.35345549325E-01  0.35737005818E-01  0.00000000000E+00 0.  1.
  9000001    1    1    2    0    0 -0.18931102052E-02  0.49236024937E-02 -0.35345549325E-01  0.35750994182E-01  0.10000000475E-02 0. -1.
</event>
<event>
 4   0  0.4892667E-02  0.9118800E+02  0.7818609E-02  0.1379984E+01
      -11   -1    0    0    0    0  0.00000000000E+00  0.00000000000E+00  0.35740347158E-01  0.35744000000E-01  0.51099999109E-03 0.  1.
       11   -1    0    0    0    0 -0.00000000000E+00 -0.00000000000E+00 -0.35740347158E-01  0.35744000000E-01  0.51099999109E-03 0. -1.
       22    1    1    2    0    0 -0.23666735851E-01  0.21657474584E-01  0.15747158272E-01  0.35737005818E-01  0.00000000000E+00 0.  1.
  9000001    1    1    2    0    0  0.23666735851E-01 -0.21657474584E-01 -0.15747158272E-01  0.35750994182E-01  0.10000000475E-02 0. -1.
</event>
<event>
 4   0  0.4892667E-02  0.9118800E+02  0.7818609E-02  0.1379984E+01
      -11   -1    0    0    0    0  0.00000000000E+00  0.00000000000E+00  0.35740347158E-01  0.35744000000E-01  0.51099999109E-03 0.  1.
       11   -1    0    0    0    0 -0.00000000000E+00 -0.00000000000E+00 -0.35740347158E-01  0.35744000000E-01  0.51099999109E-03 0. -1.
       22    1    1    2    0    0  0.20297000206E-01 -0.41305229597E-03  0.29410793177E-01  0.35737005818E-01  0.00000000000E+00 0.  1.
  9000001    1    1    2    0    0 -0.20297000206E-01  0.41305229597E-03 -0.29410793177E-01  0.35750994182E-01  0.10000000475E-02 0. -1.
</event>
<event>
 4   0  0.4892667E-02  0.9118800E+02  0.7818609E-02  0.1379984E+01
      -11   -1    0    0    0    0  0.00000000000E+00  0.00000000000E+00  0.35740347158E-01  0.35744000000E-01  0.51099999109E-03 0.  1.
       11   -1    0    0    0    0 -0.00000000000E+00 -0.00000000000E+00 -0.35740347158E-01  0.35744000000E-01  0.51099999109E-03 0. -1.
       22    1    1    2    0    0  0.34993738958E-02 -0.17343383349E-02  0.35522950859E-01  0.35737005818E-01  0.00000000000E+00 0.  1.
  9000001    1    1    2    0    0 -0.34993738958E-02  0.17343383349E-02 -0.35522950859E-01  0.35750994182E-01  0.10000000475E-02 0. -1.
</event>
<event>
 4   0  0.4892667E-02  0.9118800E+02  0.7818609E-02  0.1379984E+01
      -11   -1    0    0    0    0  0.00000000000E+00  0.00000000000E+00  0.35740347158E-01  0.35744000000E-01  0.51099999109E-03 0.  1.
       11   -1    0    0    0    0 -0.00000000000E+00 -0.00000000000E+00 -0.35740347158E-01  0.35744000000E-01  0.51099999109E-03 0. -1.
       22    1    1    2    0    0 -0.20176032687E-01  0.11639659682E-01  0.27103129199E-01  0.35737005818E-01  0.00000000000E+00 0.  1.
  9000001    1    1    2    0    0  0.20176032687E-01 -0.11639659682E-01 -0.27103129199E-01  0.35750994182E-01  0.10000000475E-02 0. -1.
</event>
<event>
 4   0  0.4892667E-02  0.9118800E+02  0.7818609E-02  0.1379984E+01
      -11   -1    0    0    0    0  0.00000000000E+00  0.00000000000E+00  0.35740347158E-01  0.35744000000E-01  0.51099999109E-03 0. -1.
       11   -1    0    0    0    0 -0.00000000000E+00 -0.00000000000E+00 -0.35740347158E-01  0.35744000000E-01  0.51099999109E-03 0.  1.
       22    1    1    2    0    0  0.74961847841E-03 -0.12070303436E-01  0.33628550846E-01  0.35737005818E-01  0.00000000000E+00 0. -1.
  9000001    1    1    2    0    0 -0.74961847841E-03  0.12070303436E-01 -0.33628550846E-01  0.35750994182E-01  0.10000000475E-02 0.  1.
</event>
<event>
 4   0  0.4892667E-02  0.9118800E+02  0.7818609E-02  0.1379984E+01
      -11   -1    0    0    0    0  0.00000000000E+00  0.00000000000E+00  0.35740347158E-01  0.35744000000E-01  0.51099999109E-03 0.  1.
       11   -1    0    0    0    0 -0.00000000000E+00 -0.00000000000E+00 -0.35740347158E-01  0.35744000000E-01  0.51099999109E-03 0. -1.
       22    1    1    2    0    0 -0.21022381642E-02 -0.59441136523E-02 -0.35176436608E-01  0.35737005818E-01  0.00000000000E+00 0. -1.
  9000001    1    1    2    0    0  0.21022381642E-02  0.59441136523E-02  0.35176436608E-01  0.35750994182E-01  0.10000000475E-02 0.  1.
</event>
<event>
 4   0  0.4892667E-02  0.9118800E+02  0.7818609E-02  0.1379984E+01
      -11   -1    0    0    0    0  0.00000000000E+00  0.00000000000E+00  0.35740347158E-01  0.35744000000E-01  0.51099999109E-03 0. -1.
       11   -1    0    0    0    0 -0.00000000000E+00 -0.00000000000E+00 -0.35740347158E-01  0.35744000000E-01  0.51099999109E-03 0.  1.
       22    1    1    2    0    0 -0.20308585690E-01 -0.11518208694E-03 -0.29405469988E-01  0.35737005818E-01  0.00000000000E+00 0.  1.
  9000001    1    1    2    0    0  0.20308585690E-01  0.11518208694E-03  0.29405469988E-01  0.35750994182E-01  0.10000000475E-02 0. -1.
</event>
<event>
 4   0  0.4892667E-02  0.9118800E+02  0.7818609E-02  0.1379984E+01
      -11   -1    0    0    0    0  0.00000000000E+00  0.00000000000E+00  0.35740347158E-01  0.35744000000E-01  0.51099999109E-03 0. -1.
       11   -1    0    0    0    0 -0.00000000000E+00 -0.00000000000E+00 -0.35740347158E-01  0.35744000000E-01  0.51099999109E-03 0.  1.
       22    1    1    2    0    0  0.23076193391E-01  0.23266104622E-01  0.14258725720E-01  0.35737005818E-01  0.00000000000E+00 0. -1.
  9000001    1    1    2    0    0 -0.23076193391E-01 -0.23266104622E-01 -0.14258725720E-01  0.35750994182E-01  0.10000000475E-02 0.  1.
</event>
<event>
 4   0  0.4892667E-02  0.9118800E+02  0.7818609E-02  0.1379984E+01
      -11   -1    0    0    0    0  0.00000000000E+00  0.00000000000E+00  0.35740347158E-01  0.35744000000E-01  0.51099999109E-03 0.  1.
       11   -1    0    0    0    0 -0.00000000000E+00 -0.00000000000E+00 -0.35740347158E-01  0.35744000000E-01  0.51099999109E-03 0. -1.
       22    1    1    2    0    0  0.27336615816E-01 -0.50391833044E-02  0.22459956639E-01  0.35737005818E-01  0.00000000000E+00 0.  1.
  9000001    1    1    2    0    0 -0.27336615816E-01  0.50391833044E-02 -0.22459956639E-01  0.35750994182E-01  0.10000000475E-02 0. -1.
</event>
<event>
 4   0  0.4892667E-02  0.9118800E+02  0.7818609E-02  0.1379984E+01
      -11   -1    0    0    0    0  0.00000000000E+00  0.00000000000E+00  0.35740347158E-01  0.35744000000E-01  0.51099999109E-03 0.  1.
       11   -1    0    0    0    0 -0.00000000000E+00 -0.00000000000E+00 -0.35740347158E-01  0.35744000000E-01  0.51099999109E-03 0. -1.
       22    1    1    2    0    0  0.25162404415E-01  0.24548419579E-01  0.64313361843E-02  0.35737005818E-01  0.00000000000E+00 0.  1.
  9000001    1    1    2    0    0 -0.25162404415E-01 -0.24548419579E-01 -0.64313361843E-02  0.35750994182E-01  0.10000000475E-02 0. -1.
</event>
<event>
 4   0  0.4892667E-02  0.9118800E+02  0.7818609E-02  0.1379984E+01
      -11   -1    0    0    0    0  0.00000000000E+00  0.00000000000E+00  0.35740347158E-01  0.35744000000E-01  0.51099999109E-03 0.  1.
       11   -1    0    0    0    0 -0.00000000000E+00 -0.00000000000E+00 -0.35740347158E-01  0.35744000000E-01  0.51099999109E-03 0. -1.
       22    1    1    2    0    0 -0.33182429754E-02 -0.32265593911E-02 -0.35436029164E-01  0.35737005818E-01  0.00000000000E+00 0. -1.
  9000001    1    1    2    0    0  0.33182429754E-02  0.32265593911E-02  0.35436029164E-01  0.35750994182E-01  0.10000000475E-02 0.  1.
</event>
<event>
 4   0  0.4892667E-02  0.9118800E+02  0.7818609E-02  0.1379984E+01
      -11   -1    0    0    0    0  0.00000000000E+00  0.00000000000E+00  0.35740347158E-01  0.35744000000E-01  0.51099999109E-03 0. -1.
       11   -1    0    0    0    0 -0.00000000000E+00 -0.00000000000E+00 -0.35740347158E-01  0.35744000000E-01  0.51099999109E-03 0.  1.
       22    1    1    2    0    0 -0.23165583577E-02  0.12160640528E-01  0.33524408484E-01  0.35737005818E-01  0.00000000000E+00 0. -1.
  9000001    1    1    2    0    0  0.23165583577E-02 -0.12160640528E-01 -0.33524408484E-01  0.35750994182E-01  0.10000000475E-02 0.  1.
</event>
<event>
 4   0  0.4892667E-02  0.9118800E+02  0.7818609E-02  0.1379984E+01
      -11   -1    0    0    0    0  0.00000000000E+00  0.00000000000E+00  0.35740347158E-01  0.35744000000E-01  0.51099999109E-03 0.  1.
       11   -1    0    0    0    0 -0.00000000000E+00 -0.00000000000E+00 -0.35740347158E-01  0.35744000000E-01  0.51099999109E-03 0. -1.
       22    1    1    2    0    0 -0.25804575269E-01 -0.16035790400E-01 -0.18817834794E-01  0.35737005818E-01  0.00000000000E+00 0. -1.
  9000001    1    1    2    0    0  0.25804575269E-01  0.16035790400E-01  0.18817834794E-01  0.35750994182E-01  0.10000000475E-02 0.  1.
</event>
<event>
 4   0  0.4892667E-02  0.9118800E+02  0.7818609E-02  0.1379984E+01
      -11   -1    0    0    0    0  0.00000000000E+00  0.00000000000E+00  0.35740347158E-01  0.35744000000E-01  0.51099999109E-03 0.  1.
       11   -1    0    0    0    0 -0.00000000000E+00 -0.00000000000E+00 -0.35740347158E-01  0.35744000000E-01  0.51099999109E-03 0. -1.
       22    1    1    2    0    0 -0.12630230530E-01 -0.66966080071E-02 -0.32753111346E-01  0.35737005818E-01  0.00000000000E+00 0. -1.
  9000001    1    1    2    0    0  0.12630230530E-01  0.66966080071E-02  0.32753111346E-01  0.35750994182E-01  0.10000000475E-02 0.  1.
</event>
<event>
 4   0  0.4892667E-02  0.9118800E+02  0.7818609E-02  0.1379984E+01
      -11   -1    0    0    0    0  0.00000000000E+00  0.00000000000E+00  0.35740347158E-01  0.35744000000E-01  0.51099999109E-03 0.  1.
       11   -1    0    0    0    0 -0.00000000000E+00 -0.00000000000E+00 -0.35740347158E-01  0.35744000000E-01  0.51099999109E-03 0. -1.
       22    1    1    2    0    0  0.87507505506E-03  0.45820611065E-02 -0.35431236847E-01  0.35737005818E-01  0.00000000000E+00 0. -1.
  9000001    1    1    2    0    0 -0.87507505506E-03 -0.45820611065E-02  0.35431236847E-01  0.35750994182E-01  0.10000000475E-02 0.  1.
</event>
<event>
 4   0  0.4892667E-02  0.9118800E+02  0.7818609E-02  0.1379984E+01
      -11   -1    0    0    0    0  0.00000000000E+00  0.00000000000E+00  0.35740347158E-01  0.35744000000E-01  0.51099999109E-03 0. -1.
       11   -1    0    0    0    0 -0.00000000000E+00 -0.00000000000E+00 -0.35740347158E-01  0.35744000000E-01  0.51099999109E-03 0.  1.
       22    1    1    2    0    0  0.27405784965E-01 -0.15985086009E-01  0.16447904444E-01  0.35737005818E-01  0.00000000000E+00 0. -1.
  9000001    1    1    2    0    0 -0.27405784965E-01  0.15985086009E-01 -0.16447904444E-01  0.35750994182E-01  0.10000000475E-02 0.  1.
</event>
<event>
 4   0  0.4892667E-02  0.9118800E+02  0.7818609E-02  0.1379984E+01
      -11   -1    0    0    0    0  0.00000000000E+00  0.00000000000E+00  0.35740347158E-01  0.35744000000E-01  0.51099999109E-03 0.  1.
       11   -1    0    0    0    0 -0.00000000000E+00 -0.00000000000E+00 -0.35740347158E-01  0.35744000000E-01  0.51099999109E-03 0. -1.
       22    1    1    2    0    0  0.20312416025E-01 -0.18462258972E-01  0.22884150274E-01  0.35737005818E-01  0.00000000000E+00 0.  1.
  9000001    1    1    2    0    0 -0.20312416025E-01  0.18462258972E-01 -0.22884150274E-01  0.35750994182E-01  0.10000000475E-02 0. -1.
</event>
<event>
 4   0  0.4892667E-02  0.9118800E+02  0.7818609E-02  0.1379984E+01
      -11   -1    0    0    0    0  0.00000000000E+00  0.00000000000E+00  0.35740347158E-01  0.35744000000E-01  0.51099999109E-03 0.  1.
       11   -1    0    0    0    0 -0.00000000000E+00 -0.00000000000E+00 -0.35740347158E-01  0.35744000000E-01  0.51099999109E-03 0. -1.
       22    1    1    2    0    0 -0.18334823272E-01  0.26819331205E-01  0.14889302003E-01  0.35737005818E-01  0.00000000000E+00 0.  1.
  9000001    1    1    2    0    0  0.18334823272E-01 -0.26819331205E-01 -0.14889302003E-01  0.35750994182E-01  0.10000000475E-02 0. -1.
</event>
<event>
 4   0  0.4892667E-02  0.9118800E+02  0.7818609E-02  0.1379984E+01
      -11   -1    0    0    0    0  0.00000000000E+00  0.00000000000E+00  0.35740347158E-01  0.35744000000E-01  0.51099999109E-03 0.  1.
       11   -1    0    0    0    0 -0.00000000000E+00 -0.00000000000E+00 -0.35740347158E-01  0.35744000000E-01  0.51099999109E-03 0. -1.
       22    1    1    2    0    0 -0.41240664580E-02  0.21669377424E-01 -0.28116965391E-01  0.35737005818E-01  0.00000000000E+00 0. -1.
  9000001    1    1    2    0    0  0.41240664580E-02 -0.21669377424E-01  0.28116965391E-01  0.35750994182E-01  0.10000000475E-02 0.  1.
</event>
<event>
 4   0  0.4892667E-02  0.9118800E+02  0.7818609E-02  0.1379984E+01
      -11   -1    0    0    0    0  0.00000000000E+00  0.00000000000E+00  0.35740347158E-01  0.35744000000E-01  0.51099999109E-03 0.  1.
       11   -1    0    0    0    0 -0.00000000000E+00 -0.00000000000E+00 -0.35740347158E-01  0.35744000000E-01  0.51099999109E-03 0. -1.
       22    1    1    2    0    0  0.11073055998E-01 -0.27900731148E-02  0.33863498162E-01  0.35737005818E-01  0.00000000000E+00 0.  1.
  9000001    1    1    2    0    0 -0.11073055998E-01  0.27900731148E-02 -0.33863498162E-01  0.35750994182E-01  0.10000000475E-02 0. -1.
</event>
<event>
 4   0  0.4892667E-02  0.9118800E+02  0.7818609E-02  0.1379984E+01
      -11   -1    0    0    0    0  0.00000000000E+00  0.00000000000E+00  0.35740347158E-01  0.35744000000E-01  0.51099999109E-03 0. -1.
       11   -1    0    0    0    0 -0.00000000000E+00 -0.00000000000E+00 -0.35740347158E-01  0.35744000000E-01  0.51099999109E-03 0.  1.
       22    1    1    2    0    0  0.78121498257E-03  0.29100493299E-02  0.35609758507E-01  0.35737005818E-01  0.00000000000E+00 0. -1.
  9000001    1    1    2    0    0 -0.78121498257E-03 -0.29100493299E-02 -0.35609758507E-01  0.35750994182E-01  0.10000000475E-02 0.  1.
</event>
<event>
 4   0  0.4892667E-02  0.9118800E+02  0.7818609E-02  0.1379984E+01
      -11   -1    0    0    0    0  0.00000000000E+00  0.00000000000E+00  0.35740347158E-01  0.35744000000E-01  0.51099999109E-03 0.  1.
       11   -1    0    0    0    0 -0.00000000000E+00 -0.00000000000E+00 -0.35740347158E-01  0.35744000000E-01  0.51099999109E-03 0. -1.
       22    1    1    2    0    0 -0.84158180855E-02 -0.96419694114E-02 -0.33366750167E-01  0.35737005818E-01  0.00000000000E+00 0. -1.
  9000001    1    1    2    0    0  0.84158180855E-02  0.96419694114E-02  0.33366750167E-01  0.35750994182E-01  0.10000000475E-02 0.  1.
</event>
<event>
 4   0  0.4892667E-02  0.9118800E+02  0.7818609E-02  0.1379984E+01
      -11   -1    0    0    0    0  0.00000000000E+00  0.00000000000E+00  0.35740347158E-01  0.35744000000E-01  0.51099999109E-03 0. -1.
       11   -1    0    0    0    0 -0.00000000000E+00 -0.00000000000E+00 -0.35740347158E-01  0.35744000000E-01  0.51099999109E-03 0.  1.
       22    1    1    2    0    0 -0.98130601484E-02 -0.26571195421E-01  0.21790112650E-01  0.35737005818E-01  0.00000000000E+00 0. -1.
  9000001    1    1    2    0    0  0.98130601484E-02  0.26571195421E-01 -0.21790112650E-01  0.35750994182E-01  0.10000000475E-02 0.  1.
</event>
<event>
 4   0  0.4892667E-02  0.9118800E+02  0.7818609E-02  0.1379984E+01
      -11   -1    0    0    0    0  0.00000000000E+00  0.00000000000E+00  0.35740347158E-01  0.35744000000E-01  0.51099999109E-03 0.  1.
       11   -1    0    0    0    0 -0.00000000000E+00 -0.00000000000E+00 -0.35740347158E-01  0.35744000000E-01  0.51099999109E-03 0. -1.
       22    1    1    2    0    0  0.24363279895E-01  0.94237451752E-02  0.24387644505E-01  0.35737005818E-01  0.00000000000E+00 0.  1.
  9000001    1    1    2    0    0 -0.24363279895E-01 -0.94237451752E-02 -0.24387644505E-01  0.35750994182E-01  0.10000000475E-02 0. -1.
</event>
<event>
 4   0  0.4892667E-02  0.9118800E+02  0.7818609E-02  0.1379984E+01
      -11   -1    0    0    0    0  0.00000000000E+00  0.00000000000E+00  0.35740347158E-01  0.35744000000E-01  0.51099999109E-03 0. -1.
       11   -1    0    0    0    0 -0.00000000000E+00 -0.00000000000E+00 -0.35740347158E-01  0.35744000000E-01  0.51099999109E-03 0.  1.
       22    1    1    2    0    0 -0.80903456953E-02  0.71637735350E-02 -0.34064060829E-01  0.35737005818E-01  0.00000000000E+00 0.  1.
  9000001    1    1    2    0    0  0.80903456953E-02 -0.71637735350E-02  0.34064060829E-01  0.35750994182E-01  0.10000000475E-02 0. -1.
</event>
<event>
 4   0  0.4892667E-02  0.9118800E+02  0.7818609E-02  0.1379984E+01
      -11   -1    0    0    0    0  0.00000000000E+00  0.00000000000E+00  0.35740347158E-01  0.35744000000E-01  0.51099999109E-03 0.  1.
       11   -1    0    0    0    0 -0.00000000000E+00 -0.00000000000E+00 -0.35740347158E-01  0.35744000000E-01  0.51099999109E-03 0. -1.
       22    1    1    2    0    0 -0.34887170143E-02 -0.99347017490E-03 -0.35552432483E-01  0.35737005818E-01  0.00000000000E+00 0. -1.
  9000001    1    1    2    0    0  0.34887170143E-02  0.99347017490E-03  0.35552432483E-01  0.35750994182E-01  0.10000000475E-02 0.  1.
</event>
<event>
 4   0  0.4892667E-02  0.9118800E+02  0.7818609E-02  0.1379984E+01
      -11   -1    0    0    0    0  0.00000000000E+00  0.00000000000E+00  0.35740347158E-01  0.35744000000E-01  0.51099999109E-03 0. -1.
       11   -1    0    0    0    0 -0.00000000000E+00 -0.00000000000E+00 -0.35740347158E-01  0.35744000000E-01  0.51099999109E-03 0.  1.
       22    1    1    2    0    0  0.19356399278E-01 -0.16075598572E-02  0.29997985652E-01  0.35737005818E-01  0.00000000000E+00 0. -1.
  9000001    1    1    2    0    0 -0.19356399278E-01  0.16075598572E-02 -0.29997985652E-01  0.35750994182E-01  0.10000000475E-02 0.  1.
</event>
<event>
 4   0  0.4892667E-02  0.9118800E+02  0.7818609E-02  0.1379984E+01
      -11   -1    0    0    0    0  0.00000000000E+00  0.00000000000E+00  0.35740347158E-01  0.35744000000E-01  0.51099999109E-03 0.  1.
       11   -1    0    0    0    0 -0.00000000000E+00 -0.00000000000E+00 -0.35740347158E-01  0.35744000000E-01  0.51099999109E-03 0. -1.
       22    1    1    2    0    0 -0.35597225322E-01  0.23409773499E-02  0.21191883520E-02  0.35737005818E-01  0.00000000000E+00 0. -1.
  9000001    1    1    2    0    0  0.35597225322E-01 -0.23409773499E-02 -0.21191883520E-02  0.35750994182E-01  0.10000000475E-02 0.  1.
</event>
<event>
 4   0  0.4892667E-02  0.9118800E+02  0.7818609E-02  0.1379984E+01
      -11   -1    0    0    0    0  0.00000000000E+00  0.00000000000E+00  0.35740347158E-01  0.35744000000E-01  0.51099999109E-03 0. -1.
       11   -1    0    0    0    0 -0.00000000000E+00 -0.00000000000E+00 -0.35740347158E-01  0.35744000000E-01  0.51099999109E-03 0.  1.
       22    1    1    2    0    0 -0.64449620634E-02  0.85352852270E-03  0.35140682093E-01  0.35737005818E-01  0.00000000000E+00 0. -1.
  9000001    1    1    2    0    0  0.64449620634E-02 -0.85352852270E-03 -0.35140682093E-01  0.35750994182E-01  0.10000000475E-02 0.  1.
</event>
<event>
 4   0  0.4892667E-02  0.9118800E+02  0.7818609E-02  0.1379984E+01
      -11   -1    0    0    0    0  0.00000000000E+00  0.00000000000E+00  0.35740347158E-01  0.35744000000E-01  0.51099999109E-03 0.  1.
       11   -1    0    0    0    0 -0.00000000000E+00 -0.00000000000E+00 -0.35740347158E-01  0.35744000000E-01  0.51099999109E-03 0. -1.
       22    1    1    2    0    0  0.14973069388E-02  0.18389415907E-01  0.30605898768E-01  0.35737005818E-01  0.00000000000E+00 0.  1.
  9000001    1    1    2    0    0 -0.14973069388E-02 -0.18389415907E-01 -0.30605898768E-01  0.35750994182E-01  0.10000000475E-02 0. -1.
</event>
<event>
 4   0  0.4892667E-02  0.9118800E+02  0.7818609E-02  0.1379984E+01
      -11   -1    0    0    0    0  0.00000000000E+00  0.00000000000E+00  0.35740347158E-01  0.35744000000E-01  0.51099999109E-03 0.  1.
       11   -1    0    0    0    0 -0.00000000000E+00 -0.00000000000E+00 -0.35740347158E-01  0.35744000000E-01  0.51099999109E-03 0. -1.
       22    1    1    2    0    0 -0.24712529236E-02 -0.40778448314E-02  0.35417476977E-01  0.35737005818E-01  0.00000000000E+00 0.  1.
  9000001    1    1    2    0    0  0.24712529236E-02  0.40778448314E-02 -0.35417476977E-01  0.35750994182E-01  0.10000000475E-02 0. -1.
</event>
<event>
 4   0  0.4892667E-02  0.9118800E+02  0.7818609E-02  0.1379984E+01
      -11   -1    0    0    0    0  0.00000000000E+00  0.00000000000E+00  0.35740347158E-01  0.35744000000E-01  0.51099999109E-03 0. -1.
       11   -1    0    0    0    0 -0.00000000000E+00 -0.00000000000E+00 -0.35740347158E-01  0.35744000000E-01  0.51099999109E-03 0.  1.
       22    1    1    2    0    0  0.59526358739E-02  0.30165314265E-01  0.18214102403E-01  0.35737005818E-01  0.00000000000E+00 0. -1.
  9000001    1    1    2    0    0 -0.59526358739E-02 -0.30165314265E-01 -0.18214102403E-01  0.35750994182E-01  0.10000000475E-02 0.  1.
</event>
<event>
 4   0  0.4892667E-02  0.9118800E+02  0.7818609E-02  0.1379984E+01
      -11   -1    0    0    0    0  0.00000000000E+00  0.00000000000E+00  0.35740347158E-01  0.35744000000E-01  0.51099999109E-03 0. -1.
       11   -1    0    0    0    0 -0.00000000000E+00 -0.00000000000E+00 -0.35740347158E-01  0.35744000000E-01  0.51099999109E-03 0.  1.
       22    1    1    2    0    0 -0.10584480701E-01 -0.92297766290E-02  0.32862038533E-01  0.35737005818E-01  0.00000000000E+00 0. -1.
  9000001    1    1    2    0    0  0.10584480701E-01  0.92297766290E-02 -0.32862038533E-01  0.35750994182E-01  0.10000000475E-02 0.  1.
</event>
<event>
 4   0  0.4892667E-02  0.9118800E+02  0.7818609E-02  0.1379984E+01
      -11   -1    0    0    0    0  0.00000000000E+00  0.00000000000E+00  0.35740347158E-01  0.35744000000E-01  0.51099999109E-03 0.  1.
       11   -1    0    0    0    0 -0.00000000000E+00 -0.00000000000E+00 -0.35740347158E-01  0.35744000000E-01  0.51099999109E-03 0. -1.
       22    1    1    2    0    0 -0.22338567436E-01 -0.27594876855E-02 -0.27758011771E-01  0.35737005818E-01  0.00000000000E+00 0. -1.
  9000001    1    1    2    0    0  0.22338567436E-01  0.27594876855E-02  0.27758011771E-01  0.35750994182E-01  0.10000000475E-02 0.  1.
</event>
<event>
 4   0  0.4892667E-02  0.9118800E+02  0.7818609E-02  0.1379984E+01
      -11   -1    0    0    0    0  0.00000000000E+00  0.00000000000E+00  0.35740347158E-01  0.35744000000E-01  0.51099999109E-03 0.  1.
       11   -1    0    0    0    0 -0.00000000000E+00 -0.00000000000E+00 -0.35740347158E-01  0.35744000000E-01  0.51099999109E-03 0. -1.
       22    1    1    2    0    0 -0.80146125194E-02  0.21771647177E-01  0.27182622210E-01  0.35737005818E-01  0.00000000000E+00 0.  1.
  9000001    1    1    2    0    0  0.80146125194E-02 -0.21771647177E-01 -0.27182622210E-01  0.35750994182E-01  0.10000000475E-02 0. -1.
</event>
<event>
 4   0  0.4892667E-02  0.9118800E+02  0.7818609E-02  0.1379984E+01
      -11   -1    0    0    0    0  0.00000000000E+00  0.00000000000E+00  0.35740347158E-01  0.35744000000E-01  0.51099999109E-03 0. -1.
       11   -1    0    0    0    0 -0.00000000000E+00 -0.00000000000E+00 -0.35740347158E-01  0.35744000000E-01  0.51099999109E-03 0.  1.
       22    1    1    2    0    0  0.70229398162E-02  0.48903034670E-03  0.35036734302E-01  0.35737005818E-01  0.00000000000E+00 0. -1.
  9000001    1    1    2    0    0 -0.70229398162E-02 -0.48903034670E-03 -0.35036734302E-01  0.35750994182E-01  0.10000000475E-02 0.  1.
</event>
<event>
 4   0  0.4892667E-02  0.9118800E+02  0.7818609E-02  0.1379984E+01
      -11   -1    0    0    0    0  0.00000000000E+00  0.00000000000E+00  0.35740347158E-01  0.35744000000E-01  0.51099999109E-03 0. -1.
       11   -1    0    0    0    0 -0.00000000000E+00 -0.00000000000E+00 -0.35740347158E-01  0.35744000000E-01  0.51099999109E-03 0.  1.
       22    1    1    2    0    0 -0.39231739427E-02  0.71309721352E-03  0.35513853402E-01  0.35737005818E-01  0.00000000000E+00 0. -1.
  9000001    1    1    2    0    0  0.39231739427E-02 -0.71309721352E-03 -0.35513853402E-01  0.35750994182E-01  0.10000000475E-02 0.  1.
</event>
<event>
 4   0  0.4892667E-02  0.9118800E+02  0.7818609E-02  0.1379984E+01
      -11   -1    0    0    0    0  0.00000000000E+00  0.00000000000E+00  0.35740347158E-01  0.35744000000E-01  0.51099999109E-03 0. -1.
       11   -1    0    0    0    0 -0.00000000000E+00 -0.00000000000E+00 -0.35740347158E-01  0.35744000000E-01  0.51099999109E-03 0.  1.
       22    1    1    2    0    0 -0.36779932003E-02 -0.53063164448E-02 -0.35148953849E-01  0.35737005818E-01  0.00000000000E+00 0.  1.
  9000001    1    1    2    0    0  0.36779932003E-02  0.53063164448E-02  0.35148953849E-01  0.35750994182E-01  0.10000000475E-02 0. -1.
</event>
<event>
 4   0  0.4892667E-02  0.9118800E+02  0.7818609E-02  0.1379984E+01
      -11   -1    0    0    0    0  0.00000000000E+00  0.00000000000E+00  0.35740347158E-01  0.35744000000E-01  0.51099999109E-03 0.  1.
       11   -1    0    0    0    0 -0.00000000000E+00 -0.00000000000E+00 -0.35740347158E-01  0.35744000000E-01  0.51099999109E-03 0. -1.
       22    1    1    2    0    0 -0.15904092213E-02  0.36922658065E-02  0.35510158499E-01  0.35737005818E-01  0.00000000000E+00 0.  1.
  9000001    1    1    2    0    0  0.15904092213E-02 -0.36922658065E-02 -0.35510158499E-01  0.35750994182E-01  0.10000000475E-02 0. -1.
</event>
<event>
 4   0  0.4892667E-02  0.9118800E+02  0.7818609E-02  0.1379984E+01
      -11   -1    0    0    0    0  0.00000000000E+00  0.00000000000E+00  0.35740347158E-01  0.35744000000E-01  0.51099999109E-03 0.  1.
       11   -1    0    0    0    0 -0.00000000000E+00 -0.00000000000E+00 -0.35740347158E-01  0.35744000000E-01  0.51099999109E-03 0. -1.
       22    1    1    2    0    0 -0.92100377529E-02  0.16992375921E-01  0.30059407014E-01  0.35737005818E-01  0.00000000000E+00 0.  1.
  9000001    1    1    2    0    0  0.92100377529E-02 -0.16992375921E-01 -0.30059407014E-01  0.35750994182E-01  0.10000000475E-02 0. -1.
</event>
<event>
 4   0  0.4892667E-02  0.9118800E+02  0.7818609E-02  0.1379984E+01
      -11   -1    0    0    0    0  0.00000000000E+00  0.00000000000E+00  0.35740347158E-01  0.35744000000E-01  0.51099999109E-03 0.  1.
       11   -1    0    0    0    0 -0.00000000000E+00 -0.00000000000E+00 -0.35740347158E-01  0.35744000000E-01  0.51099999109E-03 0. -1.
       22    1    1    2    0    0  0.19477240849E-02  0.23203160028E-02  0.35608371058E-01  0.35737005818E-01  0.00000000000E+00 0.  1.
  9000001    1    1    2    0    0 -0.19477240849E-02 -0.23203160028E-02 -0.35608371058E-01  0.35750994182E-01  0.10000000475E-02 0. -1.
</event>
<event>
 4   0  0.4892667E-02  0.9118800E+02  0.7818609E-02  0.1379984E+01
      -11   -1    0    0    0    0  0.00000000000E+00  0.00000000000E+00  0.35740347158E-01  0.35744000000E-01  0.51099999109E-03 0. -1.
       11   -1    0    0    0    0 -0.00000000000E+00 -0.00000000000E+00 -0.35740347158E-01  0.35744000000E-01  0.51099999109E-03 0.  1.
       22    1    1    2    0    0 -0.73184374588E-02 -0.53548559566E-02  0.34567319475E-01  0.35737005818E-01  0.00000000000E+00 0. -1.
  9000001    1    1    2    0    0  0.73184374588E-02  0.53548559566E-02 -0.34567319475E-01  0.35750994182E-01  0.10000000475E-02 0.  1.
</event>
<event>
 4   0  0.4892667E-02  0.9118800E+02  0.7818609E-02  0.1379984E+01
      -11   -1    0    0    0    0  0.00000000000E+00  0.00000000000E+00  0.35740347158E-01  0.35744000000E-01  0.51099999109E-03 0.  1.
       11   -1    0    0    0    0 -0.00000000000E+00 -0.00000000000E+00 -0.35740347158E-01  0.35744000000E-01  0.51099999109E-03 0. -1.
       22    1    1    2    0    0  0.94494992119E-02 -0.33888536117E-01 -0.62775528176E-02  0.35737005818E-01  0.00000000000E+00 0. -1.
  9000001    1    1    2    0    0 -0.94494992119E-02  0.33888536117E-01  0.62775528176E-02  0.35750994182E-01  0.10000000475E-02 0.  1.
</event>
<event>
 4   0  0.4892667E-02  0.9118800E+02  0.7818609E-02  0.1379984E+01
      -11   -1    0    0    0    0  0.00000000000E+00  0.00000000000E+00  0.35740347158E-01  0.35744000000E-01  0.51099999109E-03 0. -1.
       11   -1    0    0    0    0 -0.00000000000E+00 -0.00000000000E+00 -0.35740347158E-01  0.35744000000E-01  0.51099999109E-03 0.  1.
       22    1    1    2    0    0  0.17299580719E-02  0.28075341440E-02  0.35584527283E-01  0.35737005818E-01  0.00000000000E+00 0. -1.
  9000001    1    1    2    0    0 -0.17299580719E-02 -0.28075341440E-02 -0.35584527283E-01  0.35750994182E-01  0.10000000475E-02 0.  1.
</event>
<event>
 4   0  0.4892667E-02  0.9118800E+02  0.7818609E-02  0.1379984E+01
      -11   -1    0    0    0    0  0.00000000000E+00  0.00000000000E+00  0.35740347158E-01  0.35744000000E-01  0.51099999109E-03 0.  1.
       11   -1    0    0    0    0 -0.00000000000E+00 -0.00000000000E+00 -0.35740347158E-01  0.35744000000E-01  0.51099999109E-03 0. -1.
       22    1    1    2    0    0 -0.10065694764E-01 -0.22632542085E-02  0.34215392065E-01  0.35737005818E-01  0.00000000000E+00 0.  1.
  9000001    1    1    2    0    0  0.10065694764E-01  0.22632542085E-02 -0.34215392065E-01  0.35750994182E-01  0.10000000475E-02 0. -1.
</event>
<event>
 4   0  0.4892667E-02  0.9118800E+02  0.7818609E-02  0.1379984E+01
      -11   -1    0    0    0    0  0.00000000000E+00  0.00000000000E+00  0.35740347158E-01  0.35744000000E-01  0.51099999109E-03 0. -1.
       11   -1    0    0    0    0 -0.00000000000E+00 -0.00000000000E+00 -0.35740347158E-01  0.35744000000E-01  0.51099999109E-03 0.  1.
       22    1    1    2    0    0 -0.61188741791E-02  0.42469757509E-02 -0.34952198223E-01  0.35737005818E-01  0.00000000000E+00 0.  1.
  9000001    1    1    2    0    0  0.61188741791E-02 -0.42469757509E-02  0.34952198223E-01  0.35750994182E-01  0.10000000475E-02 0. -1.
</event>
<event>
 4   0  0.4892667E-02  0.9118800E+02  0.7818609E-02  0.1379984E+01
      -11   -1    0    0    0    0  0.00000000000E+00  0.00000000000E+00  0.35740347158E-01  0.35744000000E-01  0.51099999109E-03 0.  1.
       11   -1    0    0    0    0 -0.00000000000E+00 -0.00000000000E+00 -0.35740347158E-01  0.35744000000E-01  0.51099999109E-03 0. -1.
       22    1    1    2    0    0  0.13136234112E-01  0.63345004198E-02  0.32625864627E-01  0.35737005818E-01  0.00000000000E+00 0.  1.
  9000001    1    1    2    0    0 -0.13136234112E-01 -0.63345004198E-02 -0.32625864627E-01  0.35750994182E-01  0.10000000475E-02 0. -1.
</event>
<event>
 4   0  0.4892667E-02  0.9118800E+02  0.7818609E-02  0.1379984E+01
      -11   -1    0    0    0    0  0.00000000000E+00  0.00000000000E+00  0.35740347158E-01  0.35744000000E-01  0.51099999109E-03 0. -1.
       11   -1    0    0    0    0 -0.00000000000E+00 -0.00000000000E+00 -0.35740347158E-01  0.35744000000E-01  0.51099999109E-03 0.  1.
       22    1    1    2    0    0  0.18925690970E-01 -0.58273791529E-02 -0.29748839614E-01  0.35737005818E-01  0.00000000000E+00 0.  1.
  9000001    1    1    2    0    0 -0.18925690970E-01  0.58273791529E-02  0.29748839614E-01  0.35750994182E-01  0.10000000475E-02 0. -1.
</event>
<event>
 4   0  0.4892667E-02  0.9118800E+02  0.7818609E-02  0.1379984E+01
      -11   -1    0    0    0    0  0.00000000000E+00  0.00000000000E+00  0.35740347158E-01  0.35744000000E-01  0.51099999109E-03 0.  1.
       11   -1    0    0    0    0 -0.00000000000E+00 -0.00000000000E+00 -0.35740347158E-01  0.35744000000E-01  0.51099999109E-03 0. -1.
       22    1    1    2    0    0  0.27420612733E-02 -0.51463269874E-02 -0.35258048774E-01  0.35737005818E-01  0.00000000000E+00 0. -1.
  9000001    1    1    2    0    0 -0.27420612733E-02  0.51463269874E-02  0.35258048774E-01  0.35750994182E-01  0.10000000475E-02 0.  1.
</event>
<event>
 4   0  0.4892667E-02  0.9118800E+02  0.7818609E-02  0.1379984E+01
      -11   -1    0    0    0    0  0.00000000000E+00  0.00000000000E+00  0.35740347158E-01  0.35744000000E-01  0.51099999109E-03 0.  1.
       11   -1    0    0    0    0 -0.00000000000E+00 -0.00000000000E+00 -0.35740347158E-01  0.35744000000E-01  0.51099999109E-03 0. -1.
       22    1    1    2    0    0  0.10206832299E-01 -0.26536391450E-01 -0.21651191379E-01  0.35737005818E-01  0.00000000000E+00 0. -1.
  9000001    1    1    2    0    0 -0.10206832299E-01  0.26536391450E-01  0.21651191379E-01  0.35750994182E-01  0.10000000475E-02 0.  1.
</event>
<event>
 4   0  0.4892667E-02  0.9118800E+02  0.7818609E-02  0.1379984E+01
      -11   -1    0    0    0    0  0.00000000000E+00  0.00000000000E+00  0.35740347158E-01  0.35744000000E-01  0.51099999109E-03 0. -1.
       11   -1    0    0    0    0 -0.00000000000E+00 -0.00000000000E+00 -0.35740347158E-01  0.35744000000E-01  0.51099999109E-03 0.  1.
       22    1    1    2    0    0 -0.61332633734E-03 -0.81133816207E-02  0.34798426033E-01  0.35737005818E-01  0.00000000000E+00 0. -1.
  9000001    1    1    2    0    0  0.61332633734E-03  0.81133816207E-02 -0.34798426033E-01  0.35750994182E-01  0.10000000475E-02 0.  1.
</event>
<event>
 4   0  0.4892667E-02  0.9118800E+02  0.7818609E-02  0.1379984E+01
      -11   -1    0    0    0    0  0.00000000000E+00  0.00000000000E+00  0.35740347158E-01  0.35744000000E-01  0.51099999109E-03 0. -1.
       11   -1    0    0    0    0 -0.00000000000E+00 -0.00000000000E+00 -0.35740347158E-01  0.35744000000E-01  0.51099999109E-03 0.  1.
       22    1    1    2    0    0  0.15142833418E-02  0.10398302464E-01  0.34157222321E-01  0.35737005818E-01  0.00000000000E+00 0. -1.
  9000001    1    1    2    0    0 -0.15142833418E-02 -0.10398302464E-01 -0.34157222321E-01  0.35750994182E-01  0.10000000475E-02 0.  1.
</event>
<event>
 4   0  0.4892667E-02  0.9118800E+02  0.7818609E-02  0.1379984E+01
      -11   -1    0    0    0    0  0.00000000000E+00  0.00000000000E+00  0.35740347158E-01  0.35744000000E-01  0.51099999109E-03 0.  1.
       11   -1    0    0    0    0 -0.00000000000E+00 -0.00000000000E+00 -0.35740347158E-01  0.35744000000E-01  0.51099999109E-03 0. -1.
       22    1    1    2    0    0  0.13041598896E-01  0.28712664346E-02 -0.33148244481E-01  0.35737005818E-01  0.00000000000E+00 0. -1.
  9000001    1    1    2    0    0 -0.13041598896E-01 -0.28712664346E-02  0.33148244481E-01  0.35750994182E-01  0.10000000475E-02 0.  1.
</event>
<event>
 4   0  0.4892667E-02  0.9118800E+02  0.7818609E-02  0.1379984E+01
      -11   -1    0    0    0    0  0.00000000000E+00  0.00000000000E+00  0.35740347158E-01  0.35744000000E-01  0.51099999109E-03 0.  1.
       11   -1    0    0    0    0 -0.00000000000E+00 -0.00000000000E+00 -0.35740347158E-01  0.35744000000E-01  0.51099999109E-03 0. -1.
       22    1    1    2    0    0 -0.34551561240E-02  0.27795597425E-03  0.35568500411E-01  0.35737005818E-01  0.00000000000E+00 0.  1.
  9000001    1    1    2    0    0  0.34551561240E-02 -0.27795597425E-03 -0.35568500411E-01  0.35750994182E-01  0.10000000475E-02 0. -1.
</event>
<event>
 4   0  0.4892667E-02  0.9118800E+02  0.7818609E-02  0.1379984E+01
      -11   -1    0    0    0    0  0.00000000000E+00  0.00000000000E+00  0.35740347158E-01  0.35744000000E-01  0.51099999109E-03 0.  1.
       11   -1    0    0    0    0 -0.00000000000E+00 -0.00000000000E+00 -0.35740347158E-01  0.35744000000E-01  0.51099999109E-03 0. -1.
       22    1    1    2    0    0  0.13594952468E-01  0.32347626971E-02 -0.32891445127E-01  0.35737005818E-01  0.00000000000E+00 0. -1.
  9000001    1    1    2    0    0 -0.13594952468E-01 -0.32347626971E-02  0.32891445127E-01  0.35750994182E-01  0.10000000475E-02 0.  1.
</event>
<event>
 4   0  0.4892667E-02  0.9118800E+02  0.7818609E-02  0.1379984E+01
      -11   -1    0    0    0    0  0.00000000000E+00  0.00000000000E+00  0.35740347158E-01  0.35744000000E-01  0.51099999109E-03 0. -1.
       11   -1    0    0    0    0 -0.00000000000E+00 -0.00000000000E+00 -0.35740347158E-01  0.35744000000E-01  0.51099999109E-03 0.  1.
       22    1    1    2    0    0  0.48504429914E-02 -0.16558094200E-02  0.35367571062E-01  0.35737005818E-01  0.00000000000E+00 0. -1.
  9000001    1    1    2    0    0 -0.48504429914E-02  0.16558094200E-02 -0.35367571062E-01  0.35750994182E-01  0.10000000475E-02 0.  1.
</event>
<event>
 4   0  0.4892667E-02  0.9118800E+02  0.7818609E-02  0.1379984E+01
      -11   -1    0    0    0    0  0.00000000000E+00  0.00000000000E+00  0.35740347158E-01  0.35744000000E-01  0.51099999109E-03 0.  1.
       11   -1    0    0    0    0 -0.00000000000E+00 -0.00000000000E+00 -0.35740347158E-01  0.35744000000E-01  0.51099999109E-03 0. -1.
       22    1    1    2    0    0  0.46701172536E-02 -0.86693326781E-02 -0.34353548006E-01  0.35737005818E-01  0.00000000000E+00 0. -1.
  9000001    1    1    2    0    0 -0.46701172536E-02  0.86693326781E-02  0.34353548006E-01  0.35750994182E-01  0.10000000475E-02 0.  1.
</event>
<event>
 4   0  0.4892667E-02  0.9118800E+02  0.7818609E-02  0.1379984E+01
      -11   -1    0    0    0    0  0.00000000000E+00  0.00000000000E+00  0.35740347158E-01  0.35744000000E-01  0.51099999109E-03 0. -1.
       11   -1    0    0    0    0 -0.00000000000E+00 -0.00000000000E+00 -0.35740347158E-01  0.35744000000E-01  0.51099999109E-03 0.  1.
       22    1    1    2    0    0 -0.17519148020E-02  0.69107870783E-02 -0.35018643625E-01  0.35737005818E-01  0.00000000000E+00 0.  1.
  9000001    1    1    2    0    0  0.17519148020E-02 -0.69107870783E-02  0.35018643625E-01  0.35750994182E-01  0.10000000475E-02 0. -1.
</event>
<event>
 4   0  0.4892667E-02  0.9118800E+02  0.7818609E-02  0.1379984E+01
      -11   -1    0    0    0    0  0.00000000000E+00  0.00000000000E+00  0.35740347158E-01  0.35744000000E-01  0.51099999109E-03 0.  1.
       11   -1    0    0    0    0 -0.00000000000E+00 -0.00000000000E+00 -0.35740347158E-01  0.35744000000E-01  0.51099999109E-03 0. -1.
       22    1    1    2    0    0  0.29732093511E-01 -0.17785780149E-01 -0.87636878522E-02  0.35737005818E-01  0.00000000000E+00 0. -1.
  9000001    1    1    2    0    0 -0.29732093511E-01  0.17785780149E-01  0.87636878522E-02  0.35750994182E-01  0.10000000475E-02 0.  1.
</event>
<event>
 4   0  0.4892667E-02  0.9118800E+02  0.7818609E-02  0.1379984E+01
      -11   -1    0    0    0    0  0.00000000000E+00  0.00000000000E+00  0.35740347158E-01  0.35744000000E-01  0.51099999109E-03 0.  1.
       11   -1    0    0    0    0 -0.00000000000E+00 -0.00000000000E+00 -0.35740347158E-01  0.35744000000E-01  0.51099999109E-03 0. -1.
       22    1    1    2    0    0  0.64321605203E-02 -0.74541816309E-02 -0.34353981896E-01  0.35737005818E-01  0.00000000000E+00 0. -1.
  9000001    1    1    2    0    0 -0.64321605203E-02  0.74541816309E-02  0.34353981896E-01  0.35750994182E-01  0.10000000475E-02 0.  1.
</event>
<event>
 4   0  0.4892667E-02  0.9118800E+02  0.7818609E-02  0.1379984E+01
      -11   -1    0    0    0    0  0.00000000000E+00  0.00000000000E+00  0.35740347158E-01  0.35744000000E-01  0.51099999109E-03 0. -1.
       11   -1    0    0    0    0 -0.00000000000E+00 -0.00000000000E+00 -0.35740347158E-01  0.35744000000E-01  0.51099999109E-03 0.  1.
       22    1    1    2    0    0 -0.92440472691E-02 -0.34513619932E-01  0.70086672587E-03  0.35737005818E-01  0.00000000000E+00 0. -1.
  9000001    1    1    2    0    0  0.92440472691E-02  0.34513619932E-01 -0.70086672587E-03  0.35750994182E-01  0.10000000475E-02 0.  1.
</event>
<event>
 4   0  0.4892667E-02  0.9118800E+02  0.7818609E-02  0.1379984E+01
      -11   -1    0    0    0    0  0.00000000000E+00  0.00000000000E+00  0.35740347158E-01  0.35744000000E-01  0.51099999109E-03 0. -1.
       11   -1    0    0    0    0 -0.00000000000E+00 -0.00000000000E+00 -0.35740347158E-01  0.35744000000E-01  0.51099999109E-03 0.  1.
       22    1    1    2    0    0  0.43082686749E-02  0.23598721161E-03  0.35475579149E-01  0.35737005818E-01  0.00000000000E+00 0. -1.
  9000001    1    1    2    0    0 -0.43082686749E-02 -0.23598721161E-03 -0.35475579149E-01  0.35750994182E-01  0.10000000475E-02 0.  1.
</event>
<event>
 4   0  0.4892667E-02  0.9118800E+02  0.7818609E-02  0.1379984E+01
      -11   -1    0    0    0    0  0.00000000000E+00  0.00000000000E+00  0.35740347158E-01  0.35744000000E-01  0.51099999109E-03 0. -1.
       11   -1    0    0    0    0 -0.00000000000E+00 -0.00000000000E+00 -0.35740347158E-01  0.35744000000E-01  0.51099999109E-03 0.  1.
       22    1    1    2    0    0 -0.86195624674E-03  0.78360118309E-02 -0.34856671311E-01  0.35737005818E-01  0.00000000000E+00 0.  1.
  9000001    1    1    2    0    0  0.86195624674E-03 -0.78360118309E-02  0.34856671311E-01  0.35750994182E-01  0.10000000475E-02 0. -1.
</event>
<event>
 4   0  0.4892667E-02  0.9118800E+02  0.7818609E-02  0.1379984E+01
      -11   -1    0    0    0    0  0.00000000000E+00  0.00000000000E+00  0.35740347158E-01  0.35744000000E-01  0.51099999109E-03 0. -1.
       11   -1    0    0    0    0 -0.00000000000E+00 -0.00000000000E+00 -0.35740347158E-01  0.35744000000E-01  0.51099999109E-03 0.  1.
       22    1    1    2    0    0  0.20855936491E-01 -0.16355926655E-01 -0.23971799290E-01  0.35737005818E-01  0.00000000000E+00 0.  1.
  9000001    1    1    2    0    0 -0.20855936491E-01  0.16355926655E-01  0.23971799290E-01  0.35750994182E-01  0.10000000475E-02 0. -1.
</event>
<event>
 4   0  0.4892667E-02  0.9118800E+02  0.7818609E-02  0.1379984E+01
      -11   -1    0    0    0    0  0.00000000000E+00  0.00000000000E+00  0.35740347158E-01  0.35744000000E-01  0.51099999109E-03 0. -1.
       11   -1    0    0    0    0 -0.00000000000E+00 -0.00000000000E+00 -0.35740347158E-01  0.35744000000E-01  0.51099999109E-03 0.  1.
       22    1    1    2    0    0  0.51737768810E-02  0.57660289398E-02  0.34887225856E-01  0.35737005818E-01  0.00000000000E+00 0. -1.
  9000001    1    1    2    0    0 -0.51737768810E-02 -0.57660289398E-02 -0.34887225856E-01  0.35750994182E-01  0.10000000475E-02 0.  1.
</event>
<event>
 4   0  0.4892667E-02  0.9118800E+02  0.7818609E-02  0.1379984E+01
      -11   -1    0    0    0    0  0.00000000000E+00  0.00000000000E+00  0.35740347158E-01  0.35744000000E-01  0.51099999109E-03 0.  1.
       11   -1    0    0    0    0 -0.00000000000E+00 -0.00000000000E+00 -0.35740347158E-01  0.35744000000E-01  0.51099999109E-03 0. -1.
       22    1    1    2    0    0  0.18272859630E-02  0.25849809356E-02  0.35596523488E-01  0.35737005818E-01  0.00000000000E+00 0.  1.
  9000001    1    1    2    0    0 -0.18272859630E-02 -0.25849809356E-02 -0.35596523488E-01  0.35750994182E-01  0.10000000475E-02 0. -1.
</event>
<event>
 4   0  0.4892667E-02  0.9118800E+02  0.7818609E-02  0.1379984E+01
      -11   -1    0    0    0    0  0.00000000000E+00  0.00000000000E+00  0.35740347158E-01  0.35744000000E-01  0.51099999109E-03 0. -1.
       11   -1    0    0    0    0 -0.00000000000E+00 -0.00000000000E+00 -0.35740347158E-01  0.35744000000E-01  0.51099999109E-03 0.  1.
       22    1    1    2    0    0 -0.69471346323E-02 -0.28532639572E-01 -0.20365642252E-01  0.35737005818E-01  0.00000000000E+00 0.  1.
  9000001    1    1    2    0    0  0.69471346323E-02  0.28532639572E-01  0.20365642252E-01  0.35750994182E-01  0.10000000475E-02 0. -1.
</event>
<event>
 4   0  0.4892667E-02  0.9118800E+02  0.7818609E-02  0.1379984E+01
      -11   -1    0    0    0    0  0.00000000000E+00  0.00000000000E+00  0.35740347158E-01  0.35744000000E-01  0.51099999109E-03 0.  1.
       11   -1    0    0    0    0 -0.00000000000E+00 -0.00000000000E+00 -0.35740347158E-01  0.35744000000E-01  0.51099999109E-03 0. -1.
       22    1    1    2    0    0 -0.13466595498E-02  0.85023826100E-02 -0.34684716849E-01  0.35737005818E-01  0.00000000000E+00 0. -1.
  9000001    1    1    2    0    0  0.13466595498E-02 -0.85023826100E-02  0.34684716849E-01  0.35750994182E-01  0.10000000475E-02 0.  1.
</event>
<event>
 4   0  0.4892667E-02  0.9118800E+02  0.7818609E-02  0.1379984E+01
      -11   -1    0    0    0    0  0.00000000000E+00  0.00000000000E+00  0.35740347158E-01  0.35744000000E-01  0.51099999109E-03 0.  1.
       11   -1    0    0    0    0 -0.00000000000E+00 -0.00000000000E+00 -0.35740347158E-01  0.35744000000E-01  0.51099999109E-03 0. -1.
       22    1    1    2    0    0  0.27723402383E-01 -0.66125816106E-02  0.21559691780E-01  0.35737005818E-01  0.00000000000E+00 0.  1.
  9000001    1    1    2    0    0 -0.27723402383E-01  0.66125816106E-02 -0.21559691780E-01  0.35750994182E-01  0.10000000475E-02 0. -1.
</event>
<event>
 4   0  0.4892667E-02  0.9118800E+02  0.7818609E-02  0.1379984E+01
      -11   -1    0    0    0    0  0.00000000000E+00  0.00000000000E+00  0.35740347158E-01  0.35744000000E-01  0.51099999109E-03 0.  1.
       11   -1    0    0    0    0 -0.00000000000E+00 -0.00000000000E+00 -0.35740347158E-01  0.35744000000E-01  0.51099999109E-03 0. -1.
       22    1    1    2    0    0 -0.53487599357E-02  0.53515492851E-02  0.34926856032E-01  0.35737005818E-01  0.00000000000E+00 0.  1.
  9000001    1    1    2    0    0  0.53487599357E-02 -0.53515492851E-02 -0.34926856032E-01  0.35750994182E-01  0.10000000475E-02 0. -1.
</event>
<event>
 4   0  0.4892667E-02  0.9118800E+02  0.7818609E-02  0.1379984E+01
      -11   -1    0    0    0    0  0.00000000000E+00  0.00000000000E+00  0.35740347158E-01  0.35744000000E-01  0.51099999109E-03 0.  1.
       11   -1    0    0    0    0 -0.00000000000E+00 -0.00000000000E+00 -0.35740347158E-01  0.35744000000E-01  0.51099999109E-03 0. -1.
       22    1    1    2    0    0  0.26546212076E-01 -0.15640993708E-01 -0.18105013811E-01  0.35737005818E-01  0.00000000000E+00 0. -1.
  9000001    1    1    2    0    0 -0.26546212076E-01  0.15640993708E-01  0.18105013811E-01  0.35750994182E-01  0.10000000475E-02 0.  1.
</event>
<event>
 4   0  0.4892667E-02  0.9118800E+02  0.7818609E-02  0.1379984E+01
      -11   -1    0    0    0    0  0.00000000000E+00  0.00000000000E+00  0.35740347158E-01  0.35744000000E-01  0.51099999109E-03 0. -1.
       11   -1    0    0    0    0 -0.00000000000E+00 -0.00000000000E+00 -0.35740347158E-01  0.35744000000E-01  0.51099999109E-03 0.  1.
       22    1    1    2    0    0 -0.81582527807E-03 -0.13552003584E-01  0.33057695214E-01  0.35737005818E-01  0.00000000000E+00 0. -1.
  9000001    1    1    2    0    0  0.81582527807E-03  0.13552003584E-01 -0.33057695214E-01  0.35750994182E-01  0.10000000475E-02 0.  1.
</event>
<event>
 4   0  0.4892667E-02  0.9118800E+02  0.7818609E-02  0.1379984E+01
      -11   -1    0    0    0    0  0.00000000000E+00  0.00000000000E+00  0.35740347158E-01  0.35744000000E-01  0.51099999109E-03 0. -1.
       11   -1    0    0    0    0 -0.00000000000E+00 -0.00000000000E+00 -0.35740347158E-01  0.35744000000E-01  0.51099999109E-03 0.  1.
       22    1    1    2    0    0 -0.13717463724E-02  0.58271074663E-02 -0.35232041033E-01  0.35737005818E-01  0.00000000000E+00 0.  1.
  9000001    1    1    2    0    0  0.13717463724E-02 -0.58271074663E-02  0.35232041033E-01  0.35750994182E-01  0.10000000475E-02 0. -1.
</event>
<event>
 4   0  0.4892667E-02  0.9118800E+02  0.7818609E-02  0.1379984E+01
      -11   -1    0    0    0    0  0.00000000000E+00  0.00000000000E+00  0.35740347158E-01  0.35744000000E-01  0.51099999109E-03 0.  1.
       11   -1    0    0    0    0 -0.00000000000E+00 -0.00000000000E+00 -0.35740347158E-01  0.35744000000E-01  0.51099999109E-03 0. -1.
       22    1    1    2    0    0 -0.97885279651E-02 -0.51359398286E-03 -0.34366473872E-01  0.35737005818E-01  0.00000000000E+00 0. -1.
  9000001    1    1    2    0    0  0.97885279651E-02  0.51359398286E-03  0.34366473872E-01  0.35750994182E-01  0.10000000475E-02 0.  1.
</event>
<event>
 4   0  0.4892667E-02  0.9118800E+02  0.7818609E-02  0.1379984E+01
      -11   -1    0    0    0    0  0.00000000000E+00  0.00000000000E+00  0.35740347158E-01  0.35744000000E-01  0.51099999109E-03 0. -1.
       11   -1    0    0    0    0 -0.00000000000E+00 -0.00000000000E+00 -0.35740347158E-01  0.35744000000E-01  0.51099999109E-03 0.  1.
       22    1    1    2    0    0  0.23975135551E-01  0.11735636229E-01 -0.23761340502E-01  0.35737005818E-01  0.00000000000E+00 0.  1.
  9000001    1    1    2    0    0 -0.23975135551E-01 -0.11735636229E-01  0.23761340502E-01  0.35750994182E-01  0.10000000475E-02 0. -1.
</event>
<event>
 4   0  0.4892667E-02  0.9118800E+02  0.7818609E-02  0.1379984E+01
      -11   -1    0    0    0    0  0.00000000000E+00  0.00000000000E+00  0.35740347158E-01  0.35744000000E-01  0.51099999109E-03 0.  1.
       11   -1    0    0    0    0 -0.00000000000E+00 -0.00000000000E+00 -0.35740347158E-01  0.35744000000E-01  0.51099999109E-03 0. -1.
       22    1    1    2    0    0 -0.21784357954E-01 -0.38771386270E-02 -0.28063198846E-01  0.35737005818E-01  0.00000000000E+00 0. -1.
  9000001    1    1    2    0    0  0.21784357954E-01  0.38771386270E-02  0.28063198846E-01  0.35750994182E-01  0.10000000475E-02 0.  1.
</event>
<event>
 4   0  0.4892667E-02  0.9118800E+02  0.7818609E-02  0.1379984E+01
      -11   -1    0    0    0    0  0.00000000000E+00  0.00000000000E+00  0.35740347158E-01  0.35744000000E-01  0.51099999109E-03 0. -1.
       11   -1    0    0    0    0 -0.00000000000E+00 -0.00000000000E+00 -0.35740347158E-01  0.35744000000E-01  0.51099999109E-03 0.  1.
       22    1    1    2    0    0  0.41454790677E-02 -0.98784325465E-02  0.34093476775E-01  0.35737005818E-01  0.00000000000E+00 0. -1.
  9000001    1    1    2    0    0 -0.41454790677E-02  0.98784325465E-02 -0.34093476775E-01  0.35750994182E-01  0.10000000475E-02 0.  1.
</event>
<event>
 4   0  0.4892667E-02  0.9118800E+02  0.7818609E-02  0.1379984E+01
      -11   -1    0    0    0    0  0.00000000000E+00  0.00000000000E+00  0.35740347158E-01  0.35744000000E-01  0.51099999109E-03 0. -1.
       11   -1    0    0    0    0 -0.00000000000E+00 -0.00000000000E+00 -0.35740347158E-01  0.35744000000E-01  0.51099999109E-03 0.  1.
       22    1    1    2    0    0 -0.46945011172E-02  0.35421406315E-01 -0.64747106783E-03  0.35737005818E-01  0.00000000000E+00 0.  1.
  9000001    1    1    2    0    0  0.46945011172E-02 -0.35421406315E-01  0.64747106783E-03  0.35750994182E-01  0.10000000475E-02 0. -1.
</event>
<event>
 4   0  0.4892667E-02  0.9118800E+02  0.7818609E-02  0.1379984E+01
      -11   -1    0    0    0    0  0.00000000000E+00  0.00000000000E+00  0.35740347158E-01  0.35744000000E-01  0.51099999109E-03 0.  1.
       11   -1    0    0    0    0 -0.00000000000E+00 -0.00000000000E+00 -0.35740347158E-01  0.35744000000E-01  0.51099999109E-03 0. -1.
       22    1    1    2    0    0  0.63553501143E-03  0.39221378915E-02  0.35515440508E-01  0.35737005818E-01  0.00000000000E+00 0.  1.
  9000001    1    1    2    0    0 -0.63553501143E-03 -0.39221378915E-02 -0.35515440508E-01  0.35750994182E-01  0.10000000475E-02 0. -1.
</event>
<event>
 4   0  0.4892667E-02  0.9118800E+02  0.7818609E-02  0.1379984E+01
      -11   -1    0    0    0    0  0.00000000000E+00  0.00000000000E+00  0.35740347158E-01  0.35744000000E-01  0.51099999109E-03 0. -1.
       11   -1    0    0    0    0 -0.00000000000E+00 -0.00000000000E+00 -0.35740347158E-01  0.35744000000E-01  0.51099999109E-03 0.  1.
       22    1    1    2    0    0 -0.46896747485E-02  0.55170805834E-02  0.34995747705E-01  0.35737005818E-01  0.00000000000E+00 0. -1.
  9000001    1    1    2    0    0  0.46896747485E-02 -0.55170805834E-02 -0.34995747705E-01  0.35750994182E-01  0.10000000475E-02 0.  1.
</event>
<event>
 4   0  0.4892667E-02  0.9118800E+02  0.7818609E-02  0.1379984E+01
      -11   -1    0    0    0    0  0.00000000000E+00  0.00000000000E+00  0.35740347158E-01  0.35744000000E-01  0.51099999109E-03 0. -1.
       11   -1    0    0    0    0 -0.00000000000E+00 -0.00000000000E+00 -0.35740347158E-01  0.35744000000E-01  0.51099999109E-03 0.  1.
       22    1    1    2    0    0  0.94819288682E-02 -0.22227994000E-01 -0.26327607042E-01  0.35737005818E-01  0.00000000000E+00 0.  1.
  9000001    1    1    2    0    0 -0.94819288682E-02  0.22227994000E-01  0.26327607042E-01  0.35750994182E-01  0.10000000475E-02 0. -1.
</event>
<event>
 4   0  0.4892667E-02  0.9118800E+02  0.7818609E-02  0.1379984E+01
      -11   -1    0    0    0    0  0.00000000000E+00  0.00000000000E+00  0.35740347158E-01  0.35744000000E-01  0.51099999109E-03 0. -1.
       11   -1    0    0    0    0 -0.00000000000E+00 -0.00000000000E+00 -0.35740347158E-01  0.35744000000E-01  0.51099999109E-03 0.  1.
       22    1    1    2    0    0  0.21241359099E-01 -0.12791252565E-01  0.25735619408E-01  0.35737005818E-01  0.00000000000E+00 0. -1.
  9000001    1    1    2    0    0 -0.21241359099E-01  0.12791252565E-01 -0.25735619408E-01  0.35750994182E-01  0.10000000475E-02 0.  1.
</event>
<event>
 4   0  0.4892667E-02  0.9118800E+02  0.7818609E-02  0.1379984E+01
      -11   -1    0    0    0    0  0.00000000000E+00  0.00000000000E+00  0.35740347158E-01  0.35744000000E-01  0.51099999109E-03 0.  1.
       11   -1    0    0    0    0 -0.00000000000E+00 -0.00000000000E+00 -0.35740347158E-01  0.35744000000E-01  0.51099999109E-03 0. -1.
       22    1    1    2    0    0 -0.59160831774E-02 -0.25459974046E-01 -0.24370540952E-01  0.35737005818E-01  0.00000000000E+00 0. -1.
  9000001    1    1    2    0    0  0.59160831774E-02  0.25459974046E-01  0.24370540952E-01  0.35750994182E-01  0.10000000475E-02 0.  1.
</event>
<event>
 4   0  0.4892667E-02  0.9118800E+02  0.7818609E-02  0.1379984E+01
      -11   -1    0    0    0    0  0.00000000000E+00  0.00000000000E+00  0.35740347158E-01  0.35744000000E-01  0.51099999109E-03 0. -1.
       11   -1    0    0    0    0 -0.00000000000E+00 -0.00000000000E+00 -0.35740347158E-01  0.35744000000E-01  0.51099999109E-03 0.  1.
       22    1    1    2    0    0  0.34425230083E-01 -0.95898234439E-02  0.26908158844E-03  0.35737005818E-01  0.00000000000E+00 0. -1.
  9000001    1    1    2    0    0 -0.34425230083E-01  0.95898234439E-02 -0.26908158844E-03  0.35750994182E-01  0.10000000475E-02 0.  1.
</event>
<event>
 4   0  0.4892667E-02  0.9118800E+02  0.7818609E-02  0.1379984E+01
      -11   -1    0    0    0    0  0.00000000000E+00  0.00000000000E+00  0.35740347158E-01  0.35744000000E-01  0.51099999109E-03 0. -1.
       11   -1    0    0    0    0 -0.00000000000E+00 -0.00000000000E+00 -0.35740347158E-01  0.35744000000E-01  0.51099999109E-03 0.  1.
       22    1    1    2    0    0  0.63589024622E-02 -0.94429479266E-03 -0.35154036065E-01  0.35737005818E-01  0.00000000000E+00 0.  1.
  9000001    1    1    2    0    0 -0.63589024622E-02  0.94429479266E-03  0.35154036065E-01  0.35750994182E-01  0.10000000475E-02 0. -1.
</event>
<event>
 4   0  0.4892667E-02  0.9118800E+02  0.7818609E-02  0.1379984E+01
      -11   -1    0    0    0    0  0.00000000000E+00  0.00000000000E+00  0.35740347158E-01  0.35744000000E-01  0.51099999109E-03 0. -1.
       11   -1    0    0    0    0 -0.00000000000E+00 -0.00000000000E+00 -0.35740347158E-01  0.35744000000E-01  0.51099999109E-03 0.  1.
       22    1    1    2    0    0  0.93999102779E-02 -0.93191595151E-02  0.33195308969E-01  0.35737005818E-01  0.00000000000E+00 0. -1.
  9000001    1    1    2    0    0 -0.93999102779E-02  0.93191595151E-02 -0.33195308969E-01  0.35750994182E-01  0.10000000475E-02 0.  1.
</event>
<event>
 4   0  0.4892667E-02  0.9118800E+02  0.7818609E-02  0.1379984E+01
      -11   -1    0    0    0    0  0.00000000000E+00  0.00000000000E+00  0.35740347158E-01  0.35744000000E-01  0.51099999109E-03 0.  1.
       11   -1    0    0    0    0 -0.00000000000E+00 -0.00000000000E+00 -0.35740347158E-01  0.35744000000E-01  0.51099999109E-03 0. -1.
       22    1    1    2    0    0 -0.34941686809E-02 -0.16738394406E-01  0.31380734899E-01  0.35737005818E-01  0.00000000000E+00 0.  1.
  9000001    1    1    2    0    0  0.34941686809E-02  0.16738394406E-01 -0.31380734899E-01  0.35750994182E-01  0.10000000475E-02 0. -1.
</event>
<event>
 4   0  0.4892667E-02  0.9118800E+02  0.7818609E-02  0.1379984E+01
      -11   -1    0    0    0    0  0.00000000000E+00  0.00000000000E+00  0.35740347158E-01  0.35744000000E-01  0.51099999109E-03 0. -1.
       11   -1    0    0    0    0 -0.00000000000E+00 -0.00000000000E+00 -0.35740347158E-01  0.35744000000E-01  0.51099999109E-03 0.  1.
       22    1    1    2    0    0 -0.20487813451E-02  0.23696349947E-02  0.35599450977E-01  0.35737005818E-01  0.00000000000E+00 0. -1.
  9000001    1    1    2    0    0  0.20487813451E-02 -0.23696349947E-02 -0.35599450977E-01  0.35750994182E-01  0.10000000475E-02 0.  1.
</event>
<event>
 4   0  0.4892667E-02  0.9118800E+02  0.7818609E-02  0.1379984E+01
      -11   -1    0    0    0    0  0.00000000000E+00  0.00000000000E+00  0.35740347158E-01  0.35744000000E-01  0.51099999109E-03 0. -1.
       11   -1    0    0    0    0 -0.00000000000E+00 -0.00000000000E+00 -0.35740347158E-01  0.35744000000E-01  0.51099999109E-03 0.  1.
       22    1    1    2    0    0 -0.22707238541E-02 -0.45802725961E-02 -0.35369457177E-01  0.35737005818E-01  0.00000000000E+00 0.  1.
  9000001    1    1    2    0    0  0.22707238541E-02  0.45802725961E-02  0.35369457177E-01  0.35750994182E-01  0.10000000475E-02 0. -1.
</event>
<event>
 4   0  0.4892667E-02  0.9118800E+02  0.7818609E-02  0.1379984E+01
      -11   -1    0    0    0    0  0.00000000000E+00  0.00000000000E+00  0.35740347158E-01  0.35744000000E-01  0.51099999109E-03 0.  1.
       11   -1    0    0    0    0 -0.00000000000E+00 -0.00000000000E+00 -0.35740347158E-01  0.35744000000E-01  0.51099999109E-03 0. -1.
       22    1    1    2    0    0  0.10725125942E-01  0.16413153694E-02 -0.34050129842E-01  0.35737005818E-01  0.00000000000E+00 0. -1.
  9000001    1    1    2    0    0 -0.10725125942E-01 -0.16413153694E-02  0.34050129842E-01  0.35750994182E-01  0.10000000475E-02 0.  1.
</event>
<event>
 4   0  0.4892667E-02  0.9118800E+02  0.7818609E-02  0.1379984E+01
      -11   -1    0    0    0    0  0.00000000000E+00  0.00000000000E+00  0.35740347158E-01  0.35744000000E-01  0.51099999109E-03 0.  1.
       11   -1    0    0    0    0 -0.00000000000E+00 -0.00000000000E+00 -0.35740347158E-01  0.35744000000E-01  0.51099999109E-03 0. -1.
       22    1    1    2    0    0  0.64936380699E-02  0.34415636482E-02  0.34973159553E-01  0.35737005818E-01  0.00000000000E+00 0.  1.
  9000001    1    1    2    0    0 -0.64936380699E-02 -0.34415636482E-02 -0.34973159553E-01  0.35750994182E-01  0.10000000475E-02 0. -1.
</event>
<event>
 4   0  0.4892667E-02  0.9118800E+02  0.7818609E-02  0.1379984E+01
      -11   -1    0    0    0    0  0.00000000000E+00  0.00000000000E+00  0.35740347158E-01  0.35744000000E-01  0.51099999109E-03 0. -1.
       11   -1    0    0    0    0 -0.00000000000E+00 -0.00000000000E+00 -0.35740347158E-01  0.35744000000E-01  0.51099999109E-03 0.  1.
       22    1    1    2    0    0 -0.19476476062E-02 -0.35715166691E-02  0.35504711270E-01  0.35737005818E-01  0.00000000000E+00 0. -1.
  9000001    1    1    2    0    0  0.19476476062E-02  0.35715166691E-02 -0.35504711270E-01  0.35750994182E-01  0.10000000475E-02 0.  1.
</event>
<event>
 4   0  0.4892667E-02  0.9118800E+02  0.7818609E-02  0.1379984E+01
      -11   -1    0    0    0    0  0.00000000000E+00  0.00000000000E+00  0.35740347158E-01  0.35744000000E-01  0.51099999109E-03 0.  1.
       11   -1    0    0    0    0 -0.00000000000E+00 -0.00000000000E+00 -0.35740347158E-01  0.35744000000E-01  0.51099999109E-03 0. -1.
       22    1    1    2    0    0 -0.17963122842E-01 -0.24814177266E-02 -0.30794518485E-01  0.35737005818E-01  0.00000000000E+00 0. -1.
  9000001    1    1    2    0    0  0.17963122842E-01  0.24814177266E-02  0.30794518485E-01  0.35750994182E-01  0.10000000475E-02 0.  1.
</event>
<event>
 4   0  0.4892667E-02  0.9118800E+02  0.7818609E-02  0.1379984E+01
      -11   -1    0    0    0    0  0.00000000000E+00  0.00000000000E+00  0.35740347158E-01  0.35744000000E-01  0.51099999109E-03 0. -1.
       11   -1    0    0    0    0 -0.00000000000E+00 -0.00000000000E+00 -0.35740347158E-01  0.35744000000E-01  0.51099999109E-03 0.  1.
       22    1    1    2    0    0 -0.32660927601E-02  0.24530604967E-02 -0.35502798723E-01  0.35737005818E-01  0.00000000000E+00 0.  1.
  9000001    1    1    2    0    0  0.32660927601E-02 -0.24530604967E-02  0.35502798723E-01  0.35750994182E-01  0.10000000475E-02 0. -1.
</event>
<event>
 4   0  0.4892667E-02  0.9118800E+02  0.7818609E-02  0.1379984E+01
      -11   -1    0    0    0    0  0.00000000000E+00  0.00000000000E+00  0.35740347158E-01  0.35744000000E-01  0.51099999109E-03 0.  1.
       11   -1    0    0    0    0 -0.00000000000E+00 -0.00000000000E+00 -0.35740347158E-01  0.35744000000E-01  0.51099999109E-03 0. -1.
       22    1    1    2    0    0  0.20686328373E-01  0.25221709014E-02  0.29031845571E-01  0.35737005818E-01  0.00000000000E+00 0.  1.
  9000001    1    1    2    0    0 -0.20686328373E-01 -0.25221709014E-02 -0.29031845571E-01  0.35750994182E-01  0.10000000475E-02 0. -1.
</event>
<event>
 4   0  0.4892667E-02  0.9118800E+02  0.7818609E-02  0.1379984E+01
      -11   -1    0    0    0    0  0.00000000000E+00  0.00000000000E+00  0.35740347158E-01  0.35744000000E-01  0.51099999109E-03 0.  1.
       11   -1    0    0    0    0 -0.00000000000E+00 -0.00000000000E+00 -0.35740347158E-01  0.35744000000E-01  0.51099999109E-03 0. -1.
       22    1    1    2    0    0  0.19656382824E-01  0.22818118387E-01  0.19237818806E-01  0.35737005818E-01  0.00000000000E+00 0.  1.
  9000001    1    1    2    0    0 -0.19656382824E-01 -0.22818118387E-01 -0.19237818806E-01  0.35750994182E-01  0.10000000475E-02 0. -1.
</event>
<event>
 4   0  0.4892667E-02  0.9118800E+02  0.7818609E-02  0.1379984E+01
      -11   -1    0    0    0    0  0.00000000000E+00  0.00000000000E+00  0.35740347158E-01  0.35744000000E-01  0.51099999109E-03 0.  1.
       11   -1    0    0    0    0 -0.00000000000E+00 -0.00000000000E+00 -0.35740347158E-01  0.35744000000E-01  0.51099999109E-03 0. -1.
       22    1    1    2    0    0  0.38210301194E-02 -0.83328043174E-03 -0.35522372632E-01  0.35737005818E-01  0.00000000000E+00 0. -1.
  9000001    1    1    2    0    0 -0.38210301194E-02  0.83328043174E-03  0.35522372632E-01  0.35750994182E-01  0.10000000475E-02 0.  1.
</event>
<event>
 4   0  0.4892667E-02  0.9118800E+02  0.7818609E-02  0.1379984E+01
      -11   -1    0    0    0    0  0.00000000000E+00  0.00000000000E+00  0.35740347158E-01  0.35744000000E-01  0.51099999109E-03 0. -1.
       11   -1    0    0    0    0 -0.00000000000E+00 -0.00000000000E+00 -0.35740347158E-01  0.35744000000E-01  0.51099999109E-03 0.  1.
       22    1    1    2    0    0 -0.20187692803E-01  0.64087004325E-02  0.28784009501E-01  0.35737005818E-01  0.00000000000E+00 0. -1.
  9000001    1    1    2    0    0  0.20187692803E-01 -0.64087004325E-02 -0.28784009501E-01  0.35750994182E-01  0.10000000475E-02 0.  1.
</event>
<event>
 4   0  0.4892667E-02  0.9118800E+02  0.7818609E-02  0.1379984E+01
      -11   -1    0    0    0    0  0.00000000000E+00  0.00000000000E+00  0.35740347158E-01  0.35744000000E-01  0.51099999109E-03 0. -1.
       11   -1    0    0    0    0 -0.00000000000E+00 -0.00000000000E+00 -0.35740347158E-01  0.35744000000E-01  0.51099999109E-03 0.  1.
       22    1    1    2    0    0 -0.95030169206E-02 -0.17692221920E-02  0.34404884931E-01  0.35737005818E-01  0.00000000000E+00 0. -1.
  9000001    1    1    2    0    0  0.95030169206E-02  0.17692221920E-02 -0.34404884931E-01  0.35750994182E-01  0.10000000475E-02 0.  1.
</event>
<event>
 4   0  0.4892667E-02  0.9118800E+02  0.7818609E-02  0.1379984E+01
      -11   -1    0    0    0    0  0.00000000000E+00  0.00000000000E+00  0.35740347158E-01  0.35744000000E-01  0.51099999109E-03 0.  1.
       11   -1    0    0    0    0 -0.00000000000E+00 -0.00000000000E+00 -0.35740347158E-01  0.35744000000E-01  0.51099999109E-03 0. -1.
       22    1    1    2    0    0  0.86854407321E-02  0.11512005697E-01 -0.32698171646E-01  0.35737005818E-01  0.00000000000E+00 0. -1.
  9000001    1    1    2    0    0 -0.86854407321E-02 -0.11512005697E-01  0.32698171646E-01  0.35750994182E-01  0.10000000475E-02 0.  1.
</event>
<event>
 4   0  0.4892667E-02  0.9118800E+02  0.7818609E-02  0.1379984E+01
      -11   -1    0    0    0    0  0.00000000000E+00  0.00000000000E+00  0.35740347158E-01  0.35744000000E-01  0.51099999109E-03 0. -1.
       11   -1    0    0    0    0 -0.00000000000E+00 -0.00000000000E+00 -0.35740347158E-01  0.35744000000E-01  0.51099999109E-03 0.  1.
       22    1    1    2    0    0 -0.13977218019E-02  0.33866867594E-02 -0.35548703372E-01  0.35737005818E-01  0.00000000000E+00 0.  1.
  9000001    1    1    2    0    0  0.13977218019E-02 -0.33866867594E-02  0.35548703372E-01  0.35750994182E-01  0.10000000475E-02 0. -1.
</event>
<event>
 4   0  0.4892667E-02  0.9118800E+02  0.7818609E-02  0.1379984E+01
      -11   -1    0    0    0    0  0.00000000000E+00  0.00000000000E+00  0.35740347158E-01  0.35744000000E-01  0.51099999109E-03 0.  1.
       11   -1    0    0    0    0 -0.00000000000E+00 -0.00000000000E+00 -0.35740347158E-01  0.35744000000E-01  0.51099999109E-03 0. -1.
       22    1    1    2    0    0  0.29119039299E-02  0.55686761079E-02 -0.35180168373E-01  0.35737005818E-01  0.00000000000E+00 0. -1.
  9000001    1    1    2    0    0 -0.29119039299E-02 -0.55686761079E-02  0.35180168373E-01  0.35750994182E-01  0.10000000475E-02 0.  1.
</event>
<event>
 4   0  0.4892667E-02  0.9118800E+02  0.7818609E-02  0.1379984E+01
      -11   -1    0    0    0    0  0.00000000000E+00  0.00000000000E+00  0.35740347158E-01  0.35744000000E-01  0.51099999109E-03 0.  1.
       11   -1    0    0    0    0 -0.00000000000E+00 -0.00000000000E+00 -0.35740347158E-01  0.35744000000E-01  0.51099999109E-03 0. -1.
       22    1    1    2    0    0  0.11559010551E-01 -0.16233554396E-02 -0.33777027357E-01  0.35737005818E-01  0.00000000000E+00 0. -1.
  9000001    1    1    2    0    0 -0.11559010551E-01  0.16233554396E-02  0.33777027357E-01  0.35750994182E-01  0.10000000475E-02 0.  1.
</event>
<event>
 4   0  0.4892667E-02  0.9118800E+02  0.7818609E-02  0.1379984E+01
      -11   -1    0    0    0    0  0.00000000000E+00  0.00000000000E+00  0.35740347158E-01  0.35744000000E-01  0.51099999109E-03 0. -1.
       11   -1    0    0    0    0 -0.00000000000E+00 -0.00000000000E+00 -0.35740347158E-01  0.35744000000E-01  0.51099999109E-03 0.  1.
       22    1    1    2    0    0 -0.31639861995E-01  0.12818117806E-01  0.10571119796E-01  0.35737005818E-01  0.00000000000E+00 0. -1.
  9000001    1    1    2    0    0  0.31639861995E-01 -0.12818117806E-01 -0.10571119796E-01  0.35750994182E-01  0.10000000475E-02 0.  1.
</event>
<event>
 4   0  0.4892667E-02  0.9118800E+02  0.7818609E-02  0.1379984E+01
      -11   -1    0    0    0    0  0.00000000000E+00  0.00000000000E+00  0.35740347158E-01  0.35744000000E-01  0.51099999109E-03 0.  1.
       11   -1    0    0    0    0 -0.00000000000E+00 -0.00000000000E+00 -0.35740347158E-01  0.35744000000E-01  0.51099999109E-03 0. -1.
       22    1    1    2    0    0  0.15200442414E-02 -0.39532029700E-02  0.35485141069E-01  0.35737005818E-01  0.00000000000E+00 0.  1.
  9000001    1    1    2    0    0 -0.15200442414E-02  0.39532029700E-02 -0.35485141069E-01  0.35750994182E-01  0.10000000475E-02 0. -1.
</event>
<event>
 4   0  0.4892667E-02  0.9118800E+02  0.7818609E-02  0.1379984E+01
      -11   -1    0    0    0    0  0.00000000000E+00  0.00000000000E+00  0.35740347158E-01  0.35744000000E-01  0.51099999109E-03 0. -1.
       11   -1    0    0    0    0 -0.00000000000E+00 -0.00000000000E+00 -0.35740347158E-01  0.35744000000E-01  0.51099999109E-03 0.  1.
       22    1    1    2    0    0 -0.12454143852E-02  0.38607358594E-02 -0.35506017046E-01  0.35737005818E-01  0.00000000000E+00 0.  1.
  9000001    1    1    2    0    0  0.12454143852E-02 -0.38607358594E-02  0.35506017046E-01  0.35750994182E-01  0.10000000475E-02 0. -1.
</event>
<event>
 4   0  0.4892667E-02  0.9118800E+02  0.7818609E-02  0.1379984E+01
      -11   -1    0    0    0    0  0.00000000000E+00  0.00000000000E+00  0.35740347158E-01  0.35744000000E-01  0.51099999109E-03 0.  1.
       11   -1    0    0    0    0 -0.00000000000E+00 -0.00000000000E+00 -0.35740347158E-01  0.35744000000E-01  0.51099999109E-03 0. -1.
       22    1    1    2    0    0 -0.90205015721E-04 -0.98866337875E-02 -0.34342101279E-01  0.35737005818E-01  0.00000000000E+00 0. -1.
  9000001    1    1    2    0    0  0.90205015721E-04  0.98866337875E-02  0.34342101279E-01  0.35750994182E-01  0.10000000475E-02 0.  1.
</event>
<event>
 4   0  0.4892667E-02  0.9118800E+02  0.7818609E-02  0.1379984E+01
      -11   -1    0    0    0    0  0.00000000000E+00  0.00000000000E+00  0.35740347158E-01  0.35744000000E-01  0.51099999109E-03 0. -1.
       11   -1    0    0    0    0 -0.00000000000E+00 -0.00000000000E+00 -0.35740347158E-01  0.35744000000E-01  0.51099999109E-03 0.  1.
       22    1    1    2    0    0  0.70057850377E-02 -0.11009516512E-01 -0.33269251676E-01  0.35737005818E-01  0.00000000000E+00 0.  1.
  9000001    1    1    2    0    0 -0.70057850377E-02  0.11009516512E-01  0.33269251676E-01  0.35750994182E-01  0.10000000475E-02 0. -1.
</event>
<event>
 4   0  0.4892667E-02  0.9118800E+02  0.7818609E-02  0.1379984E+01
      -11   -1    0    0    0    0  0.00000000000E+00  0.00000000000E+00  0.35740347158E-01  0.35744000000E-01  0.51099999109E-03 0.  1.
       11   -1    0    0    0    0 -0.00000000000E+00 -0.00000000000E+00 -0.35740347158E-01  0.35744000000E-01  0.51099999109E-03 0. -1.
       22    1    1    2    0    0  0.96796588051E-02  0.57130716555E-02  0.33923422624E-01  0.35737005818E-01  0.00000000000E+00 0.  1.
  9000001    1    1    2    0    0 -0.96796588051E-02 -0.57130716555E-02 -0.33923422624E-01  0.35750994182E-01  0.10000000475E-02 0. -1.
</event>
<event>
 4   0  0.4892667E-02  0.9118800E+02  0.7818609E-02  0.1379984E+01
      -11   -1    0    0    0    0  0.00000000000E+00  0.00000000000E+00  0.35740347158E-01  0.35744000000E-01  0.51099999109E-03 0. -1.
       11   -1    0    0    0    0 -0.00000000000E+00 -0.00000000000E+00 -0.35740347158E-01  0.35744000000E-01  0.51099999109E-03 0.  1.
       22    1    1    2    0    0  0.11034190093E-02 -0.13744817684E-01  0.32969622961E-01  0.35737005818E-01  0.00000000000E+00 0. -1.
  9000001    1    1    2    0    0 -0.11034190093E-02  0.13744817684E-01 -0.32969622961E-01  0.35750994182E-01  0.10000000475E-02 0.  1.
</event>
<event>
 4   0  0.4892667E-02  0.9118800E+02  0.7818609E-02  0.1379984E+01
      -11   -1    0    0    0    0  0.00000000000E+00  0.00000000000E+00  0.35740347158E-01  0.35744000000E-01  0.51099999109E-03 0. -1.
       11   -1    0    0    0    0 -0.00000000000E+00 -0.00000000000E+00 -0.35740347158E-01  0.35744000000E-01  0.51099999109E-03 0.  1.
       22    1    1    2    0    0 -0.75582264816E-02 -0.48692973607E-02 -0.34587522903E-01  0.35737005818E-01  0.00000000000E+00 0.  1.
  9000001    1    1    2    0    0  0.75582264816E-02  0.48692973607E-02  0.34587522903E-01  0.35750994182E-01  0.10000000475E-02 0. -1.
</event>
<event>
 4   0  0.4892667E-02  0.9118800E+02  0.7818609E-02  0.1379984E+01
      -11   -1    0    0    0    0  0.00000000000E+00  0.00000000000E+00  0.35740347158E-01  0.35744000000E-01  0.51099999109E-03 0.  1.
       11   -1    0    0    0    0 -0.00000000000E+00 -0.00000000000E+00 -0.35740347158E-01  0.35744000000E-01  0.51099999109E-03 0. -1.
       22    1    1    2    0    0 -0.50473433477E-02  0.22445463655E-02  0.35307505174E-01  0.35737005818E-01  0.00000000000E+00 0.  1.
  9000001    1    1    2    0    0  0.50473433477E-02 -0.22445463655E-02 -0.35307505174E-01  0.35750994182E-01  0.10000000475E-02 0. -1.
</event>
<event>
 4   0  0.4892667E-02  0.9118800E+02  0.7818609E-02  0.1379984E+01
      -11   -1    0    0    0    0  0.00000000000E+00  0.00000000000E+00  0.35740347158E-01  0.35744000000E-01  0.51099999109E-03 0. -1.
       11   -1    0    0    0    0 -0.00000000000E+00 -0.00000000000E+00 -0.35740347158E-01  0.35744000000E-01  0.51099999109E-03 0.  1.
       22    1    1    2    0    0 -0.10676562426E-01  0.13660045648E-01  0.31249764039E-01  0.35737005818E-01  0.00000000000E+00 0. -1.
  9000001    1    1    2    0    0  0.10676562426E-01 -0.13660045648E-01 -0.31249764039E-01  0.35750994182E-01  0.10000000475E-02 0.  1.
</event>
<event>
 4   0  0.4892667E-02  0.9118800E+02  0.7818609E-02  0.1379984E+01
      -11   -1    0    0    0    0  0.00000000000E+00  0.00000000000E+00  0.35740347158E-01  0.35744000000E-01  0.51099999109E-03 0. -1.
       11   -1    0    0    0    0 -0.00000000000E+00 -0.00000000000E+00 -0.35740347158E-01  0.35744000000E-01  0.51099999109E-03 0.  1.
       22    1    1    2    0    0  0.54181207485E-02 -0.61890920082E-02  0.34777473924E-01  0.35737005818E-01  0.00000000000E+00 0. -1.
  9000001    1    1    2    0    0 -0.54181207485E-02  0.61890920082E-02 -0.34777473924E-01  0.35750994182E-01  0.10000000475E-02 0.  1.
</event>
<event>
 4   0  0.4892667E-02  0.9118800E+02  0.7818609E-02  0.1379984E+01
      -11   -1    0    0    0    0  0.00000000000E+00  0.00000000000E+00  0.35740347158E-01  0.35744000000E-01  0.51099999109E-03 0.  1.
       11   -1    0    0    0    0 -0.00000000000E+00 -0.00000000000E+00 -0.35740347158E-01  0.35744000000E-01  0.51099999109E-03 0. -1.
       22    1    1    2    0    0  0.45247744783E-03 -0.68249200683E-02 -0.35076335543E-01  0.35737005818E-01  0.00000000000E+00 0. -1.
  9000001    1    1    2    0    0 -0.45247744783E-03  0.68249200683E-02  0.35076335543E-01  0.35750994182E-01  0.10000000475E-02 0.  1.
</event>
<event>
 4   0  0.4892667E-02  0.9118800E+02  0.7818609E-02  0.1379984E+01
      -11   -1    0    0    0    0  0.00000000000E+00  0.00000000000E+00  0.35740347158E-01  0.35744000000E-01  0.51099999109E-03 0. -1.
       11   -1    0    0    0    0 -0.00000000000E+00 -0.00000000000E+00 -0.35740347158E-01  0.35744000000E-01  0.51099999109E-03 0.  1.
       22    1    1    2    0    0 -0.30799368978E-01 -0.15865876223E-01  0.87639276046E-02  0.35737005818E-01  0.00000000000E+00 0. -1.
  9000001    1    1    2    0    0  0.30799368978E-01  0.15865876223E-01 -0.87639276046E-02  0.35750994182E-01  0.10000000475E-02 0.  1.
</event>
<event>
 4   0  0.4892667E-02  0.9118800E+02  0.7818609E-02  0.1379984E+01
      -11   -1    0    0    0    0  0.00000000000E+00  0.00000000000E+00  0.35740347158E-01  0.35744000000E-01  0.51099999109E-03 0. -1.
       11   -1    0    0    0    0 -0.00000000000E+00 -0.00000000000E+00 -0.35740347158E-01  0.35744000000E-01  0.51099999109E-03 0.  1.
       22    1    1    2    0    0  0.93721595880E-06 -0.59492737333E-02 -0.35238327515E-01  0.35737005818E-01  0.00000000000E+00 0.  1.
  9000001    1    1    2    0    0 -0.93721595880E-06  0.59492737333E-02  0.35238327515E-01  0.35750994182E-01  0.10000000475E-02 0. -1.
</event>
<event>
 4   0  0.4892667E-02  0.9118800E+02  0.7818609E-02  0.1379984E+01
      -11   -1    0    0    0    0  0.00000000000E+00  0.00000000000E+00  0.35740347158E-01  0.35744000000E-01  0.51099999109E-03 0. -1.
       11   -1    0    0    0    0 -0.00000000000E+00 -0.00000000000E+00 -0.35740347158E-01  0.35744000000E-01  0.51099999109E-03 0.  1.
       22    1    1    2    0    0  0.23946241498E-03  0.12851226145E-01 -0.33345497885E-01  0.35737005818E-01  0.00000000000E+00 0.  1.
  9000001    1    1    2    0    0 -0.23946241498E-03 -0.12851226145E-01  0.33345497885E-01  0.35750994182E-01  0.10000000475E-02 0. -1.
</event>
<event>
 4   0  0.4892667E-02  0.9118800E+02  0.7818609E-02  0.1379984E+01
      -11   -1    0    0    0    0  0.00000000000E+00  0.00000000000E+00  0.35740347158E-01  0.35744000000E-01  0.51099999109E-03 0. -1.
       11   -1    0    0    0    0 -0.00000000000E+00 -0.00000000000E+00 -0.35740347158E-01  0.35744000000E-01  0.51099999109E-03 0.  1.
       22    1    1    2    0    0 -0.35641939061E-02  0.10211227961E-01 -0.34061135186E-01  0.35737005818E-01  0.00000000000E+00 0.  1.
  9000001    1    1    2    0    0  0.35641939061E-02 -0.10211227961E-01  0.34061135186E-01  0.35750994182E-01  0.10000000475E-02 0. -1.
</event>
<event>
 4   0  0.4892667E-02  0.9118800E+02  0.7818609E-02  0.1379984E+01
      -11   -1    0    0    0    0  0.00000000000E+00  0.00000000000E+00  0.35740347158E-01  0.35744000000E-01  0.51099999109E-03 0. -1.
       11   -1    0    0    0    0 -0.00000000000E+00 -0.00000000000E+00 -0.35740347158E-01  0.35744000000E-01  0.51099999109E-03 0.  1.
       22    1    1    2    0    0  0.11404012212E-02 -0.39526240204E-02  0.35499434267E-01  0.35737005818E-01  0.00000000000E+00 0. -1.
  9000001    1    1    2    0    0 -0.11404012212E-02  0.39526240204E-02 -0.35499434267E-01  0.35750994182E-01  0.10000000475E-02 0.  1.
</event>
<event>
 4   0  0.4892667E-02  0.9118800E+02  0.7818609E-02  0.1379984E+01
      -11   -1    0    0    0    0  0.00000000000E+00  0.00000000000E+00  0.35740347158E-01  0.35744000000E-01  0.51099999109E-03 0. -1.
       11   -1    0    0    0    0 -0.00000000000E+00 -0.00000000000E+00 -0.35740347158E-01  0.35744000000E-01  0.51099999109E-03 0.  1.
       22    1    1    2    0    0 -0.10883480007E-01  0.30510270331E-01 -0.15093271751E-01  0.35737005818E-01  0.00000000000E+00 0.  1.
  9000001    1    1    2    0    0  0.10883480007E-01 -0.30510270331E-01  0.15093271751E-01  0.35750994182E-01  0.10000000475E-02 0. -1.
</event>
<event>
 4   0  0.4892667E-02  0.9118800E+02  0.7818609E-02  0.1379984E+01
      -11   -1    0    0    0    0  0.00000000000E+00  0.00000000000E+00  0.35740347158E-01  0.35744000000E-01  0.51099999109E-03 0.  1.
       11   -1    0    0    0    0 -0.00000000000E+00 -0.00000000000E+00 -0.35740347158E-01  0.35744000000E-01  0.51099999109E-03 0. -1.
       22    1    1    2    0    0  0.86232728529E-02  0.27928623272E-01  0.20561243939E-01  0.35737005818E-01  0.00000000000E+00 0.  1.
  9000001    1    1    2    0    0 -0.86232728529E-02 -0.27928623272E-01 -0.20561243939E-01  0.35750994182E-01  0.10000000475E-02 0. -1.
</event>
<event>
 4   0  0.4892667E-02  0.9118800E+02  0.7818609E-02  0.1379984E+01
      -11   -1    0    0    0    0  0.00000000000E+00  0.00000000000E+00  0.35740347158E-01  0.35744000000E-01  0.51099999109E-03 0. -1.
       11   -1    0    0    0    0 -0.00000000000E+00 -0.00000000000E+00 -0.35740347158E-01  0.35744000000E-01  0.51099999109E-03 0.  1.
       22    1    1    2    0    0  0.26011285007E-01 -0.20962912323E-01 -0.12692633456E-01  0.35737005818E-01  0.00000000000E+00 0.  1.
  9000001    1    1    2    0    0 -0.26011285007E-01  0.20962912323E-01  0.12692633456E-01  0.35750994182E-01  0.10000000475E-02 0. -1.
</event>
<event>
 4   0  0.4892667E-02  0.9118800E+02  0.7818609E-02  0.1379984E+01
      -11   -1    0    0    0    0  0.00000000000E+00  0.00000000000E+00  0.35740347158E-01  0.35744000000E-01  0.51099999109E-03 0.  1.
       11   -1    0    0    0    0 -0.00000000000E+00 -0.00000000000E+00 -0.35740347158E-01  0.35744000000E-01  0.51099999109E-03 0. -1.
       22    1    1    2    0    0  0.18820752576E-01 -0.21106182544E-01 -0.21850444292E-01  0.35737005818E-01  0.00000000000E+00 0. -1.
  9000001    1    1    2    0    0 -0.18820752576E-01  0.21106182544E-01  0.21850444292E-01  0.35750994182E-01  0.10000000475E-02 0.  1.
</event>
<event>
 4   0  0.4892667E-02  0.9118800E+02  0.7818609E-02  0.1379984E+01
      -11   -1    0    0    0    0  0.00000000000E+00  0.00000000000E+00  0.35740347158E-01  0.35744000000E-01  0.51099999109E-03 0. -1.
       11   -1    0    0    0    0 -0.00000000000E+00 -0.00000000000E+00 -0.35740347158E-01  0.35744000000E-01  0.51099999109E-03 0.  1.
       22    1    1    2    0    0  0.29252434525E-01  0.81857256258E-02 -0.18826113652E-01  0.35737005818E-01  0.00000000000E+00 0. -1.
  9000001    1    1    2    0    0 -0.29252434525E-01 -0.81857256258E-02  0.18826113652E-01  0.35750994182E-01  0.10000000475E-02 0.  1.
</event>
<event>
 4   0  0.4892667E-02  0.9118800E+02  0.7818609E-02  0.1379984E+01
      -11   -1    0    0    0    0  0.00000000000E+00  0.00000000000E+00  0.35740347158E-01  0.35744000000E-01  0.51099999109E-03 0.  1.
       11   -1    0    0    0    0 -0.00000000000E+00 -0.00000000000E+00 -0.35740347158E-01  0.35744000000E-01  0.51099999109E-03 0. -1.
       22    1    1    2    0    0  0.20573709175E-02  0.27375581876E-01  0.22879648746E-01  0.35737005818E-01  0.00000000000E+00 0.  1.
  9000001    1    1    2    0    0 -0.20573709175E-02 -0.27375581876E-01 -0.22879648746E-01  0.35750994182E-01  0.10000000475E-02 0. -1.
</event>
<event>
 4   0  0.4892667E-02  0.9118800E+02  0.7818609E-02  0.1379984E+01
      -11   -1    0    0    0    0  0.00000000000E+00  0.00000000000E+00  0.35740347158E-01  0.35744000000E-01  0.51099999109E-03 0. -1.
       11   -1    0    0    0    0 -0.00000000000E+00 -0.00000000000E+00 -0.35740347158E-01  0.35744000000E-01  0.51099999109E-03 0.  1.
       22    1    1    2    0    0  0.32844077075E-01  0.14014584989E-01  0.14112383058E-02  0.35737005818E-01  0.00000000000E+00 0.  1.
  9000001    1    1    2    0    0 -0.32844077075E-01 -0.14014584989E-01 -0.14112383058E-02  0.35750994182E-01  0.10000000475E-02 0. -1.
</event>
<event>
 4   0  0.4892667E-02  0.9118800E+02  0.7818609E-02  0.1379984E+01
      -11   -1    0    0    0    0  0.00000000000E+00  0.00000000000E+00  0.35740347158E-01  0.35744000000E-01  0.51099999109E-03 0. -1.
       11   -1    0    0    0    0 -0.00000000000E+00 -0.00000000000E+00 -0.35740347158E-01  0.35744000000E-01  0.51099999109E-03 0.  1.
       22    1    1    2    0    0  0.56936082732E-02  0.36062025115E-02  0.35095750642E-01  0.35737005818E-01  0.00000000000E+00 0. -1.
  9000001    1    1    2    0    0 -0.56936082732E-02 -0.36062025115E-02 -0.35095750642E-01  0.35750994182E-01  0.10000000475E-02 0.  1.
</event>
<event>
 4   0  0.4892667E-02  0.9118800E+02  0.7818609E-02  0.1379984E+01
      -11   -1    0    0    0    0  0.00000000000E+00  0.00000000000E+00  0.35740347158E-01  0.35744000000E-01  0.51099999109E-03 0. -1.
       11   -1    0    0    0    0 -0.00000000000E+00 -0.00000000000E+00 -0.35740347158E-01  0.35744000000E-01  0.51099999109E-03 0.  1.
       22    1    1    2    0    0 -0.12441497119E-01  0.30197730763E-02  0.33365007191E-01  0.35737005818E-01  0.00000000000E+00 0. -1.
  9000001    1    1    2    0    0  0.12441497119E-01 -0.30197730763E-02 -0.33365007191E-01  0.35750994182E-01  0.10000000475E-02 0.  1.
</event>
<event>
 4   0  0.4892667E-02  0.9118800E+02  0.7818609E-02  0.1379984E+01
      -11   -1    0    0    0    0  0.00000000000E+00  0.00000000000E+00  0.35740347158E-01  0.35744000000E-01  0.51099999109E-03 0.  1.
       11   -1    0    0    0    0 -0.00000000000E+00 -0.00000000000E+00 -0.35740347158E-01  0.35744000000E-01  0.51099999109E-03 0. -1.
       22    1    1    2    0    0 -0.95885009444E-02  0.15113937515E-01 -0.30931587856E-01  0.35737005818E-01  0.00000000000E+00 0. -1.
  9000001    1    1    2    0    0  0.95885009444E-02 -0.15113937515E-01  0.30931587856E-01  0.35750994182E-01  0.10000000475E-02 0.  1.
</event>
<event>
 4   0  0.4892667E-02  0.9118800E+02  0.7818609E-02  0.1379984E+01
      -11   -1    0    0    0    0  0.00000000000E+00  0.00000000000E+00  0.35740347158E-01  0.35744000000E-01  0.51099999109E-03 0.  1.
       11   -1    0    0    0    0 -0.00000000000E+00 -0.00000000000E+00 -0.35740347158E-01  0.35744000000E-01  0.51099999109E-03 0. -1.
       22    1    1    2    0    0  0.70012734318E-02  0.44398626959E-03 -0.35041669929E-01  0.35737005818E-01  0.00000000000E+00 0. -1.
  9000001    1    1    2    0    0 -0.70012734318E-02 -0.44398626959E-03  0.35041669929E-01  0.35750994182E-01  0.10000000475E-02 0.  1.
</event>
<event>
 4   0  0.4892667E-02  0.9118800E+02  0.7818609E-02  0.1379984E+01
      -11   -1    0    0    0    0  0.00000000000E+00  0.00000000000E+00  0.35740347158E-01  0.35744000000E-01  0.51099999109E-03 0.  1.
       11   -1    0    0    0    0 -0.00000000000E+00 -0.00000000000E+00 -0.35740347158E-01  0.35744000000E-01  0.51099999109E-03 0. -1.
       22    1    1    2    0    0  0.18879654729E-02 -0.28037488177E-02 -0.35576792489E-01  0.35737005818E-01  0.00000000000E+00 0. -1.
  9000001    1    1    2    0    0 -0.18879654729E-02  0.28037488177E-02  0.35576792489E-01  0.35750994182E-01  0.10000000475E-02 0.  1.
</event>
<event>
 4   0  0.4892667E-02  0.9118800E+02  0.7818609E-02  0.1379984E+01
      -11   -1    0    0    0    0  0.00000000000E+00  0.00000000000E+00  0.35740347158E-01  0.35744000000E-01  0.51099999109E-03 0.  1.
       11   -1    0    0    0    0 -0.00000000000E+00 -0.00000000000E+00 -0.35740347158E-01  0.35744000000E-01  0.51099999109E-03 0. -1.
       22    1    1    2    0    0  0.33917008995E-01 -0.80586641558E-03  0.11230345722E-01  0.35737005818E-01  0.00000000000E+00 0.  1.
  9000001    1    1    2    0    0 -0.33917008995E-01  0.80586641558E-03 -0.11230345722E-01  0.35750994182E-01  0.10000000475E-02 0. -1.
</event>
<event>
 4   0  0.4892667E-02  0.9118800E+02  0.7818609E-02  0.1379984E+01
      -11   -1    0    0    0    0  0.00000000000E+00  0.00000000000E+00  0.35740347158E-01  0.35744000000E-01  0.51099999109E-03 0.  1.
       11   -1    0    0    0    0 -0.00000000000E+00 -0.00000000000E+00 -0.35740347158E-01  0.35744000000E-01  0.51099999109E-03 0. -1.
       22    1    1    2    0    0 -0.13477654945E-01  0.70792711303E-02  0.32332187094E-01  0.35737005818E-01  0.00000000000E+00 0.  1.
  9000001    1    1    2    0    0  0.13477654945E-01 -0.70792711303E-02 -0.32332187094E-01  0.35750994182E-01  0.10000000475E-02 0. -1.
</event>
<event>
 4   0  0.4892667E-02  0.9118800E+02  0.7818609E-02  0.1379984E+01
      -11   -1    0    0    0    0  0.00000000000E+00  0.00000000000E+00  0.35740347158E-01  0.35744000000E-01  0.51099999109E-03 0.  1.
       11   -1    0    0    0    0 -0.00000000000E+00 -0.00000000000E+00 -0.35740347158E-01  0.35744000000E-01  0.51099999109E-03 0. -1.
       22    1    1    2    0    0  0.98143511306E-02 -0.43702889179E-02  0.34083906342E-01  0.35737005818E-01  0.00000000000E+00 0.  1.
  9000001    1    1    2    0    0 -0.98143511306E-02  0.43702889179E-02 -0.34083906342E-01  0.35750994182E-01  0.10000000475E-02 0. -1.
</event>
<event>
 4   0  0.4892667E-02  0.9118800E+02  0.7818609E-02  0.1379984E+01
      -11   -1    0    0    0    0  0.00000000000E+00  0.00000000000E+00  0.35740347158E-01  0.35744000000E-01  0.51099999109E-03 0.  1.
       11   -1    0    0    0    0 -0.00000000000E+00 -0.00000000000E+00 -0.35740347158E-01  0.35744000000E-01  0.51099999109E-03 0. -1.
       22    1    1    2    0    0  0.25164896725E-02 -0.22546796442E-02  0.35576920669E-01  0.35737005818E-01  0.00000000000E+00 0.  1.
  9000001    1    1    2    0    0 -0.25164896725E-02  0.22546796442E-02 -0.35576920669E-01  0.35750994182E-01  0.10000000475E-02 0. -1.
</event>
<event>
 4   0  0.4892667E-02  0.9118800E+02  0.7818609E-02  0.1379984E+01
      -11   -1    0    0    0    0  0.00000000000E+00  0.00000000000E+00  0.35740347158E-01  0.35744000000E-01  0.51099999109E-03 0. -1.
       11   -1    0    0    0    0 -0.00000000000E+00 -0.00000000000E+00 -0.35740347158E-01  0.35744000000E-01  0.51099999109E-03 0.  1.
       22    1    1    2    0    0 -0.20759408673E-02 -0.37029297337E-02  0.35483973365E-01  0.35737005818E-01  0.00000000000E+00 0. -1.
  9000001    1    1    2    0    0  0.20759408673E-02  0.37029297337E-02 -0.35483973365E-01  0.35750994182E-01  0.10000000475E-02 0.  1.
</event>
<event>
 4   0  0.4892667E-02  0.9118800E+02  0.7818609E-02  0.1379984E+01
      -11   -1    0    0    0    0  0.00000000000E+00  0.00000000000E+00  0.35740347158E-01  0.35744000000E-01  0.51099999109E-03 0. -1.
       11   -1    0    0    0    0 -0.00000000000E+00 -0.00000000000E+00 -0.35740347158E-01  0.35744000000E-01  0.51099999109E-03 0.  1.
       22    1    1    2    0    0  0.13663058328E-01 -0.11499672408E-01 -0.30954998894E-01  0.35737005818E-01  0.00000000000E+00 0.  1.
  9000001    1    1    2    0    0 -0.13663058328E-01  0.11499672408E-01  0.30954998894E-01  0.35750994182E-01  0.10000000475E-02 0. -1.
</event>
<event>
 4   0  0.4892667E-02  0.9118800E+02  0.7818609E-02  0.1379984E+01
      -11   -1    0    0    0    0  0.00000000000E+00  0.00000000000E+00  0.35740347158E-01  0.35744000000E-01  0.51099999109E-03 0.  1.
       11   -1    0    0    0    0 -0.00000000000E+00 -0.00000000000E+00 -0.35740347158E-01  0.35744000000E-01  0.51099999109E-03 0. -1.
       22    1    1    2    0    0  0.71795486699E-02  0.32581727403E-03 -0.35006878022E-01  0.35737005818E-01  0.00000000000E+00 0. -1.
  9000001    1    1    2    0    0 -0.71795486699E-02 -0.32581727403E-03  0.35006878022E-01  0.35750994182E-01  0.10000000475E-02 0.  1.
</event>
<event>
 4   0  0.4892667E-02  0.9118800E+02  0.7818609E-02  0.1379984E+01
      -11   -1    0    0    0    0  0.00000000000E+00  0.00000000000E+00  0.35740347158E-01  0.35744000000E-01  0.51099999109E-03 0.  1.
       11   -1    0    0    0    0 -0.00000000000E+00 -0.00000000000E+00 -0.35740347158E-01  0.35744000000E-01  0.51099999109E-03 0. -1.
       22    1    1    2    0    0 -0.80748600740E-02 -0.10954664902E-01 -0.33044296581E-01  0.35737005818E-01  0.00000000000E+00 0. -1.
  9000001    1    1    2    0    0  0.80748600740E-02  0.10954664902E-01  0.33044296581E-01  0.35750994182E-01  0.10000000475E-02 0.  1.
</event>
<event>
 4   0  0.4892667E-02  0.9118800E+02  0.7818609E-02  0.1379984E+01
      -11   -1    0    0    0    0  0.00000000000E+00  0.00000000000E+00  0.35740347158E-01  0.35744000000E-01  0.51099999109E-03 0.  1.
       11   -1    0    0    0    0 -0.00000000000E+00 -0.00000000000E+00 -0.35740347158E-01  0.35744000000E-01  0.51099999109E-03 0. -1.
       22    1    1    2    0    0  0.36438361143E-02 -0.98894991890E-02 -0.34147530643E-01  0.35737005818E-01  0.00000000000E+00 0. -1.
  9000001    1    1    2    0    0 -0.36438361143E-02  0.98894991890E-02  0.34147530643E-01  0.35750994182E-01  0.10000000475E-02 0.  1.
</event>
<event>
 4   0  0.4892667E-02  0.9118800E+02  0.7818609E-02  0.1379984E+01
      -11   -1    0    0    0    0  0.00000000000E+00  0.00000000000E+00  0.35740347158E-01  0.35744000000E-01  0.51099999109E-03 0. -1.
       11   -1    0    0    0    0 -0.00000000000E+00 -0.00000000000E+00 -0.35740347158E-01  0.35744000000E-01  0.51099999109E-03 0.  1.
       22    1    1    2    0    0  0.16871406723E-01  0.48929312632E-02  0.31121510948E-01  0.35737005818E-01  0.00000000000E+00 0. -1.
  9000001    1    1    2    0    0 -0.16871406723E-01 -0.48929312632E-02 -0.31121510948E-01  0.35750994182E-01  0.10000000475E-02 0.  1.
</event>
<event>
 4   0  0.4892667E-02  0.9118800E+02  0.7818609E-02  0.1379984E+01
      -11   -1    0    0    0    0  0.00000000000E+00  0.00000000000E+00  0.35740347158E-01  0.35744000000E-01  0.51099999109E-03 0.  1.
       11   -1    0    0    0    0 -0.00000000000E+00 -0.00000000000E+00 -0.35740347158E-01  0.35744000000E-01  0.51099999109E-03 0. -1.
       22    1    1    2    0    0  0.22618108322E-01  0.27661192679E-01 -0.64279109749E-03  0.35737005818E-01  0.00000000000E+00 0. -1.
  9000001    1    1    2    0    0 -0.22618108322E-01 -0.27661192679E-01  0.64279109749E-03  0.35750994182E-01  0.10000000475E-02 0.  1.
</event>
<event>
 4   0  0.4892667E-02  0.9118800E+02  0.7818609E-02  0.1379984E+01
      -11   -1    0    0    0    0  0.00000000000E+00  0.00000000000E+00  0.35740347158E-01  0.35744000000E-01  0.51099999109E-03 0.  1.
       11   -1    0    0    0    0 -0.00000000000E+00 -0.00000000000E+00 -0.35740347158E-01  0.35744000000E-01  0.51099999109E-03 0. -1.
       22    1    1    2    0    0 -0.13354660950E-01 -0.24195573087E-01 -0.22657468057E-01  0.35737005818E-01  0.00000000000E+00 0. -1.
  9000001    1    1    2    0    0  0.13354660950E-01  0.24195573087E-01  0.22657468057E-01  0.35750994182E-01  0.10000000475E-02 0.  1.
</event>
<event>
 4   0  0.4892667E-02  0.9118800E+02  0.7818609E-02  0.1379984E+01
      -11   -1    0    0    0    0  0.00000000000E+00  0.00000000000E+00  0.35740347158E-01  0.35744000000E-01  0.51099999109E-03 0. -1.
       11   -1    0    0    0    0 -0.00000000000E+00 -0.00000000000E+00 -0.35740347158E-01  0.35744000000E-01  0.51099999109E-03 0.  1.
       22    1    1    2    0    0 -0.22528048729E-02  0.11601973411E-01 -0.33726142205E-01  0.35737005818E-01  0.00000000000E+00 0.  1.
  9000001    1    1    2    0    0  0.22528048729E-02 -0.11601973411E-01  0.33726142205E-01  0.35750994182E-01  0.10000000475E-02 0. -1.
</event>
<event>
 4   0  0.4892667E-02  0.9118800E+02  0.7818609E-02  0.1379984E+01
      -11   -1    0    0    0    0  0.00000000000E+00  0.00000000000E+00  0.35740347158E-01  0.35744000000E-01  0.51099999109E-03 0.  1.
       11   -1    0    0    0    0 -0.00000000000E+00 -0.00000000000E+00 -0.35740347158E-01  0.35744000000E-01  0.51099999109E-03 0. -1.
       22    1    1    2    0    0 -0.39959390419E-03 -0.31207060541E-02  0.35598245790E-01  0.35737005818E-01  0.00000000000E+00 0.  1.
  9000001    1    1    2    0    0  0.39959390419E-03  0.31207060541E-02 -0.35598245790E-01  0.35750994182E-01  0.10000000475E-02 0. -1.
</event>
<event>
 4   0  0.4892667E-02  0.9118800E+02  0.7818609E-02  0.1379984E+01
      -11   -1    0    0    0    0  0.00000000000E+00  0.00000000000E+00  0.35740347158E-01  0.35744000000E-01  0.51099999109E-03 0. -1.
       11   -1    0    0    0    0 -0.00000000000E+00 -0.00000000000E+00 -0.35740347158E-01  0.35744000000E-01  0.51099999109E-03 0.  1.
       22    1    1    2    0    0 -0.50645405516E-02  0.62582366693E-02 -0.34818364230E-01  0.35737005818E-01  0.00000000000E+00 0.  1.
  9000001    1    1    2    0    0  0.50645405516E-02 -0.62582366693E-02  0.34818364230E-01  0.35750994182E-01  0.10000000475E-02 0. -1.
</event>
<event>
 4   0  0.4892667E-02  0.9118800E+02  0.7818609E-02  0.1379984E+01
      -11   -1    0    0    0    0  0.00000000000E+00  0.00000000000E+00  0.35740347158E-01  0.35744000000E-01  0.51099999109E-03 0. -1.
       11   -1    0    0    0    0 -0.00000000000E+00 -0.00000000000E+00 -0.35740347158E-01  0.35744000000E-01  0.51099999109E-03 0.  1.
       22    1    1    2    0    0  0.47799760175E-02  0.21044582090E-03  0.35415266859E-01  0.35737005818E-01  0.00000000000E+00 0. -1.
  9000001    1    1    2    0    0 -0.47799760175E-02 -0.21044582090E-03 -0.35415266859E-01  0.35750994182E-01  0.10000000475E-02 0.  1.
</event>
<event>
 4   0  0.4892667E-02  0.9118800E+02  0.7818609E-02  0.1379984E+01
      -11   -1    0    0    0    0  0.00000000000E+00  0.00000000000E+00  0.35740347158E-01  0.35744000000E-01  0.51099999109E-03 0.  1.
       11   -1    0    0    0    0 -0.00000000000E+00 -0.00000000000E+00 -0.35740347158E-01  0.35744000000E-01  0.51099999109E-03 0. -1.
       22    1    1    2    0    0  0.18263727617E-02 -0.70030493564E-02  0.34996503356E-01  0.35737005818E-01  0.00000000000E+00 0.  1.
  9000001    1    1    2    0    0 -0.18263727617E-02  0.70030493564E-02 -0.34996503356E-01  0.35750994182E-01  0.10000000475E-02 0. -1.
</event>
<event>
 4   0  0.4892667E-02  0.9118800E+02  0.7818609E-02  0.1379984E+01
      -11   -1    0    0    0    0  0.00000000000E+00  0.00000000000E+00  0.35740347158E-01  0.35744000000E-01  0.51099999109E-03 0.  1.
       11   -1    0    0    0    0 -0.00000000000E+00 -0.00000000000E+00 -0.35740347158E-01  0.35744000000E-01  0.51099999109E-03 0. -1.
       22    1    1    2    0    0 -0.69555076428E-03 -0.39427583003E-02 -0.35512032482E-01  0.35737005818E-01  0.00000000000E+00 0. -1.
  9000001    1    1    2    0    0  0.69555076428E-03  0.39427583003E-02  0.35512032482E-01  0.35750994182E-01  0.10000000475E-02 0.  1.
</event>
<event>
 4   0  0.4892667E-02  0.9118800E+02  0.7818609E-02  0.1379984E+01
      -11   -1    0    0    0    0  0.00000000000E+00  0.00000000000E+00  0.35740347158E-01  0.35744000000E-01  0.51099999109E-03 0. -1.
       11   -1    0    0    0    0 -0.00000000000E+00 -0.00000000000E+00 -0.35740347158E-01  0.35744000000E-01  0.51099999109E-03 0.  1.
       22    1    1    2    0    0  0.17552185936E-02 -0.11360422391E-01  0.33837753998E-01  0.35737005818E-01  0.00000000000E+00 0. -1.
  9000001    1    1    2    0    0 -0.17552185936E-02  0.11360422391E-01 -0.33837753998E-01  0.35750994182E-01  0.10000000475E-02 0.  1.
</event>
<event>
 4   0  0.4892667E-02  0.9118800E+02  0.7818609E-02  0.1379984E+01
      -11   -1    0    0    0    0  0.00000000000E+00  0.00000000000E+00  0.35740347158E-01  0.35744000000E-01  0.51099999109E-03 0. -1.
       11   -1    0    0    0    0 -0.00000000000E+00 -0.00000000000E+00 -0.35740347158E-01  0.35744000000E-01  0.51099999109E-03 0.  1.
       22    1    1    2    0    0  0.56200339674E-02 -0.27250520257E-02 -0.35186970522E-01  0.35737005818E-01  0.00000000000E+00 0.  1.
  9000001    1    1    2    0    0 -0.56200339674E-02  0.27250520257E-02  0.35186970522E-01  0.35750994182E-01  0.10000000475E-02 0. -1.
</event>
<event>
 4   0  0.4892667E-02  0.9118800E+02  0.7818609E-02  0.1379984E+01
      -11   -1    0    0    0    0  0.00000000000E+00  0.00000000000E+00  0.35740347158E-01  0.35744000000E-01  0.51099999109E-03 0.  1.
       11   -1    0    0    0    0 -0.00000000000E+00 -0.00000000000E+00 -0.35740347158E-01  0.35744000000E-01  0.51099999109E-03 0. -1.
       22    1    1    2    0    0  0.46541735971E-02  0.39330649799E-02  0.35213679911E-01  0.35737005818E-01  0.00000000000E+00 0.  1.
  9000001    1    1    2    0    0 -0.46541735971E-02 -0.39330649799E-02 -0.35213679911E-01  0.35750994182E-01  0.10000000475E-02 0. -1.
</event>
<event>
 4   0  0.4892667E-02  0.9118800E+02  0.7818609E-02  0.1379984E+01
      -11   -1    0    0    0    0  0.00000000000E+00  0.00000000000E+00  0.35740347158E-01  0.35744000000E-01  0.51099999109E-03 0. -1.
       11   -1    0    0    0    0 -0.00000000000E+00 -0.00000000000E+00 -0.35740347158E-01  0.35744000000E-01  0.51099999109E-03 0.  1.
       22    1    1    2    0    0  0.95830937507E-02 -0.75182107427E-03 -0.34419945731E-01  0.35737005818E-01  0.00000000000E+00 0.  1.
  9000001    1    1    2    0    0 -0.95830937507E-02  0.75182107427E-03  0.34419945731E-01  0.35750994182E-01  0.10000000475E-02 0. -1.
</event>
<event>
 4   0  0.4892667E-02  0.9118800E+02  0.7818609E-02  0.1379984E+01
      -11   -1    0    0    0    0  0.00000000000E+00  0.00000000000E+00  0.35740347158E-01  0.35744000000E-01  0.51099999109E-03 0.  1.
       11   -1    0    0    0    0 -0.00000000000E+00 -0.00000000000E+00 -0.35740347158E-01  0.35744000000E-01  0.51099999109E-03 0. -1.
       22    1    1    2    0    0  0.25236876554E-01  0.14944536546E-02  0.25258666927E-01  0.35737005818E-01  0.00000000000E+00 0.  1.
  9000001    1    1    2    0    0 -0.25236876554E-01 -0.14944536546E-02 -0.25258666927E-01  0.35750994182E-01  0.10000000475E-02 0. -1.
</event>
<event>
 4   0  0.4892667E-02  0.9118800E+02  0.7818609E-02  0.1379984E+01
      -11   -1    0    0    0    0  0.00000000000E+00  0.00000000000E+00  0.35740347158E-01  0.35744000000E-01  0.51099999109E-03 0.  1.
       11   -1    0    0    0    0 -0.00000000000E+00 -0.00000000000E+00 -0.35740347158E-01  0.35744000000E-01  0.51099999109E-03 0. -1.
       22    1    1    2    0    0  0.22828935032E-02  0.83881444128E-02  0.34663540146E-01  0.35737005818E-01  0.00000000000E+00 0.  1.
  9000001    1    1    2    0    0 -0.22828935032E-02 -0.83881444128E-02 -0.34663540146E-01  0.35750994182E-01  0.10000000475E-02 0. -1.
</event>
<event>
 4   0  0.4892667E-02  0.9118800E+02  0.7818609E-02  0.1379984E+01
      -11   -1    0    0    0    0  0.00000000000E+00  0.00000000000E+00  0.35740347158E-01  0.35744000000E-01  0.51099999109E-03 0.  1.
       11   -1    0    0    0    0 -0.00000000000E+00 -0.00000000000E+00 -0.35740347158E-01  0.35744000000E-01  0.51099999109E-03 0. -1.
       22    1    1    2    0    0 -0.25475244057E-02 -0.34968607046E-02  0.35474154951E-01  0.35737005818E-01  0.00000000000E+00 0.  1.
  9000001    1    1    2    0    0  0.25475244057E-02  0.34968607046E-02 -0.35474154951E-01  0.35750994182E-01  0.10000000475E-02 0. -1.
</event>
<event>
 4   0  0.4892667E-02  0.9118800E+02  0.7818609E-02  0.1379984E+01
      -11   -1    0    0    0    0  0.00000000000E+00  0.00000000000E+00  0.35740347158E-01  0.35744000000E-01  0.51099999109E-03 0.  1.
       11   -1    0    0    0    0 -0.00000000000E+00 -0.00000000000E+00 -0.35740347158E-01  0.35744000000E-01  0.51099999109E-03 0. -1.
       22    1    1    2    0    0 -0.26639125563E-01 -0.26175546300E-02  0.23677816239E-01  0.35737005818E-01  0.00000000000E+00 0.  1.
  9000001    1    1    2    0    0  0.26639125563E-01  0.26175546300E-02 -0.23677816239E-01  0.35750994182E-01  0.10000000475E-02 0. -1.
</event>
<event>
 4   0  0.4892667E-02  0.9118800E+02  0.7818609E-02  0.1379984E+01
      -11   -1    0    0    0    0  0.00000000000E+00  0.00000000000E+00  0.35740347158E-01  0.35744000000E-01  0.51099999109E-03 0.  1.
       11   -1    0    0    0    0 -0.00000000000E+00 -0.00000000000E+00 -0.35740347158E-01  0.35744000000E-01  0.51099999109E-03 0. -1.
       22    1    1    2    0    0  0.11876563562E-02  0.19845261632E-01 -0.29696610042E-01  0.35737005818E-01  0.00000000000E+00 0. -1.
  9000001    1    1    2    0    0 -0.11876563562E-02 -0.19845261632E-01  0.29696610042E-01  0.35750994182E-01  0.10000000475E-02 0.  1.
</event>
<event>
 4   0  0.4892667E-02  0.9118800E+02  0.7818609E-02  0.1379984E+01
      -11   -1    0    0    0    0  0.00000000000E+00  0.00000000000E+00  0.35740347158E-01  0.35744000000E-01  0.51099999109E-03 0. -1.
       11   -1    0    0    0    0 -0.00000000000E+00 -0.00000000000E+00 -0.35740347158E-01  0.35744000000E-01  0.51099999109E-03 0.  1.
       22    1    1    2    0    0 -0.34509550137E-02 -0.13797784851E-01 -0.32784838379E-01  0.35737005818E-01  0.00000000000E+00 0.  1.
  9000001    1    1    2    0    0  0.34509550137E-02  0.13797784851E-01  0.32784838379E-01  0.35750994182E-01  0.10000000475E-02 0. -1.
</event>
<event>
 4   0  0.4892667E-02  0.9118800E+02  0.7818609E-02  0.1379984E+01
      -11   -1    0    0    0    0  0.00000000000E+00  0.00000000000E+00  0.35740347158E-01  0.35744000000E-01  0.51099999109E-03 0.  1.
       11   -1    0    0    0    0 -0.00000000000E+00 -0.00000000000E+00 -0.35740347158E-01  0.35744000000E-01  0.51099999109E-03 0. -1.
       22    1    1    2    0    0 -0.11124388244E-01  0.51709557230E-02 -0.33565499966E-01  0.35737005818E-01  0.00000000000E+00 0. -1.
  9000001    1    1    2    0    0  0.11124388244E-01 -0.51709557230E-02  0.33565499966E-01  0.35750994182E-01  0.10000000475E-02 0.  1.
</event>
<event>
 4   0  0.4892667E-02  0.9118800E+02  0.7818609E-02  0.1379984E+01
      -11   -1    0    0    0    0  0.00000000000E+00  0.00000000000E+00  0.35740347158E-01  0.35744000000E-01  0.51099999109E-03 0.  1.
       11   -1    0    0    0    0 -0.00000000000E+00 -0.00000000000E+00 -0.35740347158E-01  0.35744000000E-01  0.51099999109E-03 0. -1.
       22    1    1    2    0    0 -0.19170292720E-01  0.29776606228E-01  0.47944951223E-02  0.35737005818E-01  0.00000000000E+00 0.  1.
  9000001    1    1    2    0    0  0.19170292720E-01 -0.29776606228E-01 -0.47944951223E-02  0.35750994182E-01  0.10000000475E-02 0. -1.
</event>
<event>
 4   0  0.4892667E-02  0.9118800E+02  0.7818609E-02  0.1379984E+01
      -11   -1    0    0    0    0  0.00000000000E+00  0.00000000000E+00  0.35740347158E-01  0.35744000000E-01  0.51099999109E-03 0.  1.
       11   -1    0    0    0    0 -0.00000000000E+00 -0.00000000000E+00 -0.35740347158E-01  0.35744000000E-01  0.51099999109E-03 0. -1.
       22    1    1    2    0    0  0.81832154742E-02 -0.14669527452E-01 -0.31543201070E-01  0.35737005818E-01  0.00000000000E+00 0. -1.
  9000001    1    1    2    0    0 -0.81832154742E-02  0.14669527452E-01  0.31543201070E-01  0.35750994182E-01  0.10000000475E-02 0.  1.
</event>
<event>
 4   0  0.4892667E-02  0.9118800E+02  0.7818609E-02  0.1379984E+01
      -11   -1    0    0    0    0  0.00000000000E+00  0.00000000000E+00  0.35740347158E-01  0.35744000000E-01  0.51099999109E-03 0.  1.
       11   -1    0    0    0    0 -0.00000000000E+00 -0.00000000000E+00 -0.35740347158E-01  0.35744000000E-01  0.51099999109E-03 0. -1.
       22    1    1    2    0    0  0.17139321311E-01  0.13397364446E-02 -0.31330214747E-01  0.35737005818E-01  0.00000000000E+00 0. -1.
  9000001    1    1    2    0    0 -0.17139321311E-01 -0.13397364446E-02  0.31330214747E-01  0.35750994182E-01  0.10000000475E-02 0.  1.
</event>
<event>
 4   0  0.4892667E-02  0.9118800E+02  0.7818609E-02  0.1379984E+01
      -11   -1    0    0    0    0  0.00000000000E+00  0.00000000000E+00  0.35740347158E-01  0.35744000000E-01  0.51099999109E-03 0. -1.
       11   -1    0    0    0    0 -0.00000000000E+00 -0.00000000000E+00 -0.35740347158E-01  0.35744000000E-01  0.51099999109E-03 0.  1.
       22    1    1    2    0    0 -0.24278877188E-01  0.25024405039E-01  0.78389323138E-02  0.35737005818E-01  0.00000000000E+00 0. -1.
  9000001    1    1    2    0    0  0.24278877188E-01 -0.25024405039E-01 -0.78389323138E-02  0.35750994182E-01  0.10000000475E-02 0.  1.
</event>
<event>
 4   0  0.4892667E-02  0.9118800E+02  0.7818609E-02  0.1379984E+01
      -11   -1    0    0    0    0  0.00000000000E+00  0.00000000000E+00  0.35740347158E-01  0.35744000000E-01  0.51099999109E-03 0.  1.
       11   -1    0    0    0    0 -0.00000000000E+00 -0.00000000000E+00 -0.35740347158E-01  0.35744000000E-01  0.51099999109E-03 0. -1.
       22    1    1    2    0    0 -0.67267978849E-02  0.20447753870E-01  0.28526709182E-01  0.35737005818E-01  0.00000000000E+00 0.  1.
  9000001    1    1    2    0    0  0.67267978849E-02 -0.20447753870E-01 -0.28526709182E-01  0.35750994182E-01  0.10000000475E-02 0. -1.
</event>
<event>
 4   0  0.4892667E-02  0.9118800E+02  0.7818609E-02  0.1379984E+01
      -11   -1    0    0    0    0  0.00000000000E+00  0.00000000000E+00  0.35740347158E-01  0.35744000000E-01  0.51099999109E-03 0. -1.
       11   -1    0    0    0    0 -0.00000000000E+00 -0.00000000000E+00 -0.35740347158E-01  0.35744000000E-01  0.51099999109E-03 0.  1.
       22    1    1    2    0    0 -0.31209121972E-02  0.11708455836E-01 -0.33620017161E-01  0.35737005818E-01  0.00000000000E+00 0.  1.
  9000001    1    1    2    0    0  0.31209121972E-02 -0.11708455836E-01  0.33620017161E-01  0.35750994182E-01  0.10000000475E-02 0. -1.
</event>
<event>
 4   0  0.4892667E-02  0.9118800E+02  0.7818609E-02  0.1379984E+01
      -11   -1    0    0    0    0  0.00000000000E+00  0.00000000000E+00  0.35740347158E-01  0.35744000000E-01  0.51099999109E-03 0.  1.
       11   -1    0    0    0    0 -0.00000000000E+00 -0.00000000000E+00 -0.35740347158E-01  0.35744000000E-01  0.51099999109E-03 0. -1.
       22    1    1    2    0    0  0.17964548532E-01 -0.14036082601E-01  0.27520846029E-01  0.35737005818E-01  0.00000000000E+00 0.  1.
  9000001    1    1    2    0    0 -0.17964548532E-01  0.14036082601E-01 -0.27520846029E-01  0.35750994182E-01  0.10000000475E-02 0. -1.
</event>
<event>
 4   0  0.4892667E-02  0.9118800E+02  0.7818609E-02  0.1379984E+01
      -11   -1    0    0    0    0  0.00000000000E+00  0.00000000000E+00  0.35740347158E-01  0.35744000000E-01  0.51099999109E-03 0. -1.
       11   -1    0    0    0    0 -0.00000000000E+00 -0.00000000000E+00 -0.35740347158E-01  0.35744000000E-01  0.51099999109E-03 0.  1.
       22    1    1    2    0    0  0.23282455580E-01 -0.23028734485E-01 -0.14308676916E-01  0.35737005818E-01  0.00000000000E+00 0.  1.
  9000001    1    1    2    0    0 -0.23282455580E-01  0.23028734485E-01  0.14308676916E-01  0.35750994182E-01  0.10000000475E-02 0. -1.
</event>
<event>
 4   0  0.4892667E-02  0.9118800E+02  0.7818609E-02  0.1379984E+01
      -11   -1    0    0    0    0  0.00000000000E+00  0.00000000000E+00  0.35740347158E-01  0.35744000000E-01  0.51099999109E-03 0. -1.
       11   -1    0    0    0    0 -0.00000000000E+00 -0.00000000000E+00 -0.35740347158E-01  0.35744000000E-01  0.51099999109E-03 0.  1.
       22    1    1    2    0    0 -0.84732177580E-02  0.25061176007E-02 -0.34627410245E-01  0.35737005818E-01  0.00000000000E+00 0.  1.
  9000001    1    1    2    0    0  0.84732177580E-02 -0.25061176007E-02  0.34627410245E-01  0.35750994182E-01  0.10000000475E-02 0. -1.
</event>
<event>
 4   0  0.4892667E-02  0.9118800E+02  0.7818609E-02  0.1379984E+01
      -11   -1    0    0    0    0  0.00000000000E+00  0.00000000000E+00  0.35740347158E-01  0.35744000000E-01  0.51099999109E-03 0.  1.
       11   -1    0    0    0    0 -0.00000000000E+00 -0.00000000000E+00 -0.35740347158E-01  0.35744000000E-01  0.51099999109E-03 0. -1.
       22    1    1    2    0    0  0.14593954831E-01  0.84497639707E-02  0.31507960202E-01  0.35737005818E-01  0.00000000000E+00 0.  1.
  9000001    1    1    2    0    0 -0.14593954831E-01 -0.84497639707E-02 -0.31507960202E-01  0.35750994182E-01  0.10000000475E-02 0. -1.
</event>
<event>
 4   0  0.4892667E-02  0.9118800E+02  0.7818609E-02  0.1379984E+01
      -11   -1    0    0    0    0  0.00000000000E+00  0.00000000000E+00  0.35740347158E-01  0.35744000000E-01  0.51099999109E-03 0.  1.
       11   -1    0    0    0    0 -0.00000000000E+00 -0.00000000000E+00 -0.35740347158E-01  0.35744000000E-01  0.51099999109E-03 0. -1.
       22    1    1    2    0    0  0.15077382941E-01 -0.32216839388E-01 -0.34469360837E-02  0.35737005818E-01  0.00000000000E+00 0.  1.
  9000001    1    1    2    0    0 -0.15077382941E-01  0.32216839388E-01  0.34469360837E-02  0.35750994182E-01  0.10000000475E-02 0. -1.
</event>
<event>
 4   0  0.4892667E-02  0.9118800E+02  0.7818609E-02  0.1379984E+01
      -11   -1    0    0    0    0  0.00000000000E+00  0.00000000000E+00  0.35740347158E-01  0.35744000000E-01  0.51099999109E-03 0. -1.
       11   -1    0    0    0    0 -0.00000000000E+00 -0.00000000000E+00 -0.35740347158E-01  0.35744000000E-01  0.51099999109E-03 0.  1.
       22    1    1    2    0    0  0.71290536688E-02  0.26594030094E-01  0.22783058224E-01  0.35737005818E-01  0.00000000000E+00 0. -1.
  9000001    1    1    2    0    0 -0.71290536688E-02 -0.26594030094E-01 -0.22783058224E-01  0.35750994182E-01  0.10000000475E-02 0.  1.
</event>
<event>
 4   0  0.4892667E-02  0.9118800E+02  0.7818609E-02  0.1379984E+01
      -11   -1    0    0    0    0  0.00000000000E+00  0.00000000000E+00  0.35740347158E-01  0.35744000000E-01  0.51099999109E-03 0.  1.
       11   -1    0    0    0    0 -0.00000000000E+00 -0.00000000000E+00 -0.35740347158E-01  0.35744000000E-01  0.51099999109E-03 0. -1.
       22    1    1    2    0    0  0.29392001920E-01  0.11254841554E-01  0.16928447938E-01  0.35737005818E-01  0.00000000000E+00 0.  1.
  9000001    1    1    2    0    0 -0.29392001920E-01 -0.11254841554E-01 -0.16928447938E-01  0.35750994182E-01  0.10000000475E-02 0. -1.
</event>
<event>
 4   0  0.4892667E-02  0.9118800E+02  0.7818609E-02  0.1379984E+01
      -11   -1    0    0    0    0  0.00000000000E+00  0.00000000000E+00  0.35740347158E-01  0.35744000000E-01  0.51099999109E-03 0. -1.
       11   -1    0    0    0    0 -0.00000000000E+00 -0.00000000000E+00 -0.35740347158E-01  0.35744000000E-01  0.51099999109E-03 0.  1.
       22    1    1    2    0    0 -0.94702622219E-03 -0.80387586929E-02 -0.34808261733E-01  0.35737005818E-01  0.00000000000E+00 0.  1.
  9000001    1    1    2    0    0  0.94702622219E-03  0.80387586929E-02  0.34808261733E-01  0.35750994182E-01  0.10000000475E-02 0. -1.
</event>
<event>
 4   0  0.4892667E-02  0.9118800E+02  0.7818609E-02  0.1379984E+01
      -11   -1    0    0    0    0  0.00000000000E+00  0.00000000000E+00  0.35740347158E-01  0.35744000000E-01  0.51099999109E-03 0. -1.
       11   -1    0    0    0    0 -0.00000000000E+00 -0.00000000000E+00 -0.35740347158E-01  0.35744000000E-01  0.51099999109E-03 0.  1.
       22    1    1    2    0    0 -0.11819879316E-01 -0.14789168152E-01  0.30310139281E-01  0.35737005818E-01  0.00000000000E+00 0. -1.
  9000001    1    1    2    0    0  0.11819879316E-01  0.14789168152E-01 -0.30310139281E-01  0.35750994182E-01  0.10000000475E-02 0.  1.
</event>
<event>
 4   0  0.4892667E-02  0.9118800E+02  0.7818609E-02  0.1379984E+01
      -11   -1    0    0    0    0  0.00000000000E+00  0.00000000000E+00  0.35740347158E-01  0.35744000000E-01  0.51099999109E-03 0. -1.
       11   -1    0    0    0    0 -0.00000000000E+00 -0.00000000000E+00 -0.35740347158E-01  0.35744000000E-01  0.51099999109E-03 0.  1.
       22    1    1    2    0    0  0.23834301092E-01  0.12331220312E-02 -0.26599606884E-01  0.35737005818E-01  0.00000000000E+00 0.  1.
  9000001    1    1    2    0    0 -0.23834301092E-01 -0.12331220312E-02  0.26599606884E-01  0.35750994182E-01  0.10000000475E-02 0. -1.
</event>
<event>
 4   0  0.4892667E-02  0.9118800E+02  0.7818609E-02  0.1379984E+01
      -11   -1    0    0    0    0  0.00000000000E+00  0.00000000000E+00  0.35740347158E-01  0.35744000000E-01  0.51099999109E-03 0.  1.
       11   -1    0    0    0    0 -0.00000000000E+00 -0.00000000000E+00 -0.35740347158E-01  0.35744000000E-01  0.51099999109E-03 0. -1.
       22    1    1    2    0    0 -0.66617257616E-02  0.23475847422E-02 -0.35032040201E-01  0.35737005818E-01  0.00000000000E+00 0. -1.
  9000001    1    1    2    0    0  0.66617257616E-02 -0.23475847422E-02  0.35032040201E-01  0.35750994182E-01  0.10000000475E-02 0.  1.
</event>
<event>
 4   0  0.4892667E-02  0.9118800E+02  0.7818609E-02  0.1379984E+01
      -11   -1    0    0    0    0  0.00000000000E+00  0.00000000000E+00  0.35740347158E-01  0.35744000000E-01  0.51099999109E-03 0. -1.
       11   -1    0    0    0    0 -0.00000000000E+00 -0.00000000000E+00 -0.35740347158E-01  0.35744000000E-01  0.51099999109E-03 0.  1.
       22    1    1    2    0    0  0.77111873229E-02 -0.22395455537E-02 -0.34823205060E-01  0.35737005818E-01  0.00000000000E+00 0.  1.
  9000001    1    1    2    0    0 -0.77111873229E-02  0.22395455537E-02  0.34823205060E-01  0.35750994182E-01  0.10000000475E-02 0. -1.
</event>
<event>
 4   0  0.4892667E-02  0.9118800E+02  0.7818609E-02  0.1379984E+01
      -11   -1    0    0    0    0  0.00000000000E+00  0.00000000000E+00  0.35740347158E-01  0.35744000000E-01  0.51099999109E-03 0.  1.
       11   -1    0    0    0    0 -0.00000000000E+00 -0.00000000000E+00 -0.35740347158E-01  0.35744000000E-01  0.51099999109E-03 0. -1.
       22    1    1    2    0    0 -0.97222985675E-02 -0.20324532319E-01 -0.27740293463E-01  0.35737005818E-01  0.00000000000E+00 0. -1.
  9000001    1    1    2    0    0  0.97222985675E-02  0.20324532319E-01  0.27740293463E-01  0.35750994182E-01  0.10000000475E-02 0.  1.
</event>
<event>
 4   0  0.4892667E-02  0.9118800E+02  0.7818609E-02  0.1379984E+01
      -11   -1    0    0    0    0  0.00000000000E+00  0.00000000000E+00  0.35740347158E-01  0.35744000000E-01  0.51099999109E-03 0.  1.
       11   -1    0    0    0    0 -0.00000000000E+00 -0.00000000000E+00 -0.35740347158E-01  0.35744000000E-01  0.51099999109E-03 0. -1.
       22    1    1    2    0    0  0.16853712291E-01  0.19581519899E-01  0.24691092429E-01  0.35737005818E-01  0.00000000000E+00 0.  1.
  9000001    1    1    2    0    0 -0.16853712291E-01 -0.19581519899E-01 -0.24691092429E-01  0.35750994182E-01  0.10000000475E-02 0. -1.
</event>
<event>
 4   0  0.4892667E-02  0.9118800E+02  0.7818609E-02  0.1379984E+01
      -11   -1    0    0    0    0  0.00000000000E+00  0.00000000000E+00  0.35740347158E-01  0.35744000000E-01  0.51099999109E-03 0. -1.
       11   -1    0    0    0    0 -0.00000000000E+00 -0.00000000000E+00 -0.35740347158E-01  0.35744000000E-01  0.51099999109E-03 0.  1.
       22    1    1    2    0    0 -0.30682074565E-02  0.18530842386E-02  0.35556796350E-01  0.35737005818E-01  0.00000000000E+00 0. -1.
  9000001    1    1    2    0    0  0.30682074565E-02 -0.18530842386E-02 -0.35556796350E-01  0.35750994182E-01  0.10000000475E-02 0.  1.
</event>
<event>
 4   0  0.4892667E-02  0.9118800E+02  0.7818609E-02  0.1379984E+01
      -11   -1    0    0    0    0  0.00000000000E+00  0.00000000000E+00  0.35740347158E-01  0.35744000000E-01  0.51099999109E-03 0. -1.
       11   -1    0    0    0    0 -0.00000000000E+00 -0.00000000000E+00 -0.35740347158E-01  0.35744000000E-01  0.51099999109E-03 0.  1.
       22    1    1    2    0    0 -0.16408670715E-01 -0.16994861380E-01  0.26815364941E-01  0.35737005818E-01  0.00000000000E+00 0. -1.
  9000001    1    1    2    0    0  0.16408670715E-01  0.16994861380E-01 -0.26815364941E-01  0.35750994182E-01  0.10000000475E-02 0.  1.
</event>
<event>
 4   0  0.4892667E-02  0.9118800E+02  0.7818609E-02  0.1379984E+01
      -11   -1    0    0    0    0  0.00000000000E+00  0.00000000000E+00  0.35740347158E-01  0.35744000000E-01  0.51099999109E-03 0.  1.
       11   -1    0    0    0    0 -0.00000000000E+00 -0.00000000000E+00 -0.35740347158E-01  0.35744000000E-01  0.51099999109E-03 0. -1.
       22    1    1    2    0    0 -0.11585896766E-01 -0.32474183578E-01 -0.93982967589E-02  0.35737005818E-01  0.00000000000E+00 0. -1.
  9000001    1    1    2    0    0  0.11585896766E-01  0.32474183578E-01  0.93982967589E-02  0.35750994182E-01  0.10000000475E-02 0.  1.
</event>
<event>
 4   0  0.4892667E-02  0.9118800E+02  0.7818609E-02  0.1379984E+01
      -11   -1    0    0    0    0  0.00000000000E+00  0.00000000000E+00  0.35740347158E-01  0.35744000000E-01  0.51099999109E-03 0. -1.
       11   -1    0    0    0    0 -0.00000000000E+00 -0.00000000000E+00 -0.35740347158E-01  0.35744000000E-01  0.51099999109E-03 0.  1.
       22    1    1    2    0    0 -0.77831727680E-02  0.57799128813E-03  0.34874370713E-01  0.35737005818E-01  0.00000000000E+00 0. -1.
  9000001    1    1    2    0    0  0.77831727680E-02 -0.57799128813E-03 -0.34874370713E-01  0.35750994182E-01  0.10000000475E-02 0.  1.
</event>
<event>
 4   0  0.4892667E-02  0.9118800E+02  0.7818609E-02  0.1379984E+01
      -11   -1    0    0    0    0  0.00000000000E+00  0.00000000000E+00  0.35740347158E-01  0.35744000000E-01  0.51099999109E-03 0. -1.
       11   -1    0    0    0    0 -0.00000000000E+00 -0.00000000000E+00 -0.35740347158E-01  0.35744000000E-01  0.51099999109E-03 0.  1.
       22    1    1    2    0    0  0.24808392151E-01  0.25109344049E-01  0.55855264025E-02  0.35737005818E-01  0.00000000000E+00 0. -1.
  9000001    1    1    2    0    0 -0.24808392151E-01 -0.25109344049E-01 -0.55855264025E-02  0.35750994182E-01  0.10000000475E-02 0.  1.
</event>
<event>
 4   0  0.4892667E-02  0.9118800E+02  0.7818609E-02  0.1379984E+01
      -11   -1    0    0    0    0  0.00000000000E+00  0.00000000000E+00  0.35740347158E-01  0.35744000000E-01  0.51099999109E-03 0. -1.
       11   -1    0    0    0    0 -0.00000000000E+00 -0.00000000000E+00 -0.35740347158E-01  0.35744000000E-01  0.51099999109E-03 0.  1.
       22    1    1    2    0    0 -0.60384328121E-02 -0.15242518224E-02  0.35190162978E-01  0.35737005818E-01  0.00000000000E+00 0. -1.
  9000001    1    1    2    0    0  0.60384328121E-02  0.15242518224E-02 -0.35190162978E-01  0.35750994182E-01  0.10000000475E-02 0.  1.
</event>
<event>
 4   0  0.4892667E-02  0.9118800E+02  0.7818609E-02  0.1379984E+01
      -11   -1    0    0    0    0  0.00000000000E+00  0.00000000000E+00  0.35740347158E-01  0.35744000000E-01  0.51099999109E-03 0.  1.
       11   -1    0    0    0    0 -0.00000000000E+00 -0.00000000000E+00 -0.35740347158E-01  0.35744000000E-01  0.51099999109E-03 0. -1.
       22    1    1    2    0    0 -0.26684358162E-01  0.75162602433E-02  0.22551816918E-01  0.35737005818E-01  0.00000000000E+00 0.  1.
  9000001    1    1    2    0    0  0.26684358162E-01 -0.75162602433E-02 -0.22551816918E-01  0.35750994182E-01  0.10000000475E-02 0. -1.
</event>
<event>
 4   0  0.4892667E-02  0.9118800E+02  0.7818609E-02  0.1379984E+01
      -11   -1    0    0    0    0  0.00000000000E+00  0.00000000000E+00  0.35740347158E-01  0.35744000000E-01  0.51099999109E-03 0. -1.
       11   -1    0    0    0    0 -0.00000000000E+00 -0.00000000000E+00 -0.35740347158E-01  0.35744000000E-01  0.51099999109E-03 0.  1.
       22    1    1    2    0    0 -0.32822141864E-01  0.40519205616E-02  0.13543357342E-01  0.35737005818E-01  0.00000000000E+00 0. -1.
  9000001    1    1    2    0    0  0.32822141864E-01 -0.40519205616E-02 -0.13543357342E-01  0.35750994182E-01  0.10000000475E-02 0.  1.
</event>
<event>
 4   0  0.4892667E-02  0.9118800E+02  0.7818609E-02  0.1379984E+01
      -11   -1    0    0    0    0  0.00000000000E+00  0.00000000000E+00  0.35740347158E-01  0.35744000000E-01  0.51099999109E-03 0.  1.
       11   -1    0    0    0    0 -0.00000000000E+00 -0.00000000000E+00 -0.35740347158E-01  0.35744000000E-01  0.51099999109E-03 0. -1.
       22    1    1    2    0    0  0.86861171576E-02 -0.21825860580E-01  0.26931705544E-01  0.35737005818E-01  0.00000000000E+00 0.  1.
  9000001    1    1    2    0    0 -0.86861171576E-02  0.21825860580E-01 -0.26931705544E-01  0.35750994182E-01  0.10000000475E-02 0. -1.
</event>
<event>
 4   0  0.4892667E-02  0.9118800E+02  0.7818609E-02  0.1379984E+01
      -11   -1    0    0    0    0  0.00000000000E+00  0.00000000000E+00  0.35740347158E-01  0.35744000000E-01  0.51099999109E-03 0.  1.
       11   -1    0    0    0    0 -0.00000000000E+00 -0.00000000000E+00 -0.35740347158E-01  0.35744000000E-01  0.51099999109E-03 0. -1.
       22    1    1    2    0    0 -0.15605110909E-01  0.28664462334E-01 -0.14558938748E-01  0.35737005818E-01  0.00000000000E+00 0. -1.
  9000001    1    1    2    0    0  0.15605110909E-01 -0.28664462334E-01  0.14558938748E-01  0.35750994182E-01  0.10000000475E-02 0.  1.
</event>
<event>
 4   0  0.4892667E-02  0.9118800E+02  0.7818609E-02  0.1379984E+01
      -11   -1    0    0    0    0  0.00000000000E+00  0.00000000000E+00  0.35740347158E-01  0.35744000000E-01  0.51099999109E-03 0.  1.
       11   -1    0    0    0    0 -0.00000000000E+00 -0.00000000000E+00 -0.35740347158E-01  0.35744000000E-01  0.51099999109E-03 0. -1.
       22    1    1    2    0    0 -0.34340069952E-01  0.34176625931E-02 -0.92850828211E-02  0.35737005818E-01  0.00000000000E+00 0. -1.
  9000001    1    1    2    0    0  0.34340069952E-01 -0.34176625931E-02  0.92850828211E-02  0.35750994182E-01  0.10000000475E-02 0.  1.
</event>
<event>
 4   0  0.4892667E-02  0.9118800E+02  0.7818609E-02  0.1379984E+01
      -11   -1    0    0    0    0  0.00000000000E+00  0.00000000000E+00  0.35740347158E-01  0.35744000000E-01  0.51099999109E-03 0. -1.
       11   -1    0    0    0    0 -0.00000000000E+00 -0.00000000000E+00 -0.35740347158E-01  0.35744000000E-01  0.51099999109E-03 0.  1.
       22    1    1    2    0    0  0.58015109866E-02 -0.51079906325E-02 -0.34891037343E-01  0.35737005818E-01  0.00000000000E+00 0.  1.
  9000001    1    1    2    0    0 -0.58015109866E-02  0.51079906325E-02  0.34891037343E-01  0.35750994182E-01  0.10000000475E-02 0. -1.
</event>
<event>
 4   0  0.4892667E-02  0.9118800E+02  0.7818609E-02  0.1379984E+01
      -11   -1    0    0    0    0  0.00000000000E+00  0.00000000000E+00  0.35740347158E-01  0.35744000000E-01  0.51099999109E-03 0.  1.
       11   -1    0    0    0    0 -0.00000000000E+00 -0.00000000000E+00 -0.35740347158E-01  0.35744000000E-01  0.51099999109E-03 0. -1.
       22    1    1    2    0    0  0.57783660534E-02  0.46216955439E-02  0.34962608612E-01  0.35737005818E-01  0.00000000000E+00 0.  1.
  9000001    1    1    2    0    0 -0.57783660534E-02 -0.46216955439E-02 -0.34962608612E-01  0.35750994182E-01  0.10000000475E-02 0. -1.
</event>
<event>
 4   0  0.4892667E-02  0.9118800E+02  0.7818609E-02  0.1379984E+01
      -11   -1    0    0    0    0  0.00000000000E+00  0.00000000000E+00  0.35740347158E-01  0.35744000000E-01  0.51099999109E-03 0. -1.
       11   -1    0    0    0    0 -0.00000000000E+00 -0.00000000000E+00 -0.35740347158E-01  0.35744000000E-01  0.51099999109E-03 0.  1.
       22    1    1    2    0    0 -0.13178825855E-02 -0.31042816268E-02  0.35577523887E-01  0.35737005818E-01  0.00000000000E+00 0. -1.
  9000001    1    1    2    0    0  0.13178825855E-02  0.31042816268E-02 -0.35577523887E-01  0.35750994182E-01  0.10000000475E-02 0.  1.
</event>
<event>
 4   0  0.4892667E-02  0.9118800E+02  0.7818609E-02  0.1379984E+01
      -11   -1    0    0    0    0  0.00000000000E+00  0.00000000000E+00  0.35740347158E-01  0.35744000000E-01  0.51099999109E-03 0.  1.
       11   -1    0    0    0    0 -0.00000000000E+00 -0.00000000000E+00 -0.35740347158E-01  0.35744000000E-01  0.51099999109E-03 0. -1.
       22    1    1    2    0    0 -0.52615307496E-03 -0.40777641091E-02 -0.35499698417E-01  0.35737005818E-01  0.00000000000E+00 0. -1.
  9000001    1    1    2    0    0  0.52615307496E-03  0.40777641091E-02  0.35499698417E-01  0.35750994182E-01  0.10000000475E-02 0.  1.
</event>
<event>
 4   0  0.4892667E-02  0.9118800E+02  0.7818609E-02  0.1379984E+01
      -11   -1    0    0    0    0  0.00000000000E+00  0.00000000000E+00  0.35740347158E-01  0.35744000000E-01  0.51099999109E-03 0. -1.
       11   -1    0    0    0    0 -0.00000000000E+00 -0.00000000000E+00 -0.35740347158E-01  0.35744000000E-01  0.51099999109E-03 0.  1.
       22    1    1    2    0    0 -0.37554449643E-02 -0.88289238234E-03 -0.35528167966E-01  0.35737005818E-01  0.00000000000E+00 0.  1.
  9000001    1    1    2    0    0  0.37554449643E-02  0.88289238234E-03  0.35528167966E-01  0.35750994182E-01  0.10000000475E-02 0. -1.
</event>
<event>
 4   0  0.4892667E-02  0.9118800E+02  0.7818609E-02  0.1379984E+01
      -11   -1    0    0    0    0  0.00000000000E+00  0.00000000000E+00  0.35740347158E-01  0.35744000000E-01  0.51099999109E-03 0.  1.
       11   -1    0    0    0    0 -0.00000000000E+00 -0.00000000000E+00 -0.35740347158E-01  0.35744000000E-01  0.51099999109E-03 0. -1.
       22    1    1    2    0    0  0.62747649512E-02  0.91713641443E-02  0.33965379277E-01  0.35737005818E-01  0.00000000000E+00 0.  1.
  9000001    1    1    2    0    0 -0.62747649512E-02 -0.91713641443E-02 -0.33965379277E-01  0.35750994182E-01  0.10000000475E-02 0. -1.
</event>
<event>
 4   0  0.4892667E-02  0.9118800E+02  0.7818609E-02  0.1379984E+01
      -11   -1    0    0    0    0  0.00000000000E+00  0.00000000000E+00  0.35740347158E-01  0.35744000000E-01  0.51099999109E-03 0.  1.
       11   -1    0    0    0    0 -0.00000000000E+00 -0.00000000000E+00 -0.35740347158E-01  0.35744000000E-01  0.51099999109E-03 0. -1.
       22    1    1    2    0    0  0.18833859129E-01  0.93431021591E-02  0.28898542822E-01  0.35737005818E-01  0.00000000000E+00 0.  1.
  9000001    1    1    2    0    0 -0.18833859129E-01 -0.93431021591E-02 -0.28898542822E-01  0.35750994182E-01  0.10000000475E-02 0. -1.
</event>
<event>
 4   0  0.4892667E-02  0.9118800E+02  0.7818609E-02  0.1379984E+01
      -11   -1    0    0    0    0  0.00000000000E+00  0.00000000000E+00  0.35740347158E-01  0.35744000000E-01  0.51099999109E-03 0.  1.
       11   -1    0    0    0    0 -0.00000000000E+00 -0.00000000000E+00 -0.35740347158E-01  0.35744000000E-01  0.51099999109E-03 0. -1.
       22    1    1    2    0    0  0.24910754614E-01 -0.13509370786E-01 -0.21773488246E-01  0.35737005818E-01  0.00000000000E+00 0. -1.
  9000001    1    1    2    0    0 -0.24910754614E-01  0.13509370786E-01  0.21773488246E-01  0.35750994182E-01  0.10000000475E-02 0.  1.
</event>
<event>
 4   0  0.4892667E-02  0.9118800E+02  0.7818609E-02  0.1379984E+01
      -11   -1    0    0    0    0  0.00000000000E+00  0.00000000000E+00  0.35740347158E-01  0.35744000000E-01  0.51099999109E-03 0. -1.
       11   -1    0    0    0    0 -0.00000000000E+00 -0.00000000000E+00 -0.35740347158E-01  0.35744000000E-01  0.51099999109E-03 0.  1.
       22    1    1    2    0    0  0.11585190954E-02 -0.49701973849E-02  0.35370730221E-01  0.35737005818E-01  0.00000000000E+00 0. -1.
  9000001    1    1    2    0    0 -0.11585190954E-02  0.49701973849E-02 -0.35370730221E-01  0.35750994182E-01  0.10000000475E-02 0.  1.
</event>
<event>
 4   0  0.4892667E-02  0.9118800E+02  0.7818609E-02  0.1379984E+01
      -11   -1    0    0    0    0  0.00000000000E+00  0.00000000000E+00  0.35740347158E-01  0.35744000000E-01  0.51099999109E-03 0. -1.
       11   -1    0    0    0    0 -0.00000000000E+00 -0.00000000000E+00 -0.35740347158E-01  0.35744000000E-01  0.51099999109E-03 0.  1.
       22    1    1    2    0    0  0.26158261027E-01  0.86739842996E-02 -0.22751724359E-01  0.35737005818E-01  0.00000000000E+00 0.  1.
  9000001    1    1    2    0    0 -0.26158261027E-01 -0.86739842996E-02  0.22751724359E-01  0.35750994182E-01  0.10000000475E-02 0. -1.
</event>
<event>
 4   0  0.4892667E-02  0.9118800E+02  0.7818609E-02  0.1379984E+01
      -11   -1    0    0    0    0  0.00000000000E+00  0.00000000000E+00  0.35740347158E-01  0.35744000000E-01  0.51099999109E-03 0.  1.
       11   -1    0    0    0    0 -0.00000000000E+00 -0.00000000000E+00 -0.35740347158E-01  0.35744000000E-01  0.51099999109E-03 0. -1.
       22    1    1    2    0    0  0.78710436076E-02  0.64759789193E-02 -0.34252619673E-01  0.35737005818E-01  0.00000000000E+00 0. -1.
  9000001    1    1    2    0    0 -0.78710436076E-02 -0.64759789193E-02  0.34252619673E-01  0.35750994182E-01  0.10000000475E-02 0.  1.
</event>
<event>
 4   0  0.4892667E-02  0.9118800E+02  0.7818609E-02  0.1379984E+01
      -11   -1    0    0    0    0  0.00000000000E+00  0.00000000000E+00  0.35740347158E-01  0.35744000000E-01  0.51099999109E-03 0. -1.
       11   -1    0    0    0    0 -0.00000000000E+00 -0.00000000000E+00 -0.35740347158E-01  0.35744000000E-01  0.51099999109E-03 0.  1.
       22    1    1    2    0    0  0.32549471825E-01 -0.13788223225E-01  0.52488445487E-02  0.35737005818E-01  0.00000000000E+00 0.  1.
  9000001    1    1    2    0    0 -0.32549471825E-01  0.13788223225E-01 -0.52488445487E-02  0.35750994182E-01  0.10000000475E-02 0. -1.
</event>
<event>
 4   0  0.4892667E-02  0.9118800E+02  0.7818609E-02  0.1379984E+01
      -11   -1    0    0    0    0  0.00000000000E+00  0.00000000000E+00  0.35740347158E-01  0.35744000000E-01  0.51099999109E-03 0. -1.
       11   -1    0    0    0    0 -0.00000000000E+00 -0.00000000000E+00 -0.35740347158E-01  0.35744000000E-01  0.51099999109E-03 0.  1.
       22    1    1    2    0    0 -0.94019346154E-02 -0.25290293286E-03 -0.34477140984E-01  0.35737005818E-01  0.00000000000E+00 0.  1.
  9000001    1    1    2    0    0  0.94019346154E-02  0.25290293286E-03  0.34477140984E-01  0.35750994182E-01  0.10000000475E-02 0. -1.
</event>
<event>
 4   0  0.4892667E-02  0.9118800E+02  0.7818609E-02  0.1379984E+01
      -11   -1    0    0    0    0  0.00000000000E+00  0.00000000000E+00  0.35740347158E-01  0.35744000000E-01  0.51099999109E-03 0.  1.
       11   -1    0    0    0    0 -0.00000000000E+00 -0.00000000000E+00 -0.35740347158E-01  0.35744000000E-01  0.51099999109E-03 0. -1.
       22    1    1    2    0    0  0.47465294386E-02 -0.17987364966E-03 -0.35419933493E-01  0.35737005818E-01  0.00000000000E+00 0. -1.
  9000001    1    1    2    0    0 -0.47465294386E-02  0.17987364966E-03  0.35419933493E-01  0.35750994182E-01  0.10000000475E-02 0.  1.
</event>
<event>
 4   0  0.4892667E-02  0.9118800E+02  0.7818609E-02  0.1379984E+01
      -11   -1    0    0    0    0  0.00000000000E+00  0.00000000000E+00  0.35740347158E-01  0.35744000000E-01  0.51099999109E-03 0.  1.
       11   -1    0    0    0    0 -0.00000000000E+00 -0.00000000000E+00 -0.35740347158E-01  0.35744000000E-01  0.51099999109E-03 0. -1.
       22    1    1    2    0    0 -0.40227940246E-02  0.71212402846E-02  0.34788484444E-01  0.35737005818E-01  0.00000000000E+00 0.  1.
  9000001    1    1    2    0    0  0.40227940246E-02 -0.71212402846E-02 -0.34788484444E-01  0.35750994182E-01  0.10000000475E-02 0. -1.
</event>
<event>
 4   0  0.4892667E-02  0.9118800E+02  0.7818609E-02  0.1379984E+01
      -11   -1    0    0    0    0  0.00000000000E+00  0.00000000000E+00  0.35740347158E-01  0.35744000000E-01  0.51099999109E-03 0. -1.
       11   -1    0    0    0    0 -0.00000000000E+00 -0.00000000000E+00 -0.35740347158E-01  0.35744000000E-01  0.51099999109E-03 0.  1.
       22    1    1    2    0    0  0.17648709562E-01 -0.15201335976E-01 -0.27103062931E-01  0.35737005818E-01  0.00000000000E+00 0.  1.
  9000001    1    1    2    0    0 -0.17648709562E-01  0.15201335976E-01  0.27103062931E-01  0.35750994182E-01  0.10000000475E-02 0. -1.
</event>
<event>
 4   0  0.4892667E-02  0.9118800E+02  0.7818609E-02  0.1379984E+01
      -11   -1    0    0    0    0  0.00000000000E+00  0.00000000000E+00  0.35740347158E-01  0.35744000000E-01  0.51099999109E-03 0. -1.
       11   -1    0    0    0    0 -0.00000000000E+00 -0.00000000000E+00 -0.35740347158E-01  0.35744000000E-01  0.51099999109E-03 0.  1.
       22    1    1    2    0    0  0.25062435875E-02 -0.17329964720E-01  0.31153244626E-01  0.35737005818E-01  0.00000000000E+00 0. -1.
  9000001    1    1    2    0    0 -0.25062435875E-02  0.17329964720E-01 -0.31153244626E-01  0.35750994182E-01  0.10000000475E-02 0.  1.
</event>
<event>
 4   0  0.4892667E-02  0.9118800E+02  0.7818609E-02  0.1379984E+01
      -11   -1    0    0    0    0  0.00000000000E+00  0.00000000000E+00  0.35740347158E-01  0.35744000000E-01  0.51099999109E-03 0. -1.
       11   -1    0    0    0    0 -0.00000000000E+00 -0.00000000000E+00 -0.35740347158E-01  0.35744000000E-01  0.51099999109E-03 0.  1.
       22    1    1    2    0    0 -0.29372949615E-01 -0.19961184464E-01  0.39893020164E-02  0.35737005818E-01  0.00000000000E+00 0.  1.
  9000001    1    1    2    0    0  0.29372949615E-01  0.19961184464E-01 -0.39893020164E-02  0.35750994182E-01  0.10000000475E-02 0. -1.
</event>
<event>
 4   0  0.4892667E-02  0.9118800E+02  0.7818609E-02  0.1379984E+01
      -11   -1    0    0    0    0  0.00000000000E+00  0.00000000000E+00  0.35740347158E-01  0.35744000000E-01  0.51099999109E-03 0.  1.
       11   -1    0    0    0    0 -0.00000000000E+00 -0.00000000000E+00 -0.35740347158E-01  0.35744000000E-01  0.51099999109E-03 0. -1.
       22    1    1    2    0    0  0.29218482024E-01 -0.17893161874E-01  0.10161134348E-01  0.35737005818E-01  0.00000000000E+00 0.  1.
  9000001    1    1    2    0    0 -0.29218482024E-01  0.17893161874E-01 -0.10161134348E-01  0.35750994182E-01  0.10000000475E-02 0. -1.
</event>
<event>
 4   0  0.4892667E-02  0.9118800E+02  0.7818609E-02  0.1379984E+01
      -11   -1    0    0    0    0  0.00000000000E+00  0.00000000000E+00  0.35740347158E-01  0.35744000000E-01  0.51099999109E-03 0. -1.
       11   -1    0    0    0    0 -0.00000000000E+00 -0.00000000000E+00 -0.35740347158E-01  0.35744000000E-01  0.51099999109E-03 0.  1.
       22    1    1    2    0    0  0.58307335344E-02  0.13957731650E-02 -0.35230497422E-01  0.35737005818E-01  0.00000000000E+00 0.  1.
  9000001    1    1    2    0    0 -0.58307335344E-02 -0.13957731650E-02  0.35230497422E-01  0.35750994182E-01  0.10000000475E-02 0. -1.
</event>
<event>
 4   0  0.4892667E-02  0.9118800E+02  0.7818609E-02  0.1379984E+01
      -11   -1    0    0    0    0  0.00000000000E+00  0.00000000000E+00  0.35740347158E-01  0.35744000000E-01  0.51099999109E-03 0.  1.
       11   -1    0    0    0    0 -0.00000000000E+00 -0.00000000000E+00 -0.35740347158E-01  0.35744000000E-01  0.51099999109E-03 0. -1.
       22    1    1    2    0    0 -0.20526476772E-02 -0.30791179527E-01  0.18022860087E-01  0.35737005818E-01  0.00000000000E+00 0.  1.
  9000001    1    1    2    0    0  0.20526476772E-02  0.30791179527E-01 -0.18022860087E-01  0.35750994182E-01  0.10000000475E-02 0. -1.
</event>
<event>
 4   0  0.4892667E-02  0.9118800E+02  0.7818609E-02  0.1379984E+01
      -11   -1    0    0    0    0  0.00000000000E+00  0.00000000000E+00  0.35740347158E-01  0.35744000000E-01  0.51099999109E-03 0.  1.
       11   -1    0    0    0    0 -0.00000000000E+00 -0.00000000000E+00 -0.35740347158E-01  0.35744000000E-01  0.51099999109E-03 0. -1.
       22    1    1    2    0    0  0.38132021095E-02 -0.11040929505E-03 -0.35532814191E-01  0.35737005818E-01  0.00000000000E+00 0. -1.
  9000001    1    1    2    0    0 -0.38132021095E-02  0.11040929505E-03  0.35532814191E-01  0.35750994182E-01  0.10000000475E-02 0.  1.
</event>
<event>
 4   0  0.4892667E-02  0.9118800E+02  0.7818609E-02  0.1379984E+01
      -11   -1    0    0    0    0  0.00000000000E+00  0.00000000000E+00  0.35740347158E-01  0.35744000000E-01  0.51099999109E-03 0. -1.
       11   -1    0    0    0    0 -0.00000000000E+00 -0.00000000000E+00 -0.35740347158E-01  0.35744000000E-01  0.51099999109E-03 0.  1.
       22    1    1    2    0    0  0.51145625725E-02  0.13986089656E-02  0.35341459046E-01  0.35737005818E-01  0.00000000000E+00 0. -1.
  9000001    1    1    2    0    0 -0.51145625725E-02 -0.13986089656E-02 -0.35341459046E-01  0.35750994182E-01  0.10000000475E-02 0.  1.
</event>
<event>
 4   0  0.4892667E-02  0.9118800E+02  0.7818609E-02  0.1379984E+01
      -11   -1    0    0    0    0  0.00000000000E+00  0.00000000000E+00  0.35740347158E-01  0.35744000000E-01  0.51099999109E-03 0. -1.
       11   -1    0    0    0    0 -0.00000000000E+00 -0.00000000000E+00 -0.35740347158E-01  0.35744000000E-01  0.51099999109E-03 0.  1.
       22    1    1    2    0    0  0.83529363411E-02  0.23480119073E-02  0.34667692156E-01  0.35737005818E-01  0.00000000000E+00 0. -1.
  9000001    1    1    2    0    0 -0.83529363411E-02 -0.23480119073E-02 -0.34667692156E-01  0.35750994182E-01  0.10000000475E-02 0.  1.
</event>
<event>
 4   0  0.4892667E-02  0.9118800E+02  0.7818609E-02  0.1379984E+01
      -11   -1    0    0    0    0  0.00000000000E+00  0.00000000000E+00  0.35740347158E-01  0.35744000000E-01  0.51099999109E-03 0. -1.
       11   -1    0    0    0    0 -0.00000000000E+00 -0.00000000000E+00 -0.35740347158E-01  0.35744000000E-01  0.51099999109E-03 0.  1.
       22    1    1    2    0    0  0.31380080824E-02  0.26584043997E-02  0.35499568676E-01  0.35737005818E-01  0.00000000000E+00 0. -1.
  9000001    1    1    2    0    0 -0.31380080824E-02 -0.26584043997E-02 -0.35499568676E-01  0.35750994182E-01  0.10000000475E-02 0.  1.
</event>
<event>
 4   0  0.4892667E-02  0.9118800E+02  0.7818609E-02  0.1379984E+01
      -11   -1    0    0    0    0  0.00000000000E+00  0.00000000000E+00  0.35740347158E-01  0.35744000000E-01  0.51099999109E-03 0.  1.
       11   -1    0    0    0    0 -0.00000000000E+00 -0.00000000000E+00 -0.35740347158E-01  0.35744000000E-01  0.51099999109E-03 0. -1.
       22    1    1    2    0    0 -0.23149650667E-01  0.24630239852E-01 -0.11600799271E-01  0.35737005818E-01  0.00000000000E+00 0. -1.
  9000001    1    1    2    0    0  0.23149650667E-01 -0.24630239852E-01  0.11600799271E-01  0.35750994182E-01  0.10000000475E-02 0.  1.
</event>
<event>
 4   0  0.4892667E-02  0.9118800E+02  0.7818609E-02  0.1379984E+01
      -11   -1    0    0    0    0  0.00000000000E+00  0.00000000000E+00  0.35740347158E-01  0.35744000000E-01  0.51099999109E-03 0. -1.
       11   -1    0    0    0    0 -0.00000000000E+00 -0.00000000000E+00 -0.35740347158E-01  0.35744000000E-01  0.51099999109E-03 0.  1.
       22    1    1    2    0    0  0.53417713709E-03  0.49117239667E-02 -0.35393830074E-01  0.35737005818E-01  0.00000000000E+00 0.  1.
  9000001    1    1    2    0    0 -0.53417713709E-03 -0.49117239667E-02  0.35393830074E-01  0.35750994182E-01  0.10000000475E-02 0. -1.
</event>
<event>
 4   0  0.4892667E-02  0.9118800E+02  0.7818609E-02  0.1379984E+01
      -11   -1    0    0    0    0  0.00000000000E+00  0.00000000000E+00  0.35740347158E-01  0.35744000000E-01  0.51099999109E-03 0.  1.
       11   -1    0    0    0    0 -0.00000000000E+00 -0.00000000000E+00 -0.35740347158E-01  0.35744000000E-01  0.51099999109E-03 0. -1.
       22    1    1    2    0    0  0.26328100749E-02 -0.34859504675E-02  0.35469001189E-01  0.35737005818E-01  0.00000000000E+00 0.  1.
  9000001    1    1    2    0    0 -0.26328100749E-02  0.34859504675E-02 -0.35469001189E-01  0.35750994182E-01  0.10000000475E-02 0. -1.
</event>
<event>
 4   0  0.4892667E-02  0.9118800E+02  0.7818609E-02  0.1379984E+01
      -11   -1    0    0    0    0  0.00000000000E+00  0.00000000000E+00  0.35740347158E-01  0.35744000000E-01  0.51099999109E-03 0. -1.
       11   -1    0    0    0    0 -0.00000000000E+00 -0.00000000000E+00 -0.35740347158E-01  0.35744000000E-01  0.51099999109E-03 0.  1.
       22    1    1    2    0    0  0.98746244165E-02 -0.32893534881E-01 -0.98813329318E-02  0.35737005818E-01  0.00000000000E+00 0.  1.
  9000001    1    1    2    0    0 -0.98746244165E-02  0.32893534881E-01  0.98813329318E-02  0.35750994182E-01  0.10000000475E-02 0. -1.
</event>
<event>
 4   0  0.4892667E-02  0.9118800E+02  0.7818609E-02  0.1379984E+01
      -11   -1    0    0    0    0  0.00000000000E+00  0.00000000000E+00  0.35740347158E-01  0.35744000000E-01  0.51099999109E-03 0.  1.
       11   -1    0    0    0    0 -0.00000000000E+00 -0.00000000000E+00 -0.35740347158E-01  0.35744000000E-01  0.51099999109E-03 0. -1.
       22    1    1    2    0    0  0.29371508497E-02  0.20282679348E-01 -0.29276605818E-01  0.35737005818E-01  0.00000000000E+00 0. -1.
  9000001    1    1    2    0    0 -0.29371508497E-02 -0.20282679348E-01  0.29276605818E-01  0.35750994182E-01  0.10000000475E-02 0.  1.
</event>
<event>
 4   0  0.4892667E-02  0.9118800E+02  0.7818609E-02  0.1379984E+01
      -11   -1    0    0    0    0  0.00000000000E+00  0.00000000000E+00  0.35740347158E-01  0.35744000000E-01  0.51099999109E-03 0.  1.
       11   -1    0    0    0    0 -0.00000000000E+00 -0.00000000000E+00 -0.35740347158E-01  0.35744000000E-01  0.51099999109E-03 0. -1.
       22    1    1    2    0    0  0.22711618494E-01  0.24398301591E-01 -0.12885606300E-01  0.35737005818E-01  0.00000000000E+00 0. -1.
  9000001    1    1    2    0    0 -0.22711618494E-01 -0.24398301591E-01  0.12885606300E-01  0.35750994182E-01  0.10000000475E-02 0.  1.
</event>
<event>
 4   0  0.4892667E-02  0.9118800E+02  0.7818609E-02  0.1379984E+01
      -11   -1    0    0    0    0  0.00000000000E+00  0.00000000000E+00  0.35740347158E-01  0.35744000000E-01  0.51099999109E-03 0.  1.
       11   -1    0    0    0    0 -0.00000000000E+00 -0.00000000000E+00 -0.35740347158E-01  0.35744000000E-01  0.51099999109E-03 0. -1.
       22    1    1    2    0    0 -0.98132012857E-02  0.84776497853E-03  0.34352815895E-01  0.35737005818E-01  0.00000000000E+00 0.  1.
  9000001    1    1    2    0    0  0.98132012857E-02 -0.84776497853E-03 -0.34352815895E-01  0.35750994182E-01  0.10000000475E-02 0. -1.
</event>
<event>
 4   0  0.4892667E-02  0.9118800E+02  0.7818609E-02  0.1379984E+01
      -11   -1    0    0    0    0  0.00000000000E+00  0.00000000000E+00  0.35740347158E-01  0.35744000000E-01  0.51099999109E-03 0.  1.
       11   -1    0    0    0    0 -0.00000000000E+00 -0.00000000000E+00 -0.35740347158E-01  0.35744000000E-01  0.51099999109E-03 0. -1.
       22    1    1    2    0    0  0.16117028812E-01 -0.19152748470E-01  0.25505826651E-01  0.35737005818E-01  0.00000000000E+00 0.  1.
  9000001    1    1    2    0    0 -0.16117028812E-01  0.19152748470E-01 -0.25505826651E-01  0.35750994182E-01  0.10000000475E-02 0. -1.
</event>
<event>
 4   0  0.4892667E-02  0.9118800E+02  0.7818609E-02  0.1379984E+01
      -11   -1    0    0    0    0  0.00000000000E+00  0.00000000000E+00  0.35740347158E-01  0.35744000000E-01  0.51099999109E-03 0.  1.
       11   -1    0    0    0    0 -0.00000000000E+00 -0.00000000000E+00 -0.35740347158E-01  0.35744000000E-01  0.51099999109E-03 0. -1.
       22    1    1    2    0    0 -0.18682543437E-01  0.27448602422E-01 -0.13216292244E-01  0.35737005818E-01  0.00000000000E+00 0. -1.
  9000001    1    1    2    0    0  0.18682543437E-01 -0.27448602422E-01  0.13216292244E-01  0.35750994182E-01  0.10000000475E-02 0.  1.
</event>
<event>
 4   0  0.4892667E-02  0.9118800E+02  0.7818609E-02  0.1379984E+01
      -11   -1    0    0    0    0  0.00000000000E+00  0.00000000000E+00  0.35740347158E-01  0.35744000000E-01  0.51099999109E-03 0.  1.
       11   -1    0    0    0    0 -0.00000000000E+00 -0.00000000000E+00 -0.35740347158E-01  0.35744000000E-01  0.51099999109E-03 0. -1.
       22    1    1    2    0    0  0.36942181891E-02 -0.48325312913E-02  0.35215521836E-01  0.35737005818E-01  0.00000000000E+00 0.  1.
  9000001    1    1    2    0    0 -0.36942181891E-02  0.48325312913E-02 -0.35215521836E-01  0.35750994182E-01  0.10000000475E-02 0. -1.
</event>
<event>
 4   0  0.4892667E-02  0.9118800E+02  0.7818609E-02  0.1379984E+01
      -11   -1    0    0    0    0  0.00000000000E+00  0.00000000000E+00  0.35740347158E-01  0.35744000000E-01  0.51099999109E-03 0. -1.
       11   -1    0    0    0    0 -0.00000000000E+00 -0.00000000000E+00 -0.35740347158E-01  0.35744000000E-01  0.51099999109E-03 0.  1.
       22    1    1    2    0    0  0.99928827428E-02  0.13693683996E-01 -0.31460433849E-01  0.35737005818E-01  0.00000000000E+00 0.  1.
  9000001    1    1    2    0    0 -0.99928827428E-02 -0.13693683996E-01  0.31460433849E-01  0.35750994182E-01  0.10000000475E-02 0. -1.
</event>
<event>
 4   0  0.4892667E-02  0.9118800E+02  0.7818609E-02  0.1379984E+01
      -11   -1    0    0    0    0  0.00000000000E+00  0.00000000000E+00  0.35740347158E-01  0.35744000000E-01  0.51099999109E-03 0.  1.
       11   -1    0    0    0    0 -0.00000000000E+00 -0.00000000000E+00 -0.35740347158E-01  0.35744000000E-01  0.51099999109E-03 0. -1.
       22    1    1    2    0    0 -0.13217963853E-02  0.35123308767E-02 -0.35539414331E-01  0.35737005818E-01  0.00000000000E+00 0. -1.
  9000001    1    1    2    0    0  0.13217963853E-02 -0.35123308767E-02  0.35539414331E-01  0.35750994182E-01  0.10000000475E-02 0.  1.
</event>
<event>
 4   0  0.4892667E-02  0.9118800E+02  0.7818609E-02  0.1379984E+01
      -11   -1    0    0    0    0  0.00000000000E+00  0.00000000000E+00  0.35740347158E-01  0.35744000000E-01  0.51099999109E-03 0.  1.
       11   -1    0    0    0    0 -0.00000000000E+00 -0.00000000000E+00 -0.35740347158E-01  0.35744000000E-01  0.51099999109E-03 0. -1.
       22    1    1    2    0    0 -0.10743141682E-02 -0.29738726412E-01 -0.19788572090E-01  0.35737005818E-01  0.00000000000E+00 0. -1.
  9000001    1    1    2    0    0  0.10743141682E-02  0.29738726412E-01  0.19788572090E-01  0.35750994182E-01  0.10000000475E-02 0.  1.
</event>
<event>
 4   0  0.4892667E-02  0.9118800E+02  0.7818609E-02  0.1379984E+01
      -11   -1    0    0    0    0  0.00000000000E+00  0.00000000000E+00  0.35740347158E-01  0.35744000000E-01  0.51099999109E-03 0. -1.
       11   -1    0    0    0    0 -0.00000000000E+00 -0.00000000000E+00 -0.35740347158E-01  0.35744000000E-01  0.51099999109E-03 0.  1.
       22    1    1    2    0    0 -0.55290728111E-02 -0.14650787127E-01 -0.32123470785E-01  0.35737005818E-01  0.00000000000E+00 0.  1.
  9000001    1    1    2    0    0  0.55290728111E-02  0.14650787127E-01  0.32123470785E-01  0.35750994182E-01  0.10000000475E-02 0. -1.
</event>
<event>
 4   0  0.4892667E-02  0.9118800E+02  0.7818609E-02  0.1379984E+01
      -11   -1    0    0    0    0  0.00000000000E+00  0.00000000000E+00  0.35740347158E-01  0.35744000000E-01  0.51099999109E-03 0.  1.
       11   -1    0    0    0    0 -0.00000000000E+00 -0.00000000000E+00 -0.35740347158E-01  0.35744000000E-01  0.51099999109E-03 0. -1.
       22    1    1    2    0    0 -0.11170719123E-01 -0.13173298625E-01 -0.31285984442E-01  0.35737005818E-01  0.00000000000E+00 0. -1.
  9000001    1    1    2    0    0  0.11170719123E-01  0.13173298625E-01  0.31285984442E-01  0.35750994182E-01  0.10000000475E-02 0.  1.
</event>
<event>
 4   0  0.4892667E-02  0.9118800E+02  0.7818609E-02  0.1379984E+01
      -11   -1    0    0    0    0  0.00000000000E+00  0.00000000000E+00  0.35740347158E-01  0.35744000000E-01  0.51099999109E-03 0. -1.
       11   -1    0    0    0    0 -0.00000000000E+00 -0.00000000000E+00 -0.35740347158E-01  0.35744000000E-01  0.51099999109E-03 0.  1.
       22    1    1    2    0    0 -0.75800836111E-02  0.10923241871E-01  0.33171655134E-01  0.35737005818E-01  0.00000000000E+00 0. -1.
  9000001    1    1    2    0    0  0.75800836111E-02 -0.10923241871E-01 -0.33171655134E-01  0.35750994182E-01  0.10000000475E-02 0.  1.
</event>
<event>
 4   0  0.4892667E-02  0.9118800E+02  0.7818609E-02  0.1379984E+01
      -11   -1    0    0    0    0  0.00000000000E+00  0.00000000000E+00  0.35740347158E-01  0.35744000000E-01  0.51099999109E-03 0. -1.
       11   -1    0    0    0    0 -0.00000000000E+00 -0.00000000000E+00 -0.35740347158E-01  0.35744000000E-01  0.51099999109E-03 0.  1.
       22    1    1    2    0    0 -0.17519833073E-01  0.88914909936E-02  0.29851807682E-01  0.35737005818E-01  0.00000000000E+00 0. -1.
  9000001    1    1    2    0    0  0.17519833073E-01 -0.88914909936E-02 -0.29851807682E-01  0.35750994182E-01  0.10000000475E-02 0.  1.
</event>
<event>
 4   0  0.4892667E-02  0.9118800E+02  0.7818609E-02  0.1379984E+01
      -11   -1    0    0    0    0  0.00000000000E+00  0.00000000000E+00  0.35740347158E-01  0.35744000000E-01  0.51099999109E-03 0.  1.
       11   -1    0    0    0    0 -0.00000000000E+00 -0.00000000000E+00 -0.35740347158E-01  0.35744000000E-01  0.51099999109E-03 0.  1.
       22    1    1    2    0    0  0.23197645506E-02 -0.19412557206E-02 -0.35608760208E-01  0.35737005818E-01  0.00000000000E+00 0.  1.
  9000001    1    1    2    0    0 -0.23197645506E-02  0.19412557206E-02  0.35608760208E-01  0.35750994182E-01  0.10000000475E-02 0.  1.
</event>
<event>
 4   0  0.4892667E-02  0.9118800E+02  0.7818609E-02  0.1379984E+01
      -11   -1    0    0    0    0  0.00000000000E+00  0.00000000000E+00  0.35740347158E-01  0.35744000000E-01  0.51099999109E-03 0. -1.
       11   -1    0    0    0    0 -0.00000000000E+00 -0.00000000000E+00 -0.35740347158E-01  0.35744000000E-01  0.51099999109E-03 0.  1.
       22    1    1    2    0    0 -0.57750753594E-02  0.10351868605E-02 -0.35252098911E-01  0.35737005818E-01  0.00000000000E+00 0.  1.
  9000001    1    1    2    0    0  0.57750753594E-02 -0.10351868605E-02  0.35252098911E-01  0.35750994182E-01  0.10000000475E-02 0. -1.
</event>
<event>
 4   0  0.4892667E-02  0.9118800E+02  0.7818609E-02  0.1379984E+01
      -11   -1    0    0    0    0  0.00000000000E+00  0.00000000000E+00  0.35740347158E-01  0.35744000000E-01  0.51099999109E-03 0.  1.
       11   -1    0    0    0    0 -0.00000000000E+00 -0.00000000000E+00 -0.35740347158E-01  0.35744000000E-01  0.51099999109E-03 0. -1.
       22    1    1    2    0    0 -0.29501111471E-01  0.15150922151E-01 -0.13314186599E-01  0.35737005818E-01  0.00000000000E+00 0. -1.
  9000001    1    1    2    0    0  0.29501111471E-01 -0.15150922151E-01  0.13314186599E-01  0.35750994182E-01  0.10000000475E-02 0.  1.
</event>
<event>
 4   0  0.4892667E-02  0.9118800E+02  0.7818609E-02  0.1379984E+01
      -11   -1    0    0    0    0  0.00000000000E+00  0.00000000000E+00  0.35740347158E-01  0.35744000000E-01  0.51099999109E-03 0.  1.
       11   -1    0    0    0    0 -0.00000000000E+00 -0.00000000000E+00 -0.35740347158E-01  0.35744000000E-01  0.51099999109E-03 0. -1.
       22    1    1    2    0    0 -0.10991584654E-01  0.20363204375E-01 -0.27233408881E-01  0.35737005818E-01  0.00000000000E+00 0. -1.
  9000001    1    1    2    0    0  0.10991584654E-01 -0.20363204375E-01  0.27233408881E-01  0.35750994182E-01  0.10000000475E-02 0.  1.
</event>
<event>
 4   0  0.4892667E-02  0.9118800E+02  0.7818609E-02  0.1379984E+01
      -11   -1    0    0    0    0  0.00000000000E+00  0.00000000000E+00  0.35740347158E-01  0.35744000000E-01  0.51099999109E-03 0.  1.
       11   -1    0    0    0    0 -0.00000000000E+00 -0.00000000000E+00 -0.35740347158E-01  0.35744000000E-01  0.51099999109E-03 0. -1.
       22    1    1    2    0    0 -0.25387011093E-02 -0.16641694444E-02  0.35607851966E-01  0.35737005818E-01  0.00000000000E+00 0.  1.
  9000001    1    1    2    0    0  0.25387011093E-02  0.16641694444E-02 -0.35607851966E-01  0.35750994182E-01  0.10000000475E-02 0. -1.
</event>
<event>
 4   0  0.4892667E-02  0.9118800E+02  0.7818609E-02  0.1379984E+01
      -11   -1    0    0    0    0  0.00000000000E+00  0.00000000000E+00  0.35740347158E-01  0.35744000000E-01  0.51099999109E-03 0.  1.
       11   -1    0    0    0    0 -0.00000000000E+00 -0.00000000000E+00 -0.35740347158E-01  0.35744000000E-01  0.51099999109E-03 0. -1.
       22    1    1    2    0    0  0.13233852482E-01 -0.23717574887E-02 -0.33111531221E-01  0.35737005818E-01  0.00000000000E+00 0. -1.
  9000001    1    1    2    0    0 -0.13233852482E-01  0.23717574887E-02  0.33111531221E-01  0.35750994182E-01  0.10000000475E-02 0.  1.
</event>
<event>
 4   0  0.4892667E-02  0.9118800E+02  0.7818609E-02  0.1379984E+01
      -11   -1    0    0    0    0  0.00000000000E+00  0.00000000000E+00  0.35740347158E-01  0.35744000000E-01  0.51099999109E-03 0. -1.
       11   -1    0    0    0    0 -0.00000000000E+00 -0.00000000000E+00 -0.35740347158E-01  0.35744000000E-01  0.51099999109E-03 0.  1.
       22    1    1    2    0    0 -0.27666468533E-02  0.40974203697E-02 -0.35393366559E-01  0.35737005818E-01  0.00000000000E+00 0.  1.
  9000001    1    1    2    0    0  0.27666468533E-02 -0.40974203697E-02  0.35393366559E-01  0.35750994182E-01  0.10000000475E-02 0. -1.
</event>
<event>
 4   0  0.4892667E-02  0.9118800E+02  0.7818609E-02  0.1379984E+01
      -11   -1    0    0    0    0  0.00000000000E+00  0.00000000000E+00  0.35740347158E-01  0.35744000000E-01  0.51099999109E-03 0. -1.
       11   -1    0    0    0    0 -0.00000000000E+00 -0.00000000000E+00 -0.35740347158E-01  0.35744000000E-01  0.51099999109E-03 0.  1.
       22    1    1    2    0    0 -0.54883883462E-02  0.15763492852E-01 -0.31599422010E-01  0.35737005818E-01  0.00000000000E+00 0.  1.
  9000001    1    1    2    0    0  0.54883883462E-02 -0.15763492852E-01  0.31599422010E-01  0.35750994182E-01  0.10000000475E-02 0. -1.
</event>
<event>
 4   0  0.4892667E-02  0.9118800E+02  0.7818609E-02  0.1379984E+01
      -11   -1    0    0    0    0  0.00000000000E+00  0.00000000000E+00  0.35740347158E-01  0.35744000000E-01  0.51099999109E-03 0.  1.
       11   -1    0    0    0    0 -0.00000000000E+00 -0.00000000000E+00 -0.35740347158E-01  0.35744000000E-01  0.51099999109E-03 0. -1.
       22    1    1    2    0    0  0.33867125005E-03 -0.50264737009E-02 -0.35380127880E-01  0.35737005818E-01  0.00000000000E+00 0. -1.
  9000001    1    1    2    0    0 -0.33867125005E-03  0.50264737009E-02  0.35380127880E-01  0.35750994182E-01  0.10000000475E-02 0.  1.
</event>
<event>
 4   0  0.4892667E-02  0.9118800E+02  0.7818609E-02  0.1379984E+01
      -11   -1    0    0    0    0  0.00000000000E+00  0.00000000000E+00  0.35740347158E-01  0.35744000000E-01  0.51099999109E-03 0. -1.
       11   -1    0    0    0    0 -0.00000000000E+00 -0.00000000000E+00 -0.35740347158E-01  0.35744000000E-01  0.51099999109E-03 0.  1.
       22    1    1    2    0    0 -0.82783280724E-02 -0.39837802302E-02 -0.34535957555E-01  0.35737005818E-01  0.00000000000E+00 0.  1.
  9000001    1    1    2    0    0  0.82783280724E-02  0.39837802302E-02  0.34535957555E-01  0.35750994182E-01  0.10000000475E-02 0. -1.
</event>
<event>
 4   0  0.4892667E-02  0.9118800E+02  0.7818609E-02  0.1379984E+01
      -11   -1    0    0    0    0  0.00000000000E+00  0.00000000000E+00  0.35740347158E-01  0.35744000000E-01  0.51099999109E-03 0. -1.
       11   -1    0    0    0    0 -0.00000000000E+00 -0.00000000000E+00 -0.35740347158E-01  0.35744000000E-01  0.51099999109E-03 0.  1.
       22    1    1    2    0    0  0.82642543501E-02  0.11306139033E-01  0.32878669454E-01  0.35737005818E-01  0.00000000000E+00 0. -1.
  9000001    1    1    2    0    0 -0.82642543501E-02 -0.11306139033E-01 -0.32878669454E-01  0.35750994182E-01  0.10000000475E-02 0.  1.
</event>
<event>
 4   0  0.4892667E-02  0.9118800E+02  0.7818609E-02  0.1379984E+01
      -11   -1    0    0    0    0  0.00000000000E+00  0.00000000000E+00  0.35740347158E-01  0.35744000000E-01  0.51099999109E-03 0.  1.
       11   -1    0    0    0    0 -0.00000000000E+00 -0.00000000000E+00 -0.35740347158E-01  0.35744000000E-01  0.51099999109E-03 0. -1.
       22    1    1    2    0    0 -0.17933239879E-02 -0.10175697512E-01  0.34210711102E-01  0.35737005818E-01  0.00000000000E+00 0.  1.
  9000001    1    1    2    0    0  0.17933239879E-02  0.10175697512E-01 -0.34210711102E-01  0.35750994182E-01  0.10000000475E-02 0. -1.
</event>
<event>
 4   0  0.4892667E-02  0.9118800E+02  0.7818609E-02  0.1379984E+01
      -11   -1    0    0    0    0  0.00000000000E+00  0.00000000000E+00  0.35740347158E-01  0.35744000000E-01  0.51099999109E-03 0.  1.
       11   -1    0    0    0    0 -0.00000000000E+00 -0.00000000000E+00 -0.35740347158E-01  0.35744000000E-01  0.51099999109E-03 0. -1.
       22    1    1    2    0    0 -0.29053360250E-01 -0.12768848514E-02  0.20770301108E-01  0.35737005818E-01  0.00000000000E+00 0. -1.
  9000001    1    1    2    0    0  0.29053360250E-01  0.12768848514E-02 -0.20770301108E-01  0.35750994182E-01  0.10000000475E-02 0.  1.
</event>
<event>
 4   0  0.4892667E-02  0.9118800E+02  0.7818609E-02  0.1379984E+01
      -11   -1    0    0    0    0  0.00000000000E+00  0.00000000000E+00  0.35740347158E-01  0.35744000000E-01  0.51099999109E-03 0.  1.
       11   -1    0    0    0    0 -0.00000000000E+00 -0.00000000000E+00 -0.35740347158E-01  0.35744000000E-01  0.51099999109E-03 0. -1.
       22    1    1    2    0    0  0.38157287972E-02  0.44024903883E-03  0.35529987045E-01  0.35737005818E-01  0.00000000000E+00 0.  1.
  9000001    1    1    2    0    0 -0.38157287972E-02 -0.44024903883E-03 -0.35529987045E-01  0.35750994182E-01  0.10000000475E-02 0. -1.
</event>
<event>
 4   0  0.4892667E-02  0.9118800E+02  0.7818609E-02  0.1379984E+01
      -11   -1    0    0    0    0  0.00000000000E+00  0.00000000000E+00  0.35740347158E-01  0.35744000000E-01  0.51099999109E-03 0.  1.
       11   -1    0    0    0    0 -0.00000000000E+00 -0.00000000000E+00 -0.35740347158E-01  0.35744000000E-01  0.51099999109E-03 0. -1.
       22    1    1    2    0    0  0.12382727569E-01 -0.14150334730E-01  0.30390289072E-01  0.35737005818E-01  0.00000000000E+00 0.  1.
  9000001    1    1    2    0    0 -0.12382727569E-01  0.14150334730E-01 -0.30390289072E-01  0.35750994182E-01  0.10000000475E-02 0. -1.
</event>
<event>
 4   0  0.4892667E-02  0.9118800E+02  0.7818609E-02  0.1379984E+01
      -11   -1    0    0    0    0  0.00000000000E+00  0.00000000000E+00  0.35740347158E-01  0.35744000000E-01  0.51099999109E-03 0. -1.
       11   -1    0    0    0    0 -0.00000000000E+00 -0.00000000000E+00 -0.35740347158E-01  0.35744000000E-01  0.51099999109E-03 0.  1.
       22    1    1    2    0    0 -0.40743961945E-02  0.50388268037E-04 -0.35503948253E-01  0.35737005818E-01  0.00000000000E+00 0.  1.
  9000001    1    1    2    0    0  0.40743961945E-02 -0.50388268037E-04  0.35503948253E-01  0.35750994182E-01  0.10000000475E-02 0. -1.
</event>
<event>
 4   0  0.4892667E-02  0.9118800E+02  0.7818609E-02  0.1379984E+01
      -11   -1    0    0    0    0  0.00000000000E+00  0.00000000000E+00  0.35740347158E-01  0.35744000000E-01  0.51099999109E-03 0. -1.
       11   -1    0    0    0    0 -0.00000000000E+00 -0.00000000000E+00 -0.35740347158E-01  0.35744000000E-01  0.51099999109E-03 0.  1.
       22    1    1    2    0    0 -0.38036681403E-02 -0.60259736561E-03  0.35528897674E-01  0.35737005818E-01  0.00000000000E+00 0. -1.
  9000001    1    1    2    0    0  0.38036681403E-02  0.60259736561E-03 -0.35528897674E-01  0.35750994182E-01  0.10000000475E-02 0.  1.
</event>
<event>
 4   0  0.4892667E-02  0.9118800E+02  0.7818609E-02  0.1379984E+01
      -11   -1    0    0    0    0  0.00000000000E+00  0.00000000000E+00  0.35740347158E-01  0.35744000000E-01  0.51099999109E-03 0. -1.
       11   -1    0    0    0    0 -0.00000000000E+00 -0.00000000000E+00 -0.35740347158E-01  0.35744000000E-01  0.51099999109E-03 0.  1.
       22    1    1    2    0    0 -0.19835715172E-02 -0.25408453735E-02 -0.35591335093E-01  0.35737005818E-01  0.00000000000E+00 0.  1.
  9000001    1    1    2    0    0  0.19835715172E-02  0.25408453735E-02  0.35591335093E-01  0.35750994182E-01  0.10000000475E-02 0. -1.
</event>
<event>
 4   0  0.4892667E-02  0.9118800E+02  0.7818609E-02  0.1379984E+01
      -11   -1    0    0    0    0  0.00000000000E+00  0.00000000000E+00  0.35740347158E-01  0.35744000000E-01  0.51099999109E-03 0.  1.
       11   -1    0    0    0    0 -0.00000000000E+00 -0.00000000000E+00 -0.35740347158E-01  0.35744000000E-01  0.51099999109E-03 0. -1.
       22    1    1    2    0    0  0.19212513628E-01 -0.30122868424E-01  0.79101382045E-03  0.35737005818E-01  0.00000000000E+00 0. -1.
  9000001    1    1    2    0    0 -0.19212513628E-01  0.30122868424E-01 -0.79101382045E-03  0.35750994182E-01  0.10000000475E-02 0.  1.
</event>
<event>
 4   0  0.4892667E-02  0.9118800E+02  0.7818609E-02  0.1379984E+01
      -11   -1    0    0    0    0  0.00000000000E+00  0.00000000000E+00  0.35740347158E-01  0.35744000000E-01  0.51099999109E-03 0. -1.
       11   -1    0    0    0    0 -0.00000000000E+00 -0.00000000000E+00 -0.35740347158E-01  0.35744000000E-01  0.51099999109E-03 0.  1.
       22    1    1    2    0    0  0.43955100415E-02  0.11741538200E-01 -0.33465644429E-01  0.35737005818E-01  0.00000000000E+00 0.  1.
  9000001    1    1    2    0    0 -0.43955100415E-02 -0.11741538200E-01  0.33465644429E-01  0.35750994182E-01  0.10000000475E-02 0. -1.
</event>
<event>
 4   0  0.4892667E-02  0.9118800E+02  0.7818609E-02  0.1379984E+01
      -11   -1    0    0    0    0  0.00000000000E+00  0.00000000000E+00  0.35740347158E-01  0.35744000000E-01  0.51099999109E-03 0. -1.
       11   -1    0    0    0    0 -0.00000000000E+00 -0.00000000000E+00 -0.35740347158E-01  0.35744000000E-01  0.51099999109E-03 0.  1.
       22    1    1    2    0    0  0.10120935916E-02  0.36966407252E-02  0.35530889361E-01  0.35737005818E-01  0.00000000000E+00 0. -1.
  9000001    1    1    2    0    0 -0.10120935916E-02 -0.36966407252E-02 -0.35530889361E-01  0.35750994182E-01  0.10000000475E-02 0.  1.
</event>
<event>
 4   0  0.4892667E-02  0.9118800E+02  0.7818609E-02  0.1379984E+01
      -11   -1    0    0    0    0  0.00000000000E+00  0.00000000000E+00  0.35740347158E-01  0.35744000000E-01  0.51099999109E-03 0.  1.
       11   -1    0    0    0    0 -0.00000000000E+00 -0.00000000000E+00 -0.35740347158E-01  0.35744000000E-01  0.51099999109E-03 0. -1.
       22    1    1    2    0    0  0.10278783710E-01 -0.38077044822E-03 -0.34224774713E-01  0.35737005818E-01  0.00000000000E+00 0. -1.
  9000001    1    1    2    0    0 -0.10278783710E-01  0.38077044822E-03  0.34224774713E-01  0.35750994182E-01  0.10000000475E-02 0.  1.
</event>
<event>
 4   0  0.4892667E-02  0.9118800E+02  0.7818609E-02  0.1379984E+01
      -11   -1    0    0    0    0  0.00000000000E+00  0.00000000000E+00  0.35740347158E-01  0.35744000000E-01  0.51099999109E-03 0. -1.
       11   -1    0    0    0    0 -0.00000000000E+00 -0.00000000000E+00 -0.35740347158E-01  0.35744000000E-01  0.51099999109E-03 0.  1.
       22    1    1    2    0    0 -0.29489295487E-02  0.95616029681E-02  0.34307625218E-01  0.35737005818E-01  0.00000000000E+00 0. -1.
  9000001    1    1    2    0    0  0.29489295487E-02 -0.95616029681E-02 -0.34307625218E-01  0.35750994182E-01  0.10000000475E-02 0.  1.
</event>
<event>
 4   0  0.4892667E-02  0.9118800E+02  0.7818609E-02  0.1379984E+01
      -11   -1    0    0    0    0  0.00000000000E+00  0.00000000000E+00  0.35740347158E-01  0.35744000000E-01  0.51099999109E-03 0. -1.
       11   -1    0    0    0    0 -0.00000000000E+00 -0.00000000000E+00 -0.35740347158E-01  0.35744000000E-01  0.51099999109E-03 0.  1.
       22    1    1    2    0    0 -0.54748008863E-03  0.30529154512E-02  0.35602156644E-01  0.35737005818E-01  0.00000000000E+00 0. -1.
  9000001    1    1    2    0    0  0.54748008863E-03 -0.30529154512E-02 -0.35602156644E-01  0.35750994182E-01  0.10000000475E-02 0.  1.
</event>
<event>
 4   0  0.4892667E-02  0.9118800E+02  0.7818609E-02  0.1379984E+01
      -11   -1    0    0    0    0  0.00000000000E+00  0.00000000000E+00  0.35740347158E-01  0.35744000000E-01  0.51099999109E-03 0.  1.
       11   -1    0    0    0    0 -0.00000000000E+00 -0.00000000000E+00 -0.35740347158E-01  0.35744000000E-01  0.51099999109E-03 0. -1.
       22    1    1    2    0    0 -0.93339554797E-02  0.59920124300E-02 -0.33972145164E-01  0.35737005818E-01  0.00000000000E+00 0. -1.
  9000001    1    1    2    0    0  0.93339554797E-02 -0.59920124300E-02  0.33972145164E-01  0.35750994182E-01  0.10000000475E-02 0.  1.
</event>
<event>
 4   0  0.4892667E-02  0.9118800E+02  0.7818609E-02  0.1379984E+01
      -11   -1    0    0    0    0  0.00000000000E+00  0.00000000000E+00  0.35740347158E-01  0.35744000000E-01  0.51099999109E-03 0. -1.
       11   -1    0    0    0    0 -0.00000000000E+00 -0.00000000000E+00 -0.35740347158E-01  0.35744000000E-01  0.51099999109E-03 0.  1.
       22    1    1    2    0    0 -0.72459870207E-02 -0.44775704431E-02  0.34707068731E-01  0.35737005818E-01  0.00000000000E+00 0. -1.
  9000001    1    1    2    0    0  0.72459870207E-02  0.44775704431E-02 -0.34707068731E-01  0.35750994182E-01  0.10000000475E-02 0.  1.
</event>
<event>
 4   0  0.4892667E-02  0.9118800E+02  0.7818609E-02  0.1379984E+01
      -11   -1    0    0    0    0  0.00000000000E+00  0.00000000000E+00  0.35740347158E-01  0.35744000000E-01  0.51099999109E-03 0. -1.
       11   -1    0    0    0    0 -0.00000000000E+00 -0.00000000000E+00 -0.35740347158E-01  0.35744000000E-01  0.51099999109E-03 0.  1.
       22    1    1    2    0    0  0.67990032273E-02  0.60224513025E-03  0.35079116876E-01  0.35737005818E-01  0.00000000000E+00 0. -1.
  9000001    1    1    2    0    0 -0.67990032273E-02 -0.60224513025E-03 -0.35079116876E-01  0.35750994182E-01  0.10000000475E-02 0.  1.
</event>
<event>
 4   0  0.4892667E-02  0.9118800E+02  0.7818609E-02  0.1379984E+01
      -11   -1    0    0    0    0  0.00000000000E+00  0.00000000000E+00  0.35740347158E-01  0.35744000000E-01  0.51099999109E-03 0. -1.
       11   -1    0    0    0    0 -0.00000000000E+00 -0.00000000000E+00 -0.35740347158E-01  0.35744000000E-01  0.51099999109E-03 0.  1.
       22    1    1    2    0    0 -0.29366584613E-01 -0.11719190032E-01  0.16655265775E-01  0.35737005818E-01  0.00000000000E+00 0. -1.
  9000001    1    1    2    0    0  0.29366584613E-01  0.11719190032E-01 -0.16655265775E-01  0.35750994182E-01  0.10000000475E-02 0.  1.
</event>
<event>
 4   0  0.4892667E-02  0.9118800E+02  0.7818609E-02  0.1379984E+01
      -11   -1    0    0    0    0  0.00000000000E+00  0.00000000000E+00  0.35740347158E-01  0.35744000000E-01  0.51099999109E-03 0. -1.
       11   -1    0    0    0    0 -0.00000000000E+00 -0.00000000000E+00 -0.35740347158E-01  0.35744000000E-01  0.51099999109E-03 0.  1.
       22    1    1    2    0    0  0.84787967154E-03 -0.69580752570E-02  0.35042829133E-01  0.35737005818E-01  0.00000000000E+00 0. -1.
  9000001    1    1    2    0    0 -0.84787967154E-03  0.69580752570E-02 -0.35042829133E-01  0.35750994182E-01  0.10000000475E-02 0.  1.
</event>
<event>
 4   0  0.4892667E-02  0.9118800E+02  0.7818609E-02  0.1379984E+01
      -11   -1    0    0    0    0  0.00000000000E+00  0.00000000000E+00  0.35740347158E-01  0.35744000000E-01  0.51099999109E-03 0.  1.
       11   -1    0    0    0    0 -0.00000000000E+00 -0.00000000000E+00 -0.35740347158E-01  0.35744000000E-01  0.51099999109E-03 0. -1.
       22    1    1    2    0    0 -0.22503914798E-01  0.47024100892E-02 -0.27360459480E-01  0.35737005818E-01  0.00000000000E+00 0. -1.
  9000001    1    1    2    0    0  0.22503914798E-01 -0.47024100892E-02  0.27360459480E-01  0.35750994182E-01  0.10000000475E-02 0.  1.
</event>
<event>
 4   0  0.4892667E-02  0.9118800E+02  0.7818609E-02  0.1379984E+01
      -11   -1    0    0    0    0  0.00000000000E+00  0.00000000000E+00  0.35740347158E-01  0.35744000000E-01  0.51099999109E-03 0. -1.
       11   -1    0    0    0    0 -0.00000000000E+00 -0.00000000000E+00 -0.35740347158E-01  0.35744000000E-01  0.51099999109E-03 0.  1.
       22    1    1    2    0    0 -0.26992804892E-02 -0.35301877950E-02  0.35459628366E-01  0.35737005818E-01  0.00000000000E+00 0. -1.
  9000001    1    1    2    0    0  0.26992804892E-02  0.35301877950E-02 -0.35459628366E-01  0.35750994182E-01  0.10000000475E-02 0.  1.
</event>
<event>
 4   0  0.4892667E-02  0.9118800E+02  0.7818609E-02  0.1379984E+01
      -11   -1    0    0    0    0  0.00000000000E+00  0.00000000000E+00  0.35740347158E-01  0.35744000000E-01  0.51099999109E-03 0.  1.
       11   -1    0    0    0    0 -0.00000000000E+00 -0.00000000000E+00 -0.35740347158E-01  0.35744000000E-01  0.51099999109E-03 0. -1.
       22    1    1    2    0    0  0.51863507215E-02  0.62650801604E-02 -0.34799197141E-01  0.35737005818E-01  0.00000000000E+00 0. -1.
  9000001    1    1    2    0    0 -0.51863507215E-02 -0.62650801604E-02  0.34799197141E-01  0.35750994182E-01  0.10000000475E-02 0.  1.
</event>
<event>
 4   0  0.4892667E-02  0.9118800E+02  0.7818609E-02  0.1379984E+01
      -11   -1    0    0    0    0  0.00000000000E+00  0.00000000000E+00  0.35740347158E-01  0.35744000000E-01  0.51099999109E-03 0.  1.
       11   -1    0    0    0    0 -0.00000000000E+00 -0.00000000000E+00 -0.35740347158E-01  0.35744000000E-01  0.51099999109E-03 0. -1.
       22    1    1    2    0    0  0.39162629818E-03  0.22639773812E-01  0.27648161882E-01  0.35737005818E-01  0.00000000000E+00 0.  1.
  9000001    1    1    2    0    0 -0.39162629818E-03 -0.22639773812E-01 -0.27648161882E-01  0.35750994182E-01  0.10000000475E-02 0. -1.
</event>
<event>
 4   0  0.4892667E-02  0.9118800E+02  0.7818609E-02  0.1379984E+01
      -11   -1    0    0    0    0  0.00000000000E+00  0.00000000000E+00  0.35740347158E-01  0.35744000000E-01  0.51099999109E-03 0.  1.
       11   -1    0    0    0    0 -0.00000000000E+00 -0.00000000000E+00 -0.35740347158E-01  0.35744000000E-01  0.51099999109E-03 0. -1.
       22    1    1    2    0    0 -0.68321481241E-02 -0.91224854724E-02  0.33870866474E-01  0.35737005818E-01  0.00000000000E+00 0.  1.
  9000001    1    1    2    0    0  0.68321481241E-02  0.91224854724E-02 -0.33870866474E-01  0.35750994182E-01  0.10000000475E-02 0. -1.
</event>
<event>
 4   0  0.4892667E-02  0.9118800E+02  0.7818609E-02  0.1379984E+01
      -11   -1    0    0    0    0  0.00000000000E+00  0.00000000000E+00  0.35740347158E-01  0.35744000000E-01  0.51099999109E-03 0. -1.
       11   -1    0    0    0    0 -0.00000000000E+00 -0.00000000000E+00 -0.35740347158E-01  0.35744000000E-01  0.51099999109E-03 0.  1.
       22    1    1    2    0    0  0.91815040884E-03 -0.37858193578E-02  0.35524050395E-01  0.35737005818E-01  0.00000000000E+00 0. -1.
  9000001    1    1    2    0    0 -0.91815040884E-03  0.37858193578E-02 -0.35524050395E-01  0.35750994182E-01  0.10000000475E-02 0.  1.
</event>
<event>
 4   0  0.4892667E-02  0.9118800E+02  0.7818609E-02  0.1379984E+01
      -11   -1    0    0    0    0  0.00000000000E+00  0.00000000000E+00  0.35740347158E-01  0.35744000000E-01  0.51099999109E-03 0.  1.
       11   -1    0    0    0    0 -0.00000000000E+00 -0.00000000000E+00 -0.35740347158E-01  0.35744000000E-01  0.51099999109E-03 0. -1.
       22    1    1    2    0    0 -0.11497766635E-01 -0.28523906264E-03 -0.33835685097E-01  0.35737005818E-01  0.00000000000E+00 0. -1.
  9000001    1    1    2    0    0  0.11497766635E-01  0.28523906264E-03  0.33835685097E-01  0.35750994182E-01  0.10000000475E-02 0.  1.
</event>
<event>
 4   0  0.4892667E-02  0.9118800E+02  0.7818609E-02  0.1379984E+01
      -11   -1    0    0    0    0  0.00000000000E+00  0.00000000000E+00  0.35740347158E-01  0.35744000000E-01  0.51099999109E-03 0.  1.
       11   -1    0    0    0    0 -0.00000000000E+00 -0.00000000000E+00 -0.35740347158E-01  0.35744000000E-01  0.51099999109E-03 0. -1.
       22    1    1    2    0    0  0.24392425153E-01  0.20944619629E-02  0.26033755186E-01  0.35737005818E-01  0.00000000000E+00 0.  1.
  9000001    1    1    2    0    0 -0.24392425153E-01 -0.20944619629E-02 -0.26033755186E-01  0.35750994182E-01  0.10000000475E-02 0. -1.
</event>
<event>
 4   0  0.4892667E-02  0.9118800E+02  0.7818609E-02  0.1379984E+01
      -11   -1    0    0    0    0  0.00000000000E+00  0.00000000000E+00  0.35740347158E-01  0.35744000000E-01  0.51099999109E-03 0.  1.
       11   -1    0    0    0    0 -0.00000000000E+00 -0.00000000000E+00 -0.35740347158E-01  0.35744000000E-01  0.51099999109E-03 0. -1.
       22    1    1    2    0    0  0.11023206274E-01  0.15931090583E-02  0.33957098107E-01  0.35737005818E-01  0.00000000000E+00 0.  1.
  9000001    1    1    2    0    0 -0.11023206274E-01 -0.15931090583E-02 -0.33957098107E-01  0.35750994182E-01  0.10000000475E-02 0. -1.
</event>
<event>
 4   0  0.4892667E-02  0.9118800E+02  0.7818609E-02  0.1379984E+01
      -11   -1    0    0    0    0  0.00000000000E+00  0.00000000000E+00  0.35740347158E-01  0.35744000000E-01  0.51099999109E-03 0. -1.
       11   -1    0    0    0    0 -0.00000000000E+00 -0.00000000000E+00 -0.35740347158E-01  0.35744000000E-01  0.51099999109E-03 0.  1.
       22    1    1    2    0    0  0.10142963027E-01 -0.32968648969E-01  0.93446279268E-02  0.35737005818E-01  0.00000000000E+00 0.  1.
  9000001    1    1    2    0    0 -0.10142963027E-01  0.32968648969E-01 -0.93446279268E-02  0.35750994182E-01  0.10000000475E-02 0. -1.
</event>
<event>
 4   0  0.4892667E-02  0.9118800E+02  0.7818609E-02  0.1379984E+01
      -11   -1    0    0    0    0  0.00000000000E+00  0.00000000000E+00  0.35740347158E-01  0.35744000000E-01  0.51099999109E-03 0. -1.
       11   -1    0    0    0    0 -0.00000000000E+00 -0.00000000000E+00 -0.35740347158E-01  0.35744000000E-01  0.51099999109E-03 0.  1.
       22    1    1    2    0    0 -0.34123954463E-02  0.36702427275E-02  0.35383872887E-01  0.35737005818E-01  0.00000000000E+00 0. -1.
  9000001    1    1    2    0    0  0.34123954463E-02 -0.36702427275E-02 -0.35383872887E-01  0.35750994182E-01  0.10000000475E-02 0.  1.
</event>
<event>
 4   0  0.4892667E-02  0.9118800E+02  0.7818609E-02  0.1379984E+01
      -11   -1    0    0    0    0  0.00000000000E+00  0.00000000000E+00  0.35740347158E-01  0.35744000000E-01  0.51099999109E-03 0.  1.
       11   -1    0    0    0    0 -0.00000000000E+00 -0.00000000000E+00 -0.35740347158E-01  0.35744000000E-01  0.51099999109E-03 0. -1.
       22    1    1    2    0    0  0.10699818434E-02 -0.28187040898E-02  0.35609600264E-01  0.35737005818E-01  0.00000000000E+00 0.  1.
  9000001    1    1    2    0    0 -0.10699818434E-02  0.28187040898E-02 -0.35609600264E-01  0.35750994182E-01  0.10000000475E-02 0. -1.
</event>
<event>
 4   0  0.4892667E-02  0.9118800E+02  0.7818609E-02  0.1379984E+01
      -11   -1    0    0    0    0  0.00000000000E+00  0.00000000000E+00  0.35740347158E-01  0.35744000000E-01  0.51099999109E-03 0.  1.
       11   -1    0    0    0    0 -0.00000000000E+00 -0.00000000000E+00 -0.35740347158E-01  0.35744000000E-01  0.51099999109E-03 0. -1.
       22    1    1    2    0    0  0.98176576181E-02 -0.10769161824E-02 -0.34345122438E-01  0.35737005818E-01  0.00000000000E+00 0. -1.
  9000001    1    1    2    0    0 -0.98176576181E-02  0.10769161824E-02  0.34345122438E-01  0.35750994182E-01  0.10000000475E-02 0.  1.
</event>
<event>
 4   0  0.4892667E-02  0.9118800E+02  0.7818609E-02  0.1379984E+01
      -11   -1    0    0    0    0  0.00000000000E+00  0.00000000000E+00  0.35740347158E-01  0.35744000000E-01  0.51099999109E-03 0.  1.
       11   -1    0    0    0    0 -0.00000000000E+00 -0.00000000000E+00 -0.35740347158E-01  0.35744000000E-01  0.51099999109E-03 0. -1.
       22    1    1    2    0    0 -0.43526593722E-02  0.48822704088E-02 -0.35133337116E-01  0.35737005818E-01  0.00000000000E+00 0. -1.
  9000001    1    1    2    0    0  0.43526593722E-02 -0.48822704088E-02  0.35133337116E-01  0.35750994182E-01  0.10000000475E-02 0.  1.
</event>
<event>
 4   0  0.4892667E-02  0.9118800E+02  0.7818609E-02  0.1379984E+01
      -11   -1    0    0    0    0  0.00000000000E+00  0.00000000000E+00  0.35740347158E-01  0.35744000000E-01  0.51099999109E-03 0. -1.
       11   -1    0    0    0    0 -0.00000000000E+00 -0.00000000000E+00 -0.35740347158E-01  0.35744000000E-01  0.51099999109E-03 0.  1.
       22    1    1    2    0    0 -0.63128311520E-02  0.75967738176E-02  0.34344879899E-01  0.35737005818E-01  0.00000000000E+00 0. -1.
  9000001    1    1    2    0    0  0.63128311520E-02 -0.75967738176E-02 -0.34344879899E-01  0.35750994182E-01  0.10000000475E-02 0.  1.
</event>
<event>
 4   0  0.4892667E-02  0.9118800E+02  0.7818609E-02  0.1379984E+01
      -11   -1    0    0    0    0  0.00000000000E+00  0.00000000000E+00  0.35740347158E-01  0.35744000000E-01  0.51099999109E-03 0.  1.
       11   -1    0    0    0    0 -0.00000000000E+00 -0.00000000000E+00 -0.35740347158E-01  0.35744000000E-01  0.51099999109E-03 0. -1.
       22    1    1    2    0    0  0.52491307141E-02  0.24305025965E-02  0.35265746394E-01  0.35737005818E-01  0.00000000000E+00 0.  1.
  9000001    1    1    2    0    0 -0.52491307141E-02 -0.24305025965E-02 -0.35265746394E-01  0.35750994182E-01  0.10000000475E-02 0. -1.
</event>
<event>
 4   0  0.4892667E-02  0.9118800E+02  0.7818609E-02  0.1379984E+01
      -11   -1    0    0    0    0  0.00000000000E+00  0.00000000000E+00  0.35740347158E-01  0.35744000000E-01  0.51099999109E-03 0. -1.
       11   -1    0    0    0    0 -0.00000000000E+00 -0.00000000000E+00 -0.35740347158E-01  0.35744000000E-01  0.51099999109E-03 0.  1.
       22    1    1    2    0    0  0.14334408101E-01  0.11726283441E-01 -0.30563910187E-01  0.35737005818E-01  0.00000000000E+00 0.  1.
  9000001    1    1    2    0    0 -0.14334408101E-01 -0.11726283441E-01  0.30563910187E-01  0.35750994182E-01  0.10000000475E-02 0. -1.
</event>
<event>
 4   0  0.4892667E-02  0.9118800E+02  0.7818609E-02  0.1379984E+01
      -11   -1    0    0    0    0  0.00000000000E+00  0.00000000000E+00  0.35740347158E-01  0.35744000000E-01  0.51099999109E-03 0. -1.
       11   -1    0    0    0    0 -0.00000000000E+00 -0.00000000000E+00 -0.35740347158E-01  0.35744000000E-01  0.51099999109E-03 0.  1.
       22    1    1    2    0    0 -0.33730629365E-01 -0.11092614951E-01  0.40413018984E-02  0.35737005818E-01  0.00000000000E+00 0.  1.
  9000001    1    1    2    0    0  0.33730629365E-01  0.11092614951E-01 -0.40413018984E-02  0.35750994182E-01  0.10000000475E-02 0. -1.
</event>
<event>
 4   0  0.4892667E-02  0.9118800E+02  0.7818609E-02  0.1379984E+01
      -11   -1    0    0    0    0  0.00000000000E+00  0.00000000000E+00  0.35740347158E-01  0.35744000000E-01  0.51099999109E-03 0. -1.
       11   -1    0    0    0    0 -0.00000000000E+00 -0.00000000000E+00 -0.35740347158E-01  0.35744000000E-01  0.51099999109E-03 0.  1.
       22    1    1    2    0    0 -0.96358580954E-03  0.33191930227E-02 -0.35569481932E-01  0.35737005818E-01  0.00000000000E+00 0.  1.
  9000001    1    1    2    0    0  0.96358580954E-03 -0.33191930227E-02  0.35569481932E-01  0.35750994182E-01  0.10000000475E-02 0. -1.
</event>
<event>
 4   0  0.4892667E-02  0.9118800E+02  0.7818609E-02  0.1379984E+01
      -11   -1    0    0    0    0  0.00000000000E+00  0.00000000000E+00  0.35740347158E-01  0.35744000000E-01  0.51099999109E-03 0.  1.
       11   -1    0    0    0    0 -0.00000000000E+00 -0.00000000000E+00 -0.35740347158E-01  0.35744000000E-01  0.51099999109E-03 0. -1.
       22    1    1    2    0    0 -0.39895895012E-02  0.20926309524E-02  0.35451906242E-01  0.35737005818E-01  0.00000000000E+00 0.  1.
  9000001    1    1    2    0    0  0.39895895012E-02 -0.20926309524E-02 -0.35451906242E-01  0.35750994182E-01  0.10000000475E-02 0. -1.
</event>
<event>
 4   0  0.4892667E-02  0.9118800E+02  0.7818609E-02  0.1379984E+01
      -11   -1    0    0    0    0  0.00000000000E+00  0.00000000000E+00  0.35740347158E-01  0.35744000000E-01  0.51099999109E-03 0. -1.
       11   -1    0    0    0    0 -0.00000000000E+00 -0.00000000000E+00 -0.35740347158E-01  0.35744000000E-01  0.51099999109E-03 0.  1.
       22    1    1    2    0    0 -0.11818796528E-01 -0.23970079319E-01 -0.23725196120E-01  0.35737005818E-01  0.00000000000E+00 0.  1.
  9000001    1    1    2    0    0  0.11818796528E-01  0.23970079319E-01  0.23725196120E-01  0.35750994182E-01  0.10000000475E-02 0. -1.
</event>
<event>
 4   0  0.4892667E-02  0.9118800E+02  0.7818609E-02  0.1379984E+01
      -11   -1    0    0    0    0  0.00000000000E+00  0.00000000000E+00  0.35740347158E-01  0.35744000000E-01  0.51099999109E-03 0. -1.
       11   -1    0    0    0    0 -0.00000000000E+00 -0.00000000000E+00 -0.35740347158E-01  0.35744000000E-01  0.51099999109E-03 0.  1.
       22    1    1    2    0    0  0.51666157107E-02  0.78148477664E-02 -0.34487212432E-01  0.35737005818E-01  0.00000000000E+00 0.  1.
  9000001    1    1    2    0    0 -0.51666157107E-02 -0.78148477664E-02  0.34487212432E-01  0.35750994182E-01  0.10000000475E-02 0. -1.
</event>
<event>
 4   0  0.4892667E-02  0.9118800E+02  0.7818609E-02  0.1379984E+01
      -11   -1    0    0    0    0  0.00000000000E+00  0.00000000000E+00  0.35740347158E-01  0.35744000000E-01  0.51099999109E-03 0.  1.
       11   -1    0    0    0    0 -0.00000000000E+00 -0.00000000000E+00 -0.35740347158E-01  0.35744000000E-01  0.51099999109E-03 0. -1.
       22    1    1    2    0    0  0.10509096549E-01  0.48668471766E-02 -0.33808375784E-01  0.35737005818E-01  0.00000000000E+00 0. -1.
  9000001    1    1    2    0    0 -0.10509096549E-01 -0.48668471766E-02  0.33808375784E-01  0.35750994182E-01  0.10000000475E-02 0.  1.
</event>
<event>
 4   0  0.4892667E-02  0.9118800E+02  0.7818609E-02  0.1379984E+01
      -11   -1    0    0    0    0  0.00000000000E+00  0.00000000000E+00  0.35740347158E-01  0.35744000000E-01  0.51099999109E-03 0. -1.
       11   -1    0    0    0    0 -0.00000000000E+00 -0.00000000000E+00 -0.35740347158E-01  0.35744000000E-01  0.51099999109E-03 0.  1.
       22    1    1    2    0    0  0.12376896046E-01 -0.31154063446E-02  0.33380237753E-01  0.35737005818E-01  0.00000000000E+00 0. -1.
  9000001    1    1    2    0    0 -0.12376896046E-01  0.31154063446E-02 -0.33380237753E-01  0.35750994182E-01  0.10000000475E-02 0.  1.
</event>
<event>
 4   0  0.4892667E-02  0.9118800E+02  0.7818609E-02  0.1379984E+01
      -11   -1    0    0    0    0  0.00000000000E+00  0.00000000000E+00  0.35740347158E-01  0.35744000000E-01  0.51099999109E-03 0. -1.
       11   -1    0    0    0    0 -0.00000000000E+00 -0.00000000000E+00 -0.35740347158E-01  0.35744000000E-01  0.51099999109E-03 0.  1.
       22    1    1    2    0    0 -0.35004276739E-01 -0.21867078741E-02  0.68594827425E-02  0.35737005818E-01  0.00000000000E+00 0.  1.
  9000001    1    1    2    0    0  0.35004276739E-01  0.21867078741E-02 -0.68594827425E-02  0.35750994182E-01  0.10000000475E-02 0. -1.
</event>
<event>
 4   0  0.4892667E-02  0.9118800E+02  0.7818609E-02  0.1379984E+01
      -11   -1    0    0    0    0  0.00000000000E+00  0.00000000000E+00  0.35740347158E-01  0.35744000000E-01  0.51099999109E-03 0.  1.
       11   -1    0    0    0    0 -0.00000000000E+00 -0.00000000000E+00 -0.35740347158E-01  0.35744000000E-01  0.51099999109E-03 0. -1.
       22    1    1    2    0    0  0.30752198843E-01 -0.10091612181E-01  0.15152399638E-01  0.35737005818E-01  0.00000000000E+00 0.  1.
  9000001    1    1    2    0    0 -0.30752198843E-01  0.10091612181E-01 -0.15152399638E-01  0.35750994182E-01  0.10000000475E-02 0. -1.
</event>
<event>
 4   0  0.4892667E-02  0.9118800E+02  0.7818609E-02  0.1379984E+01
      -11   -1    0    0    0    0  0.00000000000E+00  0.00000000000E+00  0.35740347158E-01  0.35744000000E-01  0.51099999109E-03 0.  1.
       11   -1    0    0    0    0 -0.00000000000E+00 -0.00000000000E+00 -0.35740347158E-01  0.35744000000E-01  0.51099999109E-03 0. -1.
       22    1    1    2    0    0 -0.33589529578E-02 -0.31284315785E-03  0.35577424711E-01  0.35737005818E-01  0.00000000000E+00 0.  1.
  9000001    1    1    2    0    0  0.33589529578E-02  0.31284315785E-03 -0.35577424711E-01  0.35750994182E-01  0.10000000475E-02 0. -1.
</event>
<event>
 4   0  0.4892667E-02  0.9118800E+02  0.7818609E-02  0.1379984E+01
      -11   -1    0    0    0    0  0.00000000000E+00  0.00000000000E+00  0.35740347158E-01  0.35744000000E-01  0.51099999109E-03 0. -1.
       11   -1    0    0    0    0 -0.00000000000E+00 -0.00000000000E+00 -0.35740347158E-01  0.35744000000E-01  0.51099999109E-03 0.  1.
       22    1    1    2    0    0  0.70611845977E-02  0.10541382743E-01  0.33408868685E-01  0.35737005818E-01  0.00000000000E+00 0. -1.
  9000001    1    1    2    0    0 -0.70611845977E-02 -0.10541382743E-01 -0.33408868685E-01  0.35750994182E-01  0.10000000475E-02 0.  1.
</event>
<event>
 4   0  0.4892667E-02  0.9118800E+02  0.7818609E-02  0.1379984E+01
      -11   -1    0    0    0    0  0.00000000000E+00  0.00000000000E+00  0.35740347158E-01  0.35744000000E-01  0.51099999109E-03 0.  1.
       11   -1    0    0    0    0 -0.00000000000E+00 -0.00000000000E+00 -0.35740347158E-01  0.35744000000E-01  0.51099999109E-03 0. -1.
       22    1    1    2    0    0 -0.31794019417E-02  0.33454479679E-03  0.35593722311E-01  0.35737005818E-01  0.00000000000E+00 0.  1.
  9000001    1    1    2    0    0  0.31794019417E-02 -0.33454479679E-03 -0.35593722311E-01  0.35750994182E-01  0.10000000475E-02 0. -1.
</event>
<event>
 4   0  0.4892667E-02  0.9118800E+02  0.7818609E-02  0.1379984E+01
      -11   -1    0    0    0    0  0.00000000000E+00  0.00000000000E+00  0.35740347158E-01  0.35744000000E-01  0.51099999109E-03 0. -1.
       11   -1    0    0    0    0 -0.00000000000E+00 -0.00000000000E+00 -0.35740347158E-01  0.35744000000E-01  0.51099999109E-03 0.  1.
       22    1    1    2    0    0  0.13518536986E-01 -0.84188848517E-04  0.33081349049E-01  0.35737005818E-01  0.00000000000E+00 0. -1.
  9000001    1    1    2    0    0 -0.13518536986E-01  0.84188848517E-04 -0.33081349049E-01  0.35750994182E-01  0.10000000475E-02 0.  1.
</event>
<event>
 4   0  0.4892667E-02  0.9118800E+02  0.7818609E-02  0.1379984E+01
      -11   -1    0    0    0    0  0.00000000000E+00  0.00000000000E+00  0.35740347158E-01  0.35744000000E-01  0.51099999109E-03 0. -1.
       11   -1    0    0    0    0 -0.00000000000E+00 -0.00000000000E+00 -0.35740347158E-01  0.35744000000E-01  0.51099999109E-03 0.  1.
       22    1    1    2    0    0  0.25836569956E-01 -0.24379203172E-01 -0.39063653767E-02  0.35737005818E-01  0.00000000000E+00 0. -1.
  9000001    1    1    2    0    0 -0.25836569956E-01  0.24379203172E-01  0.39063653767E-02  0.35750994182E-01  0.10000000475E-02 0.  1.
</event>
<event>
 4   0  0.4892667E-02  0.9118800E+02  0.7818609E-02  0.1379984E+01
      -11   -1    0    0    0    0  0.00000000000E+00  0.00000000000E+00  0.35740347158E-01  0.35744000000E-01  0.51099999109E-03 0.  1.
       11   -1    0    0    0    0 -0.00000000000E+00 -0.00000000000E+00 -0.35740347158E-01  0.35744000000E-01  0.51099999109E-03 0. -1.
       22    1    1    2    0    0  0.16363604789E-02  0.53099192116E-02 -0.35302417300E-01  0.35737005818E-01  0.00000000000E+00 0. -1.
  9000001    1    1    2    0    0 -0.16363604789E-02 -0.53099192116E-02  0.35302417300E-01  0.35750994182E-01  0.10000000475E-02 0.  1.
</event>
<event>
 4   0  0.4892667E-02  0.9118800E+02  0.7818609E-02  0.1379984E+01
      -11   -1    0    0    0    0  0.00000000000E+00  0.00000000000E+00  0.35740347158E-01  0.35744000000E-01  0.51099999109E-03 0. -1.
       11   -1    0    0    0    0 -0.00000000000E+00 -0.00000000000E+00 -0.35740347158E-01  0.35744000000E-01  0.51099999109E-03 0.  1.
       22    1    1    2    0    0  0.28884699198E-02  0.23925222329E-01 -0.26388900373E-01  0.35737005818E-01  0.00000000000E+00 0.  1.
  9000001    1    1    2    0    0 -0.28884699198E-02 -0.23925222329E-01  0.26388900373E-01  0.35750994182E-01  0.10000000475E-02 0. -1.
</event>
<event>
 4   0  0.4892667E-02  0.9118800E+02  0.7818609E-02  0.1379984E+01
      -11   -1    0    0    0    0  0.00000000000E+00  0.00000000000E+00  0.35740347158E-01  0.35744000000E-01  0.51099999109E-03 0. -1.
       11   -1    0    0    0    0 -0.00000000000E+00 -0.00000000000E+00 -0.35740347158E-01  0.35744000000E-01  0.51099999109E-03 0.  1.
       22    1    1    2    0    0  0.13566670109E-01  0.19992317313E-01 -0.26332229216E-01  0.35737005818E-01  0.00000000000E+00 0.  1.
  9000001    1    1    2    0    0 -0.13566670109E-01 -0.19992317313E-01  0.26332229216E-01  0.35750994182E-01  0.10000000475E-02 0. -1.
</event>
<event>
 4   0  0.4892667E-02  0.9118800E+02  0.7818609E-02  0.1379984E+01
      -11   -1    0    0    0    0  0.00000000000E+00  0.00000000000E+00  0.35740347158E-01  0.35744000000E-01  0.51099999109E-03 0. -1.
       11   -1    0    0    0    0 -0.00000000000E+00 -0.00000000000E+00 -0.35740347158E-01  0.35744000000E-01  0.51099999109E-03 0.  1.
       22    1    1    2    0    0 -0.19630511783E-02  0.26666321446E-02 -0.35583269776E-01  0.35737005818E-01  0.00000000000E+00 0.  1.
  9000001    1    1    2    0    0  0.19630511783E-02 -0.26666321446E-02  0.35583269776E-01  0.35750994182E-01  0.10000000475E-02 0. -1.
</event>
<event>
 4   0  0.4892667E-02  0.9118800E+02  0.7818609E-02  0.1379984E+01
      -11   -1    0    0    0    0  0.00000000000E+00  0.00000000000E+00  0.35740347158E-01  0.35744000000E-01  0.51099999109E-03 0. -1.
       11   -1    0    0    0    0 -0.00000000000E+00 -0.00000000000E+00 -0.35740347158E-01  0.35744000000E-01  0.51099999109E-03 0.  1.
       22    1    1    2    0    0  0.26413039684E-01  0.18436903225E-01  0.15477904219E-01  0.35737005818E-01  0.00000000000E+00 0. -1.
  9000001    1    1    2    0    0 -0.26413039684E-01 -0.18436903225E-01 -0.15477904219E-01  0.35750994182E-01  0.10000000475E-02 0.  1.
</event>
<event>
 4   0  0.4892667E-02  0.9118800E+02  0.7818609E-02  0.1379984E+01
      -11   -1    0    0    0    0  0.00000000000E+00  0.00000000000E+00  0.35740347158E-01  0.35744000000E-01  0.51099999109E-03 0.  1.
       11   -1    0    0    0    0 -0.00000000000E+00 -0.00000000000E+00 -0.35740347158E-01  0.35744000000E-01  0.51099999109E-03 0. -1.
       22    1    1    2    0    0  0.34946941193E-02 -0.24796960053E-01 -0.25495714738E-01  0.35737005818E-01  0.00000000000E+00 0. -1.
  9000001    1    1    2    0    0 -0.34946941193E-02  0.24796960053E-01  0.25495714738E-01  0.35750994182E-01  0.10000000475E-02 0.  1.
</event>
<event>
 4   0  0.4892667E-02  0.9118800E+02  0.7818609E-02  0.1379984E+01
      -11   -1    0    0    0    0  0.00000000000E+00  0.00000000000E+00  0.35740347158E-01  0.35744000000E-01  0.51099999109E-03 0.  1.
       11   -1    0    0    0    0 -0.00000000000E+00 -0.00000000000E+00 -0.35740347158E-01  0.35744000000E-01  0.51099999109E-03 0. -1.
       22    1    1    2    0    0  0.22095641647E-01  0.27336555704E-01 -0.64520483059E-02  0.35737005818E-01  0.00000000000E+00 0. -1.
  9000001    1    1    2    0    0 -0.22095641647E-01 -0.27336555704E-01  0.64520483059E-02  0.35750994182E-01  0.10000000475E-02 0.  1.
</event>
<event>
 4   0  0.4892667E-02  0.9118800E+02  0.7818609E-02  0.1379984E+01
      -11   -1    0    0    0    0  0.00000000000E+00  0.00000000000E+00  0.35740347158E-01  0.35744000000E-01  0.51099999109E-03 0.  1.
       11   -1    0    0    0    0 -0.00000000000E+00 -0.00000000000E+00 -0.35740347158E-01  0.35744000000E-01  0.51099999109E-03 0. -1.
       22    1    1    2    0    0  0.30348606967E-01  0.84012299610E-02 -0.16897188380E-01  0.35737005818E-01  0.00000000000E+00 0. -1.
  9000001    1    1    2    0    0 -0.30348606967E-01 -0.84012299610E-02  0.16897188380E-01  0.35750994182E-01  0.10000000475E-02 0.  1.
</event>
<event>
 4   0  0.4892667E-02  0.9118800E+02  0.7818609E-02  0.1379984E+01
      -11   -1    0    0    0    0  0.00000000000E+00  0.00000000000E+00  0.35740347158E-01  0.35744000000E-01  0.51099999109E-03 0.  1.
       11   -1    0    0    0    0 -0.00000000000E+00 -0.00000000000E+00 -0.35740347158E-01  0.35744000000E-01  0.51099999109E-03 0. -1.
       22    1    1    2    0    0 -0.77658972046E-02  0.12426158745E-01  0.32594708226E-01  0.35737005818E-01  0.00000000000E+00 0.  1.
  9000001    1    1    2    0    0  0.77658972046E-02 -0.12426158745E-01 -0.32594708226E-01  0.35750994182E-01  0.10000000475E-02 0. -1.
</event>
<event>
 4   0  0.4892667E-02  0.9118800E+02  0.7818609E-02  0.1379984E+01
      -11   -1    0    0    0    0  0.00000000000E+00  0.00000000000E+00  0.35740347158E-01  0.35744000000E-01  0.51099999109E-03 0.  1.
       11   -1    0    0    0    0 -0.00000000000E+00 -0.00000000000E+00 -0.35740347158E-01  0.35744000000E-01  0.51099999109E-03 0. -1.
       22    1    1    2    0    0  0.10174337118E-01 -0.25411895086E-03  0.34257143381E-01  0.35737005818E-01  0.00000000000E+00 0.  1.
  9000001    1    1    2    0    0 -0.10174337118E-01  0.25411895086E-03 -0.34257143381E-01  0.35750994182E-01  0.10000000475E-02 0. -1.
</event>
<event>
 4   0  0.4892667E-02  0.9118800E+02  0.7818609E-02  0.1379984E+01
      -11   -1    0    0    0    0  0.00000000000E+00  0.00000000000E+00  0.35740347158E-01  0.35744000000E-01  0.51099999109E-03 0.  1.
       11   -1    0    0    0    0 -0.00000000000E+00 -0.00000000000E+00 -0.35740347158E-01  0.35744000000E-01  0.51099999109E-03 0. -1.
       22    1    1    2    0    0  0.25748065488E-01  0.17221942520E-01 -0.17820645452E-01  0.35737005818E-01  0.00000000000E+00 0. -1.
  9000001    1    1    2    0    0 -0.25748065488E-01 -0.17221942520E-01  0.17820645452E-01  0.35750994182E-01  0.10000000475E-02 0.  1.
</event>
<event>
 4   0  0.4892667E-02  0.9118800E+02  0.7818609E-02  0.1379984E+01
      -11   -1    0    0    0    0  0.00000000000E+00  0.00000000000E+00  0.35740347158E-01  0.35744000000E-01  0.51099999109E-03 0.  1.
       11   -1    0    0    0    0 -0.00000000000E+00 -0.00000000000E+00 -0.35740347158E-01  0.35744000000E-01  0.51099999109E-03 0. -1.
       22    1    1    2    0    0 -0.40663730188E-02 -0.20627889447E-03 -0.35504304589E-01  0.35737005818E-01  0.00000000000E+00 0. -1.
  9000001    1    1    2    0    0  0.40663730188E-02  0.20627889447E-03  0.35504304589E-01  0.35750994182E-01  0.10000000475E-02 0.  1.
</event>
<event>
 4   0  0.4892667E-02  0.9118800E+02  0.7818609E-02  0.1379984E+01
      -11   -1    0    0    0    0  0.00000000000E+00  0.00000000000E+00  0.35740347158E-01  0.35744000000E-01  0.51099999109E-03 0.  1.
       11   -1    0    0    0    0 -0.00000000000E+00 -0.00000000000E+00 -0.35740347158E-01  0.35744000000E-01  0.51099999109E-03 0. -1.
       22    1    1    2    0    0  0.58609452499E-02 -0.10907641012E-01  0.33523219911E-01  0.35737005818E-01  0.00000000000E+00 0.  1.
  9000001    1    1    2    0    0 -0.58609452499E-02  0.10907641012E-01 -0.33523219911E-01  0.35750994182E-01  0.10000000475E-02 0. -1.
</event>
<event>
 4   0  0.4892667E-02  0.9118800E+02  0.7818609E-02  0.1379984E+01
      -11   -1    0    0    0    0  0.00000000000E+00  0.00000000000E+00  0.35740347158E-01  0.35744000000E-01  0.51099999109E-03 0.  1.
       11   -1    0    0    0    0 -0.00000000000E+00 -0.00000000000E+00 -0.35740347158E-01  0.35744000000E-01  0.51099999109E-03 0. -1.
       22    1    1    2    0    0 -0.17698757001E-01 -0.45832569896E-02  0.30706372968E-01  0.35737005818E-01  0.00000000000E+00 0.  1.
  9000001    1    1    2    0    0  0.17698757001E-01  0.45832569896E-02 -0.30706372968E-01  0.35750994182E-01  0.10000000475E-02 0. -1.
</event>
<event>
 4   0  0.4892667E-02  0.9118800E+02  0.7818609E-02  0.1379984E+01
      -11   -1    0    0    0    0  0.00000000000E+00  0.00000000000E+00  0.35740347158E-01  0.35744000000E-01  0.51099999109E-03 0. -1.
       11   -1    0    0    0    0 -0.00000000000E+00 -0.00000000000E+00 -0.35740347158E-01  0.35744000000E-01  0.51099999109E-03 0.  1.
       22    1    1    2    0    0  0.29317968947E-01  0.40159308726E-02 -0.20036531160E-01  0.35737005818E-01  0.00000000000E+00 0. -1.
  9000001    1    1    2    0    0 -0.29317968947E-01 -0.40159308726E-02  0.20036531160E-01  0.35750994182E-01  0.10000000475E-02 0.  1.
</event>
<event>
 4   0  0.4892667E-02  0.9118800E+02  0.7818609E-02  0.1379984E+01
      -11   -1    0    0    0    0  0.00000000000E+00  0.00000000000E+00  0.35740347158E-01  0.35744000000E-01  0.51099999109E-03 0. -1.
       11   -1    0    0    0    0 -0.00000000000E+00 -0.00000000000E+00 -0.35740347158E-01  0.35744000000E-01  0.51099999109E-03 0.  1.
       22    1    1    2    0    0 -0.33192166470E-01  0.91467396012E-02  0.95786650711E-02  0.35737005818E-01  0.00000000000E+00 0. -1.
  9000001    1    1    2    0    0  0.33192166470E-01 -0.91467396012E-02 -0.95786650711E-02  0.35750994182E-01  0.10000000475E-02 0.  1.
</event>
<event>
 4   0  0.4892667E-02  0.9118800E+02  0.7818609E-02  0.1379984E+01
      -11   -1    0    0    0    0  0.00000000000E+00  0.00000000000E+00  0.35740347158E-01  0.35744000000E-01  0.51099999109E-03 0. -1.
       11   -1    0    0    0    0 -0.00000000000E+00 -0.00000000000E+00 -0.35740347158E-01  0.35744000000E-01  0.51099999109E-03 0.  1.
       22    1    1    2    0    0  0.16892138227E-01  0.18778078736E-01  0.25281871172E-01  0.35737005818E-01  0.00000000000E+00 0.  1.
  9000001    1    1    2    0    0 -0.16892138227E-01 -0.18778078736E-01 -0.25281871172E-01  0.35750994182E-01  0.10000000475E-02 0. -1.
</event>
<event>
 4   0  0.4892667E-02  0.9118800E+02  0.7818609E-02  0.1379984E+01
      -11   -1    0    0    0    0  0.00000000000E+00  0.00000000000E+00  0.35740347158E-01  0.35744000000E-01  0.51099999109E-03 0.  1.
       11   -1    0    0    0    0 -0.00000000000E+00 -0.00000000000E+00 -0.35740347158E-01  0.35744000000E-01  0.51099999109E-03 0. -1.
       22    1    1    2    0    0 -0.61568641189E-02  0.28618162305E-01 -0.20499448660E-01  0.35737005818E-01  0.00000000000E+00 0. -1.
  9000001    1    1    2    0    0  0.61568641189E-02 -0.28618162305E-01  0.20499448660E-01  0.35750994182E-01  0.10000000475E-02 0.  1.
</event>
<event>
 4   0  0.4892667E-02  0.9118800E+02  0.7818609E-02  0.1379984E+01
      -11   -1    0    0    0    0  0.00000000000E+00  0.00000000000E+00  0.35740347158E-01  0.35744000000E-01  0.51099999109E-03 0. -1.
       11   -1    0    0    0    0 -0.00000000000E+00 -0.00000000000E+00 -0.35740347158E-01  0.35744000000E-01  0.51099999109E-03 0.  1.
       22    1    1    2    0    0 -0.17023090077E-02  0.23577642059E-01 -0.26801688825E-01  0.35737005818E-01  0.00000000000E+00 0.  1.
  9000001    1    1    2    0    0  0.17023090077E-02 -0.23577642059E-01  0.26801688825E-01  0.35750994182E-01  0.10000000475E-02 0. -1.
</event>
<event>
 4   0  0.4892667E-02  0.9118800E+02  0.7818609E-02  0.1379984E+01
      -11   -1    0    0    0    0  0.00000000000E+00  0.00000000000E+00  0.35740347158E-01  0.35744000000E-01  0.51099999109E-03 0. -1.
       11   -1    0    0    0    0 -0.00000000000E+00 -0.00000000000E+00 -0.35740347158E-01  0.35744000000E-01  0.51099999109E-03 0.  1.
       22    1    1    2    0    0 -0.24406275943E-02 -0.41777178726E-02  0.35407959489E-01  0.35737005818E-01  0.00000000000E+00 0. -1.
  9000001    1    1    2    0    0  0.24406275943E-02  0.41777178726E-02 -0.35407959489E-01  0.35750994182E-01  0.10000000475E-02 0.  1.
</event>
<event>
 4   0  0.4892667E-02  0.9118800E+02  0.7818609E-02  0.1379984E+01
      -11   -1    0    0    0    0  0.00000000000E+00  0.00000000000E+00  0.35740347158E-01  0.35744000000E-01  0.51099999109E-03 0. -1.
       11   -1    0    0    0    0 -0.00000000000E+00 -0.00000000000E+00 -0.35740347158E-01  0.35744000000E-01  0.51099999109E-03 0.  1.
       22    1    1    2    0    0  0.89194676313E-02 -0.17454113745E-01  0.29881944305E-01  0.35737005818E-01  0.00000000000E+00 0. -1.
  9000001    1    1    2    0    0 -0.89194676313E-02  0.17454113745E-01 -0.29881944305E-01  0.35750994182E-01  0.10000000475E-02 0.  1.
</event>
<event>
 4   0  0.4892667E-02  0.9118800E+02  0.7818609E-02  0.1379984E+01
      -11   -1    0    0    0    0  0.00000000000E+00  0.00000000000E+00  0.35740347158E-01  0.35744000000E-01  0.51099999109E-03 0.  1.
       11   -1    0    0    0    0 -0.00000000000E+00 -0.00000000000E+00 -0.35740347158E-01  0.35744000000E-01  0.51099999109E-03 0. -1.
       22    1    1    2    0    0 -0.93475638926E-02 -0.83819059232E-02 -0.33458934341E-01  0.35737005818E-01  0.00000000000E+00 0. -1.
  9000001    1    1    2    0    0  0.93475638926E-02  0.83819059232E-02  0.33458934341E-01  0.35750994182E-01  0.10000000475E-02 0.  1.
</event>
<event>
 4   0  0.4892667E-02  0.9118800E+02  0.7818609E-02  0.1379984E+01
      -11   -1    0    0    0    0  0.00000000000E+00  0.00000000000E+00  0.35740347158E-01  0.35744000000E-01  0.51099999109E-03 0. -1.
       11   -1    0    0    0    0 -0.00000000000E+00 -0.00000000000E+00 -0.35740347158E-01  0.35744000000E-01  0.51099999109E-03 0.  1.
       22    1    1    2    0    0 -0.34514886466E-02  0.15856783858E-01 -0.31839962573E-01  0.35737005818E-01  0.00000000000E+00 0.  1.
  9000001    1    1    2    0    0  0.34514886466E-02 -0.15856783858E-01  0.31839962573E-01  0.35750994182E-01  0.10000000475E-02 0. -1.
</event>
<event>
 4   0  0.4892667E-02  0.9118800E+02  0.7818609E-02  0.1379984E+01
      -11   -1    0    0    0    0  0.00000000000E+00  0.00000000000E+00  0.35740347158E-01  0.35744000000E-01  0.51099999109E-03 0. -1.
       11   -1    0    0    0    0 -0.00000000000E+00 -0.00000000000E+00 -0.35740347158E-01  0.35744000000E-01  0.51099999109E-03 0.  1.
       22    1    1    2    0    0 -0.10468528725E-01 -0.27750259943E-02 -0.34056463732E-01  0.35737005818E-01  0.00000000000E+00 0.  1.
  9000001    1    1    2    0    0  0.10468528725E-01  0.27750259943E-02  0.34056463732E-01  0.35750994182E-01  0.10000000475E-02 0. -1.
</event>
<event>
 4   0  0.4892667E-02  0.9118800E+02  0.7818609E-02  0.1379984E+01
      -11   -1    0    0    0    0  0.00000000000E+00  0.00000000000E+00  0.35740347158E-01  0.35744000000E-01  0.51099999109E-03 0.  1.
       11   -1    0    0    0    0 -0.00000000000E+00 -0.00000000000E+00 -0.35740347158E-01  0.35744000000E-01  0.51099999109E-03 0. -1.
       22    1    1    2    0    0  0.77542912659E-02 -0.55691614722E-02  0.34438190898E-01  0.35737005818E-01  0.00000000000E+00 0.  1.
  9000001    1    1    2    0    0 -0.77542912659E-02  0.55691614722E-02 -0.34438190898E-01  0.35750994182E-01  0.10000000475E-02 0. -1.
</event>
<event>
 4   0  0.4892667E-02  0.9118800E+02  0.7818609E-02  0.1379984E+01
      -11   -1    0    0    0    0  0.00000000000E+00  0.00000000000E+00  0.35740347158E-01  0.35744000000E-01  0.51099999109E-03 0.  1.
       11   -1    0    0    0    0 -0.00000000000E+00 -0.00000000000E+00 -0.35740347158E-01  0.35744000000E-01  0.51099999109E-03 0. -1.
       22    1    1    2    0    0 -0.24232250779E-02 -0.65816570549E-02 -0.35042022709E-01  0.35737005818E-01  0.00000000000E+00 0. -1.
  9000001    1    1    2    0    0  0.24232250779E-02  0.65816570549E-02  0.35042022709E-01  0.35750994182E-01  0.10000000475E-02 0.  1.
</event>
<event>
 4   0  0.4892667E-02  0.9118800E+02  0.7818609E-02  0.1379984E+01
      -11   -1    0    0    0    0  0.00000000000E+00  0.00000000000E+00  0.35740347158E-01  0.35744000000E-01  0.51099999109E-03 0. -1.
       11   -1    0    0    0    0 -0.00000000000E+00 -0.00000000000E+00 -0.35740347158E-01  0.35744000000E-01  0.51099999109E-03 0.  1.
       22    1    1    2    0    0  0.30653225312E-02  0.24597563639E-02  0.35520233407E-01  0.35737005818E-01  0.00000000000E+00 0. -1.
  9000001    1    1    2    0    0 -0.30653225312E-02 -0.24597563639E-02 -0.35520233407E-01  0.35750994182E-01  0.10000000475E-02 0.  1.
</event>
<event>
 4   0  0.4892667E-02  0.9118800E+02  0.7818609E-02  0.1379984E+01
      -11   -1    0    0    0    0  0.00000000000E+00  0.00000000000E+00  0.35740347158E-01  0.35744000000E-01  0.51099999109E-03 0.  1.
       11   -1    0    0    0    0 -0.00000000000E+00 -0.00000000000E+00 -0.35740347158E-01  0.35744000000E-01  0.51099999109E-03 0. -1.
       22    1    1    2    0    0 -0.15932839604E-01 -0.45465963227E-02 -0.31663964832E-01  0.35737005818E-01  0.00000000000E+00 0. -1.
  9000001    1    1    2    0    0  0.15932839604E-01  0.45465963227E-02  0.31663964832E-01  0.35750994182E-01  0.10000000475E-02 0.  1.
</event>
<event>
 4   0  0.4892667E-02  0.9118800E+02  0.7818609E-02  0.1379984E+01
      -11   -1    0    0    0    0  0.00000000000E+00  0.00000000000E+00  0.35740347158E-01  0.35744000000E-01  0.51099999109E-03 0. -1.
       11   -1    0    0    0    0 -0.00000000000E+00 -0.00000000000E+00 -0.35740347158E-01  0.35744000000E-01  0.51099999109E-03 0.  1.
       22    1    1    2    0    0 -0.23521397986E-01 -0.23945513173E-02  0.26798200418E-01  0.35737005818E-01  0.00000000000E+00 0. -1.
  9000001    1    1    2    0    0  0.23521397986E-01  0.23945513173E-02 -0.26798200418E-01  0.35750994182E-01  0.10000000475E-02 0.  1.
</event>
<event>
 4   0  0.4892667E-02  0.9118800E+02  0.7818609E-02  0.1379984E+01
      -11   -1    0    0    0    0  0.00000000000E+00  0.00000000000E+00  0.35740347158E-01  0.35744000000E-01  0.51099999109E-03 0.  1.
       11   -1    0    0    0    0 -0.00000000000E+00 -0.00000000000E+00 -0.35740347158E-01  0.35744000000E-01  0.51099999109E-03 0. -1.
       22    1    1    2    0    0  0.34374882200E-01  0.81318085153E-02  0.54198476793E-02  0.35737005818E-01  0.00000000000E+00 0.  1.
  9000001    1    1    2    0    0 -0.34374882200E-01 -0.81318085153E-02 -0.54198476793E-02  0.35750994182E-01  0.10000000475E-02 0. -1.
</event>
<event>
 4   0  0.4892667E-02  0.9118800E+02  0.7818609E-02  0.1379984E+01
      -11   -1    0    0    0    0  0.00000000000E+00  0.00000000000E+00  0.35740347158E-01  0.35744000000E-01  0.51099999109E-03 0.  1.
       11   -1    0    0    0    0 -0.00000000000E+00 -0.00000000000E+00 -0.35740347158E-01  0.35744000000E-01  0.51099999109E-03 0. -1.
       22    1    1    2    0    0 -0.25049654654E-01 -0.46630331785E-02 -0.25058022830E-01  0.35737005818E-01  0.00000000000E+00 0. -1.
  9000001    1    1    2    0    0  0.25049654654E-01  0.46630331785E-02  0.25058022830E-01  0.35750994182E-01  0.10000000475E-02 0.  1.
</event>
<event>
 4   0  0.4892667E-02  0.9118800E+02  0.7818609E-02  0.1379984E+01
      -11   -1    0    0    0    0  0.00000000000E+00  0.00000000000E+00  0.35740347158E-01  0.35744000000E-01  0.51099999109E-03 0.  1.
       11   -1    0    0    0    0 -0.00000000000E+00 -0.00000000000E+00 -0.35740347158E-01  0.35744000000E-01  0.51099999109E-03 0. -1.
       22    1    1    2    0    0 -0.11684067168E-01  0.26202239225E-01 -0.21308655961E-01  0.35737005818E-01  0.00000000000E+00 0. -1.
  9000001    1    1    2    0    0  0.11684067168E-01 -0.26202239225E-01  0.21308655961E-01  0.35750994182E-01  0.10000000475E-02 0.  1.
</event>
<event>
 4   0  0.4892667E-02  0.9118800E+02  0.7818609E-02  0.1379984E+01
      -11   -1    0    0    0    0  0.00000000000E+00  0.00000000000E+00  0.35740347158E-01  0.35744000000E-01  0.51099999109E-03 0. -1.
       11   -1    0    0    0    0 -0.00000000000E+00 -0.00000000000E+00 -0.35740347158E-01  0.35744000000E-01  0.51099999109E-03 0. -1.
       22    1    1    2    0    0  0.22518644380E-02 -0.20278452395E-02 -0.35608293066E-01  0.35737005818E-01  0.00000000000E+00 0. -1.
  9000001    1    1    2    0    0 -0.22518644380E-02  0.20278452395E-02  0.35608293066E-01  0.35750994182E-01  0.10000000475E-02 0. -1.
</event>
<event>
 4   0  0.4892667E-02  0.9118800E+02  0.7818609E-02  0.1379984E+01
      -11   -1    0    0    0    0  0.00000000000E+00  0.00000000000E+00  0.35740347158E-01  0.35744000000E-01  0.51099999109E-03 0. -1.
       11   -1    0    0    0    0 -0.00000000000E+00 -0.00000000000E+00 -0.35740347158E-01  0.35744000000E-01  0.51099999109E-03 0.  1.
       22    1    1    2    0    0 -0.26359226153E-01 -0.23726615114E-01  0.44014221227E-02  0.35737005818E-01  0.00000000000E+00 0.  1.
  9000001    1    1    2    0    0  0.26359226153E-01  0.23726615114E-01 -0.44014221227E-02  0.35750994182E-01  0.10000000475E-02 0. -1.
</event>
<event>
 4   0  0.4892667E-02  0.9118800E+02  0.7818609E-02  0.1379984E+01
      -11   -1    0    0    0    0  0.00000000000E+00  0.00000000000E+00  0.35740347158E-01  0.35744000000E-01  0.51099999109E-03 0. -1.
       11   -1    0    0    0    0 -0.00000000000E+00 -0.00000000000E+00 -0.35740347158E-01  0.35744000000E-01  0.51099999109E-03 0.  1.
       22    1    1    2    0    0 -0.35396216765E-02  0.97958772090E-03  0.35547785742E-01  0.35737005818E-01  0.00000000000E+00 0. -1.
  9000001    1    1    2    0    0  0.35396216765E-02 -0.97958772090E-03 -0.35547785742E-01  0.35750994182E-01  0.10000000475E-02 0.  1.
</event>
<event>
 4   0  0.4892667E-02  0.9118800E+02  0.7818609E-02  0.1379984E+01
      -11   -1    0    0    0    0  0.00000000000E+00  0.00000000000E+00  0.35740347158E-01  0.35744000000E-01  0.51099999109E-03 0. -1.
       11   -1    0    0    0    0 -0.00000000000E+00 -0.00000000000E+00 -0.35740347158E-01  0.35744000000E-01  0.51099999109E-03 0.  1.
       22    1    1    2    0    0 -0.68948696664E-02 -0.36081584703E-02 -0.34879443081E-01  0.35737005818E-01  0.00000000000E+00 0.  1.
  9000001    1    1    2    0    0  0.68948696664E-02  0.36081584703E-02  0.34879443081E-01  0.35750994182E-01  0.10000000475E-02 0. -1.
</event>
<event>
 4   0  0.4892667E-02  0.9118800E+02  0.7818609E-02  0.1379984E+01
      -11   -1    0    0    0    0  0.00000000000E+00  0.00000000000E+00  0.35740347158E-01  0.35744000000E-01  0.51099999109E-03 0. -1.
       11   -1    0    0    0    0 -0.00000000000E+00 -0.00000000000E+00 -0.35740347158E-01  0.35744000000E-01  0.51099999109E-03 0.  1.
       22    1    1    2    0    0  0.52912441109E-02 -0.50070497807E-02 -0.34986651356E-01  0.35737005818E-01  0.00000000000E+00 0.  1.
  9000001    1    1    2    0    0 -0.52912441109E-02  0.50070497807E-02  0.34986651356E-01  0.35750994182E-01  0.10000000475E-02 0. -1.
</event>
<event>
 4   0  0.4892667E-02  0.9118800E+02  0.7818609E-02  0.1379984E+01
      -11   -1    0    0    0    0  0.00000000000E+00  0.00000000000E+00  0.35740347158E-01  0.35744000000E-01  0.51099999109E-03 0.  1.
       11   -1    0    0    0    0 -0.00000000000E+00 -0.00000000000E+00 -0.35740347158E-01  0.35744000000E-01  0.51099999109E-03 0. -1.
       22    1    1    2    0    0  0.67582412521E-03  0.30028165227E-02  0.35604212385E-01  0.35737005818E-01  0.00000000000E+00 0.  1.
  9000001    1    1    2    0    0 -0.67582412521E-03 -0.30028165227E-02 -0.35604212385E-01  0.35750994182E-01  0.10000000475E-02 0. -1.
</event>
<event>
 4   0  0.4892667E-02  0.9118800E+02  0.7818609E-02  0.1379984E+01
      -11   -1    0    0    0    0  0.00000000000E+00  0.00000000000E+00  0.35740347158E-01  0.35744000000E-01  0.51099999109E-03 0. -1.
       11   -1    0    0    0    0 -0.00000000000E+00 -0.00000000000E+00 -0.35740347158E-01  0.35744000000E-01  0.51099999109E-03 0.  1.
       22    1    1    2    0    0 -0.12923127814E-01  0.20306152103E-01  0.26415649512E-01  0.35737005818E-01  0.00000000000E+00 0. -1.
  9000001    1    1    2    0    0  0.12923127814E-01 -0.20306152103E-01 -0.26415649512E-01  0.35750994182E-01  0.10000000475E-02 0.  1.
</event>
<event>
 4   0  0.4892667E-02  0.9118800E+02  0.7818609E-02  0.1379984E+01
      -11   -1    0    0    0    0  0.00000000000E+00  0.00000000000E+00  0.35740347158E-01  0.35744000000E-01  0.51099999109E-03 0.  1.
       11   -1    0    0    0    0 -0.00000000000E+00 -0.00000000000E+00 -0.35740347158E-01  0.35744000000E-01  0.51099999109E-03 0. -1.
       22    1    1    2    0    0 -0.28953284032E-02  0.19452233253E-02  0.35566371259E-01  0.35737005818E-01  0.00000000000E+00 0.  1.
  9000001    1    1    2    0    0  0.28953284032E-02 -0.19452233253E-02 -0.35566371259E-01  0.35750994182E-01  0.10000000475E-02 0. -1.
</event>
<event>
 4   0  0.4892667E-02  0.9118800E+02  0.7818609E-02  0.1379984E+01
      -11   -1    0    0    0    0  0.00000000000E+00  0.00000000000E+00  0.35740347158E-01  0.35744000000E-01  0.51099999109E-03 0.  1.
       11   -1    0    0    0    0 -0.00000000000E+00 -0.00000000000E+00 -0.35740347158E-01  0.35744000000E-01  0.51099999109E-03 0. -1.
       22    1    1    2    0    0 -0.30339718865E-02  0.28195596705E-01 -0.21747113048E-01  0.35737005818E-01  0.00000000000E+00 0. -1.
  9000001    1    1    2    0    0  0.30339718865E-02 -0.28195596705E-01  0.21747113048E-01  0.35750994182E-01  0.10000000475E-02 0.  1.
</event>
<event>
 4   0  0.4892667E-02  0.9118800E+02  0.7818609E-02  0.1379984E+01
      -11   -1    0    0    0    0  0.00000000000E+00  0.00000000000E+00  0.35740347158E-01  0.35744000000E-01  0.51099999109E-03 0. -1.
       11   -1    0    0    0    0 -0.00000000000E+00 -0.00000000000E+00 -0.35740347158E-01  0.35744000000E-01  0.51099999109E-03 0.  1.
       22    1    1    2    0    0  0.30901641387E-02 -0.57337121769E-02  0.35138426475E-01  0.35737005818E-01  0.00000000000E+00 0. -1.
  9000001    1    1    2    0    0 -0.30901641387E-02  0.57337121769E-02 -0.35138426475E-01  0.35750994182E-01  0.10000000475E-02 0.  1.
</event>
<event>
 4   0  0.4892667E-02  0.9118800E+02  0.7818609E-02  0.1379984E+01
      -11   -1    0    0    0    0  0.00000000000E+00  0.00000000000E+00  0.35740347158E-01  0.35744000000E-01  0.51099999109E-03 0.  1.
       11   -1    0    0    0    0 -0.00000000000E+00 -0.00000000000E+00 -0.35740347158E-01  0.35744000000E-01  0.51099999109E-03 0. -1.
       22    1    1    2    0    0  0.19035551320E-02  0.26677141853E-02 -0.35586421059E-01  0.35737005818E-01  0.00000000000E+00 0. -1.
  9000001    1    1    2    0    0 -0.19035551320E-02 -0.26677141853E-02  0.35586421059E-01  0.35750994182E-01  0.10000000475E-02 0.  1.
</event>
<event>
 4   0  0.4892667E-02  0.9118800E+02  0.7818609E-02  0.1379984E+01
      -11   -1    0    0    0    0  0.00000000000E+00  0.00000000000E+00  0.35740347158E-01  0.35744000000E-01  0.51099999109E-03 0. -1.
       11   -1    0    0    0    0 -0.00000000000E+00 -0.00000000000E+00 -0.35740347158E-01  0.35744000000E-01  0.51099999109E-03 0.  1.
       22    1    1    2    0    0  0.26088236541E-01 -0.20495552732E-02  0.24337970791E-01  0.35737005818E-01  0.00000000000E+00 0. -1.
  9000001    1    1    2    0    0 -0.26088236541E-01  0.20495552732E-02 -0.24337970791E-01  0.35750994182E-01  0.10000000475E-02 0.  1.
</event>
<event>
 4   0  0.4892667E-02  0.9118800E+02  0.7818609E-02  0.1379984E+01
      -11   -1    0    0    0    0  0.00000000000E+00  0.00000000000E+00  0.35740347158E-01  0.35744000000E-01  0.51099999109E-03 0.  1.
       11   -1    0    0    0    0 -0.00000000000E+00 -0.00000000000E+00 -0.35740347158E-01  0.35744000000E-01  0.51099999109E-03 0. -1.
       22    1    1    2    0    0 -0.31725743694E-02  0.71986568209E-02  0.34860402991E-01  0.35737005818E-01  0.00000000000E+00 0.  1.
  9000001    1    1    2    0    0  0.31725743694E-02 -0.71986568209E-02 -0.34860402991E-01  0.35750994182E-01  0.10000000475E-02 0. -1.
</event>
<event>
 4   0  0.4892667E-02  0.9118800E+02  0.7818609E-02  0.1379984E+01
      -11   -1    0    0    0    0  0.00000000000E+00  0.00000000000E+00  0.35740347158E-01  0.35744000000E-01  0.51099999109E-03 0. -1.
       11   -1    0    0    0    0 -0.00000000000E+00 -0.00000000000E+00 -0.35740347158E-01  0.35744000000E-01  0.51099999109E-03 0.  1.
       22    1    1    2    0    0  0.35948793321E-02  0.42748828332E-02  0.35297815856E-01  0.35737005818E-01  0.00000000000E+00 0. -1.
  9000001    1    1    2    0    0 -0.35948793321E-02 -0.42748828332E-02 -0.35297815856E-01  0.35750994182E-01  0.10000000475E-02 0.  1.
</event>
<event>
 4   0  0.4892667E-02  0.9118800E+02  0.7818609E-02  0.1379984E+01
      -11   -1    0    0    0    0  0.00000000000E+00  0.00000000000E+00  0.35740347158E-01  0.35744000000E-01  0.51099999109E-03 0.  1.
       11   -1    0    0    0    0 -0.00000000000E+00 -0.00000000000E+00 -0.35740347158E-01  0.35744000000E-01  0.51099999109E-03 0. -1.
       22    1    1    2    0    0  0.59139883496E-02 -0.28265338621E-02 -0.35130741993E-01  0.35737005818E-01  0.00000000000E+00 0. -1.
  9000001    1    1    2    0    0 -0.59139883496E-02  0.28265338621E-02  0.35130741993E-01  0.35750994182E-01  0.10000000475E-02 0.  1.
</event>
<event>
 4   0  0.4892667E-02  0.9118800E+02  0.7818609E-02  0.1379984E+01
      -11   -1    0    0    0    0  0.00000000000E+00  0.00000000000E+00  0.35740347158E-01  0.35744000000E-01  0.51099999109E-03 0. -1.
       11   -1    0    0    0    0 -0.00000000000E+00 -0.00000000000E+00 -0.35740347158E-01  0.35744000000E-01  0.51099999109E-03 0.  1.
       22    1    1    2    0    0  0.31915209679E-02 -0.66048867640E-02  0.34976038221E-01  0.35737005818E-01  0.00000000000E+00 0. -1.
  9000001    1    1    2    0    0 -0.31915209679E-02  0.66048867640E-02 -0.34976038221E-01  0.35750994182E-01  0.10000000475E-02 0.  1.
</event>
<event>
 4   0  0.4892667E-02  0.9118800E+02  0.7818609E-02  0.1379984E+01
      -11   -1    0    0    0    0  0.00000000000E+00  0.00000000000E+00  0.35740347158E-01  0.35744000000E-01  0.51099999109E-03 0. -1.
       11   -1    0    0    0    0 -0.00000000000E+00 -0.00000000000E+00 -0.35740347158E-01  0.35744000000E-01  0.51099999109E-03 0.  1.
       22    1    1    2    0    0 -0.21314623627E-03 -0.23605374374E-01  0.26830476220E-01  0.35737005818E-01  0.00000000000E+00 0. -1.
  9000001    1    1    2    0    0  0.21314623627E-03  0.23605374374E-01 -0.26830476220E-01  0.35750994182E-01  0.10000000475E-02 0.  1.
</event>
<event>
 4   0  0.4892667E-02  0.9118800E+02  0.7818609E-02  0.1379984E+01
      -11   -1    0    0    0    0  0.00000000000E+00  0.00000000000E+00  0.35740347158E-01  0.35744000000E-01  0.51099999109E-03 0.  1.
       11   -1    0    0    0    0 -0.00000000000E+00 -0.00000000000E+00 -0.35740347158E-01  0.35744000000E-01  0.51099999109E-03 0. -1.
       22    1    1    2    0    0  0.11498381024E-01 -0.13117169042E-02 -0.33811243950E-01  0.35737005818E-01  0.00000000000E+00 0. -1.
  9000001    1    1    2    0    0 -0.11498381024E-01  0.13117169042E-02  0.33811243950E-01  0.35750994182E-01  0.10000000475E-02 0.  1.
</event>
<event>
 4   0  0.4892667E-02  0.9118800E+02  0.7818609E-02  0.1379984E+01
      -11   -1    0    0    0    0  0.00000000000E+00  0.00000000000E+00  0.35740347158E-01  0.35744000000E-01  0.51099999109E-03 0.  1.
       11   -1    0    0    0    0 -0.00000000000E+00 -0.00000000000E+00 -0.35740347158E-01  0.35744000000E-01  0.51099999109E-03 0. -1.
       22    1    1    2    0    0 -0.16210749134E-01  0.80969155456E-02 -0.30802356339E-01  0.35737005818E-01  0.00000000000E+00 0. -1.
  9000001    1    1    2    0    0  0.16210749134E-01 -0.80969155456E-02  0.30802356339E-01  0.35750994182E-01  0.10000000475E-02 0.  1.
</event>
<event>
 4   0  0.4892667E-02  0.9118800E+02  0.7818609E-02  0.1379984E+01
      -11   -1    0    0    0    0  0.00000000000E+00  0.00000000000E+00  0.35740347158E-01  0.35744000000E-01  0.51099999109E-03 0. -1.
       11   -1    0    0    0    0 -0.00000000000E+00 -0.00000000000E+00 -0.35740347158E-01  0.35744000000E-01  0.51099999109E-03 0.  1.
       22    1    1    2    0    0 -0.83834195362E-02  0.65435619799E-02 -0.34117937487E-01  0.35737005818E-01  0.00000000000E+00 0.  1.
  9000001    1    1    2    0    0  0.83834195362E-02 -0.65435619799E-02  0.34117937487E-01  0.35750994182E-01  0.10000000475E-02 0. -1.
</event>
<event>
 4   0  0.4892667E-02  0.9118800E+02  0.7818609E-02  0.1379984E+01
      -11   -1    0    0    0    0  0.00000000000E+00  0.00000000000E+00  0.35740347158E-01  0.35744000000E-01  0.51099999109E-03 0.  1.
       11   -1    0    0    0    0 -0.00000000000E+00 -0.00000000000E+00 -0.35740347158E-01  0.35744000000E-01  0.51099999109E-03 0. -1.
       22    1    1    2    0    0  0.51742456054E-02 -0.10267270997E-02 -0.35345531524E-01  0.35737005818E-01  0.00000000000E+00 0. -1.
  9000001    1    1    2    0    0 -0.51742456054E-02  0.10267270997E-02  0.35345531524E-01  0.35750994182E-01  0.10000000475E-02 0.  1.
</event>
<event>
 4   0  0.4892667E-02  0.9118800E+02  0.7818609E-02  0.1379984E+01
      -11   -1    0    0    0    0  0.00000000000E+00  0.00000000000E+00  0.35740347158E-01  0.35744000000E-01  0.51099999109E-03 0. -1.
       11   -1    0    0    0    0 -0.00000000000E+00 -0.00000000000E+00 -0.35740347158E-01  0.35744000000E-01  0.51099999109E-03 0.  1.
       22    1    1    2    0    0 -0.13700530514E-02  0.34615586012E-02 -0.35542568162E-01  0.35737005818E-01  0.00000000000E+00 0.  1.
  9000001    1    1    2    0    0  0.13700530514E-02 -0.34615586012E-02  0.35542568162E-01  0.35750994182E-01  0.10000000475E-02 0. -1.
</event>
<event>
 4   0  0.4892667E-02  0.9118800E+02  0.7818609E-02  0.1379984E+01
      -11   -1    0    0    0    0  0.00000000000E+00  0.00000000000E+00  0.35740347158E-01  0.35744000000E-01  0.51099999109E-03 0.  1.
       11   -1    0    0    0    0 -0.00000000000E+00 -0.00000000000E+00 -0.35740347158E-01  0.35744000000E-01  0.51099999109E-03 0. -1.
       22    1    1    2    0    0  0.10449049963E-01 -0.31151998613E-03 -0.34173877378E-01  0.35737005818E-01  0.00000000000E+00 0. -1.
  9000001    1    1    2    0    0 -0.10449049963E-01  0.31151998613E-03  0.34173877378E-01  0.35750994182E-01  0.10000000475E-02 0.  1.
</event>
<event>
 4   0  0.4892667E-02  0.9118800E+02  0.7818609E-02  0.1379984E+01
      -11   -1    0    0    0    0  0.00000000000E+00  0.00000000000E+00  0.35740347158E-01  0.35744000000E-01  0.51099999109E-03 0. -1.
       11   -1    0    0    0    0 -0.00000000000E+00 -0.00000000000E+00 -0.35740347158E-01  0.35744000000E-01  0.51099999109E-03 0.  1.
       22    1    1    2    0    0  0.22256058714E-01  0.80604417552E-02  0.26773694443E-01  0.35737005818E-01  0.00000000000E+00 0. -1.
  9000001    1    1    2    0    0 -0.22256058714E-01 -0.80604417552E-02 -0.26773694443E-01  0.35750994182E-01  0.10000000475E-02 0.  1.
</event>
<event>
 4   0  0.4892667E-02  0.9118800E+02  0.7818609E-02  0.1379984E+01
      -11   -1    0    0    0    0  0.00000000000E+00  0.00000000000E+00  0.35740347158E-01  0.35744000000E-01  0.51099999109E-03 0. -1.
       11   -1    0    0    0    0 -0.00000000000E+00 -0.00000000000E+00 -0.35740347158E-01  0.35744000000E-01  0.51099999109E-03 0.  1.
       22    1    1    2    0    0 -0.20568790086E-01  0.15598376363E-01 -0.24713338789E-01  0.35737005818E-01  0.00000000000E+00 0.  1.
  9000001    1    1    2    0    0  0.20568790086E-01 -0.15598376363E-01  0.24713338789E-01  0.35750994182E-01  0.10000000475E-02 0. -1.
</event>
<event>
 4   0  0.4892667E-02  0.9118800E+02  0.7818609E-02  0.1379984E+01
      -11   -1    0    0    0    0  0.00000000000E+00  0.00000000000E+00  0.35740347158E-01  0.35744000000E-01  0.51099999109E-03 0.  1.
       11   -1    0    0    0    0 -0.00000000000E+00 -0.00000000000E+00 -0.35740347158E-01  0.35744000000E-01  0.51099999109E-03 0. -1.
       22    1    1    2    0    0  0.19235755586E-01 -0.55958690399E-02  0.29594011921E-01  0.35737005818E-01  0.00000000000E+00 0.  1.
  9000001    1    1    2    0    0 -0.19235755586E-01  0.55958690399E-02 -0.29594011921E-01  0.35750994182E-01  0.10000000475E-02 0. -1.
</event>
<event>
 4   0  0.4892667E-02  0.9118800E+02  0.7818609E-02  0.1379984E+01
      -11   -1    0    0    0    0  0.00000000000E+00  0.00000000000E+00  0.35740347158E-01  0.35744000000E-01  0.51099999109E-03 0.  1.
       11   -1    0    0    0    0 -0.00000000000E+00 -0.00000000000E+00 -0.35740347158E-01  0.35744000000E-01  0.51099999109E-03 0. -1.
       22    1    1    2    0    0  0.37148048074E-02  0.71482806487E-02  0.34817178144E-01  0.35737005818E-01  0.00000000000E+00 0.  1.
  9000001    1    1    2    0    0 -0.37148048074E-02 -0.71482806487E-02 -0.34817178144E-01  0.35750994182E-01  0.10000000475E-02 0. -1.
</event>
<event>
 4   0  0.4892667E-02  0.9118800E+02  0.7818609E-02  0.1379984E+01
      -11   -1    0    0    0    0  0.00000000000E+00  0.00000000000E+00  0.35740347158E-01  0.35744000000E-01  0.51099999109E-03 0. -1.
       11   -1    0    0    0    0 -0.00000000000E+00 -0.00000000000E+00 -0.35740347158E-01  0.35744000000E-01  0.51099999109E-03 0.  1.
       22    1    1    2    0    0  0.50277449196E-02  0.22154924719E-02  0.35312136143E-01  0.35737005818E-01  0.00000000000E+00 0. -1.
  9000001    1    1    2    0    0 -0.50277449196E-02 -0.22154924719E-02 -0.35312136143E-01  0.35750994182E-01  0.10000000475E-02 0.  1.
</event>
<event>
 4   0  0.4892667E-02  0.9118800E+02  0.7818609E-02  0.1379984E+01
      -11   -1    0    0    0    0  0.00000000000E+00  0.00000000000E+00  0.35740347158E-01  0.35744000000E-01  0.51099999109E-03 0.  1.
       11   -1    0    0    0    0 -0.00000000000E+00 -0.00000000000E+00 -0.35740347158E-01  0.35744000000E-01  0.51099999109E-03 0. -1.
       22    1    1    2    0    0 -0.26067980432E-01  0.34269557202E-02 -0.24204337537E-01  0.35737005818E-01  0.00000000000E+00 0. -1.
  9000001    1    1    2    0    0  0.26067980432E-01 -0.34269557202E-02  0.24204337537E-01  0.35750994182E-01  0.10000000475E-02 0.  1.
</event>
<event>
 4   0  0.4892667E-02  0.9118800E+02  0.7818609E-02  0.1379984E+01
      -11   -1    0    0    0    0  0.00000000000E+00  0.00000000000E+00  0.35740347158E-01  0.35744000000E-01  0.51099999109E-03 0. -1.
       11   -1    0    0    0    0 -0.00000000000E+00 -0.00000000000E+00 -0.35740347158E-01  0.35744000000E-01  0.51099999109E-03 0.  1.
       22    1    1    2    0    0 -0.56415439449E-02  0.10182764734E-01 -0.33787836112E-01  0.35737005818E-01  0.00000000000E+00 0.  1.
  9000001    1    1    2    0    0  0.56415439449E-02 -0.10182764734E-01  0.33787836112E-01  0.35750994182E-01  0.10000000475E-02 0. -1.
</event>
<event>
 4   0  0.4892667E-02  0.9118800E+02  0.7818609E-02  0.1379984E+01
      -11   -1    0    0    0    0  0.00000000000E+00  0.00000000000E+00  0.35740347158E-01  0.35744000000E-01  0.51099999109E-03 0.  1.
       11   -1    0    0    0    0 -0.00000000000E+00 -0.00000000000E+00 -0.35740347158E-01  0.35744000000E-01  0.51099999109E-03 0. -1.
       22    1    1    2    0    0 -0.47561501106E-02  0.19856193699E-02  0.35363398263E-01  0.35737005818E-01  0.00000000000E+00 0.  1.
  9000001    1    1    2    0    0  0.47561501106E-02 -0.19856193699E-02 -0.35363398263E-01  0.35750994182E-01  0.10000000475E-02 0. -1.
</event>
<event>
 4   0  0.4892667E-02  0.9118800E+02  0.7818609E-02  0.1379984E+01
      -11   -1    0    0    0    0  0.00000000000E+00  0.00000000000E+00  0.35740347158E-01  0.35744000000E-01  0.51099999109E-03 0. -1.
       11   -1    0    0    0    0 -0.00000000000E+00 -0.00000000000E+00 -0.35740347158E-01  0.35744000000E-01  0.51099999109E-03 0.  1.
       22    1    1    2    0    0 -0.25632139809E-01 -0.30749001870E-02 -0.24711778215E-01  0.35737005818E-01  0.00000000000E+00 0.  1.
  9000001    1    1    2    0    0  0.25632139809E-01  0.30749001870E-02  0.24711778215E-01  0.35750994182E-01  0.10000000475E-02 0. -1.
</event>
<event>
 4   0  0.4892667E-02  0.9118800E+02  0.7818609E-02  0.1379984E+01
      -11   -1    0    0    0    0  0.00000000000E+00  0.00000000000E+00  0.35740347158E-01  0.35744000000E-01  0.51099999109E-03 0. -1.
       11   -1    0    0    0    0 -0.00000000000E+00 -0.00000000000E+00 -0.35740347158E-01  0.35744000000E-01  0.51099999109E-03 0.  1.
       22    1    1    2    0    0 -0.99399309662E-02 -0.26136633769E-02 -0.34227183948E-01  0.35737005818E-01  0.00000000000E+00 0.  1.
  9000001    1    1    2    0    0  0.99399309662E-02  0.26136633769E-02  0.34227183948E-01  0.35750994182E-01  0.10000000475E-02 0. -1.
</event>
<event>
 4   0  0.4892667E-02  0.9118800E+02  0.7818609E-02  0.1379984E+01
      -11   -1    0    0    0    0  0.00000000000E+00  0.00000000000E+00  0.35740347158E-01  0.35744000000E-01  0.51099999109E-03 0. -1.
       11   -1    0    0    0    0 -0.00000000000E+00 -0.00000000000E+00 -0.35740347158E-01  0.35744000000E-01  0.51099999109E-03 0.  1.
       22    1    1    2    0    0  0.28827984042E-02  0.84778294436E-02 -0.34596957470E-01  0.35737005818E-01  0.00000000000E+00 0.  1.
  9000001    1    1    2    0    0 -0.28827984042E-02 -0.84778294436E-02  0.34596957470E-01  0.35750994182E-01  0.10000000475E-02 0. -1.
</event>
<event>
 4   0  0.4892667E-02  0.9118800E+02  0.7818609E-02  0.1379984E+01
      -11   -1    0    0    0    0  0.00000000000E+00  0.00000000000E+00  0.35740347158E-01  0.35744000000E-01  0.51099999109E-03 0. -1.
       11   -1    0    0    0    0 -0.00000000000E+00 -0.00000000000E+00 -0.35740347158E-01  0.35744000000E-01  0.51099999109E-03 0.  1.
       22    1    1    2    0    0 -0.39967828512E-02  0.49926140942E-02 -0.35160106886E-01  0.35737005818E-01  0.00000000000E+00 0.  1.
  9000001    1    1    2    0    0  0.39967828512E-02 -0.49926140942E-02  0.35160106886E-01  0.35750994182E-01  0.10000000475E-02 0. -1.
</event>
<event>
 4   0  0.4892667E-02  0.9118800E+02  0.7818609E-02  0.1379984E+01
      -11   -1    0    0    0    0  0.00000000000E+00  0.00000000000E+00  0.35740347158E-01  0.35744000000E-01  0.51099999109E-03 0. -1.
       11   -1    0    0    0    0 -0.00000000000E+00 -0.00000000000E+00 -0.35740347158E-01  0.35744000000E-01  0.51099999109E-03 0.  1.
       22    1    1    2    0    0 -0.99035223944E-03 -0.92852914408E-02 -0.34495451152E-01  0.35737005818E-01  0.00000000000E+00 0.  1.
  9000001    1    1    2    0    0  0.99035223944E-03  0.92852914408E-02  0.34495451152E-01  0.35750994182E-01  0.10000000475E-02 0. -1.
</event>
<event>
 4   0  0.4892667E-02  0.9118800E+02  0.7818609E-02  0.1379984E+01
      -11   -1    0    0    0    0  0.00000000000E+00  0.00000000000E+00  0.35740347158E-01  0.35744000000E-01  0.51099999109E-03 0. -1.
       11   -1    0    0    0    0 -0.00000000000E+00 -0.00000000000E+00 -0.35740347158E-01  0.35744000000E-01  0.51099999109E-03 0.  1.
       22    1    1    2    0    0  0.94831391712E-02 -0.12162362017E-01 -0.32237875341E-01  0.35737005818E-01  0.00000000000E+00 0.  1.
  9000001    1    1    2    0    0 -0.94831391712E-02  0.12162362017E-01  0.32237875341E-01  0.35750994182E-01  0.10000000475E-02 0. -1.
</event>
<event>
 4   0  0.4892667E-02  0.9118800E+02  0.7818609E-02  0.1379984E+01
      -11   -1    0    0    0    0  0.00000000000E+00  0.00000000000E+00  0.35740347158E-01  0.35744000000E-01  0.51099999109E-03 0.  1.
       11   -1    0    0    0    0 -0.00000000000E+00 -0.00000000000E+00 -0.35740347158E-01  0.35744000000E-01  0.51099999109E-03 0. -1.
       22    1    1    2    0    0  0.72695434481E-03 -0.93306081476E-02 -0.34489779266E-01  0.35737005818E-01  0.00000000000E+00 0. -1.
  9000001    1    1    2    0    0 -0.72695434481E-03  0.93306081476E-02  0.34489779266E-01  0.35750994182E-01  0.10000000475E-02 0.  1.
</event>
<event>
 4   0  0.4892667E-02  0.9118800E+02  0.7818609E-02  0.1379984E+01
      -11   -1    0    0    0    0  0.00000000000E+00  0.00000000000E+00  0.35740347158E-01  0.35744000000E-01  0.51099999109E-03 0. -1.
       11   -1    0    0    0    0 -0.00000000000E+00 -0.00000000000E+00 -0.35740347158E-01  0.35744000000E-01  0.51099999109E-03 0.  1.
       22    1    1    2    0    0  0.48701750414E-02  0.59608167848E-02 -0.34898189684E-01  0.35737005818E-01  0.00000000000E+00 0.  1.
  9000001    1    1    2    0    0 -0.48701750414E-02 -0.59608167848E-02  0.34898189684E-01  0.35750994182E-01  0.10000000475E-02 0. -1.
</event>
<event>
 4   0  0.4892667E-02  0.9118800E+02  0.7818609E-02  0.1379984E+01
      -11   -1    0    0    0    0  0.00000000000E+00  0.00000000000E+00  0.35740347158E-01  0.35744000000E-01  0.51099999109E-03 0.  1.
       11   -1    0    0    0    0 -0.00000000000E+00 -0.00000000000E+00 -0.35740347158E-01  0.35744000000E-01  0.51099999109E-03 0. -1.
       22    1    1    2    0    0  0.14270746624E-01  0.27215501822E-01  0.18242692681E-01  0.35737005818E-01  0.00000000000E+00 0.  1.
  9000001    1    1    2    0    0 -0.14270746624E-01 -0.27215501822E-01 -0.18242692681E-01  0.35750994182E-01  0.10000000475E-02 0. -1.
</event>
<event>
 4   0  0.4892667E-02  0.9118800E+02  0.7818609E-02  0.1379984E+01
      -11   -1    0    0    0    0  0.00000000000E+00  0.00000000000E+00  0.35740347158E-01  0.35744000000E-01  0.51099999109E-03 0.  1.
       11   -1    0    0    0    0 -0.00000000000E+00 -0.00000000000E+00 -0.35740347158E-01  0.35744000000E-01  0.51099999109E-03 0. -1.
       22    1    1    2    0    0 -0.37056144538E-02 -0.14166398445E-01 -0.32599312285E-01  0.35737005818E-01  0.00000000000E+00 0. -1.
  9000001    1    1    2    0    0  0.37056144538E-02  0.14166398445E-01  0.32599312285E-01  0.35750994182E-01  0.10000000475E-02 0.  1.
</event>
<event>
 4   0  0.4892667E-02  0.9118800E+02  0.7818609E-02  0.1379984E+01
      -11   -1    0    0    0    0  0.00000000000E+00  0.00000000000E+00  0.35740347158E-01  0.35744000000E-01  0.51099999109E-03 0. -1.
       11   -1    0    0    0    0 -0.00000000000E+00 -0.00000000000E+00 -0.35740347158E-01  0.35744000000E-01  0.51099999109E-03 0.  1.
       22    1    1    2    0    0 -0.21040666838E-02  0.25989468431E-02 -0.35580218712E-01  0.35737005818E-01  0.00000000000E+00 0.  1.
  9000001    1    1    2    0    0  0.21040666838E-02 -0.25989468431E-02  0.35580218712E-01  0.35750994182E-01  0.10000000475E-02 0. -1.
</event>
<event>
 4   0  0.4892667E-02  0.9118800E+02  0.7818609E-02  0.1379984E+01
      -11   -1    0    0    0    0  0.00000000000E+00  0.00000000000E+00  0.35740347158E-01  0.35744000000E-01  0.51099999109E-03 0. -1.
       11   -1    0    0    0    0 -0.00000000000E+00 -0.00000000000E+00 -0.35740347158E-01  0.35744000000E-01  0.51099999109E-03 0.  1.
       22    1    1    2    0    0 -0.14914088572E-01 -0.24394906956E-01 -0.21438098366E-01  0.35737005818E-01  0.00000000000E+00 0.  1.
  9000001    1    1    2    0    0  0.14914088572E-01  0.24394906956E-01  0.21438098366E-01  0.35750994182E-01  0.10000000475E-02 0. -1.
</event>
<event>
 4   0  0.4892667E-02  0.9118800E+02  0.7818609E-02  0.1379984E+01
      -11   -1    0    0    0    0  0.00000000000E+00  0.00000000000E+00  0.35740347158E-01  0.35744000000E-01  0.51099999109E-03 0.  1.
       11   -1    0    0    0    0 -0.00000000000E+00 -0.00000000000E+00 -0.35740347158E-01  0.35744000000E-01  0.51099999109E-03 0. -1.
       22    1    1    2    0    0  0.62759168574E-02 -0.39286131033E-02 -0.34961585370E-01  0.35737005818E-01  0.00000000000E+00 0. -1.
  9000001    1    1    2    0    0 -0.62759168574E-02  0.39286131033E-02  0.34961585370E-01  0.35750994182E-01  0.10000000475E-02 0.  1.
</event>
<event>
 4   0  0.4892667E-02  0.9118800E+02  0.7818609E-02  0.1379984E+01
      -11   -1    0    0    0    0  0.00000000000E+00  0.00000000000E+00  0.35740347158E-01  0.35744000000E-01  0.51099999109E-03 0. -1.
       11   -1    0    0    0    0 -0.00000000000E+00 -0.00000000000E+00 -0.35740347158E-01  0.35744000000E-01  0.51099999109E-03 0.  1.
       22    1    1    2    0    0 -0.17590685964E-02  0.27039702332E-02  0.35591119785E-01  0.35737005818E-01  0.00000000000E+00 0. -1.
  9000001    1    1    2    0    0  0.17590685964E-02 -0.27039702332E-02 -0.35591119785E-01  0.35750994182E-01  0.10000000475E-02 0.  1.
</event>
<event>
 4   0  0.4892667E-02  0.9118800E+02  0.7818609E-02  0.1379984E+01
      -11   -1    0    0    0    0  0.00000000000E+00  0.00000000000E+00  0.35740347158E-01  0.35744000000E-01  0.51099999109E-03 0. -1.
       11   -1    0    0    0    0 -0.00000000000E+00 -0.00000000000E+00 -0.35740347158E-01  0.35744000000E-01  0.51099999109E-03 0.  1.
       22    1    1    2    0    0  0.16607891355E-02 -0.36211264053E-02 -0.35514262035E-01  0.35737005818E-01  0.00000000000E+00 0.  1.
  9000001    1    1    2    0    0 -0.16607891355E-02  0.36211264053E-02  0.35514262035E-01  0.35750994182E-01  0.10000000475E-02 0. -1.
</event>
<event>
 4   0  0.4892667E-02  0.9118800E+02  0.7818609E-02  0.1379984E+01
      -11   -1    0    0    0    0  0.00000000000E+00  0.00000000000E+00  0.35740347158E-01  0.35744000000E-01  0.51099999109E-03 0. -1.
       11   -1    0    0    0    0 -0.00000000000E+00 -0.00000000000E+00 -0.35740347158E-01  0.35744000000E-01  0.51099999109E-03 0.  1.
       22    1    1    2    0    0  0.45316693772E-02 -0.13104001090E-01 -0.32937557787E-01  0.35737005818E-01  0.00000000000E+00 0.  1.
  9000001    1    1    2    0    0 -0.45316693772E-02  0.13104001090E-01  0.32937557787E-01  0.35750994182E-01  0.10000000475E-02 0. -1.
</event>
<event>
 4   0  0.4892667E-02  0.9118800E+02  0.7818609E-02  0.1379984E+01
      -11   -1    0    0    0    0  0.00000000000E+00  0.00000000000E+00  0.35740347158E-01  0.35744000000E-01  0.51099999109E-03 0.  1.
       11   -1    0    0    0    0 -0.00000000000E+00 -0.00000000000E+00 -0.35740347158E-01  0.35744000000E-01  0.51099999109E-03 0. -1.
       22    1    1    2    0    0  0.93323398505E-02  0.39039828636E-02  0.34275354638E-01  0.35737005818E-01  0.00000000000E+00 0.  1.
  9000001    1    1    2    0    0 -0.93323398505E-02 -0.39039828636E-02 -0.34275354638E-01  0.35750994182E-01  0.10000000475E-02 0. -1.
</event>
<event>
 4   0  0.4892667E-02  0.9118800E+02  0.7818609E-02  0.1379984E+01
      -11   -1    0    0    0    0  0.00000000000E+00  0.00000000000E+00  0.35740347158E-01  0.35744000000E-01  0.51099999109E-03 0. -1.
       11   -1    0    0    0    0 -0.00000000000E+00 -0.00000000000E+00 -0.35740347158E-01  0.35744000000E-01  0.51099999109E-03 0.  1.
       22    1    1    2    0    0 -0.46467788899E-02 -0.17033150921E-02  0.35392651052E-01  0.35737005818E-01  0.00000000000E+00 0. -1.
  9000001    1    1    2    0    0  0.46467788899E-02  0.17033150921E-02 -0.35392651052E-01  0.35750994182E-01  0.10000000475E-02 0.  1.
</event>
<event>
 4   0  0.4892667E-02  0.9118800E+02  0.7818609E-02  0.1379984E+01
      -11   -1    0    0    0    0  0.00000000000E+00  0.00000000000E+00  0.35740347158E-01  0.35744000000E-01  0.51099999109E-03 0. -1.
       11   -1    0    0    0    0 -0.00000000000E+00 -0.00000000000E+00 -0.35740347158E-01  0.35744000000E-01  0.51099999109E-03 0.  1.
       22    1    1    2    0    0  0.10527398685E-01  0.10671108047E-01  0.32441253287E-01  0.35737005818E-01  0.00000000000E+00 0. -1.
  9000001    1    1    2    0    0 -0.10527398685E-01 -0.10671108047E-01 -0.32441253287E-01  0.35750994182E-01  0.10000000475E-02 0.  1.
</event>
<event>
 4   0  0.4892667E-02  0.9118800E+02  0.7818609E-02  0.1379984E+01
      -11   -1    0    0    0    0  0.00000000000E+00  0.00000000000E+00  0.35740347158E-01  0.35744000000E-01  0.51099999109E-03 0.  1.
       11   -1    0    0    0    0 -0.00000000000E+00 -0.00000000000E+00 -0.35740347158E-01  0.35744000000E-01  0.51099999109E-03 0. -1.
       22    1    1    2    0    0  0.86817843611E-02  0.36773420917E-02  0.34470818968E-01  0.35737005818E-01  0.00000000000E+00 0.  1.
  9000001    1    1    2    0    0 -0.86817843611E-02 -0.36773420917E-02 -0.34470818968E-01  0.35750994182E-01  0.10000000475E-02 0. -1.
</event>
<event>
 4   0  0.4892667E-02  0.9118800E+02  0.7818609E-02  0.1379984E+01
      -11   -1    0    0    0    0  0.00000000000E+00  0.00000000000E+00  0.35740347158E-01  0.35744000000E-01  0.51099999109E-03 0.  1.
       11   -1    0    0    0    0 -0.00000000000E+00 -0.00000000000E+00 -0.35740347158E-01  0.35744000000E-01  0.51099999109E-03 0. -1.
       22    1    1    2    0    0 -0.11306239986E-01  0.27327048681E-02  0.33791046837E-01  0.35737005818E-01  0.00000000000E+00 0.  1.
  9000001    1    1    2    0    0  0.11306239986E-01 -0.27327048681E-02 -0.33791046837E-01  0.35750994182E-01  0.10000000475E-02 0. -1.
</event>
<event>
 4   0  0.4892667E-02  0.9118800E+02  0.7818609E-02  0.1379984E+01
      -11   -1    0    0    0    0  0.00000000000E+00  0.00000000000E+00  0.35740347158E-01  0.35744000000E-01  0.51099999109E-03 0.  1.
       11   -1    0    0    0    0 -0.00000000000E+00 -0.00000000000E+00 -0.35740347158E-01  0.35744000000E-01  0.51099999109E-03 0. -1.
       22    1    1    2    0    0  0.31410257307E-02 -0.26744855819E-03  0.35597696744E-01  0.35737005818E-01  0.00000000000E+00 0.  1.
  9000001    1    1    2    0    0 -0.31410257307E-02  0.26744855819E-03 -0.35597696744E-01  0.35750994182E-01  0.10000000475E-02 0. -1.
</event>
<event>
 4   0  0.4892667E-02  0.9118800E+02  0.7818609E-02  0.1379984E+01
      -11   -1    0    0    0    0  0.00000000000E+00  0.00000000000E+00  0.35740347158E-01  0.35744000000E-01  0.51099999109E-03 0.  1.
       11   -1    0    0    0    0 -0.00000000000E+00 -0.00000000000E+00 -0.35740347158E-01  0.35744000000E-01  0.51099999109E-03 0. -1.
       22    1    1    2    0    0 -0.40473938353E-02 -0.44456954287E-02  0.35227659306E-01  0.35737005818E-01  0.00000000000E+00 0.  1.
  9000001    1    1    2    0    0  0.40473938353E-02  0.44456954287E-02 -0.35227659306E-01  0.35750994182E-01  0.10000000475E-02 0. -1.
</event>
<event>
 4   0  0.4892667E-02  0.9118800E+02  0.7818609E-02  0.1379984E+01
      -11   -1    0    0    0    0  0.00000000000E+00  0.00000000000E+00  0.35740347158E-01  0.35744000000E-01  0.51099999109E-03 0.  1.
       11   -1    0    0    0    0 -0.00000000000E+00 -0.00000000000E+00 -0.35740347158E-01  0.35744000000E-01  0.51099999109E-03 0. -1.
       22    1    1    2    0    0 -0.27478287681E-01  0.87427534965E-04 -0.22848843459E-01  0.35737005818E-01  0.00000000000E+00 0. -1.
  9000001    1    1    2    0    0  0.27478287681E-01 -0.87427534965E-04  0.22848843459E-01  0.35750994182E-01  0.10000000475E-02 0.  1.
</event>
<event>
 4   0  0.4892667E-02  0.9118800E+02  0.7818609E-02  0.1379984E+01
      -11   -1    0    0    0    0  0.00000000000E+00  0.00000000000E+00  0.35740347158E-01  0.35744000000E-01  0.51099999109E-03 0.  1.
       11   -1    0    0    0    0 -0.00000000000E+00 -0.00000000000E+00 -0.35740347158E-01  0.35744000000E-01  0.51099999109E-03 0. -1.
       22    1    1    2    0    0  0.29059694491E-02 -0.22861975520E-02 -0.35545213844E-01  0.35737005818E-01  0.00000000000E+00 0. -1.
  9000001    1    1    2    0    0 -0.29059694491E-02  0.22861975520E-02  0.35545213844E-01  0.35750994182E-01  0.10000000475E-02 0.  1.
</event>
<event>
 4   0  0.4892667E-02  0.9118800E+02  0.7818609E-02  0.1379984E+01
      -11   -1    0    0    0    0  0.00000000000E+00  0.00000000000E+00  0.35740347158E-01  0.35744000000E-01  0.51099999109E-03 0. -1.
       11   -1    0    0    0    0 -0.00000000000E+00 -0.00000000000E+00 -0.35740347158E-01  0.35744000000E-01  0.51099999109E-03 0.  1.
       22    1    1    2    0    0 -0.48319176494E-02  0.45391388288E-03 -0.35405933385E-01  0.35737005818E-01  0.00000000000E+00 0.  1.
  9000001    1    1    2    0    0  0.48319176494E-02 -0.45391388288E-03  0.35405933385E-01  0.35750994182E-01  0.10000000475E-02 0. -1.
</event>
<event>
 4   0  0.4892667E-02  0.9118800E+02  0.7818609E-02  0.1379984E+01
      -11   -1    0    0    0    0  0.00000000000E+00  0.00000000000E+00  0.35740347158E-01  0.35744000000E-01  0.51099999109E-03 0.  1.
       11   -1    0    0    0    0 -0.00000000000E+00 -0.00000000000E+00 -0.35740347158E-01  0.35744000000E-01  0.51099999109E-03 0. -1.
       22    1    1    2    0    0  0.61348138076E-02 -0.16183054960E-01  0.31266697565E-01  0.35737005818E-01  0.00000000000E+00 0.  1.
  9000001    1    1    2    0    0 -0.61348138076E-02  0.16183054960E-01 -0.31266697565E-01  0.35750994182E-01  0.10000000475E-02 0. -1.
</event>
<event>
 4   0  0.4892667E-02  0.9118800E+02  0.7818609E-02  0.1379984E+01
      -11   -1    0    0    0    0  0.00000000000E+00  0.00000000000E+00  0.35740347158E-01  0.35744000000E-01  0.51099999109E-03 0. -1.
       11   -1    0    0    0    0 -0.00000000000E+00 -0.00000000000E+00 -0.35740347158E-01  0.35744000000E-01  0.51099999109E-03 0.  1.
       22    1    1    2    0    0  0.19231773174E-02 -0.24262149766E-02 -0.35602646738E-01  0.35737005818E-01  0.00000000000E+00 0.  1.
  9000001    1    1    2    0    0 -0.19231773174E-02  0.24262149766E-02  0.35602646738E-01  0.35750994182E-01  0.10000000475E-02 0. -1.
</event>
<event>
 4   0  0.4892667E-02  0.9118800E+02  0.7818609E-02  0.1379984E+01
      -11   -1    0    0    0    0  0.00000000000E+00  0.00000000000E+00  0.35740347158E-01  0.35744000000E-01  0.51099999109E-03 0.  1.
       11   -1    0    0    0    0 -0.00000000000E+00 -0.00000000000E+00 -0.35740347158E-01  0.35744000000E-01  0.51099999109E-03 0. -1.
       22    1    1    2    0    0  0.70091980553E-02 -0.32279317479E-02  0.34893913282E-01  0.35737005818E-01  0.00000000000E+00 0.  1.
  9000001    1    1    2    0    0 -0.70091980553E-02  0.32279317479E-02 -0.34893913282E-01  0.35750994182E-01  0.10000000475E-02 0. -1.
</event>
<event>
 4   0  0.4892667E-02  0.9118800E+02  0.7818609E-02  0.1379984E+01
      -11   -1    0    0    0    0  0.00000000000E+00  0.00000000000E+00  0.35740347158E-01  0.35744000000E-01  0.51099999109E-03 0.  1.
       11   -1    0    0    0    0 -0.00000000000E+00 -0.00000000000E+00 -0.35740347158E-01  0.35744000000E-01  0.51099999109E-03 0. -1.
       22    1    1    2    0    0 -0.65997077097E-02 -0.28861975833E-02 -0.35003532772E-01  0.35737005818E-01  0.00000000000E+00 0. -1.
  9000001    1    1    2    0    0  0.65997077097E-02  0.28861975833E-02  0.35003532772E-01  0.35750994182E-01  0.10000000475E-02 0.  1.
</event>
<event>
 4   0  0.4892667E-02  0.9118800E+02  0.7818609E-02  0.1379984E+01
      -11   -1    0    0    0    0  0.00000000000E+00  0.00000000000E+00  0.35740347158E-01  0.35744000000E-01  0.51099999109E-03 0.  1.
       11   -1    0    0    0    0 -0.00000000000E+00 -0.00000000000E+00 -0.35740347158E-01  0.35744000000E-01  0.51099999109E-03 0. -1.
       22    1    1    2    0    0  0.45964046344E-03 -0.43437657868E-02 -0.35469057139E-01  0.35737005818E-01  0.00000000000E+00 0. -1.
  9000001    1    1    2    0    0 -0.45964046344E-03  0.43437657868E-02  0.35469057139E-01  0.35750994182E-01  0.10000000475E-02 0.  1.
</event>
<event>
 4   0  0.4892667E-02  0.9118800E+02  0.7818609E-02  0.1379984E+01
      -11   -1    0    0    0    0  0.00000000000E+00  0.00000000000E+00  0.35740347158E-01  0.35744000000E-01  0.51099999109E-03 0.  1.
       11   -1    0    0    0    0 -0.00000000000E+00 -0.00000000000E+00 -0.35740347158E-01  0.35744000000E-01  0.51099999109E-03 0. -1.
       22    1    1    2    0    0 -0.64573104918E-02  0.59423350168E-02 -0.34642825818E-01  0.35737005818E-01  0.00000000000E+00 0. -1.
  9000001    1    1    2    0    0  0.64573104918E-02 -0.59423350168E-02  0.34642825818E-01  0.35750994182E-01  0.10000000475E-02 0.  1.
</event>
<event>
 4   0  0.4892667E-02  0.9118800E+02  0.7818609E-02  0.1379984E+01
      -11   -1    0    0    0    0  0.00000000000E+00  0.00000000000E+00  0.35740347158E-01  0.35744000000E-01  0.51099999109E-03 0. -1.
       11   -1    0    0    0    0 -0.00000000000E+00 -0.00000000000E+00 -0.35740347158E-01  0.35744000000E-01  0.51099999109E-03 0.  1.
       22    1    1    2    0    0 -0.96307516863E-02  0.28558676136E-01 -0.19203755471E-01  0.35737005818E-01  0.00000000000E+00 0.  1.
  9000001    1    1    2    0    0  0.96307516863E-02 -0.28558676136E-01  0.19203755471E-01  0.35750994182E-01  0.10000000475E-02 0. -1.
</event>
<event>
 4   0  0.4892667E-02  0.9118800E+02  0.7818609E-02  0.1379984E+01
      -11   -1    0    0    0    0  0.00000000000E+00  0.00000000000E+00  0.35740347158E-01  0.35744000000E-01  0.51099999109E-03 0.  1.
       11   -1    0    0    0    0 -0.00000000000E+00 -0.00000000000E+00 -0.35740347158E-01  0.35744000000E-01  0.51099999109E-03 0. -1.
       22    1    1    2    0    0 -0.56179124718E-02 -0.13590855029E-03  0.35292409569E-01  0.35737005818E-01  0.00000000000E+00 0.  1.
  9000001    1    1    2    0    0  0.56179124718E-02  0.13590855029E-03 -0.35292409569E-01  0.35750994182E-01  0.10000000475E-02 0. -1.
</event>
<event>
 4   0  0.4892667E-02  0.9118800E+02  0.7818609E-02  0.1379984E+01
      -11   -1    0    0    0    0  0.00000000000E+00  0.00000000000E+00  0.35740347158E-01  0.35744000000E-01  0.51099999109E-03 0.  1.
       11   -1    0    0    0    0 -0.00000000000E+00 -0.00000000000E+00 -0.35740347158E-01  0.35744000000E-01  0.51099999109E-03 0. -1.
       22    1    1    2    0    0  0.87394663273E-02 -0.21854528438E-01 -0.26891167694E-01  0.35737005818E-01  0.00000000000E+00 0. -1.
  9000001    1    1    2    0    0 -0.87394663273E-02  0.21854528438E-01  0.26891167694E-01  0.35750994182E-01  0.10000000475E-02 0.  1.
</event>
<event>
 4   0  0.4892667E-02  0.9118800E+02  0.7818609E-02  0.1379984E+01
      -11   -1    0    0    0    0  0.00000000000E+00  0.00000000000E+00  0.35740347158E-01  0.35744000000E-01  0.51099999109E-03 0. -1.
       11   -1    0    0    0    0 -0.00000000000E+00 -0.00000000000E+00 -0.35740347158E-01  0.35744000000E-01  0.51099999109E-03 0.  1.
       22    1    1    2    0    0 -0.11688561643E-01 -0.21177831360E-02 -0.33704986370E-01  0.35737005818E-01  0.00000000000E+00 0.  1.
  9000001    1    1    2    0    0  0.11688561643E-01  0.21177831360E-02  0.33704986370E-01  0.35750994182E-01  0.10000000475E-02 0. -1.
</event>
<event>
 4   0  0.4892667E-02  0.9118800E+02  0.7818609E-02  0.1379984E+01
      -11   -1    0    0    0    0  0.00000000000E+00  0.00000000000E+00  0.35740347158E-01  0.35744000000E-01  0.51099999109E-03 0. -1.
       11   -1    0    0    0    0 -0.00000000000E+00 -0.00000000000E+00 -0.35740347158E-01  0.35744000000E-01  0.51099999109E-03 0.  1.
       22    1    1    2    0    0  0.75868295885E-02  0.10582500592E-01 -0.33280388863E-01  0.35737005818E-01  0.00000000000E+00 0.  1.
  9000001    1    1    2    0    0 -0.75868295885E-02 -0.10582500592E-01  0.33280388863E-01  0.35750994182E-01  0.10000000475E-02 0. -1.
</event>
<event>
 4   0  0.4892667E-02  0.9118800E+02  0.7818609E-02  0.1379984E+01
      -11   -1    0    0    0    0  0.00000000000E+00  0.00000000000E+00  0.35740347158E-01  0.35744000000E-01  0.51099999109E-03 0. -1.
       11   -1    0    0    0    0 -0.00000000000E+00 -0.00000000000E+00 -0.35740347158E-01  0.35744000000E-01  0.51099999109E-03 0.  1.
       22    1    1    2    0    0 -0.12495923721E-01  0.16767857201E-02  0.33439106820E-01  0.35737005818E-01  0.00000000000E+00 0. -1.
  9000001    1    1    2    0    0  0.12495923721E-01 -0.16767857201E-02 -0.33439106820E-01  0.35750994182E-01  0.10000000475E-02 0.  1.
</event>
<event>
 4   0  0.4892667E-02  0.9118800E+02  0.7818609E-02  0.1379984E+01
      -11   -1    0    0    0    0  0.00000000000E+00  0.00000000000E+00  0.35740347158E-01  0.35744000000E-01  0.51099999109E-03 0. -1.
       11   -1    0    0    0    0 -0.00000000000E+00 -0.00000000000E+00 -0.35740347158E-01  0.35744000000E-01  0.51099999109E-03 0.  1.
       22    1    1    2    0    0 -0.66614867327E-03 -0.92513994731E-02 -0.34512337484E-01  0.35737005818E-01  0.00000000000E+00 0.  1.
  9000001    1    1    2    0    0  0.66614867327E-03  0.92513994731E-02  0.34512337484E-01  0.35750994182E-01  0.10000000475E-02 0. -1.
</event>
<event>
 4   0  0.4892667E-02  0.9118800E+02  0.7818609E-02  0.1379984E+01
      -11   -1    0    0    0    0  0.00000000000E+00  0.00000000000E+00  0.35740347158E-01  0.35744000000E-01  0.51099999109E-03 0. -1.
       11   -1    0    0    0    0 -0.00000000000E+00 -0.00000000000E+00 -0.35740347158E-01  0.35744000000E-01  0.51099999109E-03 0.  1.
       22    1    1    2    0    0  0.11128024656E-01 -0.16732427470E-01 -0.29552098455E-01  0.35737005818E-01  0.00000000000E+00 0.  1.
  9000001    1    1    2    0    0 -0.11128024656E-01  0.16732427470E-01  0.29552098455E-01  0.35750994182E-01  0.10000000475E-02 0. -1.
</event>
<event>
 4   0  0.4892667E-02  0.9118800E+02  0.7818609E-02  0.1379984E+01
      -11   -1    0    0    0    0  0.00000000000E+00  0.00000000000E+00  0.35740347158E-01  0.35744000000E-01  0.51099999109E-03 0. -1.
       11   -1    0    0    0    0 -0.00000000000E+00 -0.00000000000E+00 -0.35740347158E-01  0.35744000000E-01  0.51099999109E-03 0.  1.
       22    1    1    2    0    0  0.48036230147E-02 -0.22330269708E-02 -0.35342218116E-01  0.35737005818E-01  0.00000000000E+00 0.  1.
  9000001    1    1    2    0    0 -0.48036230147E-02  0.22330269708E-02  0.35342218116E-01  0.35750994182E-01  0.10000000475E-02 0. -1.
</event>
<event>
 4   0  0.4892667E-02  0.9118800E+02  0.7818609E-02  0.1379984E+01
      -11   -1    0    0    0    0  0.00000000000E+00  0.00000000000E+00  0.35740347158E-01  0.35744000000E-01  0.51099999109E-03 0.  1.
       11   -1    0    0    0    0 -0.00000000000E+00 -0.00000000000E+00 -0.35740347158E-01  0.35744000000E-01  0.51099999109E-03 0. -1.
       22    1    1    2    0    0  0.90145710606E-02 -0.15302215105E-01  0.31011502807E-01  0.35737005818E-01  0.00000000000E+00 0.  1.
  9000001    1    1    2    0    0 -0.90145710606E-02  0.15302215105E-01 -0.31011502807E-01  0.35750994182E-01  0.10000000475E-02 0. -1.
</event>
<event>
 4   0  0.4892667E-02  0.9118800E+02  0.7818609E-02  0.1379984E+01
      -11   -1    0    0    0    0  0.00000000000E+00  0.00000000000E+00  0.35740347158E-01  0.35744000000E-01  0.51099999109E-03 0.  1.
       11   -1    0    0    0    0 -0.00000000000E+00 -0.00000000000E+00 -0.35740347158E-01  0.35744000000E-01  0.51099999109E-03 0. -1.
       22    1    1    2    0    0  0.43515050256E-02 -0.81030308145E-02  0.34533156249E-01  0.35737005818E-01  0.00000000000E+00 0.  1.
  9000001    1    1    2    0    0 -0.43515050256E-02  0.81030308145E-02 -0.34533156249E-01  0.35750994182E-01  0.10000000475E-02 0. -1.
</event>
<event>
 4   0  0.4892667E-02  0.9118800E+02  0.7818609E-02  0.1379984E+01
      -11   -1    0    0    0    0  0.00000000000E+00  0.00000000000E+00  0.35740347158E-01  0.35744000000E-01  0.51099999109E-03 0.  1.
       11   -1    0    0    0    0 -0.00000000000E+00 -0.00000000000E+00 -0.35740347158E-01  0.35744000000E-01  0.51099999109E-03 0. -1.
       22    1    1    2    0    0 -0.12176377514E-01 -0.25996245497E-01 -0.21285315022E-01  0.35737005818E-01  0.00000000000E+00 0. -1.
  9000001    1    1    2    0    0  0.12176377514E-01  0.25996245497E-01  0.21285315022E-01  0.35750994182E-01  0.10000000475E-02 0.  1.
</event>
<event>
 4   0  0.4892667E-02  0.9118800E+02  0.7818609E-02  0.1379984E+01
      -11   -1    0    0    0    0  0.00000000000E+00  0.00000000000E+00  0.35740347158E-01  0.35744000000E-01  0.51099999109E-03 0.  1.
       11   -1    0    0    0    0 -0.00000000000E+00 -0.00000000000E+00 -0.35740347158E-01  0.35744000000E-01  0.51099999109E-03 0. -1.
       22    1    1    2    0    0 -0.11515970894E-02  0.73965558040E-02  0.34944217995E-01  0.35737005818E-01  0.00000000000E+00 0.  1.
  9000001    1    1    2    0    0  0.11515970894E-02 -0.73965558040E-02 -0.34944217995E-01  0.35750994182E-01  0.10000000475E-02 0. -1.
</event>
<event>
 4   0  0.4892667E-02  0.9118800E+02  0.7818609E-02  0.1379984E+01
      -11   -1    0    0    0    0  0.00000000000E+00  0.00000000000E+00  0.35740347158E-01  0.35744000000E-01  0.51099999109E-03 0. -1.
       11   -1    0    0    0    0 -0.00000000000E+00 -0.00000000000E+00 -0.35740347158E-01  0.35744000000E-01  0.51099999109E-03 0.  1.
       22    1    1    2    0    0  0.41012801581E-02  0.28230986502E-02  0.35388461396E-01  0.35737005818E-01  0.00000000000E+00 0. -1.
  9000001    1    1    2    0    0 -0.41012801581E-02 -0.28230986502E-02 -0.35388461396E-01  0.35750994182E-01  0.10000000475E-02 0.  1.
</event>
<event>
 4   0  0.4892667E-02  0.9118800E+02  0.7818609E-02  0.1379984E+01
      -11   -1    0    0    0    0  0.00000000000E+00  0.00000000000E+00  0.35740347158E-01  0.35744000000E-01  0.51099999109E-03 0. -1.
       11   -1    0    0    0    0 -0.00000000000E+00 -0.00000000000E+00 -0.35740347158E-01  0.35744000000E-01  0.51099999109E-03 0.  1.
       22    1    1    2    0    0  0.14663673187E-02  0.30127506244E-02  0.35579582424E-01  0.35737005818E-01  0.00000000000E+00 0. -1.
  9000001    1    1    2    0    0 -0.14663673187E-02 -0.30127506244E-02 -0.35579582424E-01  0.35750994182E-01  0.10000000475E-02 0.  1.
</event>
<event>
 4   0  0.4892667E-02  0.9118800E+02  0.7818609E-02  0.1379984E+01
      -11   -1    0    0    0    0  0.00000000000E+00  0.00000000000E+00  0.35740347158E-01  0.35744000000E-01  0.51099999109E-03 0. -1.
       11   -1    0    0    0    0 -0.00000000000E+00 -0.00000000000E+00 -0.35740347158E-01  0.35744000000E-01  0.51099999109E-03 0.  1.
       22    1    1    2    0    0  0.55370906438E-02 -0.56437202828E-02  0.34851436605E-01  0.35737005818E-01  0.00000000000E+00 0. -1.
  9000001    1    1    2    0    0 -0.55370906438E-02  0.56437202828E-02 -0.34851436605E-01  0.35750994182E-01  0.10000000475E-02 0.  1.
</event>
<event>
 4   0  0.4892667E-02  0.9118800E+02  0.7818609E-02  0.1379984E+01
      -11   -1    0    0    0    0  0.00000000000E+00  0.00000000000E+00  0.35740347158E-01  0.35744000000E-01  0.51099999109E-03 0. -1.
       11   -1    0    0    0    0 -0.00000000000E+00 -0.00000000000E+00 -0.35740347158E-01  0.35744000000E-01  0.51099999109E-03 0.  1.
       22    1    1    2    0    0 -0.55742876445E-02  0.22637690525E-01  0.27084974983E-01  0.35737005818E-01  0.00000000000E+00 0. -1.
  9000001    1    1    2    0    0  0.55742876445E-02 -0.22637690525E-01 -0.27084974983E-01  0.35750994182E-01  0.10000000475E-02 0.  1.
</event>
<event>
 4   0  0.4892667E-02  0.9118800E+02  0.7818609E-02  0.1379984E+01
      -11   -1    0    0    0    0  0.00000000000E+00  0.00000000000E+00  0.35740347158E-01  0.35744000000E-01  0.51099999109E-03 0.  1.
       11   -1    0    0    0    0 -0.00000000000E+00 -0.00000000000E+00 -0.35740347158E-01  0.35744000000E-01  0.51099999109E-03 0. -1.
       22    1    1    2    0    0 -0.20696669421E-01  0.17764581995E-01 -0.23091147358E-01  0.35737005818E-01  0.00000000000E+00 0. -1.
  9000001    1    1    2    0    0  0.20696669421E-01 -0.17764581995E-01  0.23091147358E-01  0.35750994182E-01  0.10000000475E-02 0.  1.
</event>
<event>
 4   0  0.4892667E-02  0.9118800E+02  0.7818609E-02  0.1379984E+01
      -11   -1    0    0    0    0  0.00000000000E+00  0.00000000000E+00  0.35740347158E-01  0.35744000000E-01  0.51099999109E-03 0.  1.
       11   -1    0    0    0    0 -0.00000000000E+00 -0.00000000000E+00 -0.35740347158E-01  0.35744000000E-01  0.51099999109E-03 0. -1.
       22    1    1    2    0    0  0.65296560129E-02 -0.15021341521E-01 -0.31762501100E-01  0.35737005818E-01  0.00000000000E+00 0. -1.
  9000001    1    1    2    0    0 -0.65296560129E-02  0.15021341521E-01  0.31762501100E-01  0.35750994182E-01  0.10000000475E-02 0.  1.
</event>
<event>
 4   0  0.4892667E-02  0.9118800E+02  0.7818609E-02  0.1379984E+01
      -11   -1    0    0    0    0  0.00000000000E+00  0.00000000000E+00  0.35740347158E-01  0.35744000000E-01  0.51099999109E-03 0.  1.
       11   -1    0    0    0    0 -0.00000000000E+00 -0.00000000000E+00 -0.35740347158E-01  0.35744000000E-01  0.51099999109E-03 0. -1.
       22    1    1    2    0    0 -0.74230128819E-02 -0.16237090470E-01 -0.30957864230E-01  0.35737005818E-01  0.00000000000E+00 0. -1.
  9000001    1    1    2    0    0  0.74230128819E-02  0.16237090470E-01  0.30957864230E-01  0.35750994182E-01  0.10000000475E-02 0.  1.
</event>
<event>
 4   0  0.4892667E-02  0.9118800E+02  0.7818609E-02  0.1379984E+01
      -11   -1    0    0    0    0  0.00000000000E+00  0.00000000000E+00  0.35740347158E-01  0.35744000000E-01  0.51099999109E-03 0.  1.
       11   -1    0    0    0    0 -0.00000000000E+00 -0.00000000000E+00 -0.35740347158E-01  0.35744000000E-01  0.51099999109E-03 0. -1.
       22    1    1    2    0    0  0.18752320359E-01 -0.23232907632E-01  0.19639655520E-01  0.35737005818E-01  0.00000000000E+00 0.  1.
  9000001    1    1    2    0    0 -0.18752320359E-01  0.23232907632E-01 -0.19639655520E-01  0.35750994182E-01  0.10000000475E-02 0. -1.
</event>
<event>
 4   0  0.4892667E-02  0.9118800E+02  0.7818609E-02  0.1379984E+01
      -11   -1    0    0    0    0  0.00000000000E+00  0.00000000000E+00  0.35740347158E-01  0.35744000000E-01  0.51099999109E-03 0.  1.
       11   -1    0    0    0    0 -0.00000000000E+00 -0.00000000000E+00 -0.35740347158E-01  0.35744000000E-01  0.51099999109E-03 0. -1.
       22    1    1    2    0    0 -0.31352925297E-01  0.12235022410E-01  0.12017981810E-01  0.35737005818E-01  0.00000000000E+00 0.  1.
  9000001    1    1    2    0    0  0.31352925297E-01 -0.12235022410E-01 -0.12017981810E-01  0.35750994182E-01  0.10000000475E-02 0. -1.
</event>
<event>
 4   0  0.4892667E-02  0.9118800E+02  0.7818609E-02  0.1379984E+01
      -11   -1    0    0    0    0  0.00000000000E+00  0.00000000000E+00  0.35740347158E-01  0.35744000000E-01  0.51099999109E-03 0.  1.
       11   -1    0    0    0    0 -0.00000000000E+00 -0.00000000000E+00 -0.35740347158E-01  0.35744000000E-01  0.51099999109E-03 0. -1.
       22    1    1    2    0    0  0.18851223965E-01  0.15190533720E-01 -0.26287118997E-01  0.35737005818E-01  0.00000000000E+00 0. -1.
  9000001    1    1    2    0    0 -0.18851223965E-01 -0.15190533720E-01  0.26287118997E-01  0.35750994182E-01  0.10000000475E-02 0.  1.
</event>
<event>
 4   0  0.4892667E-02  0.9118800E+02  0.7818609E-02  0.1379984E+01
      -11   -1    0    0    0    0  0.00000000000E+00  0.00000000000E+00  0.35740347158E-01  0.35744000000E-01  0.51099999109E-03 0. -1.
       11   -1    0    0    0    0 -0.00000000000E+00 -0.00000000000E+00 -0.35740347158E-01  0.35744000000E-01  0.51099999109E-03 0.  1.
       22    1    1    2    0    0 -0.39179063733E-02 -0.99211109780E-02 -0.34107992487E-01  0.35737005818E-01  0.00000000000E+00 0.  1.
  9000001    1    1    2    0    0  0.39179063733E-02  0.99211109780E-02  0.34107992487E-01  0.35750994182E-01  0.10000000475E-02 0. -1.
</event>
<event>
 4   0  0.4892667E-02  0.9118800E+02  0.7818609E-02  0.1379984E+01
      -11   -1    0    0    0    0  0.00000000000E+00  0.00000000000E+00  0.35740347158E-01  0.35744000000E-01  0.51099999109E-03 0. -1.
       11   -1    0    0    0    0 -0.00000000000E+00 -0.00000000000E+00 -0.35740347158E-01  0.35744000000E-01  0.51099999109E-03 0.  1.
       22    1    1    2    0    0 -0.60783643629E-02 -0.31704349107E-02  0.35073286330E-01  0.35737005818E-01  0.00000000000E+00 0. -1.
  9000001    1    1    2    0    0  0.60783643629E-02  0.31704349107E-02 -0.35073286330E-01  0.35750994182E-01  0.10000000475E-02 0.  1.
</event>
<event>
 4   0  0.4892667E-02  0.9118800E+02  0.7818609E-02  0.1379984E+01
      -11   -1    0    0    0    0  0.00000000000E+00  0.00000000000E+00  0.35740347158E-01  0.35744000000E-01  0.51099999109E-03 0. -1.
       11   -1    0    0    0    0 -0.00000000000E+00 -0.00000000000E+00 -0.35740347158E-01  0.35744000000E-01  0.51099999109E-03 0.  1.
       22    1    1    2    0    0  0.83150696417E-03  0.72681496234E-02  0.34980225587E-01  0.35737005818E-01  0.00000000000E+00 0. -1.
  9000001    1    1    2    0    0 -0.83150696417E-03 -0.72681496234E-02 -0.34980225587E-01  0.35750994182E-01  0.10000000475E-02 0.  1.
</event>
<event>
 4   0  0.4892667E-02  0.9118800E+02  0.7818609E-02  0.1379984E+01
      -11   -1    0    0    0    0  0.00000000000E+00  0.00000000000E+00  0.35740347158E-01  0.35744000000E-01  0.51099999109E-03 0.  1.
       11   -1    0    0    0    0 -0.00000000000E+00 -0.00000000000E+00 -0.35740347158E-01  0.35744000000E-01  0.51099999109E-03 0. -1.
       22    1    1    2    0    0  0.72614945278E-02  0.79904386696E-02  0.34066951316E-01  0.35737005818E-01  0.00000000000E+00 0.  1.
  9000001    1    1    2    0    0 -0.72614945278E-02 -0.79904386696E-02 -0.34066951316E-01  0.35750994182E-01  0.10000000475E-02 0. -1.
</event>
<event>
 4   0  0.4892667E-02  0.9118800E+02  0.7818609E-02  0.1379984E+01
      -11   -1    0    0    0    0  0.00000000000E+00  0.00000000000E+00  0.35740347158E-01  0.35744000000E-01  0.51099999109E-03 0. -1.
       11   -1    0    0    0    0 -0.00000000000E+00 -0.00000000000E+00 -0.35740347158E-01  0.35744000000E-01  0.51099999109E-03 0.  1.
       22    1    1    2    0    0 -0.11604167832E-01  0.19781320429E-01 -0.27407594493E-01  0.35737005818E-01  0.00000000000E+00 0.  1.
  9000001    1    1    2    0    0  0.11604167832E-01 -0.19781320429E-01  0.27407594493E-01  0.35750994182E-01  0.10000000475E-02 0. -1.
</event>
<event>
 4   0  0.4892667E-02  0.9118800E+02  0.7818609E-02  0.1379984E+01
      -11   -1    0    0    0    0  0.00000000000E+00  0.00000000000E+00  0.35740347158E-01  0.35744000000E-01  0.51099999109E-03 0.  1.
       11   -1    0    0    0    0 -0.00000000000E+00 -0.00000000000E+00 -0.35740347158E-01  0.35744000000E-01  0.51099999109E-03 0. -1.
       22    1    1    2    0    0  0.12198815108E-02  0.66358808157E-02 -0.35094309507E-01  0.35737005818E-01  0.00000000000E+00 0. -1.
  9000001    1    1    2    0    0 -0.12198815108E-02 -0.66358808157E-02  0.35094309507E-01  0.35750994182E-01  0.10000000475E-02 0.  1.
</event>
<event>
 4   0  0.4892667E-02  0.9118800E+02  0.7818609E-02  0.1379984E+01
      -11   -1    0    0    0    0  0.00000000000E+00  0.00000000000E+00  0.35740347158E-01  0.35744000000E-01  0.51099999109E-03 0.  1.
       11   -1    0    0    0    0 -0.00000000000E+00 -0.00000000000E+00 -0.35740347158E-01  0.35744000000E-01  0.51099999109E-03 0. -1.
       22    1    1    2    0    0  0.14405683422E-02 -0.43938575902E-02 -0.35436596383E-01  0.35737005818E-01  0.00000000000E+00 0. -1.
  9000001    1    1    2    0    0 -0.14405683422E-02  0.43938575902E-02  0.35436596383E-01  0.35750994182E-01  0.10000000475E-02 0.  1.
</event>
<event>
 4   0  0.4892667E-02  0.9118800E+02  0.7818609E-02  0.1379984E+01
      -11   -1    0    0    0    0  0.00000000000E+00  0.00000000000E+00  0.35740347158E-01  0.35744000000E-01  0.51099999109E-03 0.  1.
       11   -1    0    0    0    0 -0.00000000000E+00 -0.00000000000E+00 -0.35740347158E-01  0.35744000000E-01  0.51099999109E-03 0. -1.
       22    1    1    2    0    0  0.12707290054E-01 -0.93572069175E-02  0.32064014768E-01  0.35737005818E-01  0.00000000000E+00 0.  1.
  9000001    1    1    2    0    0 -0.12707290054E-01  0.93572069175E-02 -0.32064014768E-01  0.35750994182E-01  0.10000000475E-02 0. -1.
</event>
<event>
 4   0  0.4892667E-02  0.9118800E+02  0.7818609E-02  0.1379984E+01
      -11   -1    0    0    0    0  0.00000000000E+00  0.00000000000E+00  0.35740347158E-01  0.35744000000E-01  0.51099999109E-03 0.  1.
       11   -1    0    0    0    0 -0.00000000000E+00 -0.00000000000E+00 -0.35740347158E-01  0.35744000000E-01  0.51099999109E-03 0. -1.
       22    1    1    2    0    0  0.74430033759E-02 -0.26130320992E-01 -0.23215115991E-01  0.35737005818E-01  0.00000000000E+00 0. -1.
  9000001    1    1    2    0    0 -0.74430033759E-02  0.26130320992E-01  0.23215115991E-01  0.35750994182E-01  0.10000000475E-02 0.  1.
</event>
<event>
 4   0  0.4892667E-02  0.9118800E+02  0.7818609E-02  0.1379984E+01
      -11   -1    0    0    0    0  0.00000000000E+00  0.00000000000E+00  0.35740347158E-01  0.35744000000E-01  0.51099999109E-03 0. -1.
       11   -1    0    0    0    0 -0.00000000000E+00 -0.00000000000E+00 -0.35740347158E-01  0.35744000000E-01  0.51099999109E-03 0.  1.
       22    1    1    2    0    0  0.24190626857E-01 -0.11741070985E-02 -0.26278672524E-01  0.35737005818E-01  0.00000000000E+00 0.  1.
  9000001    1    1    2    0    0 -0.24190626857E-01  0.11741070985E-02  0.26278672524E-01  0.35750994182E-01  0.10000000475E-02 0. -1.
</event>
<event>
 4   0  0.4892667E-02  0.9118800E+02  0.7818609E-02  0.1379984E+01
      -11   -1    0    0    0    0  0.00000000000E+00  0.00000000000E+00  0.35740347158E-01  0.35744000000E-01  0.51099999109E-03 0. -1.
       11   -1    0    0    0    0 -0.00000000000E+00 -0.00000000000E+00 -0.35740347158E-01  0.35744000000E-01  0.51099999109E-03 0.  1.
       22    1    1    2    0    0  0.34958130734E-01  0.21126702983E-02  0.71133188246E-02  0.35737005818E-01  0.00000000000E+00 0.  1.
  9000001    1    1    2    0    0 -0.34958130734E-01 -0.21126702983E-02 -0.71133188246E-02  0.35750994182E-01  0.10000000475E-02 0. -1.
</event>
<event>
 4   0  0.4892667E-02  0.9118800E+02  0.7818609E-02  0.1379984E+01
      -11   -1    0    0    0    0  0.00000000000E+00  0.00000000000E+00  0.35740347158E-01  0.35744000000E-01  0.51099999109E-03 0.  1.
       11   -1    0    0    0    0 -0.00000000000E+00 -0.00000000000E+00 -0.35740347158E-01  0.35744000000E-01  0.51099999109E-03 0. -1.
       22    1    1    2    0    0 -0.83859976977E-02 -0.72786535454E-02  0.33968070744E-01  0.35737005818E-01  0.00000000000E+00 0.  1.
  9000001    1    1    2    0    0  0.83859976977E-02  0.72786535454E-02 -0.33968070744E-01  0.35750994182E-01  0.10000000475E-02 0. -1.
</event>
<event>
 4   0  0.4892667E-02  0.9118800E+02  0.7818609E-02  0.1379984E+01
      -11   -1    0    0    0    0  0.00000000000E+00  0.00000000000E+00  0.35740347158E-01  0.35744000000E-01  0.51099999109E-03 0. -1.
       11   -1    0    0    0    0 -0.00000000000E+00 -0.00000000000E+00 -0.35740347158E-01  0.35744000000E-01  0.51099999109E-03 0.  1.
       22    1    1    2    0    0  0.21089446005E-02  0.23569741633E-02  0.35596778089E-01  0.35737005818E-01  0.00000000000E+00 0. -1.
  9000001    1    1    2    0    0 -0.21089446005E-02 -0.23569741633E-02 -0.35596778089E-01  0.35750994182E-01  0.10000000475E-02 0.  1.
</event>
<event>
 4   0  0.4892667E-02  0.9118800E+02  0.7818609E-02  0.1379984E+01
      -11   -1    0    0    0    0  0.00000000000E+00  0.00000000000E+00  0.35740347158E-01  0.35744000000E-01  0.51099999109E-03 0.  1.
       11   -1    0    0    0    0 -0.00000000000E+00 -0.00000000000E+00 -0.35740347158E-01  0.35744000000E-01  0.51099999109E-03 0. -1.
       22    1    1    2    0    0 -0.16135939121E-02 -0.93020397133E-02  0.34467404264E-01  0.35737005818E-01  0.00000000000E+00 0.  1.
  9000001    1    1    2    0    0  0.16135939121E-02  0.93020397133E-02 -0.34467404264E-01  0.35750994182E-01  0.10000000475E-02 0. -1.
</event>
<event>
 4   0  0.4892667E-02  0.9118800E+02  0.7818609E-02  0.1379984E+01
      -11   -1    0    0    0    0  0.00000000000E+00  0.00000000000E+00  0.35740347158E-01  0.35744000000E-01  0.51099999109E-03 0.  1.
       11   -1    0    0    0    0 -0.00000000000E+00 -0.00000000000E+00 -0.35740347158E-01  0.35744000000E-01  0.51099999109E-03 0. -1.
       22    1    1    2    0    0  0.26409334443E-01 -0.14144302110E-01 -0.19483822956E-01  0.35737005818E-01  0.00000000000E+00 0. -1.
  9000001    1    1    2    0    0 -0.26409334443E-01  0.14144302110E-01  0.19483822956E-01  0.35750994182E-01  0.10000000475E-02 0.  1.
</event>
<event>
 4   0  0.4892667E-02  0.9118800E+02  0.7818609E-02  0.1379984E+01
      -11   -1    0    0    0    0  0.00000000000E+00  0.00000000000E+00  0.35740347158E-01  0.35744000000E-01  0.51099999109E-03 0.  1.
       11   -1    0    0    0    0 -0.00000000000E+00 -0.00000000000E+00 -0.35740347158E-01  0.35744000000E-01  0.51099999109E-03 0. -1.
       22    1    1    2    0    0 -0.74848639862E-02  0.55694053449E-02  0.34497711809E-01  0.35737005818E-01  0.00000000000E+00 0.  1.
  9000001    1    1    2    0    0  0.74848639862E-02 -0.55694053449E-02 -0.34497711809E-01  0.35750994182E-01  0.10000000475E-02 0. -1.
</event>
<event>
 4   0  0.4892667E-02  0.9118800E+02  0.7818609E-02  0.1379984E+01
      -11   -1    0    0    0    0  0.00000000000E+00  0.00000000000E+00  0.35740347158E-01  0.35744000000E-01  0.51099999109E-03 0. -1.
       11   -1    0    0    0    0 -0.00000000000E+00 -0.00000000000E+00 -0.35740347158E-01  0.35744000000E-01  0.51099999109E-03 0.  1.
       22    1    1    2    0    0  0.27341540984E-02 -0.50724105275E-02 -0.35269372516E-01  0.35737005818E-01  0.00000000000E+00 0.  1.
  9000001    1    1    2    0    0 -0.27341540984E-02  0.50724105275E-02  0.35269372516E-01  0.35750994182E-01  0.10000000475E-02 0. -1.
</event>
<event>
 4   0  0.4892667E-02  0.9118800E+02  0.7818609E-02  0.1379984E+01
      -11   -1    0    0    0    0  0.00000000000E+00  0.00000000000E+00  0.35740347158E-01  0.35744000000E-01  0.51099999109E-03 0.  1.
       11   -1    0    0    0    0 -0.00000000000E+00 -0.00000000000E+00 -0.35740347158E-01  0.35744000000E-01  0.51099999109E-03 0. -1.
       22    1    1    2    0    0  0.25902618239E-02 -0.15371210719E-02 -0.35609849584E-01  0.35737005818E-01  0.00000000000E+00 0. -1.
  9000001    1    1    2    0    0 -0.25902618239E-02  0.15371210719E-02  0.35609849584E-01  0.35750994182E-01  0.10000000475E-02 0.  1.
</event>
<event>
 4   0  0.4892667E-02  0.9118800E+02  0.7818609E-02  0.1379984E+01
      -11   -1    0    0    0    0  0.00000000000E+00  0.00000000000E+00  0.35740347158E-01  0.35744000000E-01  0.51099999109E-03 0. -1.
       11   -1    0    0    0    0 -0.00000000000E+00 -0.00000000000E+00 -0.35740347158E-01  0.35744000000E-01  0.51099999109E-03 0.  1.
       22    1    1    2    0    0  0.34712183698E-02  0.15047185310E-02 -0.35536179452E-01  0.35737005818E-01  0.00000000000E+00 0.  1.
  9000001    1    1    2    0    0 -0.34712183698E-02 -0.15047185310E-02  0.35536179452E-01  0.35750994182E-01  0.10000000475E-02 0. -1.
</event>
<event>
 4   0  0.4892667E-02  0.9118800E+02  0.7818609E-02  0.1379984E+01
      -11   -1    0    0    0    0  0.00000000000E+00  0.00000000000E+00  0.35740347158E-01  0.35744000000E-01  0.51099999109E-03 0.  1.
       11   -1    0    0    0    0 -0.00000000000E+00 -0.00000000000E+00 -0.35740347158E-01  0.35744000000E-01  0.51099999109E-03 0. -1.
       22    1    1    2    0    0  0.47348465311E-02 -0.28935368174E-02 -0.35303572877E-01  0.35737005818E-01  0.00000000000E+00 0. -1.
  9000001    1    1    2    0    0 -0.47348465311E-02  0.28935368174E-02  0.35303572877E-01  0.35750994182E-01  0.10000000475E-02 0.  1.
</event>
<event>
 4   0  0.4892667E-02  0.9118800E+02  0.7818609E-02  0.1379984E+01
      -11   -1    0    0    0    0  0.00000000000E+00  0.00000000000E+00  0.35740347158E-01  0.35744000000E-01  0.51099999109E-03 0.  1.
       11   -1    0    0    0    0 -0.00000000000E+00 -0.00000000000E+00 -0.35740347158E-01  0.35744000000E-01  0.51099999109E-03 0. -1.
       22    1    1    2    0    0 -0.51039653009E-02 -0.21030751580E-03  0.35370028185E-01  0.35737005818E-01  0.00000000000E+00 0.  1.
  9000001    1    1    2    0    0  0.51039653009E-02  0.21030751580E-03 -0.35370028185E-01  0.35750994182E-01  0.10000000475E-02 0. -1.
</event>
<event>
 4   0  0.4892667E-02  0.9118800E+02  0.7818609E-02  0.1379984E+01
      -11   -1    0    0    0    0  0.00000000000E+00  0.00000000000E+00  0.35740347158E-01  0.35744000000E-01  0.51099999109E-03 0. -1.
       11   -1    0    0    0    0 -0.00000000000E+00 -0.00000000000E+00 -0.35740347158E-01  0.35744000000E-01  0.51099999109E-03 0.  1.
       22    1    1    2    0    0  0.16217829616E-01  0.30656940506E-02  0.31697272870E-01  0.35737005818E-01  0.00000000000E+00 0. -1.
  9000001    1    1    2    0    0 -0.16217829616E-01 -0.30656940506E-02 -0.31697272870E-01  0.35750994182E-01  0.10000000475E-02 0.  1.
</event>
<event>
 4   0  0.4892667E-02  0.9118800E+02  0.7818609E-02  0.1379984E+01
      -11   -1    0    0    0    0  0.00000000000E+00  0.00000000000E+00  0.35740347158E-01  0.35744000000E-01  0.51099999109E-03 0. -1.
       11   -1    0    0    0    0 -0.00000000000E+00 -0.00000000000E+00 -0.35740347158E-01  0.35744000000E-01  0.51099999109E-03 0.  1.
       22    1    1    2    0    0  0.16864486160E-01 -0.37888219905E-02 -0.31278866977E-01  0.35737005818E-01  0.00000000000E+00 0.  1.
  9000001    1    1    2    0    0 -0.16864486160E-01  0.37888219905E-02  0.31278866977E-01  0.35750994182E-01  0.10000000475E-02 0. -1.
</event>
<event>
 4   0  0.4892667E-02  0.9118800E+02  0.7818609E-02  0.1379984E+01
      -11   -1    0    0    0    0  0.00000000000E+00  0.00000000000E+00  0.35740347158E-01  0.35744000000E-01  0.51099999109E-03 0.  1.
       11   -1    0    0    0    0 -0.00000000000E+00 -0.00000000000E+00 -0.35740347158E-01  0.35744000000E-01  0.51099999109E-03 0. -1.
       22    1    1    2    0    0 -0.48577027425E-02 -0.17185311295E-02  0.35363582393E-01  0.35737005818E-01  0.00000000000E+00 0.  1.
  9000001    1    1    2    0    0  0.48577027425E-02  0.17185311295E-02 -0.35363582393E-01  0.35750994182E-01  0.10000000475E-02 0. -1.
</event>
<event>
 4   0  0.4892667E-02  0.9118800E+02  0.7818609E-02  0.1379984E+01
      -11   -1    0    0    0    0  0.00000000000E+00  0.00000000000E+00  0.35740347158E-01  0.35744000000E-01  0.51099999109E-03 0.  1.
       11   -1    0    0    0    0 -0.00000000000E+00 -0.00000000000E+00 -0.35740347158E-01  0.35744000000E-01  0.51099999109E-03 0. -1.
       22    1    1    2    0    0  0.42930450518E-02  0.52306068752E-02  0.35090512974E-01  0.35737005818E-01  0.00000000000E+00 0.  1.
  9000001    1    1    2    0    0 -0.42930450518E-02 -0.52306068752E-02 -0.35090512974E-01  0.35750994182E-01  0.10000000475E-02 0. -1.
</event>
<event>
 4   0  0.4892667E-02  0.9118800E+02  0.7818609E-02  0.1379984E+01
      -11   -1    0    0    0    0  0.00000000000E+00  0.00000000000E+00  0.35740347158E-01  0.35744000000E-01  0.51099999109E-03 0.  1.
       11   -1    0    0    0    0 -0.00000000000E+00 -0.00000000000E+00 -0.35740347158E-01  0.35744000000E-01  0.51099999109E-03 0. -1.
       22    1    1    2    0    0  0.35747459414E-02 -0.71012062016E-02  0.34841464476E-01  0.35737005818E-01  0.00000000000E+00 0.  1.
  9000001    1    1    2    0    0 -0.35747459414E-02  0.71012062016E-02 -0.34841464476E-01  0.35750994182E-01  0.10000000475E-02 0. -1.
</event>
<event>
 4   0  0.4892667E-02  0.9118800E+02  0.7818609E-02  0.1379984E+01
      -11   -1    0    0    0    0  0.00000000000E+00  0.00000000000E+00  0.35740347158E-01  0.35744000000E-01  0.51099999109E-03 0. -1.
       11   -1    0    0    0    0 -0.00000000000E+00 -0.00000000000E+00 -0.35740347158E-01  0.35744000000E-01  0.51099999109E-03 0.  1.
       22    1    1    2    0    0 -0.52528660126E-02 -0.13185472374E-02  0.35324246867E-01  0.35737005818E-01  0.00000000000E+00 0. -1.
  9000001    1    1    2    0    0  0.52528660126E-02  0.13185472374E-02 -0.35324246867E-01  0.35750994182E-01  0.10000000475E-02 0.  1.
</event>
<event>
 4   0  0.4892667E-02  0.9118800E+02  0.7818609E-02  0.1379984E+01
      -11   -1    0    0    0    0  0.00000000000E+00  0.00000000000E+00  0.35740347158E-01  0.35744000000E-01  0.51099999109E-03 0. -1.
       11   -1    0    0    0    0 -0.00000000000E+00 -0.00000000000E+00 -0.35740347158E-01  0.35744000000E-01  0.51099999109E-03 0.  1.
       22    1    1    2    0    0  0.75728482026E-02 -0.16663400831E-02 -0.34885654153E-01  0.35737005818E-01  0.00000000000E+00 0.  1.
  9000001    1    1    2    0    0 -0.75728482026E-02  0.16663400831E-02  0.34885654153E-01  0.35750994182E-01  0.10000000475E-02 0. -1.
</event>
<event>
 4   0  0.4892667E-02  0.9118800E+02  0.7818609E-02  0.1379984E+01
      -11   -1    0    0    0    0  0.00000000000E+00  0.00000000000E+00  0.35740347158E-01  0.35744000000E-01  0.51099999109E-03 0. -1.
       11   -1    0    0    0    0 -0.00000000000E+00 -0.00000000000E+00 -0.35740347158E-01  0.35744000000E-01  0.51099999109E-03 0.  1.
       22    1    1    2    0    0  0.73842937208E-02 -0.52944763857E-02  0.34562614353E-01  0.35737005818E-01  0.00000000000E+00 0. -1.
  9000001    1    1    2    0    0 -0.73842937208E-02  0.52944763857E-02 -0.34562614353E-01  0.35750994182E-01  0.10000000475E-02 0.  1.
</event>
<event>
 4   0  0.4892667E-02  0.9118800E+02  0.7818609E-02  0.1379984E+01
      -11   -1    0    0    0    0  0.00000000000E+00  0.00000000000E+00  0.35740347158E-01  0.35744000000E-01  0.51099999109E-03 0.  1.
       11   -1    0    0    0    0 -0.00000000000E+00 -0.00000000000E+00 -0.35740347158E-01  0.35744000000E-01  0.51099999109E-03 0. -1.
       22    1    1    2    0    0 -0.61672956300E-02 -0.26778724520E-04 -0.35200814371E-01  0.35737005818E-01  0.00000000000E+00 0. -1.
  9000001    1    1    2    0    0  0.61672956300E-02  0.26778724520E-04  0.35200814371E-01  0.35750994182E-01  0.10000000475E-02 0.  1.
</event>
<event>
 4   0  0.4892667E-02  0.9118800E+02  0.7818609E-02  0.1379984E+01
      -11   -1    0    0    0    0  0.00000000000E+00  0.00000000000E+00  0.35740347158E-01  0.35744000000E-01  0.51099999109E-03 0. -1.
       11   -1    0    0    0    0 -0.00000000000E+00 -0.00000000000E+00 -0.35740347158E-01  0.35744000000E-01  0.51099999109E-03 0.  1.
       22    1    1    2    0    0 -0.77286383369E-03 -0.17323995054E-01 -0.31247647299E-01  0.35737005818E-01  0.00000000000E+00 0.  1.
  9000001    1    1    2    0    0  0.77286383369E-03  0.17323995054E-01  0.31247647299E-01  0.35750994182E-01  0.10000000475E-02 0. -1.
</event>
<event>
 4   0  0.4892667E-02  0.9118800E+02  0.7818609E-02  0.1379984E+01
      -11   -1    0    0    0    0  0.00000000000E+00  0.00000000000E+00  0.35740347158E-01  0.35744000000E-01  0.51099999109E-03 0. -1.
       11   -1    0    0    0    0 -0.00000000000E+00 -0.00000000000E+00 -0.35740347158E-01  0.35744000000E-01  0.51099999109E-03 0.  1.
       22    1    1    2    0    0 -0.31489065866E-02  0.58088444024E-02  0.35120867001E-01  0.35737005818E-01  0.00000000000E+00 0. -1.
  9000001    1    1    2    0    0  0.31489065866E-02 -0.58088444024E-02 -0.35120867001E-01  0.35750994182E-01  0.10000000475E-02 0.  1.
</event>
<event>
 4   0  0.4892667E-02  0.9118800E+02  0.7818609E-02  0.1379984E+01
      -11   -1    0    0    0    0  0.00000000000E+00  0.00000000000E+00  0.35740347158E-01  0.35744000000E-01  0.51099999109E-03 0.  1.
       11   -1    0    0    0    0 -0.00000000000E+00 -0.00000000000E+00 -0.35740347158E-01  0.35744000000E-01  0.51099999109E-03 0. -1.
       22    1    1    2    0    0  0.16857474518E-01  0.20465926285E-01 -0.23960488289E-01  0.35737005818E-01  0.00000000000E+00 0. -1.
  9000001    1    1    2    0    0 -0.16857474518E-01 -0.20465926285E-01  0.23960488289E-01  0.35750994182E-01  0.10000000475E-02 0.  1.
</event>
<event>
 4   0  0.4892667E-02  0.9118800E+02  0.7818609E-02  0.1379984E+01
      -11   -1    0    0    0    0  0.00000000000E+00  0.00000000000E+00  0.35740347158E-01  0.35744000000E-01  0.51099999109E-03 0. -1.
       11   -1    0    0    0    0 -0.00000000000E+00 -0.00000000000E+00 -0.35740347158E-01  0.35744000000E-01  0.51099999109E-03 0.  1.
       22    1    1    2    0    0 -0.13534303358E-01 -0.12476180391E-01 -0.30631701558E-01  0.35737005818E-01  0.00000000000E+00 0.  1.
  9000001    1    1    2    0    0  0.13534303358E-01  0.12476180391E-01  0.30631701558E-01  0.35750994182E-01  0.10000000475E-02 0. -1.
</event>
<event>
 4   0  0.4892667E-02  0.9118800E+02  0.7818609E-02  0.1379984E+01
      -11   -1    0    0    0    0  0.00000000000E+00  0.00000000000E+00  0.35740347158E-01  0.35744000000E-01  0.51099999109E-03 0. -1.
       11   -1    0    0    0    0 -0.00000000000E+00 -0.00000000000E+00 -0.35740347158E-01  0.35744000000E-01  0.51099999109E-03 0.  1.
       22    1    1    2    0    0 -0.94313063650E-02 -0.32945918844E-02  0.34312238479E-01  0.35737005818E-01  0.00000000000E+00 0. -1.
  9000001    1    1    2    0    0  0.94313063650E-02  0.32945918844E-02 -0.34312238479E-01  0.35750994182E-01  0.10000000475E-02 0.  1.
</event>
<event>
 4   0  0.4892667E-02  0.9118800E+02  0.7818609E-02  0.1379984E+01
      -11   -1    0    0    0    0  0.00000000000E+00  0.00000000000E+00  0.35740347158E-01  0.35744000000E-01  0.51099999109E-03 0.  1.
       11   -1    0    0    0    0 -0.00000000000E+00 -0.00000000000E+00 -0.35740347158E-01  0.35744000000E-01  0.51099999109E-03 0. -1.
       22    1    1    2    0    0  0.10369714149E-01 -0.33622484310E-01 -0.62554905631E-02  0.35737005818E-01  0.00000000000E+00 0. -1.
  9000001    1    1    2    0    0 -0.10369714149E-01  0.33622484310E-01  0.62554905631E-02  0.35750994182E-01  0.10000000475E-02 0.  1.
</event>
<event>
 4   0  0.4892667E-02  0.9118800E+02  0.7818609E-02  0.1379984E+01
      -11   -1    0    0    0    0  0.00000000000E+00  0.00000000000E+00  0.35740347158E-01  0.35744000000E-01  0.51099999109E-03 0. -1.
       11   -1    0    0    0    0 -0.00000000000E+00 -0.00000000000E+00 -0.35740347158E-01  0.35744000000E-01  0.51099999109E-03 0.  1.
       22    1    1    2    0    0 -0.33086769234E-02  0.30939169986E-02 -0.35448750606E-01  0.35737005818E-01  0.00000000000E+00 0.  1.
  9000001    1    1    2    0    0  0.33086769234E-02 -0.30939169986E-02  0.35448750606E-01  0.35750994182E-01  0.10000000475E-02 0. -1.
</event>
<event>
 4   0  0.4892667E-02  0.9118800E+02  0.7818609E-02  0.1379984E+01
      -11   -1    0    0    0    0  0.00000000000E+00  0.00000000000E+00  0.35740347158E-01  0.35744000000E-01  0.51099999109E-03 0.  1.
       11   -1    0    0    0    0 -0.00000000000E+00 -0.00000000000E+00 -0.35740347158E-01  0.35744000000E-01  0.51099999109E-03 0. -1.
       22    1    1    2    0    0 -0.14250345333E-01 -0.41370805353E-02  0.32510702967E-01  0.35737005818E-01  0.00000000000E+00 0.  1.
  9000001    1    1    2    0    0  0.14250345333E-01  0.41370805353E-02 -0.32510702967E-01  0.35750994182E-01  0.10000000475E-02 0. -1.
</event>
<event>
 4   0  0.4892667E-02  0.9118800E+02  0.7818609E-02  0.1379984E+01
      -11   -1    0    0    0    0  0.00000000000E+00  0.00000000000E+00  0.35740347158E-01  0.35744000000E-01  0.51099999109E-03 0. -1.
       11   -1    0    0    0    0 -0.00000000000E+00 -0.00000000000E+00 -0.35740347158E-01  0.35744000000E-01  0.51099999109E-03 0.  1.
       22    1    1    2    0    0 -0.27174111240E-01  0.14224126408E-02  0.23166311866E-01  0.35737005818E-01  0.00000000000E+00 0. -1.
  9000001    1    1    2    0    0  0.27174111240E-01 -0.14224126408E-02 -0.23166311866E-01  0.35750994182E-01  0.10000000475E-02 0.  1.
</event>
<event>
 4   0  0.4892667E-02  0.9118800E+02  0.7818609E-02  0.1379984E+01
      -11   -1    0    0    0    0  0.00000000000E+00  0.00000000000E+00  0.35740347158E-01  0.35744000000E-01  0.51099999109E-03 0. -1.
       11   -1    0    0    0    0 -0.00000000000E+00 -0.00000000000E+00 -0.35740347158E-01  0.35744000000E-01  0.51099999109E-03 0.  1.
       22    1    1    2    0    0  0.32503085113E-02  0.34853506235E-02  0.35417812051E-01  0.35737005818E-01  0.00000000000E+00 0. -1.
  9000001    1    1    2    0    0 -0.32503085113E-02 -0.34853506235E-02 -0.35417812051E-01  0.35750994182E-01  0.10000000475E-02 0.  1.
</event>
<event>
 4   0  0.4892667E-02  0.9118800E+02  0.7818609E-02  0.1379984E+01
      -11   -1    0    0    0    0  0.00000000000E+00  0.00000000000E+00  0.35740347158E-01  0.35744000000E-01  0.51099999109E-03 0.  1.
       11   -1    0    0    0    0 -0.00000000000E+00 -0.00000000000E+00 -0.35740347158E-01  0.35744000000E-01  0.51099999109E-03 0. -1.
       22    1    1    2    0    0 -0.23051226066E-02 -0.17196454220E-01  0.31242630441E-01  0.35737005818E-01  0.00000000000E+00 0.  1.
  9000001    1    1    2    0    0  0.23051226066E-02  0.17196454220E-01 -0.31242630441E-01  0.35750994182E-01  0.10000000475E-02 0. -1.
</event>
<event>
 4   0  0.4892667E-02  0.9118800E+02  0.7818609E-02  0.1379984E+01
      -11   -1    0    0    0    0  0.00000000000E+00  0.00000000000E+00  0.35740347158E-01  0.35744000000E-01  0.51099999109E-03 0. -1.
       11   -1    0    0    0    0 -0.00000000000E+00 -0.00000000000E+00 -0.35740347158E-01  0.35744000000E-01  0.51099999109E-03 0.  1.
       22    1    1    2    0    0  0.47462771963E-02  0.38137252975E-03  0.35418370835E-01  0.35737005818E-01  0.00000000000E+00 0. -1.
  9000001    1    1    2    0    0 -0.47462771963E-02 -0.38137252975E-03 -0.35418370835E-01  0.35750994182E-01  0.10000000475E-02 0.  1.
</event>
<event>
 4   0  0.4892667E-02  0.9118800E+02  0.7818609E-02  0.1379984E+01
      -11   -1    0    0    0    0  0.00000000000E+00  0.00000000000E+00  0.35740347158E-01  0.35744000000E-01  0.51099999109E-03 0.  1.
       11   -1    0    0    0    0 -0.00000000000E+00 -0.00000000000E+00 -0.35740347158E-01  0.35744000000E-01  0.51099999109E-03 0. -1.
       22    1    1    2    0    0  0.44437508018E-02 -0.10048048658E-01  0.34006225634E-01  0.35737005818E-01  0.00000000000E+00 0.  1.
  9000001    1    1    2    0    0 -0.44437508018E-02  0.10048048658E-01 -0.34006225634E-01  0.35750994182E-01  0.10000000475E-02 0. -1.
</event>
<event>
 4   0  0.4892667E-02  0.9118800E+02  0.7818609E-02  0.1379984E+01
      -11   -1    0    0    0    0  0.00000000000E+00  0.00000000000E+00  0.35740347158E-01  0.35744000000E-01  0.51099999109E-03 0. -1.
       11   -1    0    0    0    0 -0.00000000000E+00 -0.00000000000E+00 -0.35740347158E-01  0.35744000000E-01  0.51099999109E-03 0.  1.
       22    1    1    2    0    0  0.75330838478E-02 -0.16441323700E-01  0.30823191068E-01  0.35737005818E-01  0.00000000000E+00 0. -1.
  9000001    1    1    2    0    0 -0.75330838478E-02  0.16441323700E-01 -0.30823191068E-01  0.35750994182E-01  0.10000000475E-02 0.  1.
</event>
<event>
 4   0  0.4892667E-02  0.9118800E+02  0.7818609E-02  0.1379984E+01
      -11   -1    0    0    0    0  0.00000000000E+00  0.00000000000E+00  0.35740347158E-01  0.35744000000E-01  0.51099999109E-03 0.  1.
       11   -1    0    0    0    0 -0.00000000000E+00 -0.00000000000E+00 -0.35740347158E-01  0.35744000000E-01  0.51099999109E-03 0. -1.
       22    1    1    2    0    0 -0.14373176493E-01 -0.28896123181E-01 -0.15347946034E-01  0.35737005818E-01  0.00000000000E+00 0. -1.
  9000001    1    1    2    0    0  0.14373176493E-01  0.28896123181E-01  0.15347946034E-01  0.35750994182E-01  0.10000000475E-02 0.  1.
</event>
<event>
 4   0  0.4892667E-02  0.9118800E+02  0.7818609E-02  0.1379984E+01
      -11   -1    0    0    0    0  0.00000000000E+00  0.00000000000E+00  0.35740347158E-01  0.35744000000E-01  0.51099999109E-03 0.  1.
       11   -1    0    0    0    0 -0.00000000000E+00 -0.00000000000E+00 -0.35740347158E-01  0.35744000000E-01  0.51099999109E-03 0. -1.
       22    1    1    2    0    0  0.25756618282E-02  0.23104948026E-01  0.27141498259E-01  0.35737005818E-01  0.00000000000E+00 0.  1.
  9000001    1    1    2    0    0 -0.25756618282E-02 -0.23104948026E-01 -0.27141498259E-01  0.35750994182E-01  0.10000000475E-02 0. -1.
</event>
<event>
 4   0  0.4892667E-02  0.9118800E+02  0.7818609E-02  0.1379984E+01
      -11   -1    0    0    0    0  0.00000000000E+00  0.00000000000E+00  0.35740347158E-01  0.35744000000E-01  0.51099999109E-03 0. -1.
       11   -1    0    0    0    0 -0.00000000000E+00 -0.00000000000E+00 -0.35740347158E-01  0.35744000000E-01  0.51099999109E-03 0.  1.
       22    1    1    2    0    0 -0.18013617685E-01 -0.73400736509E-02 -0.29979434310E-01  0.35737005818E-01  0.00000000000E+00 0.  1.
  9000001    1    1    2    0    0  0.18013617685E-01  0.73400736509E-02  0.29979434310E-01  0.35750994182E-01  0.10000000475E-02 0. -1.
</event>
<event>
 4   0  0.4892667E-02  0.9118800E+02  0.7818609E-02  0.1379984E+01
      -11   -1    0    0    0    0  0.00000000000E+00  0.00000000000E+00  0.35740347158E-01  0.35744000000E-01  0.51099999109E-03 0. -1.
       11   -1    0    0    0    0 -0.00000000000E+00 -0.00000000000E+00 -0.35740347158E-01  0.35744000000E-01  0.51099999109E-03 0.  1.
       22    1    1    2    0    0 -0.87446058259E-03 -0.70431120765E-02 -0.35025183452E-01  0.35737005818E-01  0.00000000000E+00 0.  1.
  9000001    1    1    2    0    0  0.87446058259E-03  0.70431120765E-02  0.35025183452E-01  0.35750994182E-01  0.10000000475E-02 0. -1.
</event>
<event>
 4   0  0.4892667E-02  0.9118800E+02  0.7818609E-02  0.1379984E+01
      -11   -1    0    0    0    0  0.00000000000E+00  0.00000000000E+00  0.35740347158E-01  0.35744000000E-01  0.51099999109E-03 0.  1.
       11   -1    0    0    0    0 -0.00000000000E+00 -0.00000000000E+00 -0.35740347158E-01  0.35744000000E-01  0.51099999109E-03 0. -1.
       22    1    1    2    0    0  0.42009660530E-02  0.83735349593E-03 -0.35479350448E-01  0.35737005818E-01  0.00000000000E+00 0. -1.
  9000001    1    1    2    0    0 -0.42009660530E-02 -0.83735349593E-03  0.35479350448E-01  0.35750994182E-01  0.10000000475E-02 0.  1.
</event>
<event>
 4   0  0.4892667E-02  0.9118800E+02  0.7818609E-02  0.1379984E+01
      -11   -1    0    0    0    0  0.00000000000E+00  0.00000000000E+00  0.35740347158E-01  0.35744000000E-01  0.51099999109E-03 0. -1.
       11   -1    0    0    0    0 -0.00000000000E+00 -0.00000000000E+00 -0.35740347158E-01  0.35744000000E-01  0.51099999109E-03 0.  1.
       22    1    1    2    0    0 -0.20958903095E-02  0.53815041544E-02  0.35267268702E-01  0.35737005818E-01  0.00000000000E+00 0. -1.
  9000001    1    1    2    0    0  0.20958903095E-02 -0.53815041544E-02 -0.35267268702E-01  0.35750994182E-01  0.10000000475E-02 0.  1.
</event>
<event>
 4   0  0.4892667E-02  0.9118800E+02  0.7818609E-02  0.1379984E+01
      -11   -1    0    0    0    0  0.00000000000E+00  0.00000000000E+00  0.35740347158E-01  0.35744000000E-01  0.51099999109E-03 0.  1.
       11   -1    0    0    0    0 -0.00000000000E+00 -0.00000000000E+00 -0.35740347158E-01  0.35744000000E-01  0.51099999109E-03 0. -1.
       22    1    1    2    0    0 -0.30234649981E-02  0.60642723273E-02 -0.35088699683E-01  0.35737005818E-01  0.00000000000E+00 0. -1.
  9000001    1    1    2    0    0  0.30234649981E-02 -0.60642723273E-02  0.35088699683E-01  0.35750994182E-01  0.10000000475E-02 0.  1.
</event>
<event>
 4   0  0.4892667E-02  0.9118800E+02  0.7818609E-02  0.1379984E+01
      -11   -1    0    0    0    0  0.00000000000E+00  0.00000000000E+00  0.35740347158E-01  0.35744000000E-01  0.51099999109E-03 0. -1.
       11   -1    0    0    0    0 -0.00000000000E+00 -0.00000000000E+00 -0.35740347158E-01  0.35744000000E-01  0.51099999109E-03 0.  1.
       22    1    1    2    0    0 -0.29652650471E-01  0.19906164197E-01 -0.12643306065E-02  0.35737005818E-01  0.00000000000E+00 0.  1.
  9000001    1    1    2    0    0  0.29652650471E-01 -0.19906164197E-01  0.12643306065E-02  0.35750994182E-01  0.10000000475E-02 0. -1.
</event>
<event>
 4   0  0.4892667E-02  0.9118800E+02  0.7818609E-02  0.1379984E+01
      -11   -1    0    0    0    0  0.00000000000E+00  0.00000000000E+00  0.35740347158E-01  0.35744000000E-01  0.51099999109E-03 0.  1.
       11   -1    0    0    0    0 -0.00000000000E+00 -0.00000000000E+00 -0.35740347158E-01  0.35744000000E-01  0.51099999109E-03 0. -1.
       22    1    1    2    0    0  0.44285148382E-03  0.32220494812E-02 -0.35588704171E-01  0.35737005818E-01  0.00000000000E+00 0. -1.
  9000001    1    1    2    0    0 -0.44285148382E-03 -0.32220494812E-02  0.35588704171E-01  0.35750994182E-01  0.10000000475E-02 0.  1.
</event>
<event>
 4   0  0.4892667E-02  0.9118800E+02  0.7818609E-02  0.1379984E+01
      -11   -1    0    0    0    0  0.00000000000E+00  0.00000000000E+00  0.35740347158E-01  0.35744000000E-01  0.51099999109E-03 0.  1.
       11   -1    0    0    0    0 -0.00000000000E+00 -0.00000000000E+00 -0.35740347158E-01  0.35744000000E-01  0.51099999109E-03 0. -1.
       22    1    1    2    0    0  0.51871705655E-02 -0.82108035330E-03 -0.35349012341E-01  0.35737005818E-01  0.00000000000E+00 0. -1.
  9000001    1    1    2    0    0 -0.51871705655E-02  0.82108035330E-03  0.35349012341E-01  0.35750994182E-01  0.10000000475E-02 0.  1.
</event>
<event>
 4   0  0.4892667E-02  0.9118800E+02  0.7818609E-02  0.1379984E+01
      -11   -1    0    0    0    0  0.00000000000E+00  0.00000000000E+00  0.35740347158E-01  0.35744000000E-01  0.51099999109E-03 0.  1.
       11   -1    0    0    0    0 -0.00000000000E+00 -0.00000000000E+00 -0.35740347158E-01  0.35744000000E-01  0.51099999109E-03 0. -1.
       22    1    1    2    0    0  0.33734925585E-02 -0.37901925491E-02  0.35374956866E-01  0.35737005818E-01  0.00000000000E+00 0.  1.
  9000001    1    1    2    0    0 -0.33734925585E-02  0.37901925491E-02 -0.35374956866E-01  0.35750994182E-01  0.10000000475E-02 0. -1.
</event>
<event>
 4   0  0.4892667E-02  0.9118800E+02  0.7818609E-02  0.1379984E+01
      -11   -1    0    0    0    0  0.00000000000E+00  0.00000000000E+00  0.35740347158E-01  0.35744000000E-01  0.51099999109E-03 0.  1.
       11   -1    0    0    0    0 -0.00000000000E+00 -0.00000000000E+00 -0.35740347158E-01  0.35744000000E-01  0.51099999109E-03 0. -1.
       22    1    1    2    0    0 -0.12504744878E-01 -0.11796796082E-02 -0.33457036576E-01  0.35737005818E-01  0.00000000000E+00 0. -1.
  9000001    1    1    2    0    0  0.12504744878E-01  0.11796796082E-02  0.33457036576E-01  0.35750994182E-01  0.10000000475E-02 0.  1.
</event>
<event>
 4   0  0.4892667E-02  0.9118800E+02  0.7818609E-02  0.1379984E+01
      -11   -1    0    0    0    0  0.00000000000E+00  0.00000000000E+00  0.35740347158E-01  0.35744000000E-01  0.51099999109E-03 0. -1.
       11   -1    0    0    0    0 -0.00000000000E+00 -0.00000000000E+00 -0.35740347158E-01  0.35744000000E-01  0.51099999109E-03 0.  1.
       22    1    1    2    0    0 -0.46709740935E-02 -0.47817187911E-02 -0.35106277947E-01  0.35737005818E-01  0.00000000000E+00 0.  1.
  9000001    1    1    2    0    0  0.46709740935E-02  0.47817187911E-02  0.35106277947E-01  0.35750994182E-01  0.10000000475E-02 0. -1.
</event>
<event>
 4   0  0.4892667E-02  0.9118800E+02  0.7818609E-02  0.1379984E+01
      -11   -1    0    0    0    0  0.00000000000E+00  0.00000000000E+00  0.35740347158E-01  0.35744000000E-01  0.51099999109E-03 0.  1.
       11   -1    0    0    0    0 -0.00000000000E+00 -0.00000000000E+00 -0.35740347158E-01  0.35744000000E-01  0.51099999109E-03 0. -1.
       22    1    1    2    0    0 -0.34585568214E-01  0.31382755954E-02 -0.84334620709E-02  0.35737005818E-01  0.00000000000E+00 0. -1.
  9000001    1    1    2    0    0  0.34585568214E-01 -0.31382755954E-02  0.84334620709E-02  0.35750994182E-01  0.10000000475E-02 0.  1.
</event>
<event>
 4   0  0.4892667E-02  0.9118800E+02  0.7818609E-02  0.1379984E+01
      -11   -1    0    0    0    0  0.00000000000E+00  0.00000000000E+00  0.35740347158E-01  0.35744000000E-01  0.51099999109E-03 0.  1.
       11   -1    0    0    0    0 -0.00000000000E+00 -0.00000000000E+00 -0.35740347158E-01  0.35744000000E-01  0.51099999109E-03 0. -1.
       22    1    1    2    0    0  0.16824251209E-02  0.21564237935E-01  0.28447964301E-01  0.35737005818E-01  0.00000000000E+00 0.  1.
  9000001    1    1    2    0    0 -0.16824251209E-02 -0.21564237935E-01 -0.28447964301E-01  0.35750994182E-01  0.10000000475E-02 0. -1.
</event>
<event>
 4   0  0.4892667E-02  0.9118800E+02  0.7818609E-02  0.1379984E+01
      -11   -1    0    0    0    0  0.00000000000E+00  0.00000000000E+00  0.35740347158E-01  0.35744000000E-01  0.51099999109E-03 0.  1.
       11   -1    0    0    0    0 -0.00000000000E+00 -0.00000000000E+00 -0.35740347158E-01  0.35744000000E-01  0.51099999109E-03 0. -1.
       22    1    1    2    0    0 -0.11469829589E-01 -0.53853712981E-02 -0.33415181730E-01  0.35737005818E-01  0.00000000000E+00 0. -1.
  9000001    1    1    2    0    0  0.11469829589E-01  0.53853712981E-02  0.33415181730E-01  0.35750994182E-01  0.10000000475E-02 0.  1.
</event>
<event>
 4   0  0.4892667E-02  0.9118800E+02  0.7818609E-02  0.1379984E+01
      -11   -1    0    0    0    0  0.00000000000E+00  0.00000000000E+00  0.35740347158E-01  0.35744000000E-01  0.51099999109E-03 0.  1.
       11   -1    0    0    0    0 -0.00000000000E+00 -0.00000000000E+00 -0.35740347158E-01  0.35744000000E-01  0.51099999109E-03 0. -1.
       22    1    1    2    0    0 -0.19137925177E-01 -0.18656362330E-02  0.30122961445E-01  0.35737005818E-01  0.00000000000E+00 0.  1.
  9000001    1    1    2    0    0  0.19137925177E-01  0.18656362330E-02 -0.30122961445E-01  0.35750994182E-01  0.10000000475E-02 0. -1.
</event>
<event>
 4   0  0.4892667E-02  0.9118800E+02  0.7818609E-02  0.1379984E+01
      -11   -1    0    0    0    0  0.00000000000E+00  0.00000000000E+00  0.35740347158E-01  0.35744000000E-01  0.51099999109E-03 0. -1.
       11   -1    0    0    0    0 -0.00000000000E+00 -0.00000000000E+00 -0.35740347158E-01  0.35744000000E-01  0.51099999109E-03 0.  1.
       22    1    1    2    0    0  0.30447150371E-03 -0.80949005222E-02 -0.34806802029E-01  0.35737005818E-01  0.00000000000E+00 0.  1.
  9000001    1    1    2    0    0 -0.30447150371E-03  0.80949005222E-02  0.34806802029E-01  0.35750994182E-01  0.10000000475E-02 0. -1.
</event>
<event>
 4   0  0.4892667E-02  0.9118800E+02  0.7818609E-02  0.1379984E+01
      -11   -1    0    0    0    0  0.00000000000E+00  0.00000000000E+00  0.35740347158E-01  0.35744000000E-01  0.51099999109E-03 0.  1.
       11   -1    0    0    0    0 -0.00000000000E+00 -0.00000000000E+00 -0.35740347158E-01  0.35744000000E-01  0.51099999109E-03 0. -1.
       22    1    1    2    0    0  0.93904528880E-02 -0.12924844280E-01  0.31967192241E-01  0.35737005818E-01  0.00000000000E+00 0.  1.
  9000001    1    1    2    0    0 -0.93904528880E-02  0.12924844280E-01 -0.31967192241E-01  0.35750994182E-01  0.10000000475E-02 0. -1.
</event>
<event>
 4   0  0.4892667E-02  0.9118800E+02  0.7818609E-02  0.1379984E+01
      -11   -1    0    0    0    0  0.00000000000E+00  0.00000000000E+00  0.35740347158E-01  0.35744000000E-01  0.51099999109E-03 0.  1.
       11   -1    0    0    0    0 -0.00000000000E+00 -0.00000000000E+00 -0.35740347158E-01  0.35744000000E-01  0.51099999109E-03 0. -1.
       22    1    1    2    0    0  0.72473793064E-02  0.12514913107E-01  0.32680055508E-01  0.35737005818E-01  0.00000000000E+00 0.  1.
  9000001    1    1    2    0    0 -0.72473793064E-02 -0.12514913107E-01 -0.32680055508E-01  0.35750994182E-01  0.10000000475E-02 0. -1.
</event>
<event>
 4   0  0.4892667E-02  0.9118800E+02  0.7818609E-02  0.1379984E+01
      -11   -1    0    0    0    0  0.00000000000E+00  0.00000000000E+00  0.35740347158E-01  0.35744000000E-01  0.51099999109E-03 0.  1.
       11   -1    0    0    0    0 -0.00000000000E+00 -0.00000000000E+00 -0.35740347158E-01  0.35744000000E-01  0.51099999109E-03 0. -1.
       22    1    1    2    0    0 -0.82747769206E-04 -0.35277379536E-02  0.35562364975E-01  0.35737005818E-01  0.00000000000E+00 0.  1.
  9000001    1    1    2    0    0  0.82747769206E-04  0.35277379536E-02 -0.35562364975E-01  0.35750994182E-01  0.10000000475E-02 0. -1.
</event>
<event>
 4   0  0.4892667E-02  0.9118800E+02  0.7818609E-02  0.1379984E+01
      -11   -1    0    0    0    0  0.00000000000E+00  0.00000000000E+00  0.35740347158E-01  0.35744000000E-01  0.51099999109E-03 0. -1.
       11   -1    0    0    0    0 -0.00000000000E+00 -0.00000000000E+00 -0.35740347158E-01  0.35744000000E-01  0.51099999109E-03 0.  1.
       22    1    1    2    0    0 -0.12281773871E-01  0.18638055678E-01 -0.27909039682E-01  0.35737005818E-01  0.00000000000E+00 0.  1.
  9000001    1    1    2    0    0  0.12281773871E-01 -0.18638055678E-01  0.27909039682E-01  0.35750994182E-01  0.10000000475E-02 0. -1.
</event>
<event>
 4   0  0.4892667E-02  0.9118800E+02  0.7818609E-02  0.1379984E+01
      -11   -1    0    0    0    0  0.00000000000E+00  0.00000000000E+00  0.35740347158E-01  0.35744000000E-01  0.51099999109E-03 0.  1.
       11   -1    0    0    0    0 -0.00000000000E+00 -0.00000000000E+00 -0.35740347158E-01  0.35744000000E-01  0.51099999109E-03 0. -1.
       22    1    1    2    0    0 -0.34698871107E-02  0.23616810300E-01 -0.26595859444E-01  0.35737005818E-01  0.00000000000E+00 0. -1.
  9000001    1    1    2    0    0  0.34698871107E-02 -0.23616810300E-01  0.26595859444E-01  0.35750994182E-01  0.10000000475E-02 0.  1.
</event>
<event>
 4   0  0.4892667E-02  0.9118800E+02  0.7818609E-02  0.1379984E+01
      -11   -1    0    0    0    0  0.00000000000E+00  0.00000000000E+00  0.35740347158E-01  0.35744000000E-01  0.51099999109E-03 0.  1.
       11   -1    0    0    0    0 -0.00000000000E+00 -0.00000000000E+00 -0.35740347158E-01  0.35744000000E-01  0.51099999109E-03 0. -1.
       22    1    1    2    0    0  0.40228990481E-02  0.23955713563E-02 -0.35428958579E-01  0.35737005818E-01  0.00000000000E+00 0. -1.
  9000001    1    1    2    0    0 -0.40228990481E-02 -0.23955713563E-02  0.35428958579E-01  0.35750994182E-01  0.10000000475E-02 0.  1.
</event>
<event>
 4   0  0.4892667E-02  0.9118800E+02  0.7818609E-02  0.1379984E+01
      -11   -1    0    0    0    0  0.00000000000E+00  0.00000000000E+00  0.35740347158E-01  0.35744000000E-01  0.51099999109E-03 0. -1.
       11   -1    0    0    0    0 -0.00000000000E+00 -0.00000000000E+00 -0.35740347158E-01  0.35744000000E-01  0.51099999109E-03 0.  1.
       22    1    1    2    0    0  0.27438219794E-01  0.85363449948E-02 -0.21246376009E-01  0.35737005818E-01  0.00000000000E+00 0.  1.
  9000001    1    1    2    0    0 -0.27438219794E-01 -0.85363449948E-02  0.21246376009E-01  0.35750994182E-01  0.10000000475E-02 0. -1.
</event>
<event>
 4   0  0.4892667E-02  0.9118800E+02  0.7818609E-02  0.1379984E+01
      -11   -1    0    0    0    0  0.00000000000E+00  0.00000000000E+00  0.35740347158E-01  0.35744000000E-01  0.51099999109E-03 0.  1.
       11   -1    0    0    0    0 -0.00000000000E+00 -0.00000000000E+00 -0.35740347158E-01  0.35744000000E-01  0.51099999109E-03 0. -1.
       22    1    1    2    0    0  0.26345051134E-01  0.17358144288E-01  0.16785907556E-01  0.35737005818E-01  0.00000000000E+00 0.  1.
  9000001    1    1    2    0    0 -0.26345051134E-01 -0.17358144288E-01 -0.16785907556E-01  0.35750994182E-01  0.10000000475E-02 0. -1.
</event>
<event>
 4   0  0.4892667E-02  0.9118800E+02  0.7818609E-02  0.1379984E+01
      -11   -1    0    0    0    0  0.00000000000E+00  0.00000000000E+00  0.35740347158E-01  0.35744000000E-01  0.51099999109E-03 0.  1.
       11   -1    0    0    0    0 -0.00000000000E+00 -0.00000000000E+00 -0.35740347158E-01  0.35744000000E-01  0.51099999109E-03 0. -1.
       22    1    1    2    0    0 -0.86967405389E-02  0.24045051465E-02  0.34579164881E-01  0.35737005818E-01  0.00000000000E+00 0.  1.
  9000001    1    1    2    0    0  0.86967405389E-02 -0.24045051465E-02 -0.34579164881E-01  0.35750994182E-01  0.10000000475E-02 0. -1.
</event>
<event>
 4   0  0.4892667E-02  0.9118800E+02  0.7818609E-02  0.1379984E+01
      -11   -1    0    0    0    0  0.00000000000E+00  0.00000000000E+00  0.35740347158E-01  0.35744000000E-01  0.51099999109E-03 0. -1.
       11   -1    0    0    0    0 -0.00000000000E+00 -0.00000000000E+00 -0.35740347158E-01  0.35744000000E-01  0.51099999109E-03 0.  1.
       22    1    1    2    0    0  0.13883772815E-01  0.13874000402E-01  0.29864469694E-01  0.35737005818E-01  0.00000000000E+00 0. -1.
  9000001    1    1    2    0    0 -0.13883772815E-01 -0.13874000402E-01 -0.29864469694E-01  0.35750994182E-01  0.10000000475E-02 0.  1.
</event>
<event>
 4   0  0.4892667E-02  0.9118800E+02  0.7818609E-02  0.1379984E+01
      -11   -1    0    0    0    0  0.00000000000E+00  0.00000000000E+00  0.35740347158E-01  0.35744000000E-01  0.51099999109E-03 0.  1.
       11   -1    0    0    0    0 -0.00000000000E+00 -0.00000000000E+00 -0.35740347158E-01  0.35744000000E-01  0.51099999109E-03 0. -1.
       22    1    1    2    0    0 -0.60046785043E-02 -0.18237354863E-01  0.30140940737E-01  0.35737005818E-01  0.00000000000E+00 0.  1.
  9000001    1    1    2    0    0  0.60046785043E-02  0.18237354863E-01 -0.30140940737E-01  0.35750994182E-01  0.10000000475E-02 0. -1.
</event>
<event>
 4   0  0.4892667E-02  0.9118800E+02  0.7818609E-02  0.1379984E+01
      -11   -1    0    0    0    0  0.00000000000E+00  0.00000000000E+00  0.35740347158E-01  0.35744000000E-01  0.51099999109E-03 0. -1.
       11   -1    0    0    0    0 -0.00000000000E+00 -0.00000000000E+00 -0.35740347158E-01  0.35744000000E-01  0.51099999109E-03 0.  1.
       22    1    1    2    0    0  0.67014313306E-02 -0.79219499843E-02 -0.34197472296E-01  0.35737005818E-01  0.00000000000E+00 0.  1.
  9000001    1    1    2    0    0 -0.67014313306E-02  0.79219499843E-02  0.34197472296E-01  0.35750994182E-01  0.10000000475E-02 0. -1.
</event>
<event>
 4   0  0.4892667E-02  0.9118800E+02  0.7818609E-02  0.1379984E+01
      -11   -1    0    0    0    0  0.00000000000E+00  0.00000000000E+00  0.35740347158E-01  0.35744000000E-01  0.51099999109E-03 0.  1.
       11   -1    0    0    0    0 -0.00000000000E+00 -0.00000000000E+00 -0.35740347158E-01  0.35744000000E-01  0.51099999109E-03 0. -1.
       22    1    1    2    0    0  0.11173551304E-01 -0.36881612184E-02 -0.33744374390E-01  0.35737005818E-01  0.00000000000E+00 0. -1.
  9000001    1    1    2    0    0 -0.11173551304E-01  0.36881612184E-02  0.33744374390E-01  0.35750994182E-01  0.10000000475E-02 0.  1.
</event>
<event>
 4   0  0.4892667E-02  0.9118800E+02  0.7818609E-02  0.1379984E+01
      -11   -1    0    0    0    0  0.00000000000E+00  0.00000000000E+00  0.35740347158E-01  0.35744000000E-01  0.51099999109E-03 0.  1.
       11   -1    0    0    0    0 -0.00000000000E+00 -0.00000000000E+00 -0.35740347158E-01  0.35744000000E-01  0.51099999109E-03 0. -1.
       22    1    1    2    0    0  0.23216025900E-01 -0.13364145453E-01  0.23654795340E-01  0.35737005818E-01  0.00000000000E+00 0.  1.
  9000001    1    1    2    0    0 -0.23216025900E-01  0.13364145453E-01 -0.23654795340E-01  0.35750994182E-01  0.10000000475E-02 0. -1.
</event>
<event>
 4   0  0.4892667E-02  0.9118800E+02  0.7818609E-02  0.1379984E+01
      -11   -1    0    0    0    0  0.00000000000E+00  0.00000000000E+00  0.35740347158E-01  0.35744000000E-01  0.51099999109E-03 0.  1.
       11   -1    0    0    0    0 -0.00000000000E+00 -0.00000000000E+00 -0.35740347158E-01  0.35744000000E-01  0.51099999109E-03 0. -1.
       22    1    1    2    0    0 -0.16283993468E-01 -0.71756759265E-02  0.30991528143E-01  0.35737005818E-01  0.00000000000E+00 0.  1.
  9000001    1    1    2    0    0  0.16283993468E-01  0.71756759265E-02 -0.30991528143E-01  0.35750994182E-01  0.10000000475E-02 0. -1.
</event>
<event>
 4   0  0.4892667E-02  0.9118800E+02  0.7818609E-02  0.1379984E+01
      -11   -1    0    0    0    0  0.00000000000E+00  0.00000000000E+00  0.35740347158E-01  0.35744000000E-01  0.51099999109E-03 0.  1.
       11   -1    0    0    0    0 -0.00000000000E+00 -0.00000000000E+00 -0.35740347158E-01  0.35744000000E-01  0.51099999109E-03 0. -1.
       22    1    1    2    0    0 -0.66606398781E-02 -0.68922344830E-02  0.34427700549E-01  0.35737005818E-01  0.00000000000E+00 0.  1.
  9000001    1    1    2    0    0  0.66606398781E-02  0.68922344830E-02 -0.34427700549E-01  0.35750994182E-01  0.10000000475E-02 0. -1.
</event>
<event>
 4   0  0.4892667E-02  0.9118800E+02  0.7818609E-02  0.1379984E+01
      -11   -1    0    0    0    0  0.00000000000E+00  0.00000000000E+00  0.35740347158E-01  0.35744000000E-01  0.51099999109E-03 0.  1.
       11   -1    0    0    0    0 -0.00000000000E+00 -0.00000000000E+00 -0.35740347158E-01  0.35744000000E-01  0.51099999109E-03 0. -1.
       22    1    1    2    0    0  0.12284220834E-01  0.74502327333E-02  0.32721942723E-01  0.35737005818E-01  0.00000000000E+00 0.  1.
  9000001    1    1    2    0    0 -0.12284220834E-01 -0.74502327333E-02 -0.32721942723E-01  0.35750994182E-01  0.10000000475E-02 0. -1.
</event>
<event>
 4   0  0.4892667E-02  0.9118800E+02  0.7818609E-02  0.1379984E+01
      -11   -1    0    0    0    0  0.00000000000E+00  0.00000000000E+00  0.35740347158E-01  0.35744000000E-01  0.51099999109E-03 0.  1.
       11   -1    0    0    0    0 -0.00000000000E+00 -0.00000000000E+00 -0.35740347158E-01  0.35744000000E-01  0.51099999109E-03 0. -1.
       22    1    1    2    0    0 -0.24714016329E-01  0.92595017904E-02 -0.24095904389E-01  0.35737005818E-01  0.00000000000E+00 0. -1.
  9000001    1    1    2    0    0  0.24714016329E-01 -0.92595017904E-02  0.24095904389E-01  0.35750994182E-01  0.10000000475E-02 0.  1.
</event>
<event>
 4   0  0.4892667E-02  0.9118800E+02  0.7818609E-02  0.1379984E+01
      -11   -1    0    0    0    0  0.00000000000E+00  0.00000000000E+00  0.35740347158E-01  0.35744000000E-01  0.51099999109E-03 0. -1.
       11   -1    0    0    0    0 -0.00000000000E+00 -0.00000000000E+00 -0.35740347158E-01  0.35744000000E-01  0.51099999109E-03 0.  1.
       22    1    1    2    0    0 -0.15281464499E-01 -0.28975872954E-01  0.14283179416E-01  0.35737005818E-01  0.00000000000E+00 0. -1.
  9000001    1    1    2    0    0  0.15281464499E-01  0.28975872954E-01 -0.14283179416E-01  0.35750994182E-01  0.10000000475E-02 0.  1.
</event>
<event>
 4   0  0.4892667E-02  0.9118800E+02  0.7818609E-02  0.1379984E+01
      -11   -1    0    0    0    0  0.00000000000E+00  0.00000000000E+00  0.35740347158E-01  0.35744000000E-01  0.51099999109E-03 0.  1.
       11   -1    0    0    0    0 -0.00000000000E+00 -0.00000000000E+00 -0.35740347158E-01  0.35744000000E-01  0.51099999109E-03 0. -1.
       22    1    1    2    0    0 -0.39375170224E-02  0.80432137681E-02  0.34596766566E-01  0.35737005818E-01  0.00000000000E+00 0.  1.
  9000001    1    1    2    0    0  0.39375170224E-02 -0.80432137681E-02 -0.34596766566E-01  0.35750994182E-01  0.10000000475E-02 0. -1.
</event>
<event>
 4   0  0.4892667E-02  0.9118800E+02  0.7818609E-02  0.1379984E+01
      -11   -1    0    0    0    0  0.00000000000E+00  0.00000000000E+00  0.35740347158E-01  0.35744000000E-01  0.51099999109E-03 0. -1.
       11   -1    0    0    0    0 -0.00000000000E+00 -0.00000000000E+00 -0.35740347158E-01  0.35744000000E-01  0.51099999109E-03 0.  1.
       22    1    1    2    0    0 -0.82795094000E-02  0.34347674344E-03 -0.34762987971E-01  0.35737005818E-01  0.00000000000E+00 0.  1.
  9000001    1    1    2    0    0  0.82795094000E-02 -0.34347674344E-03  0.34762987971E-01  0.35750994182E-01  0.10000000475E-02 0. -1.
</event>
<event>
 4   0  0.4892667E-02  0.9118800E+02  0.7818609E-02  0.1379984E+01
      -11   -1    0    0    0    0  0.00000000000E+00  0.00000000000E+00  0.35740347158E-01  0.35744000000E-01  0.51099999109E-03 0.  1.
       11   -1    0    0    0    0 -0.00000000000E+00 -0.00000000000E+00 -0.35740347158E-01  0.35744000000E-01  0.51099999109E-03 0. -1.
       22    1    1    2    0    0 -0.21536949373E-01  0.64869832914E-02 -0.27770711989E-01  0.35737005818E-01  0.00000000000E+00 0. -1.
  9000001    1    1    2    0    0  0.21536949373E-01 -0.64869832914E-02  0.27770711989E-01  0.35750994182E-01  0.10000000475E-02 0.  1.
</event>
<event>
 4   0  0.4892667E-02  0.9118800E+02  0.7818609E-02  0.1379984E+01
      -11   -1    0    0    0    0  0.00000000000E+00  0.00000000000E+00  0.35740347158E-01  0.35744000000E-01  0.51099999109E-03 0.  1.
       11   -1    0    0    0    0 -0.00000000000E+00 -0.00000000000E+00 -0.35740347158E-01  0.35744000000E-01  0.51099999109E-03 0. -1.
       22    1    1    2    0    0  0.28244910638E-02  0.32024037696E-02  0.35480987094E-01  0.35737005818E-01  0.00000000000E+00 0.  1.
  9000001    1    1    2    0    0 -0.28244910638E-02 -0.32024037696E-02 -0.35480987094E-01  0.35750994182E-01  0.10000000475E-02 0. -1.
</event>
<event>
 4   0  0.4892667E-02  0.9118800E+02  0.7818609E-02  0.1379984E+01
      -11   -1    0    0    0    0  0.00000000000E+00  0.00000000000E+00  0.35740347158E-01  0.35744000000E-01  0.51099999109E-03 0. -1.
       11   -1    0    0    0    0 -0.00000000000E+00 -0.00000000000E+00 -0.35740347158E-01  0.35744000000E-01  0.51099999109E-03 0.  1.
       22    1    1    2    0    0  0.17543965923E-01  0.47174211696E-02  0.30774807588E-01  0.35737005818E-01  0.00000000000E+00 0. -1.
  9000001    1    1    2    0    0 -0.17543965923E-01 -0.47174211696E-02 -0.30774807588E-01  0.35750994182E-01  0.10000000475E-02 0.  1.
</event>
<event>
 4   0  0.4892667E-02  0.9118800E+02  0.7818609E-02  0.1379984E+01
      -11   -1    0    0    0    0  0.00000000000E+00  0.00000000000E+00  0.35740347158E-01  0.35744000000E-01  0.51099999109E-03 0. -1.
       11   -1    0    0    0    0 -0.00000000000E+00 -0.00000000000E+00 -0.35740347158E-01  0.35744000000E-01  0.51099999109E-03 0.  1.
       22    1    1    2    0    0  0.29120871205E-01 -0.18236863355E-01  0.98247269752E-02  0.35737005818E-01  0.00000000000E+00 0. -1.
  9000001    1    1    2    0    0 -0.29120871205E-01  0.18236863355E-01 -0.98247269752E-02  0.35750994182E-01  0.10000000475E-02 0.  1.
</event>
<event>
 4   0  0.4892667E-02  0.9118800E+02  0.7818609E-02  0.1379984E+01
      -11   -1    0    0    0    0  0.00000000000E+00  0.00000000000E+00  0.35740347158E-01  0.35744000000E-01  0.51099999109E-03 0.  1.
       11   -1    0    0    0    0 -0.00000000000E+00 -0.00000000000E+00 -0.35740347158E-01  0.35744000000E-01  0.51099999109E-03 0. -1.
       22    1    1    2    0    0 -0.33471825558E-01  0.11975660750E-03  0.12520229113E-01  0.35737005818E-01  0.00000000000E+00 0.  1.
  9000001    1    1    2    0    0  0.33471825558E-01 -0.11975660750E-03 -0.12520229113E-01  0.35750994182E-01  0.10000000475E-02 0. -1.
</event>
<event>
 4   0  0.4892667E-02  0.9118800E+02  0.7818609E-02  0.1379984E+01
      -11   -1    0    0    0    0  0.00000000000E+00  0.00000000000E+00  0.35740347158E-01  0.35744000000E-01  0.51099999109E-03 0.  1.
       11   -1    0    0    0    0 -0.00000000000E+00 -0.00000000000E+00 -0.35740347158E-01  0.35744000000E-01  0.51099999109E-03 0. -1.
       22    1    1    2    0    0  0.11177610695E-01  0.24027812340E-02 -0.33858842957E-01  0.35737005818E-01  0.00000000000E+00 0. -1.
  9000001    1    1    2    0    0 -0.11177610695E-01 -0.24027812340E-02  0.33858842957E-01  0.35750994182E-01  0.10000000475E-02 0.  1.
</event>
<event>
 4   0  0.4892667E-02  0.9118800E+02  0.7818609E-02  0.1379984E+01
      -11   -1    0    0    0    0  0.00000000000E+00  0.00000000000E+00  0.35740347158E-01  0.35744000000E-01  0.51099999109E-03 0. -1.
       11   -1    0    0    0    0 -0.00000000000E+00 -0.00000000000E+00 -0.35740347158E-01  0.35744000000E-01  0.51099999109E-03 0.  1.
       22    1    1    2    0    0 -0.27344177064E-02  0.77743036913E-02 -0.34773793966E-01  0.35737005818E-01  0.00000000000E+00 0.  1.
  9000001    1    1    2    0    0  0.27344177064E-02 -0.77743036913E-02  0.34773793966E-01  0.35750994182E-01  0.10000000475E-02 0. -1.
</event>
<event>
 4   0  0.4892667E-02  0.9118800E+02  0.7818609E-02  0.1379984E+01
      -11   -1    0    0    0    0  0.00000000000E+00  0.00000000000E+00  0.35740347158E-01  0.35744000000E-01  0.51099999109E-03 0.  1.
       11   -1    0    0    0    0 -0.00000000000E+00 -0.00000000000E+00 -0.35740347158E-01  0.35744000000E-01  0.51099999109E-03 0. -1.
       22    1    1    2    0    0  0.45357522534E-02  0.85921684317E-03  0.35437582914E-01  0.35737005818E-01  0.00000000000E+00 0.  1.
  9000001    1    1    2    0    0 -0.45357522534E-02 -0.85921684317E-03 -0.35437582914E-01  0.35750994182E-01  0.10000000475E-02 0. -1.
</event>
<event>
 4   0  0.4892667E-02  0.9118800E+02  0.7818609E-02  0.1379984E+01
      -11   -1    0    0    0    0  0.00000000000E+00  0.00000000000E+00  0.35740347158E-01  0.35744000000E-01  0.51099999109E-03 0. -1.
       11   -1    0    0    0    0 -0.00000000000E+00 -0.00000000000E+00 -0.35740347158E-01  0.35744000000E-01  0.51099999109E-03 0.  1.
       22    1    1    2    0    0  0.12298297779E-01 -0.90000152289E-02  0.32324683796E-01  0.35737005818E-01  0.00000000000E+00 0. -1.
  9000001    1    1    2    0    0 -0.12298297779E-01  0.90000152289E-02 -0.32324683796E-01  0.35750994182E-01  0.10000000475E-02 0.  1.
</event>
<event>
 4   0  0.4892667E-02  0.9118800E+02  0.7818609E-02  0.1379984E+01
      -11   -1    0    0    0    0  0.00000000000E+00  0.00000000000E+00  0.35740347158E-01  0.35744000000E-01  0.51099999109E-03 0.  1.
       11   -1    0    0    0    0 -0.00000000000E+00 -0.00000000000E+00 -0.35740347158E-01  0.35744000000E-01  0.51099999109E-03 0. -1.
       22    1    1    2    0    0 -0.29754019165E-01 -0.22590612484E-02 -0.19665415599E-01  0.35737005818E-01  0.00000000000E+00 0. -1.
  9000001    1    1    2    0    0  0.29754019165E-01  0.22590612484E-02  0.19665415599E-01  0.35750994182E-01  0.10000000475E-02 0.  1.
</event>
<event>
 4   0  0.4892667E-02  0.9118800E+02  0.7818609E-02  0.1379984E+01
      -11   -1    0    0    0    0  0.00000000000E+00  0.00000000000E+00  0.35740347158E-01  0.35744000000E-01  0.51099999109E-03 0.  1.
       11   -1    0    0    0    0 -0.00000000000E+00 -0.00000000000E+00 -0.35740347158E-01  0.35744000000E-01  0.51099999109E-03 0. -1.
       22    1    1    2    0    0 -0.21335195732E-01 -0.16470181565E-01  0.23466489452E-01  0.35737005818E-01  0.00000000000E+00 0.  1.
  9000001    1    1    2    0    0  0.21335195732E-01  0.16470181565E-01 -0.23466489452E-01  0.35750994182E-01  0.10000000475E-02 0. -1.
</event>
<event>
 4   0  0.4892667E-02  0.9118800E+02  0.7818609E-02  0.1379984E+01
      -11   -1    0    0    0    0  0.00000000000E+00  0.00000000000E+00  0.35740347158E-01  0.35744000000E-01  0.51099999109E-03 0. -1.
       11   -1    0    0    0    0 -0.00000000000E+00 -0.00000000000E+00 -0.35740347158E-01  0.35744000000E-01  0.51099999109E-03 0.  1.
       22    1    1    2    0    0 -0.13897020060E-01  0.25549547222E-01 -0.20766007202E-01  0.35737005818E-01  0.00000000000E+00 0.  1.
  9000001    1    1    2    0    0  0.13897020060E-01 -0.25549547222E-01  0.20766007202E-01  0.35750994182E-01  0.10000000475E-02 0. -1.
</event>
<event>
 4   0  0.4892667E-02  0.9118800E+02  0.7818609E-02  0.1379984E+01
      -11   -1    0    0    0    0  0.00000000000E+00  0.00000000000E+00  0.35740347158E-01  0.35744000000E-01  0.51099999109E-03 0.  1.
       11   -1    0    0    0    0 -0.00000000000E+00 -0.00000000000E+00 -0.35740347158E-01  0.35744000000E-01  0.51099999109E-03 0. -1.
       22    1    1    2    0    0  0.10246841993E-01 -0.25326569967E-02  0.34142663378E-01  0.35737005818E-01  0.00000000000E+00 0.  1.
  9000001    1    1    2    0    0 -0.10246841993E-01  0.25326569967E-02 -0.34142663378E-01  0.35750994182E-01  0.10000000475E-02 0. -1.
</event>
<event>
 4   0  0.4892667E-02  0.9118800E+02  0.7818609E-02  0.1379984E+01
      -11   -1    0    0    0    0  0.00000000000E+00  0.00000000000E+00  0.35740347158E-01  0.35744000000E-01  0.51099999109E-03 0. -1.
       11   -1    0    0    0    0 -0.00000000000E+00 -0.00000000000E+00 -0.35740347158E-01  0.35744000000E-01  0.51099999109E-03 0.  1.
       22    1    1    2    0    0 -0.10595499901E-01 -0.40002444703E-02  0.33894940786E-01  0.35737005818E-01  0.00000000000E+00 0. -1.
  9000001    1    1    2    0    0  0.10595499901E-01  0.40002444703E-02 -0.33894940786E-01  0.35750994182E-01  0.10000000475E-02 0.  1.
</event>
<event>
 4   0  0.4892667E-02  0.9118800E+02  0.7818609E-02  0.1379984E+01
      -11   -1    0    0    0    0  0.00000000000E+00  0.00000000000E+00  0.35740347158E-01  0.35744000000E-01  0.51099999109E-03 0. -1.
       11   -1    0    0    0    0 -0.00000000000E+00 -0.00000000000E+00 -0.35740347158E-01  0.35744000000E-01  0.51099999109E-03 0.  1.
       22    1    1    2    0    0 -0.13745189729E-01  0.25046222464E-01  0.21468350763E-01  0.35737005818E-01  0.00000000000E+00 0. -1.
  9000001    1    1    2    0    0  0.13745189729E-01 -0.25046222464E-01 -0.21468350763E-01  0.35750994182E-01  0.10000000475E-02 0.  1.
</event>
<event>
 4   0  0.4892667E-02  0.9118800E+02  0.7818609E-02  0.1379984E+01
      -11   -1    0    0    0    0  0.00000000000E+00  0.00000000000E+00  0.35740347158E-01  0.35744000000E-01  0.51099999109E-03 0.  1.
       11   -1    0    0    0    0 -0.00000000000E+00 -0.00000000000E+00 -0.35740347158E-01  0.35744000000E-01  0.51099999109E-03 0. -1.
       22    1    1    2    0    0  0.15500669436E-02 -0.99661479619E-02  0.34284205870E-01  0.35737005818E-01  0.00000000000E+00 0.  1.
  9000001    1    1    2    0    0 -0.15500669436E-02  0.99661479619E-02 -0.34284205870E-01  0.35750994182E-01  0.10000000475E-02 0. -1.
</event>
<event>
 4   0  0.4892667E-02  0.9118800E+02  0.7818609E-02  0.1379984E+01
      -11   -1    0    0    0    0  0.00000000000E+00  0.00000000000E+00  0.35740347158E-01  0.35744000000E-01  0.51099999109E-03 0. -1.
       11   -1    0    0    0    0 -0.00000000000E+00 -0.00000000000E+00 -0.35740347158E-01  0.35744000000E-01  0.51099999109E-03 0.  1.
       22    1    1    2    0    0  0.52591343890E-02 -0.34829015887E-02  0.35175907762E-01  0.35737005818E-01  0.00000000000E+00 0. -1.
  9000001    1    1    2    0    0 -0.52591343890E-02  0.34829015887E-02 -0.35175907762E-01  0.35750994182E-01  0.10000000475E-02 0.  1.
</event>
<event>
 4   0  0.4892667E-02  0.9118800E+02  0.7818609E-02  0.1379984E+01
      -11   -1    0    0    0    0  0.00000000000E+00  0.00000000000E+00  0.35740347158E-01  0.35744000000E-01  0.51099999109E-03 0. -1.
       11   -1    0    0    0    0 -0.00000000000E+00 -0.00000000000E+00 -0.35740347158E-01  0.35744000000E-01  0.51099999109E-03 0.  1.
       22    1    1    2    0    0  0.20591596297E-01  0.28739997641E-01  0.52088657513E-02  0.35737005818E-01  0.00000000000E+00 0. -1.
  9000001    1    1    2    0    0 -0.20591596297E-01 -0.28739997641E-01 -0.52088657513E-02  0.35750994182E-01  0.10000000475E-02 0.  1.
</event>
<event>
 4   0  0.4892667E-02  0.9118800E+02  0.7818609E-02  0.1379984E+01
      -11   -1    0    0    0    0  0.00000000000E+00  0.00000000000E+00  0.35740347158E-01  0.35744000000E-01  0.51099999109E-03 0.  1.
       11   -1    0    0    0    0 -0.00000000000E+00 -0.00000000000E+00 -0.35740347158E-01  0.35744000000E-01  0.51099999109E-03 0. -1.
       22    1    1    2    0    0  0.95297320272E-02 -0.12165194100E-01  0.32223063865E-01  0.35737005818E-01  0.00000000000E+00 0.  1.
  9000001    1    1    2    0    0 -0.95297320272E-02  0.12165194100E-01 -0.32223063865E-01  0.35750994182E-01  0.10000000475E-02 0. -1.
</event>
<event>
 4   0  0.4892667E-02  0.9118800E+02  0.7818609E-02  0.1379984E+01
      -11   -1    0    0    0    0  0.00000000000E+00  0.00000000000E+00  0.35740347158E-01  0.35744000000E-01  0.51099999109E-03 0. -1.
       11   -1    0    0    0    0 -0.00000000000E+00 -0.00000000000E+00 -0.35740347158E-01  0.35744000000E-01  0.51099999109E-03 0.  1.
       22    1    1    2    0    0 -0.24917105898E-02 -0.18454624108E-02  0.35602236330E-01  0.35737005818E-01  0.00000000000E+00 0. -1.
  9000001    1    1    2    0    0  0.24917105898E-02  0.18454624108E-02 -0.35602236330E-01  0.35750994182E-01  0.10000000475E-02 0.  1.
</event>
<event>
 4   0  0.4892667E-02  0.9118800E+02  0.7818609E-02  0.1379984E+01
      -11   -1    0    0    0    0  0.00000000000E+00  0.00000000000E+00  0.35740347158E-01  0.35744000000E-01  0.51099999109E-03 0.  1.
       11   -1    0    0    0    0 -0.00000000000E+00 -0.00000000000E+00 -0.35740347158E-01  0.35744000000E-01  0.51099999109E-03 0. -1.
       22    1    1    2    0    0  0.29492287357E-01  0.19536183812E-01 -0.50671583161E-02  0.35737005818E-01  0.00000000000E+00 0.  1.
  9000001    1    1    2    0    0 -0.29492287357E-01 -0.19536183812E-01  0.50671583161E-02  0.35750994182E-01  0.10000000475E-02 0. -1.
</event>
<event>
 4   0  0.4892667E-02  0.9118800E+02  0.7818609E-02  0.1379984E+01
      -11   -1    0    0    0    0  0.00000000000E+00  0.00000000000E+00  0.35740347158E-01  0.35744000000E-01  0.51099999109E-03 0.  1.
       11   -1    0    0    0    0 -0.00000000000E+00 -0.00000000000E+00 -0.35740347158E-01  0.35744000000E-01  0.51099999109E-03 0. -1.
       22    1    1    2    0    0  0.63429503376E-02  0.12329917857E-01 -0.32937420839E-01  0.35737005818E-01  0.00000000000E+00 0. -1.
  9000001    1    1    2    0    0 -0.63429503376E-02 -0.12329917857E-01  0.32937420839E-01  0.35750994182E-01  0.10000000475E-02 0.  1.
</event>
<event>
 4   0  0.4892667E-02  0.9118800E+02  0.7818609E-02  0.1379984E+01
      -11   -1    0    0    0    0  0.00000000000E+00  0.00000000000E+00  0.35740347158E-01  0.35744000000E-01  0.51099999109E-03 0. -1.
       11   -1    0    0    0    0 -0.00000000000E+00 -0.00000000000E+00 -0.35740347158E-01  0.35744000000E-01  0.51099999109E-03 0.  1.
       22    1    1    2    0    0  0.12072777144E-01  0.25574929924E-01  0.21847301807E-01  0.35737005818E-01  0.00000000000E+00 0. -1.
  9000001    1    1    2    0    0 -0.12072777144E-01 -0.25574929924E-01 -0.21847301807E-01  0.35750994182E-01  0.10000000475E-02 0.  1.
</event>
<event>
 4   0  0.4892667E-02  0.9118800E+02  0.7818609E-02  0.1379984E+01
      -11   -1    0    0    0    0  0.00000000000E+00  0.00000000000E+00  0.35740347158E-01  0.35744000000E-01  0.51099999109E-03 0.  1.
       11   -1    0    0    0    0 -0.00000000000E+00 -0.00000000000E+00 -0.35740347158E-01  0.35744000000E-01  0.51099999109E-03 0. -1.
       22    1    1    2    0    0  0.11435302570E-01  0.13065041649E-01  0.31235750779E-01  0.35737005818E-01  0.00000000000E+00 0.  1.
  9000001    1    1    2    0    0 -0.11435302570E-01 -0.13065041649E-01 -0.31235750779E-01  0.35750994182E-01  0.10000000475E-02 0. -1.
</event>
<event>
 4   0  0.4892667E-02  0.9118800E+02  0.7818609E-02  0.1379984E+01
      -11   -1    0    0    0    0  0.00000000000E+00  0.00000000000E+00  0.35740347158E-01  0.35744000000E-01  0.51099999109E-03 0.  1.
       11   -1    0    0    0    0 -0.00000000000E+00 -0.00000000000E+00 -0.35740347158E-01  0.35744000000E-01  0.51099999109E-03 0. -1.
       22    1    1    2    0    0 -0.45140205794E-02 -0.14972718694E-02  0.35419138612E-01  0.35737005818E-01  0.00000000000E+00 0.  1.
  9000001    1    1    2    0    0  0.45140205794E-02  0.14972718694E-02 -0.35419138612E-01  0.35750994182E-01  0.10000000475E-02 0. -1.
</event>
<event>
 4   0  0.4892667E-02  0.9118800E+02  0.7818609E-02  0.1379984E+01
      -11   -1    0    0    0    0  0.00000000000E+00  0.00000000000E+00  0.35740347158E-01  0.35744000000E-01  0.51099999109E-03 0.  1.
       11   -1    0    0    0    0 -0.00000000000E+00 -0.00000000000E+00 -0.35740347158E-01  0.35744000000E-01  0.51099999109E-03 0. -1.
       22    1    1    2    0    0  0.13470196023E-01  0.24945980936E-01 -0.21757422620E-01  0.35737005818E-01  0.00000000000E+00 0. -1.
  9000001    1    1    2    0    0 -0.13470196023E-01 -0.24945980936E-01  0.21757422620E-01  0.35750994182E-01  0.10000000475E-02 0.  1.
</event>
<event>
 4   0  0.4892667E-02  0.9118800E+02  0.7818609E-02  0.1379984E+01
      -11   -1    0    0    0    0  0.00000000000E+00  0.00000000000E+00  0.35740347158E-01  0.35744000000E-01  0.51099999109E-03 0.  1.
       11   -1    0    0    0    0 -0.00000000000E+00 -0.00000000000E+00 -0.35740347158E-01  0.35744000000E-01  0.51099999109E-03 0. -1.
       22    1    1    2    0    0  0.56144070775E-02 -0.15787492480E-02  0.35257900800E-01  0.35737005818E-01  0.00000000000E+00 0.  1.
  9000001    1    1    2    0    0 -0.56144070775E-02  0.15787492480E-02 -0.35257900800E-01  0.35750994182E-01  0.10000000475E-02 0. -1.
</event>
<event>
 4   0  0.4892667E-02  0.9118800E+02  0.7818609E-02  0.1379984E+01
      -11   -1    0    0    0    0  0.00000000000E+00  0.00000000000E+00  0.35740347158E-01  0.35744000000E-01  0.51099999109E-03 0.  1.
       11   -1    0    0    0    0 -0.00000000000E+00 -0.00000000000E+00 -0.35740347158E-01  0.35744000000E-01  0.51099999109E-03 0. -1.
       22    1    1    2    0    0  0.90516571998E-02  0.27923784143E-02 -0.34458724724E-01  0.35737005818E-01  0.00000000000E+00 0. -1.
  9000001    1    1    2    0    0 -0.90516571998E-02 -0.27923784143E-02  0.34458724724E-01  0.35750994182E-01  0.10000000475E-02 0.  1.
</event>
<event>
 4   0  0.4892667E-02  0.9118800E+02  0.7818609E-02  0.1379984E+01
      -11   -1    0    0    0    0  0.00000000000E+00  0.00000000000E+00  0.35740347158E-01  0.35744000000E-01  0.51099999109E-03 0. -1.
       11   -1    0    0    0    0 -0.00000000000E+00 -0.00000000000E+00 -0.35740347158E-01  0.35744000000E-01  0.51099999109E-03 0.  1.
       22    1    1    2    0    0 -0.42243154906E-02 -0.26844503718E-01 -0.23209079337E-01  0.35737005818E-01  0.00000000000E+00 0.  1.
  9000001    1    1    2    0    0  0.42243154906E-02  0.26844503718E-01  0.23209079337E-01  0.35750994182E-01  0.10000000475E-02 0. -1.
</event>
<event>
 4   0  0.4892667E-02  0.9118800E+02  0.7818609E-02  0.1379984E+01
      -11   -1    0    0    0    0  0.00000000000E+00  0.00000000000E+00  0.35740347158E-01  0.35744000000E-01  0.51099999109E-03 0. -1.
       11   -1    0    0    0    0 -0.00000000000E+00 -0.00000000000E+00 -0.35740347158E-01  0.35744000000E-01  0.51099999109E-03 0.  1.
       22    1    1    2    0    0 -0.13325082605E-01 -0.34517949854E-02  0.32979703907E-01  0.35737005818E-01  0.00000000000E+00 0. -1.
  9000001    1    1    2    0    0  0.13325082605E-01  0.34517949854E-02 -0.32979703907E-01  0.35750994182E-01  0.10000000475E-02 0.  1.
</event>
<event>
 4   0  0.4892667E-02  0.9118800E+02  0.7818609E-02  0.1379984E+01
      -11   -1    0    0    0    0  0.00000000000E+00  0.00000000000E+00  0.35740347158E-01  0.35744000000E-01  0.51099999109E-03 0.  1.
       11   -1    0    0    0    0 -0.00000000000E+00 -0.00000000000E+00 -0.35740347158E-01  0.35744000000E-01  0.51099999109E-03 0. -1.
       22    1    1    2    0    0 -0.37958930827E-02 -0.76814826653E-02  0.34694662481E-01  0.35737005818E-01  0.00000000000E+00 0.  1.
  9000001    1    1    2    0    0  0.37958930827E-02  0.76814826653E-02 -0.34694662481E-01  0.35750994182E-01  0.10000000475E-02 0. -1.
</event>
<event>
 4   0  0.4892667E-02  0.9118800E+02  0.7818609E-02  0.1379984E+01
      -11   -1    0    0    0    0  0.00000000000E+00  0.00000000000E+00  0.35740347158E-01  0.35744000000E-01  0.51099999109E-03 0. -1.
       11   -1    0    0    0    0 -0.00000000000E+00 -0.00000000000E+00 -0.35740347158E-01  0.35744000000E-01  0.51099999109E-03 0.  1.
       22    1    1    2    0    0 -0.74196706575E-02  0.10793147741E-01  0.33250414043E-01  0.35737005818E-01  0.00000000000E+00 0. -1.
  9000001    1    1    2    0    0  0.74196706575E-02 -0.10793147741E-01 -0.33250414043E-01  0.35750994182E-01  0.10000000475E-02 0.  1.
</event>
<event>
 4   0  0.4892667E-02  0.9118800E+02  0.7818609E-02  0.1379984E+01
      -11   -1    0    0    0    0  0.00000000000E+00  0.00000000000E+00  0.35740347158E-01  0.35744000000E-01  0.51099999109E-03 0.  1.
       11   -1    0    0    0    0 -0.00000000000E+00 -0.00000000000E+00 -0.35740347158E-01  0.35744000000E-01  0.51099999109E-03 0. -1.
       22    1    1    2    0    0 -0.10913049019E-01 -0.19606417737E-01  0.27814156998E-01  0.35737005818E-01  0.00000000000E+00 0.  1.
  9000001    1    1    2    0    0  0.10913049019E-01  0.19606417737E-01 -0.27814156998E-01  0.35750994182E-01  0.10000000475E-02 0. -1.
</event>
<event>
 4   0  0.4892667E-02  0.9118800E+02  0.7818609E-02  0.1379984E+01
      -11   -1    0    0    0    0  0.00000000000E+00  0.00000000000E+00  0.35740347158E-01  0.35744000000E-01  0.51099999109E-03 0. -1.
       11   -1    0    0    0    0 -0.00000000000E+00 -0.00000000000E+00 -0.35740347158E-01  0.35744000000E-01  0.51099999109E-03 0.  1.
       22    1    1    2    0    0 -0.34309176841E-02 -0.51837044266E-03 -0.35568155432E-01  0.35737005818E-01  0.00000000000E+00 0.  1.
  9000001    1    1    2    0    0  0.34309176841E-02  0.51837044266E-03  0.35568155432E-01  0.35750994182E-01  0.10000000475E-02 0. -1.
</event>
<event>
 4   0  0.4892667E-02  0.9118800E+02  0.7818609E-02  0.1379984E+01
      -11   -1    0    0    0    0  0.00000000000E+00  0.00000000000E+00  0.35740347158E-01  0.35744000000E-01  0.51099999109E-03 0. -1.
       11   -1    0    0    0    0 -0.00000000000E+00 -0.00000000000E+00 -0.35740347158E-01  0.35744000000E-01  0.51099999109E-03 0.  1.
       22    1    1    2    0    0  0.15937441056E-01  0.31968253300E-01 -0.10781179936E-02  0.35737005818E-01  0.00000000000E+00 0. -1.
  9000001    1    1    2    0    0 -0.15937441056E-01 -0.31968253300E-01  0.10781179936E-02  0.35750994182E-01  0.10000000475E-02 0.  1.
</event>
<event>
 4   0  0.4892667E-02  0.9118800E+02  0.7818609E-02  0.1379984E+01
      -11   -1    0    0    0    0  0.00000000000E+00  0.00000000000E+00  0.35740347158E-01  0.35744000000E-01  0.51099999109E-03 0. -1.
       11   -1    0    0    0    0 -0.00000000000E+00 -0.00000000000E+00 -0.35740347158E-01  0.35744000000E-01  0.51099999109E-03 0.  1.
       22    1    1    2    0    0  0.10673242624E-01 -0.16326425171E-02 -0.34066845395E-01  0.35737005818E-01  0.00000000000E+00 0.  1.
  9000001    1    1    2    0    0 -0.10673242624E-01  0.16326425171E-02  0.34066845395E-01  0.35750994182E-01  0.10000000475E-02 0. -1.
</event>
<event>
 4   0  0.4892667E-02  0.9118800E+02  0.7818609E-02  0.1379984E+01
      -11   -1    0    0    0    0  0.00000000000E+00  0.00000000000E+00  0.35740347158E-01  0.35744000000E-01  0.51099999109E-03 0. -1.
       11   -1    0    0    0    0 -0.00000000000E+00 -0.00000000000E+00 -0.35740347158E-01  0.35744000000E-01  0.51099999109E-03 0.  1.
       22    1    1    2    0    0 -0.22731591460E-01 -0.14594212679E-01 -0.23396950461E-01  0.35737005818E-01  0.00000000000E+00 0.  1.
  9000001    1    1    2    0    0  0.22731591460E-01  0.14594212679E-01  0.23396950461E-01  0.35750994182E-01  0.10000000475E-02 0. -1.
</event>
<event>
 4   0  0.4892667E-02  0.9118800E+02  0.7818609E-02  0.1379984E+01
      -11   -1    0    0    0    0  0.00000000000E+00  0.00000000000E+00  0.35740347158E-01  0.35744000000E-01  0.51099999109E-03 0. -1.
       11   -1    0    0    0    0 -0.00000000000E+00 -0.00000000000E+00 -0.35740347158E-01  0.35744000000E-01  0.51099999109E-03 0.  1.
       22    1    1    2    0    0 -0.49738944293E-02  0.19725134749E-01 -0.29382188792E-01  0.35737005818E-01  0.00000000000E+00 0.  1.
  9000001    1    1    2    0    0  0.49738944293E-02 -0.19725134749E-01  0.29382188792E-01  0.35750994182E-01  0.10000000475E-02 0. -1.
</event>
<event>
 4   0  0.4892667E-02  0.9118800E+02  0.7818609E-02  0.1379984E+01
      -11   -1    0    0    0    0  0.00000000000E+00  0.00000000000E+00  0.35740347158E-01  0.35744000000E-01  0.51099999109E-03 0.  1.
       11   -1    0    0    0    0 -0.00000000000E+00 -0.00000000000E+00 -0.35740347158E-01  0.35744000000E-01  0.51099999109E-03 0. -1.
       22    1    1    2    0    0 -0.16648463831E-02  0.58733019968E-02 -0.35211733769E-01  0.35737005818E-01  0.00000000000E+00 0. -1.
  9000001    1    1    2    0    0  0.16648463831E-02 -0.58733019968E-02  0.35211733769E-01  0.35750994182E-01  0.10000000475E-02 0.  1.
</event>
<event>
 4   0  0.4892667E-02  0.9118800E+02  0.7818609E-02  0.1379984E+01
      -11   -1    0    0    0    0  0.00000000000E+00  0.00000000000E+00  0.35740347158E-01  0.35744000000E-01  0.51099999109E-03 0. -1.
       11   -1    0    0    0    0 -0.00000000000E+00 -0.00000000000E+00 -0.35740347158E-01  0.35744000000E-01  0.51099999109E-03 0.  1.
       22    1    1    2    0    0  0.84893459784E-02  0.30285800609E-02 -0.34581675676E-01  0.35737005818E-01  0.00000000000E+00 0.  1.
  9000001    1    1    2    0    0 -0.84893459784E-02 -0.30285800609E-02  0.34581675676E-01  0.35750994182E-01  0.10000000475E-02 0. -1.
</event>
<event>
 4   0  0.4892667E-02  0.9118800E+02  0.7818609E-02  0.1379984E+01
      -11   -1    0    0    0    0  0.00000000000E+00  0.00000000000E+00  0.35740347158E-01  0.35744000000E-01  0.51099999109E-03 0.  1.
       11   -1    0    0    0    0 -0.00000000000E+00 -0.00000000000E+00 -0.35740347158E-01  0.35744000000E-01  0.51099999109E-03 0. -1.
       22    1    1    2    0    0 -0.27312622785E-01 -0.49261744086E-02  0.22514151708E-01  0.35737005818E-01  0.00000000000E+00 0.  1.
  9000001    1    1    2    0    0  0.27312622785E-01  0.49261744086E-02 -0.22514151708E-01  0.35750994182E-01  0.10000000475E-02 0. -1.
</event>
<event>
 4   0  0.4892667E-02  0.9118800E+02  0.7818609E-02  0.1379984E+01
      -11   -1    0    0    0    0  0.00000000000E+00  0.00000000000E+00  0.35740347158E-01  0.35744000000E-01  0.51099999109E-03 0. -1.
       11   -1    0    0    0    0 -0.00000000000E+00 -0.00000000000E+00 -0.35740347158E-01  0.35744000000E-01  0.51099999109E-03 0.  1.
       22    1    1    2    0    0  0.68481687140E-02  0.19094608046E-02  0.35022708770E-01  0.35737005818E-01  0.00000000000E+00 0. -1.
  9000001    1    1    2    0    0 -0.68481687140E-02 -0.19094608046E-02 -0.35022708770E-01  0.35750994182E-01  0.10000000475E-02 0.  1.
</event>
<event>
 4   0  0.4892667E-02  0.9118800E+02  0.7818609E-02  0.1379984E+01
      -11   -1    0    0    0    0  0.00000000000E+00  0.00000000000E+00  0.35740347158E-01  0.35744000000E-01  0.51099999109E-03 0.  1.
       11   -1    0    0    0    0 -0.00000000000E+00 -0.00000000000E+00 -0.35740347158E-01  0.35744000000E-01  0.51099999109E-03 0. -1.
       22    1    1    2    0    0 -0.31819582417E-02 -0.28479602712E-02  0.35480950507E-01  0.35737005818E-01  0.00000000000E+00 0.  1.
  9000001    1    1    2    0    0  0.31819582417E-02  0.28479602712E-02 -0.35480950507E-01  0.35750994182E-01  0.10000000475E-02 0. -1.
</event>
<event>
 4   0  0.4892667E-02  0.9118800E+02  0.7818609E-02  0.1379984E+01
      -11   -1    0    0    0    0  0.00000000000E+00  0.00000000000E+00  0.35740347158E-01  0.35744000000E-01  0.51099999109E-03 0.  1.
       11   -1    0    0    0    0 -0.00000000000E+00 -0.00000000000E+00 -0.35740347158E-01  0.35744000000E-01  0.51099999109E-03 0. -1.
       22    1    1    2    0    0  0.66749688218E-03  0.67186932810E-02  0.35093406694E-01  0.35737005818E-01  0.00000000000E+00 0.  1.
  9000001    1    1    2    0    0 -0.66749688218E-03 -0.67186932810E-02 -0.35093406694E-01  0.35750994182E-01  0.10000000475E-02 0. -1.
</event>
<event>
 4   0  0.4892667E-02  0.9118800E+02  0.7818609E-02  0.1379984E+01
      -11   -1    0    0    0    0  0.00000000000E+00  0.00000000000E+00  0.35740347158E-01  0.35744000000E-01  0.51099999109E-03 0. -1.
       11   -1    0    0    0    0 -0.00000000000E+00 -0.00000000000E+00 -0.35740347158E-01  0.35744000000E-01  0.51099999109E-03 0.  1.
       22    1    1    2    0    0  0.29728948177E-02 -0.16783702854E-01 -0.31410233998E-01  0.35737005818E-01  0.00000000000E+00 0.  1.
  9000001    1    1    2    0    0 -0.29728948177E-02  0.16783702854E-01  0.31410233998E-01  0.35750994182E-01  0.10000000475E-02 0. -1.
</event>
<event>
 4   0  0.4892667E-02  0.9118800E+02  0.7818609E-02  0.1379984E+01
      -11   -1    0    0    0    0  0.00000000000E+00  0.00000000000E+00  0.35740347158E-01  0.35744000000E-01  0.51099999109E-03 0. -1.
       11   -1    0    0    0    0 -0.00000000000E+00 -0.00000000000E+00 -0.35740347158E-01  0.35744000000E-01  0.51099999109E-03 0.  1.
       22    1    1    2    0    0 -0.54294194864E-02  0.45511696425E-05 -0.35322159733E-01  0.35737005818E-01  0.00000000000E+00 0.  1.
  9000001    1    1    2    0    0  0.54294194864E-02 -0.45511696425E-05  0.35322159733E-01  0.35750994182E-01  0.10000000475E-02 0. -1.
</event>
<event>
 4   0  0.4892667E-02  0.9118800E+02  0.7818609E-02  0.1379984E+01
      -11   -1    0    0    0    0  0.00000000000E+00  0.00000000000E+00  0.35740347158E-01  0.35744000000E-01  0.51099999109E-03 0.  1.
       11   -1    0    0    0    0 -0.00000000000E+00 -0.00000000000E+00 -0.35740347158E-01  0.35744000000E-01  0.51099999109E-03 0. -1.
       22    1    1    2    0    0 -0.30685942927E-02  0.84675801255E-04  0.35604917412E-01  0.35737005818E-01  0.00000000000E+00 0.  1.
  9000001    1    1    2    0    0  0.30685942927E-02 -0.84675801255E-04 -0.35604917412E-01  0.35750994182E-01  0.10000000475E-02 0. -1.
</event>
<event>
 4   0  0.4892667E-02  0.9118800E+02  0.7818609E-02  0.1379984E+01
      -11   -1    0    0    0    0  0.00000000000E+00  0.00000000000E+00  0.35740347158E-01  0.35744000000E-01  0.51099999109E-03 0.  1.
       11   -1    0    0    0    0 -0.00000000000E+00 -0.00000000000E+00 -0.35740347158E-01  0.35744000000E-01  0.51099999109E-03 0. -1.
       22    1    1    2    0    0 -0.31741372306E-02 -0.29778747291E-02 -0.35470983914E-01  0.35737005818E-01  0.00000000000E+00 0. -1.
  9000001    1    1    2    0    0  0.31741372306E-02  0.29778747291E-02  0.35470983914E-01  0.35750994182E-01  0.10000000475E-02 0.  1.
</event>
<event>
 4   0  0.4892667E-02  0.9118800E+02  0.7818609E-02  0.1379984E+01
      -11   -1    0    0    0    0  0.00000000000E+00  0.00000000000E+00  0.35740347158E-01  0.35744000000E-01  0.51099999109E-03 0.  1.
       11   -1    0    0    0    0 -0.00000000000E+00 -0.00000000000E+00 -0.35740347158E-01  0.35744000000E-01  0.51099999109E-03 0. -1.
       22    1    1    2    0    0 -0.20297928259E-01  0.29832514575E-02 -0.29261372216E-01  0.35737005818E-01  0.00000000000E+00 0. -1.
  9000001    1    1    2    0    0  0.20297928259E-01 -0.29832514575E-02  0.29261372216E-01  0.35750994182E-01  0.10000000475E-02 0.  1.
</event>
<event>
 4   0  0.4892667E-02  0.9118800E+02  0.7818609E-02  0.1379984E+01
      -11   -1    0    0    0    0  0.00000000000E+00  0.00000000000E+00  0.35740347158E-01  0.35744000000E-01  0.51099999109E-03 0. -1.
       11   -1    0    0    0    0 -0.00000000000E+00 -0.00000000000E+00 -0.35740347158E-01  0.35744000000E-01  0.51099999109E-03 0.  1.
       22    1    1    2    0    0 -0.27565526425E-01  0.99595267755E-02  0.20447082045E-01  0.35737005818E-01  0.00000000000E+00 0. -1.
  9000001    1    1    2    0    0  0.27565526425E-01 -0.99595267755E-02 -0.20447082045E-01  0.35750994182E-01  0.10000000475E-02 0.  1.
</event>
<event>
 4   0  0.4892667E-02  0.9118800E+02  0.7818609E-02  0.1379984E+01
      -11   -1    0    0    0    0  0.00000000000E+00  0.00000000000E+00  0.35740347158E-01  0.35744000000E-01  0.51099999109E-03 0.  1.
       11   -1    0    0    0    0 -0.00000000000E+00 -0.00000000000E+00 -0.35740347158E-01  0.35744000000E-01  0.51099999109E-03 0. -1.
       22    1    1    2    0    0  0.19395506946E-01 -0.44660282316E-02  0.29681686054E-01  0.35737005818E-01  0.00000000000E+00 0.  1.
  9000001    1    1    2    0    0 -0.19395506946E-01  0.44660282316E-02 -0.29681686054E-01  0.35750994182E-01  0.10000000475E-02 0. -1.
</event>
<event>
 4   0  0.4892667E-02  0.9118800E+02  0.7818609E-02  0.1379984E+01
      -11   -1    0    0    0    0  0.00000000000E+00  0.00000000000E+00  0.35740347158E-01  0.35744000000E-01  0.51099999109E-03 0.  1.
       11   -1    0    0    0    0 -0.00000000000E+00 -0.00000000000E+00 -0.35740347158E-01  0.35744000000E-01  0.51099999109E-03 0. -1.
       22    1    1    2    0    0 -0.41086352313E-02  0.11679784803E-01  0.33523653267E-01  0.35737005818E-01  0.00000000000E+00 0.  1.
  9000001    1    1    2    0    0  0.41086352313E-02 -0.11679784803E-01 -0.33523653267E-01  0.35750994182E-01  0.10000000475E-02 0. -1.
</event>
<event>
 4   0  0.4892667E-02  0.9118800E+02  0.7818609E-02  0.1379984E+01
      -11   -1    0    0    0    0  0.00000000000E+00  0.00000000000E+00  0.35740347158E-01  0.35744000000E-01  0.51099999109E-03 0. -1.
       11   -1    0    0    0    0 -0.00000000000E+00 -0.00000000000E+00 -0.35740347158E-01  0.35744000000E-01  0.51099999109E-03 0.  1.
       22    1    1    2    0    0  0.15447374043E-01 -0.19119981760E-02 -0.32169185302E-01  0.35737005818E-01  0.00000000000E+00 0.  1.
  9000001    1    1    2    0    0 -0.15447374043E-01  0.19119981760E-02  0.32169185302E-01  0.35750994182E-01  0.10000000475E-02 0. -1.
</event>
<event>
 4   0  0.4892667E-02  0.9118800E+02  0.7818609E-02  0.1379984E+01
      -11   -1    0    0    0    0  0.00000000000E+00  0.00000000000E+00  0.35740347158E-01  0.35744000000E-01  0.51099999109E-03 0. -1.
       11   -1    0    0    0    0 -0.00000000000E+00 -0.00000000000E+00 -0.35740347158E-01  0.35744000000E-01  0.51099999109E-03 0.  1.
       22    1    1    2    0    0  0.21322102984E-01 -0.17792178222E-01 -0.22493107908E-01  0.35737005818E-01  0.00000000000E+00 0.  1.
  9000001    1    1    2    0    0 -0.21322102984E-01  0.17792178222E-01  0.22493107908E-01  0.35750994182E-01  0.10000000475E-02 0. -1.
</event>
<event>
 4   0  0.4892667E-02  0.9118800E+02  0.7818609E-02  0.1379984E+01
      -11   -1    0    0    0    0  0.00000000000E+00  0.00000000000E+00  0.35740347158E-01  0.35744000000E-01  0.51099999109E-03 0.  1.
       11   -1    0    0    0    0 -0.00000000000E+00 -0.00000000000E+00 -0.35740347158E-01  0.35744000000E-01  0.51099999109E-03 0. -1.
       22    1    1    2    0    0  0.19586278482E-02  0.71000095219E-02  0.34969804498E-01  0.35737005818E-01  0.00000000000E+00 0.  1.
  9000001    1    1    2    0    0 -0.19586278482E-02 -0.71000095219E-02 -0.34969804498E-01  0.35750994182E-01  0.10000000475E-02 0. -1.
</event>
<event>
 4   0  0.4892667E-02  0.9118800E+02  0.7818609E-02  0.1379984E+01
      -11   -1    0    0    0    0  0.00000000000E+00  0.00000000000E+00  0.35740347158E-01  0.35744000000E-01  0.51099999109E-03 0. -1.
       11   -1    0    0    0    0 -0.00000000000E+00 -0.00000000000E+00 -0.35740347158E-01  0.35744000000E-01  0.51099999109E-03 0.  1.
       22    1    1    2    0    0 -0.18312056068E-01 -0.13849613705E-01  0.27385952378E-01  0.35737005818E-01  0.00000000000E+00 0. -1.
  9000001    1    1    2    0    0  0.18312056068E-01  0.13849613705E-01 -0.27385952378E-01  0.35750994182E-01  0.10000000475E-02 0.  1.
</event>
<event>
 4   0  0.4892667E-02  0.9118800E+02  0.7818609E-02  0.1379984E+01
      -11   -1    0    0    0    0  0.00000000000E+00  0.00000000000E+00  0.35740347158E-01  0.35744000000E-01  0.51099999109E-03 0. -1.
       11   -1    0    0    0    0 -0.00000000000E+00 -0.00000000000E+00 -0.35740347158E-01  0.35744000000E-01  0.51099999109E-03 0.  1.
       22    1    1    2    0    0 -0.47587687317E-02  0.75286371507E-03  0.35410745562E-01  0.35737005818E-01  0.00000000000E+00 0. -1.
  9000001    1    1    2    0    0  0.47587687317E-02 -0.75286371507E-03 -0.35410745562E-01  0.35750994182E-01  0.10000000475E-02 0.  1.
</event>
<event>
 4   0  0.4892667E-02  0.9118800E+02  0.7818609E-02  0.1379984E+01
      -11   -1    0    0    0    0  0.00000000000E+00  0.00000000000E+00  0.35740347158E-01  0.35744000000E-01  0.51099999109E-03 0. -1.
       11   -1    0    0    0    0 -0.00000000000E+00 -0.00000000000E+00 -0.35740347158E-01  0.35744000000E-01  0.51099999109E-03 0.  1.
       22    1    1    2    0    0  0.63558179720E-02 -0.17201529120E-01 -0.30673189575E-01  0.35737005818E-01  0.00000000000E+00 0.  1.
  9000001    1    1    2    0    0 -0.63558179720E-02  0.17201529120E-01  0.30673189575E-01  0.35750994182E-01  0.10000000475E-02 0. -1.
</event>
<event>
 4   0  0.4892667E-02  0.9118800E+02  0.7818609E-02  0.1379984E+01
      -11   -1    0    0    0    0  0.00000000000E+00  0.00000000000E+00  0.35740347158E-01  0.35744000000E-01  0.51099999109E-03 0. -1.
       11   -1    0    0    0    0 -0.00000000000E+00 -0.00000000000E+00 -0.35740347158E-01  0.35744000000E-01  0.51099999109E-03 0.  1.
       22    1    1    2    0    0  0.94813126310E-02  0.46410356358E-03 -0.34453198742E-01  0.35737005818E-01  0.00000000000E+00 0.  1.
  9000001    1    1    2    0    0 -0.94813126310E-02 -0.46410356358E-03  0.34453198742E-01  0.35750994182E-01  0.10000000475E-02 0. -1.
</event>
<event>
 4   0  0.4892667E-02  0.9118800E+02  0.7818609E-02  0.1379984E+01
      -11   -1    0    0    0    0  0.00000000000E+00  0.00000000000E+00  0.35740347158E-01  0.35744000000E-01  0.51099999109E-03 0. -1.
       11   -1    0    0    0    0 -0.00000000000E+00 -0.00000000000E+00 -0.35740347158E-01  0.35744000000E-01  0.51099999109E-03 0.  1.
       22    1    1    2    0    0  0.24483184312E-01  0.37895983741E-02 -0.25755508439E-01  0.35737005818E-01  0.00000000000E+00 0.  1.
  9000001    1    1    2    0    0 -0.24483184312E-01 -0.37895983741E-02  0.25755508439E-01  0.35750994182E-01  0.10000000475E-02 0. -1.
</event>
<event>
 4   0  0.4892667E-02  0.9118800E+02  0.7818609E-02  0.1379984E+01
      -11   -1    0    0    0    0  0.00000000000E+00  0.00000000000E+00  0.35740347158E-01  0.35744000000E-01  0.51099999109E-03 0.  1.
       11   -1    0    0    0    0 -0.00000000000E+00 -0.00000000000E+00 -0.35740347158E-01  0.35744000000E-01  0.51099999109E-03 0. -1.
       22    1    1    2    0    0 -0.16888046418E-02 -0.29842167248E-02 -0.35572123556E-01  0.35737005818E-01  0.00000000000E+00 0. -1.
  9000001    1    1    2    0    0  0.16888046418E-02  0.29842167248E-02  0.35572123556E-01  0.35750994182E-01  0.10000000475E-02 0.  1.
</event>
<event>
 4   0  0.4892667E-02  0.9118800E+02  0.7818609E-02  0.1379984E+01
      -11   -1    0    0    0    0  0.00000000000E+00  0.00000000000E+00  0.35740347158E-01  0.35744000000E-01  0.51099999109E-03 0.  1.
       11   -1    0    0    0    0 -0.00000000000E+00 -0.00000000000E+00 -0.35740347158E-01  0.35744000000E-01  0.51099999109E-03 0. -1.
       22    1    1    2    0    0  0.64775109946E-02  0.23588472973E-02 -0.35065813489E-01  0.35737005818E-01  0.00000000000E+00 0. -1.
  9000001    1    1    2    0    0 -0.64775109946E-02 -0.23588472973E-02  0.35065813489E-01  0.35750994182E-01  0.10000000475E-02 0.  1.
</event>
<event>
 4   0  0.4892667E-02  0.9118800E+02  0.7818609E-02  0.1379984E+01
      -11   -1    0    0    0    0  0.00000000000E+00  0.00000000000E+00  0.35740347158E-01  0.35744000000E-01  0.51099999109E-03 0. -1.
       11   -1    0    0    0    0 -0.00000000000E+00 -0.00000000000E+00 -0.35740347158E-01  0.35744000000E-01  0.51099999109E-03 0.  1.
       22    1    1    2    0    0  0.84584291895E-02 -0.12912246948E-02 -0.34697569069E-01  0.35737005818E-01  0.00000000000E+00 0.  1.
  9000001    1    1    2    0    0 -0.84584291895E-02  0.12912246948E-02  0.34697569069E-01  0.35750994182E-01  0.10000000475E-02 0. -1.
</event>
<event>
 4   0  0.4892667E-02  0.9118800E+02  0.7818609E-02  0.1379984E+01
      -11   -1    0    0    0    0  0.00000000000E+00  0.00000000000E+00  0.35740347158E-01  0.35744000000E-01  0.51099999109E-03 0.  1.
       11   -1    0    0    0    0 -0.00000000000E+00 -0.00000000000E+00 -0.35740347158E-01  0.35744000000E-01  0.51099999109E-03 0. -1.
       22    1    1    2    0    0 -0.26388893924E-01 -0.33704490384E-02 -0.23862102497E-01  0.35737005818E-01  0.00000000000E+00 0. -1.
  9000001    1    1    2    0    0  0.26388893924E-01  0.33704490384E-02  0.23862102497E-01  0.35750994182E-01  0.10000000475E-02 0.  1.
</event>
<event>
 4   0  0.4892667E-02  0.9118800E+02  0.7818609E-02  0.1379984E+01
      -11   -1    0    0    0    0  0.00000000000E+00  0.00000000000E+00  0.35740347158E-01  0.35744000000E-01  0.51099999109E-03 0.  1.
       11   -1    0    0    0    0 -0.00000000000E+00 -0.00000000000E+00 -0.35740347158E-01  0.35744000000E-01  0.51099999109E-03 0. -1.
       22    1    1    2    0    0  0.21039109440E-02  0.96150377525E-02 -0.34354886008E-01  0.35737005818E-01  0.00000000000E+00 0. -1.
  9000001    1    1    2    0    0 -0.21039109440E-02 -0.96150377525E-02  0.34354886008E-01  0.35750994182E-01  0.10000000475E-02 0.  1.
</event>
<event>
 4   0  0.4892667E-02  0.9118800E+02  0.7818609E-02  0.1379984E+01
      -11   -1    0    0    0    0  0.00000000000E+00  0.00000000000E+00  0.35740347158E-01  0.35744000000E-01  0.51099999109E-03 0.  1.
       11   -1    0    0    0    0 -0.00000000000E+00 -0.00000000000E+00 -0.35740347158E-01  0.35744000000E-01  0.51099999109E-03 0. -1.
       22    1    1    2    0    0 -0.21932326068E-01 -0.46489339580E-02  0.27829733580E-01  0.35737005818E-01  0.00000000000E+00 0.  1.
  9000001    1    1    2    0    0  0.21932326068E-01  0.46489339580E-02 -0.27829733580E-01  0.35750994182E-01  0.10000000475E-02 0. -1.
</event>
<event>
 4   0  0.4892667E-02  0.9118800E+02  0.7818609E-02  0.1379984E+01
      -11   -1    0    0    0    0  0.00000000000E+00  0.00000000000E+00  0.35740347158E-01  0.35744000000E-01  0.51099999109E-03 0. -1.
       11   -1    0    0    0    0 -0.00000000000E+00 -0.00000000000E+00 -0.35740347158E-01  0.35744000000E-01  0.51099999109E-03 0.  1.
       22    1    1    2    0    0  0.90165058057E-02  0.44212818809E-02  0.34297062184E-01  0.35737005818E-01  0.00000000000E+00 0. -1.
  9000001    1    1    2    0    0 -0.90165058057E-02 -0.44212818809E-02 -0.34297062184E-01  0.35750994182E-01  0.10000000475E-02 0.  1.
</event>
<event>
 4   0  0.4892667E-02  0.9118800E+02  0.7818609E-02  0.1379984E+01
      -11   -1    0    0    0    0  0.00000000000E+00  0.00000000000E+00  0.35740347158E-01  0.35744000000E-01  0.51099999109E-03 0. -1.
       11   -1    0    0    0    0 -0.00000000000E+00 -0.00000000000E+00 -0.35740347158E-01  0.35744000000E-01  0.51099999109E-03 0.  1.
       22    1    1    2    0    0 -0.32956443793E-02  0.44247200811E-03 -0.35581969191E-01  0.35737005818E-01  0.00000000000E+00 0.  1.
  9000001    1    1    2    0    0  0.32956443793E-02 -0.44247200811E-03  0.35581969191E-01  0.35750994182E-01  0.10000000475E-02 0. -1.
</event>
<event>
 4   0  0.4892667E-02  0.9118800E+02  0.7818609E-02  0.1379984E+01
      -11   -1    0    0    0    0  0.00000000000E+00  0.00000000000E+00  0.35740347158E-01  0.35744000000E-01  0.51099999109E-03 0.  1.
       11   -1    0    0    0    0 -0.00000000000E+00 -0.00000000000E+00 -0.35740347158E-01  0.35744000000E-01  0.51099999109E-03 0. -1.
       22    1    1    2    0    0  0.32040815681E-02  0.55642882432E-03 -0.35588731828E-01  0.35737005818E-01  0.00000000000E+00 0. -1.
  9000001    1    1    2    0    0 -0.32040815681E-02 -0.55642882432E-03  0.35588731828E-01  0.35750994182E-01  0.10000000475E-02 0.  1.
</event>
<event>
 4   0  0.4892667E-02  0.9118800E+02  0.7818609E-02  0.1379984E+01
      -11   -1    0    0    0    0  0.00000000000E+00  0.00000000000E+00  0.35740347158E-01  0.35744000000E-01  0.51099999109E-03 0.  1.
       11   -1    0    0    0    0 -0.00000000000E+00 -0.00000000000E+00 -0.35740347158E-01  0.35744000000E-01  0.51099999109E-03 0. -1.
       22    1    1    2    0    0 -0.22128790053E-01 -0.44030087055E-02 -0.27713963087E-01  0.35737005818E-01  0.00000000000E+00 0. -1.
  9000001    1    1    2    0    0  0.22128790053E-01  0.44030087055E-02  0.27713963087E-01  0.35750994182E-01  0.10000000475E-02 0.  1.
</event>
<event>
 4   0  0.4892667E-02  0.9118800E+02  0.7818609E-02  0.1379984E+01
      -11   -1    0    0    0    0  0.00000000000E+00  0.00000000000E+00  0.35740347158E-01  0.35744000000E-01  0.51099999109E-03 0.  1.
       11   -1    0    0    0    0 -0.00000000000E+00 -0.00000000000E+00 -0.35740347158E-01  0.35744000000E-01  0.51099999109E-03 0. -1.
       22    1    1    2    0    0  0.36241308698E-02  0.45218750918E-02  0.35264031335E-01  0.35737005818E-01  0.00000000000E+00 0.  1.
  9000001    1    1    2    0    0 -0.36241308698E-02 -0.45218750918E-02 -0.35264031335E-01  0.35750994182E-01  0.10000000475E-02 0. -1.
</event>
<event>
 4   0  0.4892667E-02  0.9118800E+02  0.7818609E-02  0.1379984E+01
      -11   -1    0    0    0    0  0.00000000000E+00  0.00000000000E+00  0.35740347158E-01  0.35744000000E-01  0.51099999109E-03 0.  1.
       11   -1    0    0    0    0 -0.00000000000E+00 -0.00000000000E+00 -0.35740347158E-01  0.35744000000E-01  0.51099999109E-03 0. -1.
       22    1    1    2    0    0 -0.25251996511E-01 -0.25060973683E-01 -0.33790316865E-02  0.35737005818E-01  0.00000000000E+00 0. -1.
  9000001    1    1    2    0    0  0.25251996511E-01  0.25060973683E-01  0.33790316865E-02  0.35750994182E-01  0.10000000475E-02 0.  1.
</event>
<event>
 4   0  0.4892667E-02  0.9118800E+02  0.7818609E-02  0.1379984E+01
      -11   -1    0    0    0    0  0.00000000000E+00  0.00000000000E+00  0.35740347158E-01  0.35744000000E-01  0.51099999109E-03 0. -1.
       11   -1    0    0    0    0 -0.00000000000E+00 -0.00000000000E+00 -0.35740347158E-01  0.35744000000E-01  0.51099999109E-03 0.  1.
       22    1    1    2    0    0  0.53068714884E-03 -0.41094493277E-02  0.35495976987E-01  0.35737005818E-01  0.00000000000E+00 0. -1.
  9000001    1    1    2    0    0 -0.53068714884E-03  0.41094493277E-02 -0.35495976987E-01  0.35750994182E-01  0.10000000475E-02 0.  1.
</event>
<event>
 4   0  0.4892667E-02  0.9118800E+02  0.7818609E-02  0.1379984E+01
      -11   -1    0    0    0    0  0.00000000000E+00  0.00000000000E+00  0.35740347158E-01  0.35744000000E-01  0.51099999109E-03 0. -1.
       11   -1    0    0    0    0 -0.00000000000E+00 -0.00000000000E+00 -0.35740347158E-01  0.35744000000E-01  0.51099999109E-03 0.  1.
       22    1    1    2    0    0 -0.52108732134E-02  0.82060061441E-02 -0.34389560166E-01  0.35737005818E-01  0.00000000000E+00 0.  1.
  9000001    1    1    2    0    0  0.52108732134E-02 -0.82060061441E-02  0.34389560166E-01  0.35750994182E-01  0.10000000475E-02 0. -1.
</event>
<event>
 4   0  0.4892667E-02  0.9118800E+02  0.7818609E-02  0.1379984E+01
      -11   -1    0    0    0    0  0.00000000000E+00  0.00000000000E+00  0.35740347158E-01  0.35744000000E-01  0.51099999109E-03 0.  1.
       11   -1    0    0    0    0 -0.00000000000E+00 -0.00000000000E+00 -0.35740347158E-01  0.35744000000E-01  0.51099999109E-03 0. -1.
       22    1    1    2    0    0  0.22135341914E-01 -0.32148359961E-02 -0.27871581454E-01  0.35737005818E-01  0.00000000000E+00 0. -1.
  9000001    1    1    2    0    0 -0.22135341914E-01  0.32148359961E-02  0.27871581454E-01  0.35750994182E-01  0.10000000475E-02 0.  1.
</event>
<event>
 4   0  0.4892667E-02  0.9118800E+02  0.7818609E-02  0.1379984E+01
      -11   -1    0    0    0    0  0.00000000000E+00  0.00000000000E+00  0.35740347158E-01  0.35744000000E-01  0.51099999109E-03 0.  1.
       11   -1    0    0    0    0 -0.00000000000E+00 -0.00000000000E+00 -0.35740347158E-01  0.35744000000E-01  0.51099999109E-03 0. -1.
       22    1    1    2    0    0 -0.98160460022E-02 -0.12554916217E-01  0.31986761395E-01  0.35737005818E-01  0.00000000000E+00 0.  1.
  9000001    1    1    2    0    0  0.98160460022E-02  0.12554916217E-01 -0.31986761395E-01  0.35750994182E-01  0.10000000475E-02 0. -1.
</event>
<event>
 4   0  0.4892667E-02  0.9118800E+02  0.7818609E-02  0.1379984E+01
      -11   -1    0    0    0    0  0.00000000000E+00  0.00000000000E+00  0.35740347158E-01  0.35744000000E-01  0.51099999109E-03 0. -1.
       11   -1    0    0    0    0 -0.00000000000E+00 -0.00000000000E+00 -0.35740347158E-01  0.35744000000E-01  0.51099999109E-03 0.  1.
       22    1    1    2    0    0 -0.52882617608E-02 -0.17256103222E-02  0.35301418405E-01  0.35737005818E-01  0.00000000000E+00 0. -1.
  9000001    1    1    2    0    0  0.52882617608E-02  0.17256103222E-02 -0.35301418405E-01  0.35750994182E-01  0.10000000475E-02 0.  1.
</event>
<event>
 4   0  0.4892667E-02  0.9118800E+02  0.7818609E-02  0.1379984E+01
      -11   -1    0    0    0    0  0.00000000000E+00  0.00000000000E+00  0.35740347158E-01  0.35744000000E-01  0.51099999109E-03 0. -1.
       11   -1    0    0    0    0 -0.00000000000E+00 -0.00000000000E+00 -0.35740347158E-01  0.35744000000E-01  0.51099999109E-03 0.  1.
       22    1    1    2    0    0 -0.23402910315E-02 -0.25300611740E-02 -0.35570428915E-01  0.35737005818E-01  0.00000000000E+00 0.  1.
  9000001    1    1    2    0    0  0.23402910315E-02  0.25300611740E-02  0.35570428915E-01  0.35750994182E-01  0.10000000475E-02 0. -1.
</event>
<event>
 4   0  0.4892667E-02  0.9118800E+02  0.7818609E-02  0.1379984E+01
      -11   -1    0    0    0    0  0.00000000000E+00  0.00000000000E+00  0.35740347158E-01  0.35744000000E-01  0.51099999109E-03 0.  1.
       11   -1    0    0    0    0 -0.00000000000E+00 -0.00000000000E+00 -0.35740347158E-01  0.35744000000E-01  0.51099999109E-03 0. -1.
       22    1    1    2    0    0 -0.68145413313E-02  0.13434009113E-01  0.32407144436E-01  0.35737005818E-01  0.00000000000E+00 0.  1.
  9000001    1    1    2    0    0  0.68145413313E-02 -0.13434009113E-01 -0.32407144436E-01  0.35750994182E-01  0.10000000475E-02 0. -1.
</event>
<event>
 4   0  0.4892667E-02  0.9118800E+02  0.7818609E-02  0.1379984E+01
      -11   -1    0    0    0    0  0.00000000000E+00  0.00000000000E+00  0.35740347158E-01  0.35744000000E-01  0.51099999109E-03 0. -1.
       11   -1    0    0    0    0 -0.00000000000E+00 -0.00000000000E+00 -0.35740347158E-01  0.35744000000E-01  0.51099999109E-03 0.  1.
       22    1    1    2    0    0  0.25259039740E-01  0.36656079232E-02 -0.25013552623E-01  0.35737005818E-01  0.00000000000E+00 0.  1.
  9000001    1    1    2    0    0 -0.25259039740E-01 -0.36656079232E-02  0.25013552623E-01  0.35750994182E-01  0.10000000475E-02 0. -1.
</event>
<event>
 4   0  0.4892667E-02  0.9118800E+02  0.7818609E-02  0.1379984E+01
      -11   -1    0    0    0    0  0.00000000000E+00  0.00000000000E+00  0.35740347158E-01  0.35744000000E-01  0.51099999109E-03 0.  1.
       11   -1    0    0    0    0 -0.00000000000E+00 -0.00000000000E+00 -0.35740347158E-01  0.35744000000E-01  0.51099999109E-03 0. -1.
       22    1    1    2    0    0  0.30120230920E-02 -0.37268859268E-03 -0.35607898070E-01  0.35737005818E-01  0.00000000000E+00 0. -1.
  9000001    1    1    2    0    0 -0.30120230920E-02  0.37268859268E-03  0.35607898070E-01  0.35750994182E-01  0.10000000475E-02 0.  1.
</event>
<event>
 4   0  0.4892667E-02  0.9118800E+02  0.7818609E-02  0.1379984E+01
      -11   -1    0    0    0    0  0.00000000000E+00  0.00000000000E+00  0.35740347158E-01  0.35744000000E-01  0.51099999109E-03 0.  1.
       11   -1    0    0    0    0 -0.00000000000E+00 -0.00000000000E+00 -0.35740347158E-01  0.35744000000E-01  0.51099999109E-03 0. -1.
       22    1    1    2    0    0 -0.18344779297E-02 -0.34230507483E-02  0.35525357129E-01  0.35737005818E-01  0.00000000000E+00 0.  1.
  9000001    1    1    2    0    0  0.18344779297E-02  0.34230507483E-02 -0.35525357129E-01  0.35750994182E-01  0.10000000475E-02 0. -1.
</event>
<event>
 4   0  0.4892667E-02  0.9118800E+02  0.7818609E-02  0.1379984E+01
      -11   -1    0    0    0    0  0.00000000000E+00  0.00000000000E+00  0.35740347158E-01  0.35744000000E-01  0.51099999109E-03 0. -1.
       11   -1    0    0    0    0 -0.00000000000E+00 -0.00000000000E+00 -0.35740347158E-01  0.35744000000E-01  0.51099999109E-03 0.  1.
       22    1    1    2    0    0  0.77103848644E-02 -0.16868758720E-01 -0.30547152557E-01  0.35737005818E-01  0.00000000000E+00 0.  1.
  9000001    1    1    2    0    0 -0.77103848644E-02  0.16868758720E-01  0.30547152557E-01  0.35750994182E-01  0.10000000475E-02 0. -1.
</event>
<event>
 4   0  0.4892667E-02  0.9118800E+02  0.7818609E-02  0.1379984E+01
      -11   -1    0    0    0    0  0.00000000000E+00  0.00000000000E+00  0.35740347158E-01  0.35744000000E-01  0.51099999109E-03 0.  1.
       11   -1    0    0    0    0 -0.00000000000E+00 -0.00000000000E+00 -0.35740347158E-01  0.35744000000E-01  0.51099999109E-03 0. -1.
       22    1    1    2    0    0 -0.13853991909E-01  0.49269156545E-02  0.32571858946E-01  0.35737005818E-01  0.00000000000E+00 0.  1.
  9000001    1    1    2    0    0  0.13853991909E-01 -0.49269156545E-02 -0.32571858946E-01  0.35750994182E-01  0.10000000475E-02 0. -1.
</event>
<event>
 4   0  0.4892667E-02  0.9118800E+02  0.7818609E-02  0.1379984E+01
      -11   -1    0    0    0    0  0.00000000000E+00  0.00000000000E+00  0.35740347158E-01  0.35744000000E-01  0.51099999109E-03 0. -1.
       11   -1    0    0    0    0 -0.00000000000E+00 -0.00000000000E+00 -0.35740347158E-01  0.35744000000E-01  0.51099999109E-03 0.  1.
       22    1    1    2    0    0 -0.14577437396E-01  0.23791847308E-01  0.22328902918E-01  0.35737005818E-01  0.00000000000E+00 0.  1.
  9000001    1    1    2    0    0  0.14577437396E-01 -0.23791847308E-01 -0.22328902918E-01  0.35750994182E-01  0.10000000475E-02 0. -1.
</event>
<event>
 4   0  0.4892667E-02  0.9118800E+02  0.7818609E-02  0.1379984E+01
      -11   -1    0    0    0    0  0.00000000000E+00  0.00000000000E+00  0.35740347158E-01  0.35744000000E-01  0.51099999109E-03 0. -1.
       11   -1    0    0    0    0 -0.00000000000E+00 -0.00000000000E+00 -0.35740347158E-01  0.35744000000E-01  0.51099999109E-03 0.  1.
       22    1    1    2    0    0 -0.48618088977E-02 -0.30617297721E-02 -0.35272116607E-01  0.35737005818E-01  0.00000000000E+00 0.  1.
  9000001    1    1    2    0    0  0.48618088977E-02  0.30617297721E-02  0.35272116607E-01  0.35750994182E-01  0.10000000475E-02 0. -1.
</event>
<event>
 4   0  0.4892667E-02  0.9118800E+02  0.7818609E-02  0.1379984E+01
      -11   -1    0    0    0    0  0.00000000000E+00  0.00000000000E+00  0.35740347158E-01  0.35744000000E-01  0.51099999109E-03 0. -1.
       11   -1    0    0    0    0 -0.00000000000E+00 -0.00000000000E+00 -0.35740347158E-01  0.35744000000E-01  0.51099999109E-03 0.  1.
       22    1    1    2    0    0 -0.99866360927E-02  0.19370058192E-01  0.28323162430E-01  0.35737005818E-01  0.00000000000E+00 0. -1.
  9000001    1    1    2    0    0  0.99866360927E-02 -0.19370058192E-01 -0.28323162430E-01  0.35750994182E-01  0.10000000475E-02 0.  1.
</event>
<event>
 4   0  0.4892667E-02  0.9118800E+02  0.7818609E-02  0.1379984E+01
      -11   -1    0    0    0    0  0.00000000000E+00  0.00000000000E+00  0.35740347158E-01  0.35744000000E-01  0.51099999109E-03 0.  1.
       11   -1    0    0    0    0 -0.00000000000E+00 -0.00000000000E+00 -0.35740347158E-01  0.35744000000E-01  0.51099999109E-03 0. -1.
       22    1    1    2    0    0 -0.33210063276E-02  0.23063346201E-03 -0.35581614776E-01  0.35737005818E-01  0.00000000000E+00 0. -1.
  9000001    1    1    2    0    0  0.33210063276E-02 -0.23063346201E-03  0.35581614776E-01  0.35750994182E-01  0.10000000475E-02 0.  1.
</event>
<event>
 4   0  0.4892667E-02  0.9118800E+02  0.7818609E-02  0.1379984E+01
      -11   -1    0    0    0    0  0.00000000000E+00  0.00000000000E+00  0.35740347158E-01  0.35744000000E-01  0.51099999109E-03 0.  1.
       11   -1    0    0    0    0 -0.00000000000E+00 -0.00000000000E+00 -0.35740347158E-01  0.35744000000E-01  0.51099999109E-03 0. -1.
       22    1    1    2    0    0 -0.19142959563E-02 -0.73169854839E-02 -0.34927507488E-01  0.35737005818E-01  0.00000000000E+00 0. -1.
  9000001    1    1    2    0    0  0.19142959563E-02  0.73169854839E-02  0.34927507488E-01  0.35750994182E-01  0.10000000475E-02 0.  1.
</event>
<event>
 4   0  0.4892667E-02  0.9118800E+02  0.7818609E-02  0.1379984E+01
      -11   -1    0    0    0    0  0.00000000000E+00  0.00000000000E+00  0.35740347158E-01  0.35744000000E-01  0.51099999109E-03 0.  1.
       11   -1    0    0    0    0 -0.00000000000E+00 -0.00000000000E+00 -0.35740347158E-01  0.35744000000E-01  0.51099999109E-03 0. -1.
       22    1    1    2    0    0  0.30179251794E-03  0.36101446520E-02  0.35552909329E-01  0.35737005818E-01  0.00000000000E+00 0.  1.
  9000001    1    1    2    0    0 -0.30179251794E-03 -0.36101446520E-02 -0.35552909329E-01  0.35750994182E-01  0.10000000475E-02 0. -1.
</event>
<event>
 4   0  0.4892667E-02  0.9118800E+02  0.7818609E-02  0.1379984E+01
      -11   -1    0    0    0    0  0.00000000000E+00  0.00000000000E+00  0.35740347158E-01  0.35744000000E-01  0.51099999109E-03 0.  1.
       11   -1    0    0    0    0 -0.00000000000E+00 -0.00000000000E+00 -0.35740347158E-01  0.35744000000E-01  0.51099999109E-03 0. -1.
       22    1    1    2    0    0  0.11013140268E-01  0.19916795869E-01  0.27552959344E-01  0.35737005818E-01  0.00000000000E+00 0.  1.
  9000001    1    1    2    0    0 -0.11013140268E-01 -0.19916795869E-01 -0.27552959344E-01  0.35750994182E-01  0.10000000475E-02 0. -1.
</event>
<event>
 4   0  0.4892667E-02  0.9118800E+02  0.7818609E-02  0.1379984E+01
      -11   -1    0    0    0    0  0.00000000000E+00  0.00000000000E+00  0.35740347158E-01  0.35744000000E-01  0.51099999109E-03 0.  1.
       11   -1    0    0    0    0 -0.00000000000E+00 -0.00000000000E+00 -0.35740347158E-01  0.35744000000E-01  0.51099999109E-03 0. -1.
       22    1    1    2    0    0  0.52419273377E-02  0.17936095675E-01  0.30462308753E-01  0.35737005818E-01  0.00000000000E+00 0.  1.
  9000001    1    1    2    0    0 -0.52419273377E-02 -0.17936095675E-01 -0.30462308753E-01  0.35750994182E-01  0.10000000475E-02 0. -1.
</event>
<event>
 4   0  0.4892667E-02  0.9118800E+02  0.7818609E-02  0.1379984E+01
      -11   -1    0    0    0    0  0.00000000000E+00  0.00000000000E+00  0.35740347158E-01  0.35744000000E-01  0.51099999109E-03 0.  1.
       11   -1    0    0    0    0 -0.00000000000E+00 -0.00000000000E+00 -0.35740347158E-01  0.35744000000E-01  0.51099999109E-03 0. -1.
       22    1    1    2    0    0  0.93546367136E-02  0.10329288511E-01 -0.32907904152E-01  0.35737005818E-01  0.00000000000E+00 0. -1.
  9000001    1    1    2    0    0 -0.93546367136E-02 -0.10329288511E-01  0.32907904152E-01  0.35750994182E-01  0.10000000475E-02 0.  1.
</event>
<event>
 4   0  0.4892667E-02  0.9118800E+02  0.7818609E-02  0.1379984E+01
      -11   -1    0    0    0    0  0.00000000000E+00  0.00000000000E+00  0.35740347158E-01  0.35744000000E-01  0.51099999109E-03 0.  1.
       11   -1    0    0    0    0 -0.00000000000E+00 -0.00000000000E+00 -0.35740347158E-01  0.35744000000E-01  0.51099999109E-03 0. -1.
       22    1    1    2    0    0 -0.75979606124E-02 -0.16185429259E-02  0.34882443983E-01  0.35737005818E-01  0.00000000000E+00 0.  1.
  9000001    1    1    2    0    0  0.75979606124E-02  0.16185429259E-02 -0.34882443983E-01  0.35750994182E-01  0.10000000475E-02 0. -1.
</event>
<event>
 4   0  0.4892667E-02  0.9118800E+02  0.7818609E-02  0.1379984E+01
      -11   -1    0    0    0    0  0.00000000000E+00  0.00000000000E+00  0.35740347158E-01  0.35744000000E-01  0.51099999109E-03 0.  1.
       11   -1    0    0    0    0 -0.00000000000E+00 -0.00000000000E+00 -0.35740347158E-01  0.35744000000E-01  0.51099999109E-03 0. -1.
       22    1    1    2    0    0  0.37226972707E-02  0.52588618831E-03 -0.35538690938E-01  0.35737005818E-01  0.00000000000E+00 0. -1.
  9000001    1    1    2    0    0 -0.37226972707E-02 -0.52588618831E-03  0.35538690938E-01  0.35750994182E-01  0.10000000475E-02 0.  1.
</event>
<event>
 4   0  0.4892667E-02  0.9118800E+02  0.7818609E-02  0.1379984E+01
      -11   -1    0    0    0    0  0.00000000000E+00  0.00000000000E+00  0.35740347158E-01  0.35744000000E-01  0.51099999109E-03 0. -1.
       11   -1    0    0    0    0 -0.00000000000E+00 -0.00000000000E+00 -0.35740347158E-01  0.35744000000E-01  0.51099999109E-03 0.  1.
       22    1    1    2    0    0 -0.12104067996E-01  0.18961987257E-01  0.27768114126E-01  0.35737005818E-01  0.00000000000E+00 0. -1.
  9000001    1    1    2    0    0  0.12104067996E-01 -0.18961987257E-01 -0.27768114126E-01  0.35750994182E-01  0.10000000475E-02 0.  1.
</event>
<event>
 4   0  0.4892667E-02  0.9118800E+02  0.7818609E-02  0.1379984E+01
      -11   -1    0    0    0    0  0.00000000000E+00  0.00000000000E+00  0.35740347158E-01  0.35744000000E-01  0.51099999109E-03 0. -1.
       11   -1    0    0    0    0 -0.00000000000E+00 -0.00000000000E+00 -0.35740347158E-01  0.35744000000E-01  0.51099999109E-03 0.  1.
       22    1    1    2    0    0 -0.11312287170E-02  0.43735090367E-02 -0.35450336037E-01  0.35737005818E-01  0.00000000000E+00 0.  1.
  9000001    1    1    2    0    0  0.11312287170E-02 -0.43735090367E-02  0.35450336037E-01  0.35750994182E-01  0.10000000475E-02 0. -1.
</event>
<event>
 4   0  0.4892667E-02  0.9118800E+02  0.7818609E-02  0.1379984E+01
      -11   -1    0    0    0    0  0.00000000000E+00  0.00000000000E+00  0.35740347158E-01  0.35744000000E-01  0.51099999109E-03 0.  1.
       11   -1    0    0    0    0 -0.00000000000E+00 -0.00000000000E+00 -0.35740347158E-01  0.35744000000E-01  0.51099999109E-03 0. -1.
       22    1    1    2    0    0 -0.25172196599E-01 -0.22053964121E-01  0.12534622843E-01  0.35737005818E-01  0.00000000000E+00 0.  1.
  9000001    1    1    2    0    0  0.25172196599E-01  0.22053964121E-01 -0.12534622843E-01  0.35750994182E-01  0.10000000475E-02 0. -1.
</event>
<event>
 4   0  0.4892667E-02  0.9118800E+02  0.7818609E-02  0.1379984E+01
      -11   -1    0    0    0    0  0.00000000000E+00  0.00000000000E+00  0.35740347158E-01  0.35744000000E-01  0.51099999109E-03 0.  1.
       11   -1    0    0    0    0 -0.00000000000E+00 -0.00000000000E+00 -0.35740347158E-01  0.35744000000E-01  0.51099999109E-03 0. -1.
       22    1    1    2    0    0 -0.22471861675E-01 -0.26470253483E-01  0.84542710057E-02  0.35737005818E-01  0.00000000000E+00 0. -1.
  9000001    1    1    2    0    0  0.22471861675E-01  0.26470253483E-01 -0.84542710057E-02  0.35750994182E-01  0.10000000475E-02 0.  1.
</event>
<event>
 4   0  0.4892667E-02  0.9118800E+02  0.7818609E-02  0.1379984E+01
      -11   -1    0    0    0    0  0.00000000000E+00  0.00000000000E+00  0.35740347158E-01  0.35744000000E-01  0.51099999109E-03 0. -1.
       11   -1    0    0    0    0 -0.00000000000E+00 -0.00000000000E+00 -0.35740347158E-01  0.35744000000E-01  0.51099999109E-03 0.  1.
       22    1    1    2    0    0  0.58265845103E-02 -0.47182344463E-02 -0.34941705189E-01  0.35737005818E-01  0.00000000000E+00 0.  1.
  9000001    1    1    2    0    0 -0.58265845103E-02  0.47182344463E-02  0.34941705189E-01  0.35750994182E-01  0.10000000475E-02 0. -1.
</event>
<event>
 4   0  0.4892667E-02  0.9118800E+02  0.7818609E-02  0.1379984E+01
      -11   -1    0    0    0    0  0.00000000000E+00  0.00000000000E+00  0.35740347158E-01  0.35744000000E-01  0.51099999109E-03 0.  1.
       11   -1    0    0    0    0 -0.00000000000E+00 -0.00000000000E+00 -0.35740347158E-01  0.35744000000E-01  0.51099999109E-03 0. -1.
       22    1    1    2    0    0 -0.52250358529E-02  0.59230866288E-02  0.34853258528E-01  0.35737005818E-01  0.00000000000E+00 0.  1.
  9000001    1    1    2    0    0  0.52250358529E-02 -0.59230866288E-02 -0.34853258528E-01  0.35750994182E-01  0.10000000475E-02 0. -1.
</event>
<event>
 4   0  0.4892667E-02  0.9118800E+02  0.7818609E-02  0.1379984E+01
      -11   -1    0    0    0    0  0.00000000000E+00  0.00000000000E+00  0.35740347158E-01  0.35744000000E-01  0.51099999109E-03 0.  1.
       11   -1    0    0    0    0 -0.00000000000E+00 -0.00000000000E+00 -0.35740347158E-01  0.35744000000E-01  0.51099999109E-03 0. -1.
       22    1    1    2    0    0 -0.44522249100E-02 -0.54658309664E-03 -0.35454372440E-01  0.35737005818E-01  0.00000000000E+00 0. -1.
  9000001    1    1    2    0    0  0.44522249100E-02  0.54658309664E-03  0.35454372440E-01  0.35750994182E-01  0.10000000475E-02 0.  1.
</event>
<event>
 4   0  0.4892667E-02  0.9118800E+02  0.7818609E-02  0.1379984E+01
      -11   -1    0    0    0    0  0.00000000000E+00  0.00000000000E+00  0.35740347158E-01  0.35744000000E-01  0.51099999109E-03 0.  1.
       11   -1    0    0    0    0 -0.00000000000E+00 -0.00000000000E+00 -0.35740347158E-01  0.35744000000E-01  0.51099999109E-03 0. -1.
       22    1    1    2    0    0 -0.17513810850E-01 -0.21763511443E-01  0.22287879756E-01  0.35737005818E-01  0.00000000000E+00 0.  1.
  9000001    1    1    2    0    0  0.17513810850E-01  0.21763511443E-01 -0.22287879756E-01  0.35750994182E-01  0.10000000475E-02 0. -1.
</event>
<event>
 4   0  0.4892667E-02  0.9118800E+02  0.7818609E-02  0.1379984E+01
      -11   -1    0    0    0    0  0.00000000000E+00  0.00000000000E+00  0.35740347158E-01  0.35744000000E-01  0.51099999109E-03 0. -1.
       11   -1    0    0    0    0 -0.00000000000E+00 -0.00000000000E+00 -0.35740347158E-01  0.35744000000E-01  0.51099999109E-03 0.  1.
       22    1    1    2    0    0 -0.49963747622E-02 -0.88162837191E-02 -0.34270146855E-01  0.35737005818E-01  0.00000000000E+00 0.  1.
  9000001    1    1    2    0    0  0.49963747622E-02  0.88162837191E-02  0.34270146855E-01  0.35750994182E-01  0.10000000475E-02 0. -1.
</event>
<event>
 4   0  0.4892667E-02  0.9118800E+02  0.7818609E-02  0.1379984E+01
      -11   -1    0    0    0    0  0.00000000000E+00  0.00000000000E+00  0.35740347158E-01  0.35744000000E-01  0.51099999109E-03 0.  1.
       11   -1    0    0    0    0 -0.00000000000E+00 -0.00000000000E+00 -0.35740347158E-01  0.35744000000E-01  0.51099999109E-03 0. -1.
       22    1    1    2    0    0 -0.27792097122E-01 -0.72857423138E-02 -0.21252079460E-01  0.35737005818E-01  0.00000000000E+00 0. -1.
  9000001    1    1    2    0    0  0.27792097122E-01  0.72857423138E-02  0.21252079460E-01  0.35750994182E-01  0.10000000475E-02 0.  1.
</event>
<event>
 4   0  0.4892667E-02  0.9118800E+02  0.7818609E-02  0.1379984E+01
      -11   -1    0    0    0    0  0.00000000000E+00  0.00000000000E+00  0.35740347158E-01  0.35744000000E-01  0.51099999109E-03 0. -1.
       11   -1    0    0    0    0 -0.00000000000E+00 -0.00000000000E+00 -0.35740347158E-01  0.35744000000E-01  0.51099999109E-03 0.  1.
       22    1    1    2    0    0 -0.29474954534E-01 -0.66063948414E-02 -0.19097544012E-01  0.35737005818E-01  0.00000000000E+00 0.  1.
  9000001    1    1    2    0    0  0.29474954534E-01  0.66063948414E-02  0.19097544012E-01  0.35750994182E-01  0.10000000475E-02 0. -1.
</event>
<event>
 4   0  0.4892667E-02  0.9118800E+02  0.7818609E-02  0.1379984E+01
      -11   -1    0    0    0    0  0.00000000000E+00  0.00000000000E+00  0.35740347158E-01  0.35744000000E-01  0.51099999109E-03 0. -1.
       11   -1    0    0    0    0 -0.00000000000E+00 -0.00000000000E+00 -0.35740347158E-01  0.35744000000E-01  0.51099999109E-03 0.  1.
       22    1    1    2    0    0 -0.64484123297E-02 -0.67539507318E-02 -0.34495444812E-01  0.35737005818E-01  0.00000000000E+00 0.  1.
  9000001    1    1    2    0    0  0.64484123297E-02  0.67539507318E-02  0.34495444812E-01  0.35750994182E-01  0.10000000475E-02 0. -1.
</event>
<event>
 4   0  0.4892667E-02  0.9118800E+02  0.7818609E-02  0.1379984E+01
      -11   -1    0    0    0    0  0.00000000000E+00  0.00000000000E+00  0.35740347158E-01  0.35744000000E-01  0.51099999109E-03 0.  1.
       11   -1    0    0    0    0 -0.00000000000E+00 -0.00000000000E+00 -0.35740347158E-01  0.35744000000E-01  0.51099999109E-03 0. -1.
       22    1    1    2    0    0  0.12886647457E-01  0.31933110499E-01  0.95574241316E-02  0.35737005818E-01  0.00000000000E+00 0.  1.
  9000001    1    1    2    0    0 -0.12886647457E-01 -0.31933110499E-01 -0.95574241316E-02  0.35750994182E-01  0.10000000475E-02 0. -1.
</event>
<event>
 4   0  0.4892667E-02  0.9118800E+02  0.7818609E-02  0.1379984E+01
      -11   -1    0    0    0    0  0.00000000000E+00  0.00000000000E+00  0.35740347158E-01  0.35744000000E-01  0.51099999109E-03 0.  1.
       11   -1    0    0    0    0 -0.00000000000E+00 -0.00000000000E+00 -0.35740347158E-01  0.35744000000E-01  0.51099999109E-03 0. -1.
       22    1    1    2    0    0 -0.92624738016E-03 -0.44274015763E-02 -0.35449594722E-01  0.35737005818E-01  0.00000000000E+00 0. -1.
  9000001    1    1    2    0    0  0.92624738016E-03  0.44274015763E-02  0.35449594722E-01  0.35750994182E-01  0.10000000475E-02 0.  1.
</event>
<event>
 4   0  0.4892667E-02  0.9118800E+02  0.7818609E-02  0.1379984E+01
      -11   -1    0    0    0    0  0.00000000000E+00  0.00000000000E+00  0.35740347158E-01  0.35744000000E-01  0.51099999109E-03 0.  1.
       11   -1    0    0    0    0 -0.00000000000E+00 -0.00000000000E+00 -0.35740347158E-01  0.35744000000E-01  0.51099999109E-03 0. -1.
       22    1    1    2    0    0 -0.14903561349E-01  0.20497281464E-01 -0.25196803300E-01  0.35737005818E-01  0.00000000000E+00 0. -1.
  9000001    1    1    2    0    0  0.14903561349E-01 -0.20497281464E-01  0.25196803300E-01  0.35750994182E-01  0.10000000475E-02 0.  1.
</event>
<event>
 4   0  0.4892667E-02  0.9118800E+02  0.7818609E-02  0.1379984E+01
      -11   -1    0    0    0    0  0.00000000000E+00  0.00000000000E+00  0.35740347158E-01  0.35744000000E-01  0.51099999109E-03 0.  1.
       11   -1    0    0    0    0 -0.00000000000E+00 -0.00000000000E+00 -0.35740347158E-01  0.35744000000E-01  0.51099999109E-03 0. -1.
       22    1    1    2    0    0 -0.20257048454E-01  0.45084583088E-02 -0.29093974917E-01  0.35737005818E-01  0.00000000000E+00 0. -1.
  9000001    1    1    2    0    0  0.20257048454E-01 -0.45084583088E-02  0.29093974917E-01  0.35750994182E-01  0.10000000475E-02 0.  1.
</event>
<event>
 4   0  0.4892667E-02  0.9118800E+02  0.7818609E-02  0.1379984E+01
      -11   -1    0    0    0    0  0.00000000000E+00  0.00000000000E+00  0.35740347158E-01  0.35744000000E-01  0.51099999109E-03 0.  1.
       11   -1    0    0    0    0 -0.00000000000E+00 -0.00000000000E+00 -0.35740347158E-01  0.35744000000E-01  0.51099999109E-03 0. -1.
       22    1    1    2    0    0 -0.99434392647E-02 -0.27310201498E-02  0.34217000590E-01  0.35737005818E-01  0.00000000000E+00 0.  1.
  9000001    1    1    2    0    0  0.99434392647E-02  0.27310201498E-02 -0.34217000590E-01  0.35750994182E-01  0.10000000475E-02 0. -1.
</event>
<event>
 4   0  0.4892667E-02  0.9118800E+02  0.7818609E-02  0.1379984E+01
      -11   -1    0    0    0    0  0.00000000000E+00  0.00000000000E+00  0.35740347158E-01  0.35744000000E-01  0.51099999109E-03 0. -1.
       11   -1    0    0    0    0 -0.00000000000E+00 -0.00000000000E+00 -0.35740347158E-01  0.35744000000E-01  0.51099999109E-03 0.  1.
       22    1    1    2    0    0 -0.14392997859E-02 -0.74966204900E-02  0.34912213940E-01  0.35737005818E-01  0.00000000000E+00 0. -1.
  9000001    1    1    2    0    0  0.14392997859E-02  0.74966204900E-02 -0.34912213940E-01  0.35750994182E-01  0.10000000475E-02 0.  1.
</event>
<event>
 4   0  0.4892667E-02  0.9118800E+02  0.7818609E-02  0.1379984E+01
      -11   -1    0    0    0    0  0.00000000000E+00  0.00000000000E+00  0.35740347158E-01  0.35744000000E-01  0.51099999109E-03 0.  1.
       11   -1    0    0    0    0 -0.00000000000E+00 -0.00000000000E+00 -0.35740347158E-01  0.35744000000E-01  0.51099999109E-03 0. -1.
       22    1    1    2    0    0  0.10981442739E-01  0.50989309788E-02  0.33623539420E-01  0.35737005818E-01  0.00000000000E+00 0.  1.
  9000001    1    1    2    0    0 -0.10981442739E-01 -0.50989309788E-02 -0.33623539420E-01  0.35750994182E-01  0.10000000475E-02 0. -1.
</event>
<event>
 4   0  0.4892667E-02  0.9118800E+02  0.7818609E-02  0.1379984E+01
      -11   -1    0    0    0    0  0.00000000000E+00  0.00000000000E+00  0.35740347158E-01  0.35744000000E-01  0.51099999109E-03 0. -1.
       11   -1    0    0    0    0 -0.00000000000E+00 -0.00000000000E+00 -0.35740347158E-01  0.35744000000E-01  0.51099999109E-03 0.  1.
       22    1    1    2    0    0  0.12500668502E-01 -0.64864388108E-02 -0.32844984144E-01  0.35737005818E-01  0.00000000000E+00 0.  1.
  9000001    1    1    2    0    0 -0.12500668502E-01  0.64864388108E-02  0.32844984144E-01  0.35750994182E-01  0.10000000475E-02 0. -1.
</event>
<event>
 4   0  0.4892667E-02  0.9118800E+02  0.7818609E-02  0.1379984E+01
      -11   -1    0    0    0    0  0.00000000000E+00  0.00000000000E+00  0.35740347158E-01  0.35744000000E-01  0.51099999109E-03 0. -1.
       11   -1    0    0    0    0 -0.00000000000E+00 -0.00000000000E+00 -0.35740347158E-01  0.35744000000E-01  0.51099999109E-03 0.  1.
       22    1    1    2    0    0  0.23829802269E-01 -0.85203571029E-02  0.25232471610E-01  0.35737005818E-01  0.00000000000E+00 0. -1.
  9000001    1    1    2    0    0 -0.23829802269E-01  0.85203571029E-02 -0.25232471610E-01  0.35750994182E-01  0.10000000475E-02 0.  1.
</event>
<event>
 4   0  0.4892667E-02  0.9118800E+02  0.7818609E-02  0.1379984E+01
      -11   -1    0    0    0    0  0.00000000000E+00  0.00000000000E+00  0.35740347158E-01  0.35744000000E-01  0.51099999109E-03 0. -1.
       11   -1    0    0    0    0 -0.00000000000E+00 -0.00000000000E+00 -0.35740347158E-01  0.35744000000E-01  0.51099999109E-03 0.  1.
       22    1    1    2    0    0 -0.17930336079E-02 -0.13956053430E-01  0.32850375766E-01  0.35737005818E-01  0.00000000000E+00 0. -1.
  9000001    1    1    2    0    0  0.17930336079E-02  0.13956053430E-01 -0.32850375766E-01  0.35750994182E-01  0.10000000475E-02 0.  1.
</event>
<event>
 4   0  0.4892667E-02  0.9118800E+02  0.7818609E-02  0.1379984E+01
      -11   -1    0    0    0    0  0.00000000000E+00  0.00000000000E+00  0.35740347158E-01  0.35744000000E-01  0.51099999109E-03 0.  1.
       11   -1    0    0    0    0 -0.00000000000E+00 -0.00000000000E+00 -0.35740347158E-01  0.35744000000E-01  0.51099999109E-03 0. -1.
       22    1    1    2    0    0 -0.98355624967E-02 -0.34177925570E-02 -0.34186459151E-01  0.35737005818E-01  0.00000000000E+00 0. -1.
  9000001    1    1    2    0    0  0.98355624967E-02  0.34177925570E-02  0.34186459151E-01  0.35750994182E-01  0.10000000475E-02 0.  1.
</event>
<event>
 4   0  0.4892667E-02  0.9118800E+02  0.7818609E-02  0.1379984E+01
      -11   -1    0    0    0    0  0.00000000000E+00  0.00000000000E+00  0.35740347158E-01  0.35744000000E-01  0.51099999109E-03 0. -1.
       11   -1    0    0    0    0 -0.00000000000E+00 -0.00000000000E+00 -0.35740347158E-01  0.35744000000E-01  0.51099999109E-03 0.  1.
       22    1    1    2    0    0  0.12897916546E-01 -0.33026316529E-01 -0.44765779508E-02  0.35737005818E-01  0.00000000000E+00 0. -1.
  9000001    1    1    2    0    0 -0.12897916546E-01  0.33026316529E-01  0.44765779508E-02  0.35750994182E-01  0.10000000475E-02 0.  1.
</event>
<event>
 4   0  0.4892667E-02  0.9118800E+02  0.7818609E-02  0.1379984E+01
      -11   -1    0    0    0    0  0.00000000000E+00  0.00000000000E+00  0.35740347158E-01  0.35744000000E-01  0.51099999109E-03 0.  1.
       11   -1    0    0    0    0 -0.00000000000E+00 -0.00000000000E+00 -0.35740347158E-01  0.35744000000E-01  0.51099999109E-03 0. -1.
       22    1    1    2    0    0  0.13249517023E-01  0.15525117272E-01  0.29335211218E-01  0.35737005818E-01  0.00000000000E+00 0.  1.
  9000001    1    1    2    0    0 -0.13249517023E-01 -0.15525117272E-01 -0.29335211218E-01  0.35750994182E-01  0.10000000475E-02 0. -1.
</event>
<event>
 4   0  0.4892667E-02  0.9118800E+02  0.7818609E-02  0.1379984E+01
      -11   -1    0    0    0    0  0.00000000000E+00  0.00000000000E+00  0.35740347158E-01  0.35744000000E-01  0.51099999109E-03 0.  1.
       11   -1    0    0    0    0 -0.00000000000E+00 -0.00000000000E+00 -0.35740347158E-01  0.35744000000E-01  0.51099999109E-03 0. -1.
       22    1    1    2    0    0 -0.25517396426E-01  0.23751826168E-01 -0.78642748051E-02  0.35737005818E-01  0.00000000000E+00 0.  1.
  9000001    1    1    2    0    0  0.25517396426E-01 -0.23751826168E-01  0.78642748051E-02  0.35750994182E-01  0.10000000475E-02 0. -1.
</event>
<event>
 4   0  0.4892667E-02  0.9118800E+02  0.7818609E-02  0.1379984E+01
      -11   -1    0    0    0    0  0.00000000000E+00  0.00000000000E+00  0.35740347158E-01  0.35744000000E-01  0.51099999109E-03 0.  1.
       11   -1    0    0    0    0 -0.00000000000E+00 -0.00000000000E+00 -0.35740347158E-01  0.35744000000E-01  0.51099999109E-03 0. -1.
       22    1    1    2    0    0 -0.89346974388E-02 -0.37371084088E-02  0.34399691674E-01  0.35737005818E-01  0.00000000000E+00 0.  1.
  9000001    1    1    2    0    0  0.89346974388E-02  0.37371084088E-02 -0.34399691674E-01  0.35750994182E-01  0.10000000475E-02 0. -1.
</event>
<event>
 4   0  0.4892667E-02  0.9118800E+02  0.7818609E-02  0.1379984E+01
      -11   -1    0    0    0    0  0.00000000000E+00  0.00000000000E+00  0.35740347158E-01  0.35744000000E-01  0.51099999109E-03 0.  1.
       11   -1    0    0    0    0 -0.00000000000E+00 -0.00000000000E+00 -0.35740347158E-01  0.35744000000E-01  0.51099999109E-03 0. -1.
       22    1    1    2    0    0  0.30092200360E-02  0.16564005269E-01  0.31523196365E-01  0.35737005818E-01  0.00000000000E+00 0.  1.
  9000001    1    1    2    0    0 -0.30092200360E-02 -0.16564005269E-01 -0.31523196365E-01  0.35750994182E-01  0.10000000475E-02 0. -1.
</event>
<event>
 4   0  0.4892667E-02  0.9118800E+02  0.7818609E-02  0.1379984E+01
      -11   -1    0    0    0    0  0.00000000000E+00  0.00000000000E+00  0.35740347158E-01  0.35744000000E-01  0.51099999109E-03 0. -1.
       11   -1    0    0    0    0 -0.00000000000E+00 -0.00000000000E+00 -0.35740347158E-01  0.35744000000E-01  0.51099999109E-03 0.  1.
       22    1    1    2    0    0 -0.40809334114E-02  0.27382344278E-02 -0.35397480695E-01  0.35737005818E-01  0.00000000000E+00 0.  1.
  9000001    1    1    2    0    0  0.40809334114E-02 -0.27382344278E-02  0.35397480695E-01  0.35750994182E-01  0.10000000475E-02 0. -1.
</event>
<event>
 4   0  0.4892667E-02  0.9118800E+02  0.7818609E-02  0.1379984E+01
      -11   -1    0    0    0    0  0.00000000000E+00  0.00000000000E+00  0.35740347158E-01  0.35744000000E-01  0.51099999109E-03 0.  1.
       11   -1    0    0    0    0 -0.00000000000E+00 -0.00000000000E+00 -0.35740347158E-01  0.35744000000E-01  0.51099999109E-03 0. -1.
       22    1    1    2    0    0  0.22894153489E-01  0.11305992517E-02  0.27417386203E-01  0.35737005818E-01  0.00000000000E+00 0.  1.
  9000001    1    1    2    0    0 -0.22894153489E-01 -0.11305992517E-02 -0.27417386203E-01  0.35750994182E-01  0.10000000475E-02 0. -1.
</event>
<event>
 4   0  0.4892667E-02  0.9118800E+02  0.7818609E-02  0.1379984E+01
      -11   -1    0    0    0    0  0.00000000000E+00  0.00000000000E+00  0.35740347158E-01  0.35744000000E-01  0.51099999109E-03 0.  1.
       11   -1    0    0    0    0 -0.00000000000E+00 -0.00000000000E+00 -0.35740347158E-01  0.35744000000E-01  0.51099999109E-03 0. -1.
       22    1    1    2    0    0 -0.20918577645E-02 -0.24812466787E-02 -0.35589340130E-01  0.35737005818E-01  0.00000000000E+00 0. -1.
  9000001    1    1    2    0    0  0.20918577645E-02  0.24812466787E-02  0.35589340130E-01  0.35750994182E-01  0.10000000475E-02 0.  1.
</event>
<event>
 4   0  0.4892667E-02  0.9118800E+02  0.7818609E-02  0.1379984E+01
      -11   -1    0    0    0    0  0.00000000000E+00  0.00000000000E+00  0.35740347158E-01  0.35744000000E-01  0.51099999109E-03 0.  1.
       11   -1    0    0    0    0 -0.00000000000E+00 -0.00000000000E+00 -0.35740347158E-01  0.35744000000E-01  0.51099999109E-03 0. -1.
       22    1    1    2    0    0  0.29329818313E-02 -0.27840549652E-02 -0.35507467389E-01  0.35737005818E-01  0.00000000000E+00 0. -1.
  9000001    1    1    2    0    0 -0.29329818313E-02  0.27840549652E-02  0.35507467389E-01  0.35750994182E-01  0.10000000475E-02 0.  1.
</event>
<event>
 4   0  0.4892667E-02  0.9118800E+02  0.7818609E-02  0.1379984E+01
      -11   -1    0    0    0    0  0.00000000000E+00  0.00000000000E+00  0.35740347158E-01  0.35744000000E-01  0.51099999109E-03 0. -1.
       11   -1    0    0    0    0 -0.00000000000E+00 -0.00000000000E+00 -0.35740347158E-01  0.35744000000E-01  0.51099999109E-03 0.  1.
       22    1    1    2    0    0  0.10426171089E-01  0.20860702095E-02  0.34118570491E-01  0.35737005818E-01  0.00000000000E+00 0. -1.
  9000001    1    1    2    0    0 -0.10426171089E-01 -0.20860702095E-02 -0.34118570491E-01  0.35750994182E-01  0.10000000475E-02 0.  1.
</event>
<event>
 4   0  0.4892667E-02  0.9118800E+02  0.7818609E-02  0.1379984E+01
      -11   -1    0    0    0    0  0.00000000000E+00  0.00000000000E+00  0.35740347158E-01  0.35744000000E-01  0.51099999109E-03 0. -1.
       11   -1    0    0    0    0 -0.00000000000E+00 -0.00000000000E+00 -0.35740347158E-01  0.35744000000E-01  0.51099999109E-03 0.  1.
       22    1    1    2    0    0 -0.21568408881E-01 -0.10008603392E-01  0.26678927665E-01  0.35737005818E-01  0.00000000000E+00 0. -1.
  9000001    1    1    2    0    0  0.21568408881E-01  0.10008603392E-01 -0.26678927665E-01  0.35750994182E-01  0.10000000475E-02 0.  1.
</event>
<event>
 4   0  0.4892667E-02  0.9118800E+02  0.7818609E-02  0.1379984E+01
      -11   -1    0    0    0    0  0.00000000000E+00  0.00000000000E+00  0.35740347158E-01  0.35744000000E-01  0.51099999109E-03 0. -1.
       11   -1    0    0    0    0 -0.00000000000E+00 -0.00000000000E+00 -0.35740347158E-01  0.35744000000E-01  0.51099999109E-03 0.  1.
       22    1    1    2    0    0  0.30790679289E-01  0.17740711700E-01  0.37861328786E-02  0.35737005818E-01  0.00000000000E+00 0.  1.
  9000001    1    1    2    0    0 -0.30790679289E-01 -0.17740711700E-01 -0.37861328786E-02  0.35750994182E-01  0.10000000475E-02 0. -1.
</event>
<event>
 4   0  0.4892667E-02  0.9118800E+02  0.7818609E-02  0.1379984E+01
      -11   -1    0    0    0    0  0.00000000000E+00  0.00000000000E+00  0.35740347158E-01  0.35744000000E-01  0.51099999109E-03 0.  1.
       11   -1    0    0    0    0 -0.00000000000E+00 -0.00000000000E+00 -0.35740347158E-01  0.35744000000E-01  0.51099999109E-03 0. -1.
       22    1    1    2    0    0 -0.13969289001E-05  0.14259190071E-01  0.32769026251E-01  0.35737005818E-01  0.00000000000E+00 0.  1.
  9000001    1    1    2    0    0  0.13969289001E-05 -0.14259190071E-01 -0.32769026251E-01  0.35750994182E-01  0.10000000475E-02 0. -1.
</event>
<event>
 4   0  0.4892667E-02  0.9118800E+02  0.7818609E-02  0.1379984E+01
      -11   -1    0    0    0    0  0.00000000000E+00  0.00000000000E+00  0.35740347158E-01  0.35744000000E-01  0.51099999109E-03 0. -1.
       11   -1    0    0    0    0 -0.00000000000E+00 -0.00000000000E+00 -0.35740347158E-01  0.35744000000E-01  0.51099999109E-03 0.  1.
       22    1    1    2    0    0  0.56092152019E-03  0.33493934831E-02  0.35575279552E-01  0.35737005818E-01  0.00000000000E+00 0. -1.
  9000001    1    1    2    0    0 -0.56092152019E-03 -0.33493934831E-02 -0.35575279552E-01  0.35750994182E-01  0.10000000475E-02 0.  1.
</event>
<event>
 4   0  0.4892667E-02  0.9118800E+02  0.7818609E-02  0.1379984E+01
      -11   -1    0    0    0    0  0.00000000000E+00  0.00000000000E+00  0.35740347158E-01  0.35744000000E-01  0.51099999109E-03 0.  1.
       11   -1    0    0    0    0 -0.00000000000E+00 -0.00000000000E+00 -0.35740347158E-01  0.35744000000E-01  0.51099999109E-03 0. -1.
       22    1    1    2    0    0  0.49067669828E-02 -0.14541157971E-01  0.32274013502E-01  0.35737005818E-01  0.00000000000E+00 0.  1.
  9000001    1    1    2    0    0 -0.49067669828E-02  0.14541157971E-01 -0.32274013502E-01  0.35750994182E-01  0.10000000475E-02 0. -1.
</event>
<event>
 4   0  0.4892667E-02  0.9118800E+02  0.7818609E-02  0.1379984E+01
      -11   -1    0    0    0    0  0.00000000000E+00  0.00000000000E+00  0.35740347158E-01  0.35744000000E-01  0.51099999109E-03 0. -1.
       11   -1    0    0    0    0 -0.00000000000E+00 -0.00000000000E+00 -0.35740347158E-01  0.35744000000E-01  0.51099999109E-03 0.  1.
       22    1    1    2    0    0 -0.42819228431E-02  0.14251618820E-02  0.35450918680E-01  0.35737005818E-01  0.00000000000E+00 0. -1.
  9000001    1    1    2    0    0  0.42819228431E-02 -0.14251618820E-02 -0.35450918680E-01  0.35750994182E-01  0.10000000475E-02 0.  1.
</event>
<event>
 4   0  0.4892667E-02  0.9118800E+02  0.7818609E-02  0.1379984E+01
      -11   -1    0    0    0    0  0.00000000000E+00  0.00000000000E+00  0.35740347158E-01  0.35744000000E-01  0.51099999109E-03 0.  1.
       11   -1    0    0    0    0 -0.00000000000E+00 -0.00000000000E+00 -0.35740347158E-01  0.35744000000E-01  0.51099999109E-03 0. -1.
       22    1    1    2    0    0 -0.37321226468E-02 -0.23532702196E-02  0.35463600560E-01  0.35737005818E-01  0.00000000000E+00 0.  1.
  9000001    1    1    2    0    0  0.37321226468E-02  0.23532702196E-02 -0.35463600560E-01  0.35750994182E-01  0.10000000475E-02 0. -1.
</event>
<event>
 4   0  0.4892667E-02  0.9118800E+02  0.7818609E-02  0.1379984E+01
      -11   -1    0    0    0    0  0.00000000000E+00  0.00000000000E+00  0.35740347158E-01  0.35744000000E-01  0.51099999109E-03 0.  1.
       11   -1    0    0    0    0 -0.00000000000E+00 -0.00000000000E+00 -0.35740347158E-01  0.35744000000E-01  0.51099999109E-03 0. -1.
       22    1    1    2    0    0 -0.34291274590E-01  0.90168104288E-02  0.44653333077E-02  0.35737005818E-01  0.00000000000E+00 0. -1.
  9000001    1    1    2    0    0  0.34291274590E-01 -0.90168104288E-02 -0.44653333077E-02  0.35750994182E-01  0.10000000475E-02 0.  1.
</event>
<event>
 4   0  0.4892667E-02  0.9118800E+02  0.7818609E-02  0.1379984E+01
      -11   -1    0    0    0    0  0.00000000000E+00  0.00000000000E+00  0.35740347158E-01  0.35744000000E-01  0.51099999109E-03 0. -1.
       11   -1    0    0    0    0 -0.00000000000E+00 -0.00000000000E+00 -0.35740347158E-01  0.35744000000E-01  0.51099999109E-03 0.  1.
       22    1    1    2    0    0  0.43832853238E-03  0.41814932583E-02 -0.35488823129E-01  0.35737005818E-01  0.00000000000E+00 0.  1.
  9000001    1    1    2    0    0 -0.43832853238E-03 -0.41814932583E-02  0.35488823129E-01  0.35750994182E-01  0.10000000475E-02 0. -1.
</event>
<event>
 4   0  0.4892667E-02  0.9118800E+02  0.7818609E-02  0.1379984E+01
      -11   -1    0    0    0    0  0.00000000000E+00  0.00000000000E+00  0.35740347158E-01  0.35744000000E-01  0.51099999109E-03 0. -1.
       11   -1    0    0    0    0 -0.00000000000E+00 -0.00000000000E+00 -0.35740347158E-01  0.35744000000E-01  0.51099999109E-03 0.  1.
       22    1    1    2    0    0 -0.10452344669E-01  0.62693010676E-02 -0.33594314101E-01  0.35737005818E-01  0.00000000000E+00 0.  1.
  9000001    1    1    2    0    0  0.10452344669E-01 -0.62693010676E-02  0.33594314101E-01  0.35750994182E-01  0.10000000475E-02 0. -1.
</event>
<event>
 4   0  0.4892667E-02  0.9118800E+02  0.7818609E-02  0.1379984E+01
      -11   -1    0    0    0    0  0.00000000000E+00  0.00000000000E+00  0.35740347158E-01  0.35744000000E-01  0.51099999109E-03 0.  1.
       11   -1    0    0    0    0 -0.00000000000E+00 -0.00000000000E+00 -0.35740347158E-01  0.35744000000E-01  0.51099999109E-03 0. -1.
       22    1    1    2    0    0 -0.89154163846E-02  0.11864486575E-01 -0.32509735371E-01  0.35737005818E-01  0.00000000000E+00 0. -1.
  9000001    1    1    2    0    0  0.89154163846E-02 -0.11864486575E-01  0.32509735371E-01  0.35750994182E-01  0.10000000475E-02 0.  1.
</event>
<event>
 4   0  0.4892667E-02  0.9118800E+02  0.7818609E-02  0.1379984E+01
      -11   -1    0    0    0    0  0.00000000000E+00  0.00000000000E+00  0.35740347158E-01  0.35744000000E-01  0.51099999109E-03 0. -1.
       11   -1    0    0    0    0 -0.00000000000E+00 -0.00000000000E+00 -0.35740347158E-01  0.35744000000E-01  0.51099999109E-03 0.  1.
       22    1    1    2    0    0 -0.14294853670E-01 -0.16966845352E-02 -0.32709509397E-01  0.35737005818E-01  0.00000000000E+00 0.  1.
  9000001    1    1    2    0    0  0.14294853670E-01  0.16966845352E-02  0.32709509397E-01  0.35750994182E-01  0.10000000475E-02 0. -1.
</event>
<event>
 4   0  0.4892667E-02  0.9118800E+02  0.7818609E-02  0.1379984E+01
      -11   -1    0    0    0    0  0.00000000000E+00  0.00000000000E+00  0.35740347158E-01  0.35744000000E-01  0.51099999109E-03 0.  1.
       11   -1    0    0    0    0 -0.00000000000E+00 -0.00000000000E+00 -0.35740347158E-01  0.35744000000E-01  0.51099999109E-03 0. -1.
       22    1    1    2    0    0  0.29382787321E-01 -0.11184344065E-01 -0.16991051820E-01  0.35737005818E-01  0.00000000000E+00 0. -1.
  9000001    1    1    2    0    0 -0.29382787321E-01  0.11184344065E-01  0.16991051820E-01  0.35750994182E-01  0.10000000475E-02 0.  1.
</event>
<event>
 4   0  0.4892667E-02  0.9118800E+02  0.7818609E-02  0.1379984E+01
      -11   -1    0    0    0    0  0.00000000000E+00  0.00000000000E+00  0.35740347158E-01  0.35744000000E-01  0.51099999109E-03 0. -1.
       11   -1    0    0    0    0 -0.00000000000E+00 -0.00000000000E+00 -0.35740347158E-01  0.35744000000E-01  0.51099999109E-03 0.  1.
       22    1    1    2    0    0  0.30858352269E-01  0.17898345113E-01 -0.21318823494E-02  0.35737005818E-01  0.00000000000E+00 0.  1.
  9000001    1    1    2    0    0 -0.30858352269E-01 -0.17898345113E-01  0.21318823494E-02  0.35750994182E-01  0.10000000475E-02 0. -1.
</event>
<event>
 4   0  0.4892667E-02  0.9118800E+02  0.7818609E-02  0.1379984E+01
      -11   -1    0    0    0    0  0.00000000000E+00  0.00000000000E+00  0.35740347158E-01  0.35744000000E-01  0.51099999109E-03 0.  1.
       11   -1    0    0    0    0 -0.00000000000E+00 -0.00000000000E+00 -0.35740347158E-01  0.35744000000E-01  0.51099999109E-03 0. -1.
       22    1    1    2    0    0 -0.53003658335E-02  0.19709875818E-02 -0.35286752682E-01  0.35737005818E-01  0.00000000000E+00 0. -1.
  9000001    1    1    2    0    0  0.53003658335E-02 -0.19709875818E-02  0.35286752682E-01  0.35750994182E-01  0.10000000475E-02 0.  1.
</event>
<event>
 4   0  0.4892667E-02  0.9118800E+02  0.7818609E-02  0.1379984E+01
      -11   -1    0    0    0    0  0.00000000000E+00  0.00000000000E+00  0.35740347158E-01  0.35744000000E-01  0.51099999109E-03 0.  1.
       11   -1    0    0    0    0 -0.00000000000E+00 -0.00000000000E+00 -0.35740347158E-01  0.35744000000E-01  0.51099999109E-03 0. -1.
       22    1    1    2    0    0 -0.13318530953E-01 -0.51725920053E-02  0.32756596436E-01  0.35737005818E-01  0.00000000000E+00 0.  1.
  9000001    1    1    2    0    0  0.13318530953E-01  0.51725920053E-02 -0.32756596436E-01  0.35750994182E-01  0.10000000475E-02 0. -1.
</event>
<event>
 4   0  0.4892667E-02  0.9118800E+02  0.7818609E-02  0.1379984E+01
      -11   -1    0    0    0    0  0.00000000000E+00  0.00000000000E+00  0.35740347158E-01  0.35744000000E-01  0.51099999109E-03 0. -1.
       11   -1    0    0    0    0 -0.00000000000E+00 -0.00000000000E+00 -0.35740347158E-01  0.35744000000E-01  0.51099999109E-03 0.  1.
       22    1    1    2    0    0  0.45839898738E-02  0.17163006784E-02 -0.35400210927E-01  0.35737005818E-01  0.00000000000E+00 0.  1.
  9000001    1    1    2    0    0 -0.45839898738E-02 -0.17163006784E-02  0.35400210927E-01  0.35750994182E-01  0.10000000475E-02 0. -1.
</event>
<event>
 4   0  0.4892667E-02  0.9118800E+02  0.7818609E-02  0.1379984E+01
      -11   -1    0    0    0    0  0.00000000000E+00  0.00000000000E+00  0.35740347158E-01  0.35744000000E-01  0.51099999109E-03 0.  1.
       11   -1    0    0    0    0 -0.00000000000E+00 -0.00000000000E+00 -0.35740347158E-01  0.35744000000E-01  0.51099999109E-03 0. -1.
       22    1    1    2    0    0  0.29141662759E-02  0.22527518679E-02  0.35546678168E-01  0.35737005818E-01  0.00000000000E+00 0.  1.
  9000001    1    1    2    0    0 -0.29141662759E-02 -0.22527518679E-02 -0.35546678168E-01  0.35750994182E-01  0.10000000475E-02 0. -1.
</event>
<event>
 4   0  0.4892667E-02  0.9118800E+02  0.7818609E-02  0.1379984E+01
      -11   -1    0    0    0    0  0.00000000000E+00  0.00000000000E+00  0.35740347158E-01  0.35744000000E-01  0.51099999109E-03 0.  1.
       11   -1    0    0    0    0 -0.00000000000E+00 -0.00000000000E+00 -0.35740347158E-01  0.35744000000E-01  0.51099999109E-03 0. -1.
       22    1    1    2    0    0 -0.26735667231E-02 -0.26882531808E-02  0.35535319341E-01  0.35737005818E-01  0.00000000000E+00 0.  1.
  9000001    1    1    2    0    0  0.26735667231E-02  0.26882531808E-02 -0.35535319341E-01  0.35750994182E-01  0.10000000475E-02 0. -1.
</event>
<event>
 4   0  0.4892667E-02  0.9118800E+02  0.7818609E-02  0.1379984E+01
      -11   -1    0    0    0    0  0.00000000000E+00  0.00000000000E+00  0.35740347158E-01  0.35744000000E-01  0.51099999109E-03 0.  1.
       11   -1    0    0    0    0 -0.00000000000E+00 -0.00000000000E+00 -0.35740347158E-01  0.35744000000E-01  0.51099999109E-03 0. -1.
       22    1    1    2    0    0 -0.46016603792E-02  0.22650594563E-02 -0.35367044155E-01  0.35737005818E-01  0.00000000000E+00 0. -1.
  9000001    1    1    2    0    0  0.46016603792E-02 -0.22650594563E-02  0.35367044155E-01  0.35750994182E-01  0.10000000475E-02 0.  1.
</event>
<event>
 4   0  0.4892667E-02  0.9118800E+02  0.7818609E-02  0.1379984E+01
      -11   -1    0    0    0    0  0.00000000000E+00  0.00000000000E+00  0.35740347158E-01  0.35744000000E-01  0.51099999109E-03 0.  1.
       11   -1    0    0    0    0 -0.00000000000E+00 -0.00000000000E+00 -0.35740347158E-01  0.35744000000E-01  0.51099999109E-03 0. -1.
       22    1    1    2    0    0  0.53142418055E-02 -0.62272132507E-02  0.34786696222E-01  0.35737005818E-01  0.00000000000E+00 0.  1.
  9000001    1    1    2    0    0 -0.53142418055E-02  0.62272132507E-02 -0.34786696222E-01  0.35750994182E-01  0.10000000475E-02 0. -1.
</event>
<event>
 4   0  0.4892667E-02  0.9118800E+02  0.7818609E-02  0.1379984E+01
      -11   -1    0    0    0    0  0.00000000000E+00  0.00000000000E+00  0.35740347158E-01  0.35744000000E-01  0.51099999109E-03 0. -1.
       11   -1    0    0    0    0 -0.00000000000E+00 -0.00000000000E+00 -0.35740347158E-01  0.35744000000E-01  0.51099999109E-03 0.  1.
       22    1    1    2    0    0  0.52845790503E-03 -0.46289894394E-02 -0.35432002115E-01  0.35737005818E-01  0.00000000000E+00 0.  1.
  9000001    1    1    2    0    0 -0.52845790503E-03  0.46289894394E-02  0.35432002115E-01  0.35750994182E-01  0.10000000475E-02 0. -1.
</event>
<event>
 4   0  0.4892667E-02  0.9118800E+02  0.7818609E-02  0.1379984E+01
      -11   -1    0    0    0    0  0.00000000000E+00  0.00000000000E+00  0.35740347158E-01  0.35744000000E-01  0.51099999109E-03 0.  1.
       11   -1    0    0    0    0 -0.00000000000E+00 -0.00000000000E+00 -0.35740347158E-01  0.35744000000E-01  0.51099999109E-03 0. -1.
       22    1    1    2    0    0 -0.52485904221E-02  0.52315110684E-02  0.34960222759E-01  0.35737005818E-01  0.00000000000E+00 0.  1.
  9000001    1    1    2    0    0  0.52485904221E-02 -0.52315110684E-02 -0.34960222759E-01  0.35750994182E-01  0.10000000475E-02 0. -1.
</event>
<event>
 4   0  0.4892667E-02  0.9118800E+02  0.7818609E-02  0.1379984E+01
      -11   -1    0    0    0    0  0.00000000000E+00  0.00000000000E+00  0.35740347158E-01  0.35744000000E-01  0.51099999109E-03 0. -1.
       11   -1    0    0    0    0 -0.00000000000E+00 -0.00000000000E+00 -0.35740347158E-01  0.35744000000E-01  0.51099999109E-03 0.  1.
       22    1    1    2    0    0  0.91473186869E-02  0.46104691414E-03 -0.34543415892E-01  0.35737005818E-01  0.00000000000E+00 0.  1.
  9000001    1    1    2    0    0 -0.91473186869E-02 -0.46104691414E-03  0.34543415892E-01  0.35750994182E-01  0.10000000475E-02 0. -1.
</event>
<event>
 4   0  0.4892667E-02  0.9118800E+02  0.7818609E-02  0.1379984E+01
      -11   -1    0    0    0    0  0.00000000000E+00  0.00000000000E+00  0.35740347158E-01  0.35744000000E-01  0.51099999109E-03 0. -1.
       11   -1    0    0    0    0 -0.00000000000E+00 -0.00000000000E+00 -0.35740347158E-01  0.35744000000E-01  0.51099999109E-03 0.  1.
       22    1    1    2    0    0 -0.96729984692E-02 -0.56732082517E-02  0.33932011341E-01  0.35737005818E-01  0.00000000000E+00 0. -1.
  9000001    1    1    2    0    0  0.96729984692E-02  0.56732082517E-02 -0.33932011341E-01  0.35750994182E-01  0.10000000475E-02 0.  1.
</event>
<event>
 4   0  0.4892667E-02  0.9118800E+02  0.7818609E-02  0.1379984E+01
      -11   -1    0    0    0    0  0.00000000000E+00  0.00000000000E+00  0.35740347158E-01  0.35744000000E-01  0.51099999109E-03 0.  1.
       11   -1    0    0    0    0 -0.00000000000E+00 -0.00000000000E+00 -0.35740347158E-01  0.35744000000E-01  0.51099999109E-03 0. -1.
       22    1    1    2    0    0 -0.17331994930E-01 -0.30135637259E-01  0.82812380494E-02  0.35737005818E-01  0.00000000000E+00 0.  1.
  9000001    1    1    2    0    0  0.17331994930E-01  0.30135637259E-01 -0.82812380494E-02  0.35750994182E-01  0.10000000475E-02 0. -1.
</event>
<event>
 4   0  0.4892667E-02  0.9118800E+02  0.7818609E-02  0.1379984E+01
      -11   -1    0    0    0    0  0.00000000000E+00  0.00000000000E+00  0.35740347158E-01  0.35744000000E-01  0.51099999109E-03 0.  1.
       11   -1    0    0    0    0 -0.00000000000E+00 -0.00000000000E+00 -0.35740347158E-01  0.35744000000E-01  0.51099999109E-03 0. -1.
       22    1    1    2    0    0 -0.93778422232E-02 -0.17006273326E-01 -0.29999605459E-01  0.35737005818E-01  0.00000000000E+00 0. -1.
  9000001    1    1    2    0    0  0.93778422232E-02  0.17006273326E-01  0.29999605459E-01  0.35750994182E-01  0.10000000475E-02 0.  1.
</event>
<event>
 4   0  0.4892667E-02  0.9118800E+02  0.7818609E-02  0.1379984E+01
      -11   -1    0    0    0    0  0.00000000000E+00  0.00000000000E+00  0.35740347158E-01  0.35744000000E-01  0.51099999109E-03 0.  1.
       11   -1    0    0    0    0 -0.00000000000E+00 -0.00000000000E+00 -0.35740347158E-01  0.35744000000E-01  0.51099999109E-03 0. -1.
       22    1    1    2    0    0 -0.18066479032E-02 -0.49257673349E-02  0.35349772621E-01  0.35737005818E-01  0.00000000000E+00 0.  1.
  9000001    1    1    2    0    0  0.18066479032E-02  0.49257673349E-02 -0.35349772621E-01  0.35750994182E-01  0.10000000475E-02 0. -1.
</event>
<event>
 4   0  0.4892667E-02  0.9118800E+02  0.7818609E-02  0.1379984E+01
      -11   -1    0    0    0    0  0.00000000000E+00  0.00000000000E+00  0.35740347158E-01  0.35744000000E-01  0.51099999109E-03 0. -1.
       11   -1    0    0    0    0 -0.00000000000E+00 -0.00000000000E+00 -0.35740347158E-01  0.35744000000E-01  0.51099999109E-03 0.  1.
       22    1    1    2    0    0  0.21637341478E-02 -0.35224827069E-01  0.56270238453E-02  0.35737005818E-01  0.00000000000E+00 0.  1.
  9000001    1    1    2    0    0 -0.21637341478E-02  0.35224827069E-01 -0.56270238453E-02  0.35750994182E-01  0.10000000475E-02 0. -1.
</event>
<event>
 4   0  0.4892667E-02  0.9118800E+02  0.7818609E-02  0.1379984E+01
      -11   -1    0    0    0    0  0.00000000000E+00  0.00000000000E+00  0.35740347158E-01  0.35744000000E-01  0.51099999109E-03 0.  1.
       11   -1    0    0    0    0 -0.00000000000E+00 -0.00000000000E+00 -0.35740347158E-01  0.35744000000E-01  0.51099999109E-03 0. -1.
       22    1    1    2    0    0  0.48911364812E-02  0.66243691352E-02 -0.34775395071E-01  0.35737005818E-01  0.00000000000E+00 0. -1.
  9000001    1    1    2    0    0 -0.48911364812E-02 -0.66243691352E-02  0.34775395071E-01  0.35750994182E-01  0.10000000475E-02 0.  1.
</event>
<event>
 4   0  0.4892667E-02  0.9118800E+02  0.7818609E-02  0.1379984E+01
      -11   -1    0    0    0    0  0.00000000000E+00  0.00000000000E+00  0.35740347158E-01  0.35744000000E-01  0.51099999109E-03 0. -1.
       11   -1    0    0    0    0 -0.00000000000E+00 -0.00000000000E+00 -0.35740347158E-01  0.35744000000E-01  0.51099999109E-03 0.  1.
       22    1    1    2    0    0  0.26704043366E-01  0.13202547349E-01  0.19741337247E-01  0.35737005818E-01  0.00000000000E+00 0. -1.
  9000001    1    1    2    0    0 -0.26704043366E-01 -0.13202547349E-01 -0.19741337247E-01  0.35750994182E-01  0.10000000475E-02 0.  1.
</event>
<event>
 4   0  0.4892667E-02  0.9118800E+02  0.7818609E-02  0.1379984E+01
      -11   -1    0    0    0    0  0.00000000000E+00  0.00000000000E+00  0.35740347158E-01  0.35744000000E-01  0.51099999109E-03 0. -1.
       11   -1    0    0    0    0 -0.00000000000E+00 -0.00000000000E+00 -0.35740347158E-01  0.35744000000E-01  0.51099999109E-03 0.  1.
       22    1    1    2    0    0 -0.58670588461E-02  0.13084263068E-02  0.35227818922E-01  0.35737005818E-01  0.00000000000E+00 0. -1.
  9000001    1    1    2    0    0  0.58670588461E-02 -0.13084263068E-02 -0.35227818922E-01  0.35750994182E-01  0.10000000475E-02 0.  1.
</event>
<event>
 4   0  0.4892667E-02  0.9118800E+02  0.7818609E-02  0.1379984E+01
      -11   -1    0    0    0    0  0.00000000000E+00  0.00000000000E+00  0.35740347158E-01  0.35744000000E-01  0.51099999109E-03 0.  1.
       11   -1    0    0    0    0 -0.00000000000E+00 -0.00000000000E+00 -0.35740347158E-01  0.35744000000E-01  0.51099999109E-03 0. -1.
       22    1    1    2    0    0  0.51703521891E-02  0.30037840372E-02 -0.35233199182E-01  0.35737005818E-01  0.00000000000E+00 0. -1.
  9000001    1    1    2    0    0 -0.51703521891E-02 -0.30037840372E-02  0.35233199182E-01  0.35750994182E-01  0.10000000475E-02 0.  1.
</event>
<event>
 4   0  0.4892667E-02  0.9118800E+02  0.7818609E-02  0.1379984E+01
      -11   -1    0    0    0    0  0.00000000000E+00  0.00000000000E+00  0.35740347158E-01  0.35744000000E-01  0.51099999109E-03 0.  1.
       11   -1    0    0    0    0 -0.00000000000E+00 -0.00000000000E+00 -0.35740347158E-01  0.35744000000E-01  0.51099999109E-03 0. -1.
       22    1    1    2    0    0  0.13947848407E-01  0.10267546792E-01 -0.31259695977E-01  0.35737005818E-01  0.00000000000E+00 0. -1.
  9000001    1    1    2    0    0 -0.13947848407E-01 -0.10267546792E-01  0.31259695977E-01  0.35750994182E-01  0.10000000475E-02 0.  1.
</event>
<event>
 4   0  0.4892667E-02  0.9118800E+02  0.7818609E-02  0.1379984E+01
      -11   -1    0    0    0    0  0.00000000000E+00  0.00000000000E+00  0.35740347158E-01  0.35744000000E-01  0.51099999109E-03 0. -1.
       11   -1    0    0    0    0 -0.00000000000E+00 -0.00000000000E+00 -0.35740347158E-01  0.35744000000E-01  0.51099999109E-03 0.  1.
       22    1    1    2    0    0  0.19150985510E-02  0.28435697253E-02 -0.35572181457E-01  0.35737005818E-01  0.00000000000E+00 0.  1.
  9000001    1    1    2    0    0 -0.19150985510E-02 -0.28435697253E-02  0.35572181457E-01  0.35750994182E-01  0.10000000475E-02 0. -1.
</event>
<event>
 4   0  0.4892667E-02  0.9118800E+02  0.7818609E-02  0.1379984E+01
      -11   -1    0    0    0    0  0.00000000000E+00  0.00000000000E+00  0.35740347158E-01  0.35744000000E-01  0.51099999109E-03 0. -1.
       11   -1    0    0    0    0 -0.00000000000E+00 -0.00000000000E+00 -0.35740347158E-01  0.35744000000E-01  0.51099999109E-03 0.  1.
       22    1    1    2    0    0 -0.51384144486E-02 -0.18654881230E-02 -0.35316430112E-01  0.35737005818E-01  0.00000000000E+00 0.  1.
  9000001    1    1    2    0    0  0.51384144486E-02  0.18654881230E-02  0.35316430112E-01  0.35750994182E-01  0.10000000475E-02 0. -1.
</event>
<event>
 4   0  0.4892667E-02  0.9118800E+02  0.7818609E-02  0.1379984E+01
      -11   -1    0    0    0    0  0.00000000000E+00  0.00000000000E+00  0.35740347158E-01  0.35744000000E-01  0.51099999109E-03 0.  1.
       11   -1    0    0    0    0 -0.00000000000E+00 -0.00000000000E+00 -0.35740347158E-01  0.35744000000E-01  0.51099999109E-03 0. -1.
       22    1    1    2    0    0 -0.41638910133E-02  0.29318069031E-02 -0.35372307032E-01  0.35737005818E-01  0.00000000000E+00 0. -1.
  9000001    1    1    2    0    0  0.41638910133E-02 -0.29318069031E-02  0.35372307032E-01  0.35750994182E-01  0.10000000475E-02 0.  1.
</event>
<event>
 4   0  0.4892667E-02  0.9118800E+02  0.7818609E-02  0.1379984E+01
      -11   -1    0    0    0    0  0.00000000000E+00  0.00000000000E+00  0.35740347158E-01  0.35744000000E-01  0.51099999109E-03 0.  1.
       11   -1    0    0    0    0 -0.00000000000E+00 -0.00000000000E+00 -0.35740347158E-01  0.35744000000E-01  0.51099999109E-03 0. -1.
       22    1    1    2    0    0 -0.65416984973E-02  0.11693594764E-01 -0.33130040856E-01  0.35737005818E-01  0.00000000000E+00 0. -1.
  9000001    1    1    2    0    0  0.65416984973E-02 -0.11693594764E-01  0.33130040856E-01  0.35750994182E-01  0.10000000475E-02 0.  1.
</event>
<event>
 4   0  0.4892667E-02  0.9118800E+02  0.7818609E-02  0.1379984E+01
      -11   -1    0    0    0    0  0.00000000000E+00  0.00000000000E+00  0.35740347158E-01  0.35744000000E-01  0.51099999109E-03 0.  1.
       11   -1    0    0    0    0 -0.00000000000E+00 -0.00000000000E+00 -0.35740347158E-01  0.35744000000E-01  0.51099999109E-03 0. -1.
       22    1    1    2    0    0 -0.20167610608E-01  0.18706699576E-01 -0.22813602482E-01  0.35737005818E-01  0.00000000000E+00 0. -1.
  9000001    1    1    2    0    0  0.20167610608E-01 -0.18706699576E-01  0.22813602482E-01  0.35750994182E-01  0.10000000475E-02 0.  1.
</event>
<event>
 4   0  0.4892667E-02  0.9118800E+02  0.7818609E-02  0.1379984E+01
      -11   -1    0    0    0    0  0.00000000000E+00  0.00000000000E+00  0.35740347158E-01  0.35744000000E-01  0.51099999109E-03 0. -1.
       11   -1    0    0    0    0 -0.00000000000E+00 -0.00000000000E+00 -0.35740347158E-01  0.35744000000E-01  0.51099999109E-03 0.  1.
       22    1    1    2    0    0  0.74184631728E-02 -0.12593102498E-01  0.32611558664E-01  0.35737005818E-01  0.00000000000E+00 0. -1.
  9000001    1    1    2    0    0 -0.74184631728E-02  0.12593102498E-01 -0.32611558664E-01  0.35750994182E-01  0.10000000475E-02 0.  1.
</event>
<event>
 4   0  0.4892667E-02  0.9118800E+02  0.7818609E-02  0.1379984E+01
      -11   -1    0    0    0    0  0.00000000000E+00  0.00000000000E+00  0.35740347158E-01  0.35744000000E-01  0.51099999109E-03 0.  1.
       11   -1    0    0    0    0 -0.00000000000E+00 -0.00000000000E+00 -0.35740347158E-01  0.35744000000E-01  0.51099999109E-03 0. -1.
       22    1    1    2    0    0 -0.88515836929E-02  0.14692625890E-01 -0.31351392241E-01  0.35737005818E-01  0.00000000000E+00 0. -1.
  9000001    1    1    2    0    0  0.88515836929E-02 -0.14692625890E-01  0.31351392241E-01  0.35750994182E-01  0.10000000475E-02 0.  1.
</event>
<event>
 4   0  0.4892667E-02  0.9118800E+02  0.7818609E-02  0.1379984E+01
      -11   -1    0    0    0    0  0.00000000000E+00  0.00000000000E+00  0.35740347158E-01  0.35744000000E-01  0.51099999109E-03 0. -1.
       11   -1    0    0    0    0 -0.00000000000E+00 -0.00000000000E+00 -0.35740347158E-01  0.35744000000E-01  0.51099999109E-03 0.  1.
       22    1    1    2    0    0  0.20533350991E-02  0.12279499128E-01  0.33498228326E-01  0.35737005818E-01  0.00000000000E+00 0. -1.
  9000001    1    1    2    0    0 -0.20533350991E-02 -0.12279499128E-01 -0.33498228326E-01  0.35750994182E-01  0.10000000475E-02 0.  1.
</event>
<event>
 4   0  0.4892667E-02  0.9118800E+02  0.7818609E-02  0.1379984E+01
      -11   -1    0    0    0    0  0.00000000000E+00  0.00000000000E+00  0.35740347158E-01  0.35744000000E-01  0.51099999109E-03 0. -1.
       11   -1    0    0    0    0 -0.00000000000E+00 -0.00000000000E+00 -0.35740347158E-01  0.35744000000E-01  0.51099999109E-03 0.  1.
       22    1    1    2    0    0 -0.28253868586E-01 -0.94166487796E-02  0.19752954729E-01  0.35737005818E-01  0.00000000000E+00 0. -1.
  9000001    1    1    2    0    0  0.28253868586E-01  0.94166487796E-02 -0.19752954729E-01  0.35750994182E-01  0.10000000475E-02 0.  1.
</event>
<event>
 4   0  0.4892667E-02  0.9118800E+02  0.7818609E-02  0.1379984E+01
      -11   -1    0    0    0    0  0.00000000000E+00  0.00000000000E+00  0.35740347158E-01  0.35744000000E-01  0.51099999109E-03 0. -1.
       11   -1    0    0    0    0 -0.00000000000E+00 -0.00000000000E+00 -0.35740347158E-01  0.35744000000E-01  0.51099999109E-03 0.  1.
       22    1    1    2    0    0 -0.58118147159E-02  0.15863310674E-02 -0.35225558169E-01  0.35737005818E-01  0.00000000000E+00 0.  1.
  9000001    1    1    2    0    0  0.58118147159E-02 -0.15863310674E-02  0.35225558169E-01  0.35750994182E-01  0.10000000475E-02 0. -1.
</event>
<event>
 4   0  0.4892667E-02  0.9118800E+02  0.7818609E-02  0.1379984E+01
      -11   -1    0    0    0    0  0.00000000000E+00  0.00000000000E+00  0.35740347158E-01  0.35744000000E-01  0.51099999109E-03 0. -1.
       11   -1    0    0    0    0 -0.00000000000E+00 -0.00000000000E+00 -0.35740347158E-01  0.35744000000E-01  0.51099999109E-03 0.  1.
       22    1    1    2    0    0  0.79306684447E-02 -0.22498409081E-01  0.26609390668E-01  0.35737005818E-01  0.00000000000E+00 0. -1.
  9000001    1    1    2    0    0 -0.79306684447E-02  0.22498409081E-01 -0.26609390668E-01  0.35750994182E-01  0.10000000475E-02 0.  1.
</event>
<event>
 4   0  0.4892667E-02  0.9118800E+02  0.7818609E-02  0.1379984E+01
      -11   -1    0    0    0    0  0.00000000000E+00  0.00000000000E+00  0.35740347158E-01  0.35744000000E-01  0.51099999109E-03 0. -1.
       11   -1    0    0    0    0 -0.00000000000E+00 -0.00000000000E+00 -0.35740347158E-01  0.35744000000E-01  0.51099999109E-03 0.  1.
       22    1    1    2    0    0 -0.94168819979E-02  0.75315644603E-02 -0.33641216611E-01  0.35737005818E-01  0.00000000000E+00 0.  1.
  9000001    1    1    2    0    0  0.94168819979E-02 -0.75315644603E-02  0.33641216611E-01  0.35750994182E-01  0.10000000475E-02 0. -1.
</event>
<event>
 4   0  0.4892667E-02  0.9118800E+02  0.7818609E-02  0.1379984E+01
      -11   -1    0    0    0    0  0.00000000000E+00  0.00000000000E+00  0.35740347158E-01  0.35744000000E-01  0.51099999109E-03 0.  1.
       11   -1    0    0    0    0 -0.00000000000E+00 -0.00000000000E+00 -0.35740347158E-01  0.35744000000E-01  0.51099999109E-03 0. -1.
       22    1    1    2    0    0  0.11777603634E-02 -0.29091065392E-02 -0.35598926452E-01  0.35737005818E-01  0.00000000000E+00 0. -1.
  9000001    1    1    2    0    0 -0.11777603634E-02  0.29091065392E-02  0.35598926452E-01  0.35750994182E-01  0.10000000475E-02 0.  1.
</event>
<event>
 4   0  0.4892667E-02  0.9118800E+02  0.7818609E-02  0.1379984E+01
      -11   -1    0    0    0    0  0.00000000000E+00  0.00000000000E+00  0.35740347158E-01  0.35744000000E-01  0.51099999109E-03 0.  1.
       11   -1    0    0    0    0 -0.00000000000E+00 -0.00000000000E+00 -0.35740347158E-01  0.35744000000E-01  0.51099999109E-03 0. -1.
       22    1    1    2    0    0  0.74866205707E-02 -0.51097767694E-02  0.34568400002E-01  0.35737005818E-01  0.00000000000E+00 0.  1.
  9000001    1    1    2    0    0 -0.74866205707E-02  0.51097767694E-02 -0.34568400002E-01  0.35750994182E-01  0.10000000475E-02 0. -1.
</event>
<event>
 4   0  0.4892667E-02  0.9118800E+02  0.7818609E-02  0.1379984E+01
      -11   -1    0    0    0    0  0.00000000000E+00  0.00000000000E+00  0.35740347158E-01  0.35744000000E-01  0.51099999109E-03 0.  1.
       11   -1    0    0    0    0 -0.00000000000E+00 -0.00000000000E+00 -0.35740347158E-01  0.35744000000E-01  0.51099999109E-03 0. -1.
       22    1    1    2    0    0 -0.34228597672E-02 -0.12724701712E-01  0.33218964195E-01  0.35737005818E-01  0.00000000000E+00 0.  1.
  9000001    1    1    2    0    0  0.34228597672E-02  0.12724701712E-01 -0.33218964195E-01  0.35750994182E-01  0.10000000475E-02 0. -1.
</event>
<event>
 4   0  0.4892667E-02  0.9118800E+02  0.7818609E-02  0.1379984E+01
      -11   -1    0    0    0    0  0.00000000000E+00  0.00000000000E+00  0.35740347158E-01  0.35744000000E-01  0.51099999109E-03 0.  1.
       11   -1    0    0    0    0 -0.00000000000E+00 -0.00000000000E+00 -0.35740347158E-01  0.35744000000E-01  0.51099999109E-03 0. -1.
       22    1    1    2    0    0  0.47498631557E-02 -0.14119751485E-01 -0.32483919143E-01  0.35737005818E-01  0.00000000000E+00 0. -1.
  9000001    1    1    2    0    0 -0.47498631557E-02  0.14119751485E-01  0.32483919143E-01  0.35750994182E-01  0.10000000475E-02 0.  1.
</event>
<event>
 4   0  0.4892667E-02  0.9118800E+02  0.7818609E-02  0.1379984E+01
      -11   -1    0    0    0    0  0.00000000000E+00  0.00000000000E+00  0.35740347158E-01  0.35744000000E-01  0.51099999109E-03 0. -1.
       11   -1    0    0    0    0 -0.00000000000E+00 -0.00000000000E+00 -0.35740347158E-01  0.35744000000E-01  0.51099999109E-03 0.  1.
       22    1    1    2    0    0 -0.29478632750E-02  0.19391512210E-02 -0.35562387146E-01  0.35737005818E-01  0.00000000000E+00 0.  1.
  9000001    1    1    2    0    0  0.29478632750E-02 -0.19391512210E-02  0.35562387146E-01  0.35750994182E-01  0.10000000475E-02 0. -1.
</event>
<event>
 4   0  0.4892667E-02  0.9118800E+02  0.7818609E-02  0.1379984E+01
      -11   -1    0    0    0    0  0.00000000000E+00  0.00000000000E+00  0.35740347158E-01  0.35744000000E-01  0.51099999109E-03 0. -1.
       11   -1    0    0    0    0 -0.00000000000E+00 -0.00000000000E+00 -0.35740347158E-01  0.35744000000E-01  0.51099999109E-03 0.  1.
       22    1    1    2    0    0 -0.11196465109E-01  0.25577979437E-01 -0.22305598442E-01  0.35737005818E-01  0.00000000000E+00 0.  1.
  9000001    1    1    2    0    0  0.11196465109E-01 -0.25577979437E-01  0.22305598442E-01  0.35750994182E-01  0.10000000475E-02 0. -1.
</event>
<event>
 4   0  0.4892667E-02  0.9118800E+02  0.7818609E-02  0.1379984E+01
      -11   -1    0    0    0    0  0.00000000000E+00  0.00000000000E+00  0.35740347158E-01  0.35744000000E-01  0.51099999109E-03 0. -1.
       11   -1    0    0    0    0 -0.00000000000E+00 -0.00000000000E+00 -0.35740347158E-01  0.35744000000E-01  0.51099999109E-03 0.  1.
       22    1    1    2    0    0 -0.43383105977E-03  0.11127127614E-01 -0.33957803323E-01  0.35737005818E-01  0.00000000000E+00 0.  1.
  9000001    1    1    2    0    0  0.43383105977E-03 -0.11127127614E-01  0.33957803323E-01  0.35750994182E-01  0.10000000475E-02 0. -1.
</event>
<event>
 4   0  0.4892667E-02  0.9118800E+02  0.7818609E-02  0.1379984E+01
      -11   -1    0    0    0    0  0.00000000000E+00  0.00000000000E+00  0.35740347158E-01  0.35744000000E-01  0.51099999109E-03 0. -1.
       11   -1    0    0    0    0 -0.00000000000E+00 -0.00000000000E+00 -0.35740347158E-01  0.35744000000E-01  0.51099999109E-03 0.  1.
       22    1    1    2    0    0 -0.28770860324E-02 -0.15048747810E-01  0.32286082918E-01  0.35737005818E-01  0.00000000000E+00 0. -1.
  9000001    1    1    2    0    0  0.28770860324E-02  0.15048747810E-01 -0.32286082918E-01  0.35750994182E-01  0.10000000475E-02 0.  1.
</event>
<event>
 4   0  0.4892667E-02  0.9118800E+02  0.7818609E-02  0.1379984E+01
      -11   -1    0    0    0    0  0.00000000000E+00  0.00000000000E+00  0.35740347158E-01  0.35744000000E-01  0.51099999109E-03 0. -1.
       11   -1    0    0    0    0 -0.00000000000E+00 -0.00000000000E+00 -0.35740347158E-01  0.35744000000E-01  0.51099999109E-03 0.  1.
       22    1    1    2    0    0 -0.18328891601E-01  0.49471239661E-02  0.30277240330E-01  0.35737005818E-01  0.00000000000E+00 0. -1.
  9000001    1    1    2    0    0  0.18328891601E-01 -0.49471239661E-02 -0.30277240330E-01  0.35750994182E-01  0.10000000475E-02 0.  1.
</event>
<event>
 4   0  0.4892667E-02  0.9118800E+02  0.7818609E-02  0.1379984E+01
      -11   -1    0    0    0    0  0.00000000000E+00  0.00000000000E+00  0.35740347158E-01  0.35744000000E-01  0.51099999109E-03 0.  1.
       11   -1    0    0    0    0 -0.00000000000E+00 -0.00000000000E+00 -0.35740347158E-01  0.35744000000E-01  0.51099999109E-03 0. -1.
       22    1    1    2    0    0  0.64309864427E-02  0.21129790411E-01 -0.28094625027E-01  0.35737005818E-01  0.00000000000E+00 0. -1.
  9000001    1    1    2    0    0 -0.64309864427E-02 -0.21129790411E-01  0.28094625027E-01  0.35750994182E-01  0.10000000475E-02 0.  1.
</event>
<event>
 4   0  0.4892667E-02  0.9118800E+02  0.7818609E-02  0.1379984E+01
      -11   -1    0    0    0    0  0.00000000000E+00  0.00000000000E+00  0.35740347158E-01  0.35744000000E-01  0.51099999109E-03 0.  1.
       11   -1    0    0    0    0 -0.00000000000E+00 -0.00000000000E+00 -0.35740347158E-01  0.35744000000E-01  0.51099999109E-03 0. -1.
       22    1    1    2    0    0 -0.21211134693E-01  0.22480394452E-02  0.28673466281E-01  0.35737005818E-01  0.00000000000E+00 0.  1.
  9000001    1    1    2    0    0  0.21211134693E-01 -0.22480394452E-02 -0.28673466281E-01  0.35750994182E-01  0.10000000475E-02 0. -1.
</event>
<event>
 4   0  0.4892667E-02  0.9118800E+02  0.7818609E-02  0.1379984E+01
      -11   -1    0    0    0    0  0.00000000000E+00  0.00000000000E+00  0.35740347158E-01  0.35744000000E-01  0.51099999109E-03 0. -1.
       11   -1    0    0    0    0 -0.00000000000E+00 -0.00000000000E+00 -0.35740347158E-01  0.35744000000E-01  0.51099999109E-03 0.  1.
       22    1    1    2    0    0 -0.21031071881E-02  0.67839944383E-02 -0.35024105192E-01  0.35737005818E-01  0.00000000000E+00 0.  1.
  9000001    1    1    2    0    0  0.21031071881E-02 -0.67839944383E-02  0.35024105192E-01  0.35750994182E-01  0.10000000475E-02 0. -1.
</event>
<event>
 4   0  0.4892667E-02  0.9118800E+02  0.7818609E-02  0.1379984E+01
      -11   -1    0    0    0    0  0.00000000000E+00  0.00000000000E+00  0.35740347158E-01  0.35744000000E-01  0.51099999109E-03 0.  1.
       11   -1    0    0    0    0 -0.00000000000E+00 -0.00000000000E+00 -0.35740347158E-01  0.35744000000E-01  0.51099999109E-03 0. -1.
       22    1    1    2    0    0  0.17642677125E-01  0.55376416856E-02  0.30581106149E-01  0.35737005818E-01  0.00000000000E+00 0.  1.
  9000001    1    1    2    0    0 -0.17642677125E-01 -0.55376416856E-02 -0.30581106149E-01  0.35750994182E-01  0.10000000475E-02 0. -1.
</event>
<event>
 4   0  0.4892667E-02  0.9118800E+02  0.7818609E-02  0.1379984E+01
      -11   -1    0    0    0    0  0.00000000000E+00  0.00000000000E+00  0.35740347158E-01  0.35744000000E-01  0.51099999109E-03 0. -1.
       11   -1    0    0    0    0 -0.00000000000E+00 -0.00000000000E+00 -0.35740347158E-01  0.35744000000E-01  0.51099999109E-03 0.  1.
       22    1    1    2    0    0  0.56202306935E-02  0.17901337281E-02 -0.35246872387E-01  0.35737005818E-01  0.00000000000E+00 0.  1.
  9000001    1    1    2    0    0 -0.56202306935E-02 -0.17901337281E-02  0.35246872387E-01  0.35750994182E-01  0.10000000475E-02 0. -1.
</event>
<event>
 4   0  0.4892667E-02  0.9118800E+02  0.7818609E-02  0.1379984E+01
      -11   -1    0    0    0    0  0.00000000000E+00  0.00000000000E+00  0.35740347158E-01  0.35744000000E-01  0.51099999109E-03 0.  1.
       11   -1    0    0    0    0 -0.00000000000E+00 -0.00000000000E+00 -0.35740347158E-01  0.35744000000E-01  0.51099999109E-03 0. -1.
       22    1    1    2    0    0  0.85828153972E-02 -0.14015187902E-01 -0.31733946694E-01  0.35737005818E-01  0.00000000000E+00 0. -1.
  9000001    1    1    2    0    0 -0.85828153972E-02  0.14015187902E-01  0.31733946694E-01  0.35750994182E-01  0.10000000475E-02 0.  1.
</event>
<event>
 4   0  0.4892667E-02  0.9118800E+02  0.7818609E-02  0.1379984E+01
      -11   -1    0    0    0    0  0.00000000000E+00  0.00000000000E+00  0.35740347158E-01  0.35744000000E-01  0.51099999109E-03 0. -1.
       11   -1    0    0    0    0 -0.00000000000E+00 -0.00000000000E+00 -0.35740347158E-01  0.35744000000E-01  0.51099999109E-03 0.  1.
       22    1    1    2    0    0 -0.47461812041E-02  0.12730091370E-02  0.35397553540E-01  0.35737005818E-01  0.00000000000E+00 0. -1.
  9000001    1    1    2    0    0  0.47461812041E-02 -0.12730091370E-02 -0.35397553540E-01  0.35750994182E-01  0.10000000475E-02 0.  1.
</event>
<event>
 4   0  0.4892667E-02  0.9118800E+02  0.7818609E-02  0.1379984E+01
      -11   -1    0    0    0    0  0.00000000000E+00  0.00000000000E+00  0.35740347158E-01  0.35744000000E-01  0.51099999109E-03 0.  1.
       11   -1    0    0    0    0 -0.00000000000E+00 -0.00000000000E+00 -0.35740347158E-01  0.35744000000E-01  0.51099999109E-03 0. -1.
       22    1    1    2    0    0 -0.19285229734E-01  0.26855050648E-02 -0.29966674182E-01  0.35737005818E-01  0.00000000000E+00 0. -1.
  9000001    1    1    2    0    0  0.19285229734E-01 -0.26855050648E-02  0.29966674182E-01  0.35750994182E-01  0.10000000475E-02 0.  1.
</event>
<event>
 4   0  0.4892667E-02  0.9118800E+02  0.7818609E-02  0.1379984E+01
      -11   -1    0    0    0    0  0.00000000000E+00  0.00000000000E+00  0.35740347158E-01  0.35744000000E-01  0.51099999109E-03 0.  1.
       11   -1    0    0    0    0 -0.00000000000E+00 -0.00000000000E+00 -0.35740347158E-01  0.35744000000E-01  0.51099999109E-03 0. -1.
       22    1    1    2    0    0  0.73008498570E-02  0.78288624929E-03 -0.34974537386E-01  0.35737005818E-01  0.00000000000E+00 0. -1.
  9000001    1    1    2    0    0 -0.73008498570E-02 -0.78288624929E-03  0.34974537386E-01  0.35750994182E-01  0.10000000475E-02 0.  1.
</event>
<event>
 4   0  0.4892667E-02  0.9118800E+02  0.7818609E-02  0.1379984E+01
      -11   -1    0    0    0    0  0.00000000000E+00  0.00000000000E+00  0.35740347158E-01  0.35744000000E-01  0.51099999109E-03 0.  1.
       11   -1    0    0    0    0 -0.00000000000E+00 -0.00000000000E+00 -0.35740347158E-01  0.35744000000E-01  0.51099999109E-03 0. -1.
       22    1    1    2    0    0  0.33873367352E-02  0.24873096078E-02 -0.35489052194E-01  0.35737005818E-01  0.00000000000E+00 0. -1.
  9000001    1    1    2    0    0 -0.33873367352E-02 -0.24873096078E-02  0.35489052194E-01  0.35750994182E-01  0.10000000475E-02 0.  1.
</event>
<event>
 4   0  0.4892667E-02  0.9118800E+02  0.7818609E-02  0.1379984E+01
      -11   -1    0    0    0    0  0.00000000000E+00  0.00000000000E+00  0.35740347158E-01  0.35744000000E-01  0.51099999109E-03 0. -1.
       11   -1    0    0    0    0 -0.00000000000E+00 -0.00000000000E+00 -0.35740347158E-01  0.35744000000E-01  0.51099999109E-03 0.  1.
       22    1    1    2    0    0 -0.26881323735E-02 -0.21318455210E-01 -0.28555752427E-01  0.35737005818E-01  0.00000000000E+00 0.  1.
  9000001    1    1    2    0    0  0.26881323735E-02  0.21318455210E-01  0.28555752427E-01  0.35750994182E-01  0.10000000475E-02 0. -1.
</event>
<event>
 4   0  0.4892667E-02  0.9118800E+02  0.7818609E-02  0.1379984E+01
      -11   -1    0    0    0    0  0.00000000000E+00  0.00000000000E+00  0.35740347158E-01  0.35744000000E-01  0.51099999109E-03 0. -1.
       11   -1    0    0    0    0 -0.00000000000E+00 -0.00000000000E+00 -0.35740347158E-01  0.35744000000E-01  0.51099999109E-03 0.  1.
       22    1    1    2    0    0 -0.40647109937E-02  0.60655342013E-02 -0.34983153149E-01  0.35737005818E-01  0.00000000000E+00 0.  1.
  9000001    1    1    2    0    0  0.40647109937E-02 -0.60655342013E-02  0.34983153149E-01  0.35750994182E-01  0.10000000475E-02 0. -1.
</event>
<event>
 4   0  0.4892667E-02  0.9118800E+02  0.7818609E-02  0.1379984E+01
      -11   -1    0    0    0    0  0.00000000000E+00  0.00000000000E+00  0.35740347158E-01  0.35744000000E-01  0.51099999109E-03 0. -1.
       11   -1    0    0    0    0 -0.00000000000E+00 -0.00000000000E+00 -0.35740347158E-01  0.35744000000E-01  0.51099999109E-03 0.  1.
       22    1    1    2    0    0  0.98183016236E-02  0.30119336735E-02  0.34229560232E-01  0.35737005818E-01  0.00000000000E+00 0. -1.
  9000001    1    1    2    0    0 -0.98183016236E-02 -0.30119336735E-02 -0.34229560232E-01  0.35750994182E-01  0.10000000475E-02 0.  1.
</event>
<event>
 4   0  0.4892667E-02  0.9118800E+02  0.7818609E-02  0.1379984E+01
      -11   -1    0    0    0    0  0.00000000000E+00  0.00000000000E+00  0.35740347158E-01  0.35744000000E-01  0.51099999109E-03 0.  1.
       11   -1    0    0    0    0 -0.00000000000E+00 -0.00000000000E+00 -0.35740347158E-01  0.35744000000E-01  0.51099999109E-03 0. -1.
       22    1    1    2    0    0 -0.51525095696E-02  0.16530069379E-02  0.35324959987E-01  0.35737005818E-01  0.00000000000E+00 0.  1.
  9000001    1    1    2    0    0  0.51525095696E-02 -0.16530069379E-02 -0.35324959987E-01  0.35750994182E-01  0.10000000475E-02 0. -1.
</event>
<event>
 4   0  0.4892667E-02  0.9118800E+02  0.7818609E-02  0.1379984E+01
      -11   -1    0    0    0    0  0.00000000000E+00  0.00000000000E+00  0.35740347158E-01  0.35744000000E-01  0.51099999109E-03 0.  1.
       11   -1    0    0    0    0 -0.00000000000E+00 -0.00000000000E+00 -0.35740347158E-01  0.35744000000E-01  0.51099999109E-03 0. -1.
       22    1    1    2    0    0 -0.42268195254E-02  0.17546378823E-02 -0.35442754231E-01  0.35737005818E-01  0.00000000000E+00 0. -1.
  9000001    1    1    2    0    0  0.42268195254E-02 -0.17546378823E-02  0.35442754231E-01  0.35750994182E-01  0.10000000475E-02 0.  1.
</event>
<event>
 4   0  0.4892667E-02  0.9118800E+02  0.7818609E-02  0.1379984E+01
      -11   -1    0    0    0    0  0.00000000000E+00  0.00000000000E+00  0.35740347158E-01  0.35744000000E-01  0.51099999109E-03 0. -1.
       11   -1    0    0    0    0 -0.00000000000E+00 -0.00000000000E+00 -0.35740347158E-01  0.35744000000E-01  0.51099999109E-03 0.  1.
       22    1    1    2    0    0 -0.50681798630E-02  0.16112338066E-02  0.35339086906E-01  0.35737005818E-01  0.00000000000E+00 0. -1.
  9000001    1    1    2    0    0  0.50681798630E-02 -0.16112338066E-02 -0.35339086906E-01  0.35750994182E-01  0.10000000475E-02 0.  1.
</event>
<event>
 4   0  0.4892667E-02  0.9118800E+02  0.7818609E-02  0.1379984E+01
      -11   -1    0    0    0    0  0.00000000000E+00  0.00000000000E+00  0.35740347158E-01  0.35744000000E-01  0.51099999109E-03 0. -1.
       11   -1    0    0    0    0 -0.00000000000E+00 -0.00000000000E+00 -0.35740347158E-01  0.35744000000E-01  0.51099999109E-03 0.  1.
       22    1    1    2    0    0  0.24504465741E-01 -0.25008103045E-01 -0.71595758047E-02  0.35737005818E-01  0.00000000000E+00 0.  1.
  9000001    1    1    2    0    0 -0.24504465741E-01  0.25008103045E-01  0.71595758047E-02  0.35750994182E-01  0.10000000475E-02 0. -1.
</event>
<event>
 4   0  0.4892667E-02  0.9118800E+02  0.7818609E-02  0.1379984E+01
      -11   -1    0    0    0    0  0.00000000000E+00  0.00000000000E+00  0.35740347158E-01  0.35744000000E-01  0.51099999109E-03 0.  1.
       11   -1    0    0    0    0 -0.00000000000E+00 -0.00000000000E+00 -0.35740347158E-01  0.35744000000E-01  0.51099999109E-03 0. -1.
       22    1    1    2    0    0  0.33380358727E-01 -0.12736288650E-01  0.81987043010E-03  0.35737005818E-01  0.00000000000E+00 0.  1.
  9000001    1    1    2    0    0 -0.33380358727E-01  0.12736288650E-01 -0.81987043010E-03  0.35750994182E-01  0.10000000475E-02 0. -1.
</event>
<event>
 4   0  0.4892667E-02  0.9118800E+02  0.7818609E-02  0.1379984E+01
      -11   -1    0    0    0    0  0.00000000000E+00  0.00000000000E+00  0.35740347158E-01  0.35744000000E-01  0.51099999109E-03 0.  1.
       11   -1    0    0    0    0 -0.00000000000E+00 -0.00000000000E+00 -0.35740347158E-01  0.35744000000E-01  0.51099999109E-03 0. -1.
       22    1    1    2    0    0  0.40244037902E-02 -0.28767743419E-02 -0.35392964391E-01  0.35737005818E-01  0.00000000000E+00 0. -1.
  9000001    1    1    2    0    0 -0.40244037902E-02  0.28767743419E-02  0.35392964391E-01  0.35750994182E-01  0.10000000475E-02 0.  1.
</event>
<event>
 4   0  0.4892667E-02  0.9118800E+02  0.7818609E-02  0.1379984E+01
      -11   -1    0    0    0    0  0.00000000000E+00  0.00000000000E+00  0.35740347158E-01  0.35744000000E-01  0.51099999109E-03 0.  1.
       11   -1    0    0    0    0 -0.00000000000E+00 -0.00000000000E+00 -0.35740347158E-01  0.35744000000E-01  0.51099999109E-03 0. -1.
       22    1    1    2    0    0  0.42143632840E-02  0.30053664496E-02  0.35360154121E-01  0.35737005818E-01  0.00000000000E+00 0.  1.
  9000001    1    1    2    0    0 -0.42143632840E-02 -0.30053664496E-02 -0.35360154121E-01  0.35750994182E-01  0.10000000475E-02 0. -1.
</event>
<event>
 4   0  0.4892667E-02  0.9118800E+02  0.7818609E-02  0.1379984E+01
      -11   -1    0    0    0    0  0.00000000000E+00  0.00000000000E+00  0.35740347158E-01  0.35744000000E-01  0.51099999109E-03 0.  1.
       11   -1    0    0    0    0 -0.00000000000E+00 -0.00000000000E+00 -0.35740347158E-01  0.35744000000E-01  0.51099999109E-03 0. -1.
       22    1    1    2    0    0 -0.34069290341E-02  0.25493938302E-02  0.35482770615E-01  0.35737005818E-01  0.00000000000E+00 0.  1.
  9000001    1    1    2    0    0  0.34069290341E-02 -0.25493938302E-02 -0.35482770615E-01  0.35750994182E-01  0.10000000475E-02 0. -1.
</event>
<event>
 4   0  0.4892667E-02  0.9118800E+02  0.7818609E-02  0.1379984E+01
      -11   -1    0    0    0    0  0.00000000000E+00  0.00000000000E+00  0.35740347158E-01  0.35744000000E-01  0.51099999109E-03 0. -1.
       11   -1    0    0    0    0 -0.00000000000E+00 -0.00000000000E+00 -0.35740347158E-01  0.35744000000E-01  0.51099999109E-03 0.  1.
       22    1    1    2    0    0  0.48407047349E-02 -0.37339691308E-02  0.35210206433E-01  0.35737005818E-01  0.00000000000E+00 0. -1.
  9000001    1    1    2    0    0 -0.48407047349E-02  0.37339691308E-02 -0.35210206433E-01  0.35750994182E-01  0.10000000475E-02 0.  1.
</event>
<event>
 4   0  0.4892667E-02  0.9118800E+02  0.7818609E-02  0.1379984E+01
      -11   -1    0    0    0    0  0.00000000000E+00  0.00000000000E+00  0.35740347158E-01  0.35744000000E-01  0.51099999109E-03 0. -1.
       11   -1    0    0    0    0 -0.00000000000E+00 -0.00000000000E+00 -0.35740347158E-01  0.35744000000E-01  0.51099999109E-03 0.  1.
       22    1    1    2    0    0 -0.97407971563E-02 -0.10032485873E-01  0.32887682844E-01  0.35737005818E-01  0.00000000000E+00 0. -1.
  9000001    1    1    2    0    0  0.97407971563E-02  0.10032485873E-01 -0.32887682844E-01  0.35750994182E-01  0.10000000475E-02 0.  1.
</event>
<event>
 4   0  0.4892667E-02  0.9118800E+02  0.7818609E-02  0.1379984E+01
      -11   -1    0    0    0    0  0.00000000000E+00  0.00000000000E+00  0.35740347158E-01  0.35744000000E-01  0.51099999109E-03 0.  1.
       11   -1    0    0    0    0 -0.00000000000E+00 -0.00000000000E+00 -0.35740347158E-01  0.35744000000E-01  0.51099999109E-03 0. -1.
       22    1    1    2    0    0  0.31860047255E-02  0.68520149417E-02 -0.34928968636E-01  0.35737005818E-01  0.00000000000E+00 0. -1.
  9000001    1    1    2    0    0 -0.31860047255E-02 -0.68520149417E-02  0.34928968636E-01  0.35750994182E-01  0.10000000475E-02 0.  1.
</event>
<event>
 4   0  0.4892667E-02  0.9118800E+02  0.7818609E-02  0.1379984E+01
      -11   -1    0    0    0    0  0.00000000000E+00  0.00000000000E+00  0.35740347158E-01  0.35744000000E-01  0.51099999109E-03 0.  1.
       11   -1    0    0    0    0 -0.00000000000E+00 -0.00000000000E+00 -0.35740347158E-01  0.35744000000E-01  0.51099999109E-03 0. -1.
       22    1    1    2    0    0 -0.22524461635E-01 -0.29293511653E-02  0.27589873408E-01  0.35737005818E-01  0.00000000000E+00 0.  1.
  9000001    1    1    2    0    0  0.22524461635E-01  0.29293511653E-02 -0.27589873408E-01  0.35750994182E-01  0.10000000475E-02 0. -1.
</event>
<event>
 4   0  0.4892667E-02  0.9118800E+02  0.7818609E-02  0.1379984E+01
      -11   -1    0    0    0    0  0.00000000000E+00  0.00000000000E+00  0.35740347158E-01  0.35744000000E-01  0.51099999109E-03 0. -1.
       11   -1    0    0    0    0 -0.00000000000E+00 -0.00000000000E+00 -0.35740347158E-01  0.35744000000E-01  0.51099999109E-03 0.  1.
       22    1    1    2    0    0 -0.45307404130E-02 -0.81851825440E-02 -0.34490705457E-01  0.35737005818E-01  0.00000000000E+00 0.  1.
  9000001    1    1    2    0    0  0.45307404130E-02  0.81851825440E-02  0.34490705457E-01  0.35750994182E-01  0.10000000475E-02 0. -1.
</event>
<event>
 4   0  0.4892667E-02  0.9118800E+02  0.7818609E-02  0.1379984E+01
      -11   -1    0    0    0    0  0.00000000000E+00  0.00000000000E+00  0.35740347158E-01  0.35744000000E-01  0.51099999109E-03 0.  1.
       11   -1    0    0    0    0 -0.00000000000E+00 -0.00000000000E+00 -0.35740347158E-01  0.35744000000E-01  0.51099999109E-03 0. -1.
       22    1    1    2    0    0 -0.92914795754E-03  0.11439888502E-01 -0.33843747133E-01  0.35737005818E-01  0.00000000000E+00 0. -1.
  9000001    1    1    2    0    0  0.92914795754E-03 -0.11439888502E-01  0.33843747133E-01  0.35750994182E-01  0.10000000475E-02 0.  1.
</event>
<event>
 4   0  0.4892667E-02  0.9118800E+02  0.7818609E-02  0.1379984E+01
      -11   -1    0    0    0    0  0.00000000000E+00  0.00000000000E+00  0.35740347158E-01  0.35744000000E-01  0.51099999109E-03 0.  1.
       11   -1    0    0    0    0 -0.00000000000E+00 -0.00000000000E+00 -0.35740347158E-01  0.35744000000E-01  0.51099999109E-03 0. -1.
       22    1    1    2    0    0 -0.89601687705E-02 -0.84852822315E-03  0.34585097373E-01  0.35737005818E-01  0.00000000000E+00 0.  1.
  9000001    1    1    2    0    0  0.89601687705E-02  0.84852822315E-03 -0.34585097373E-01  0.35750994182E-01  0.10000000475E-02 0. -1.
</event>
<event>
 4   0  0.4892667E-02  0.9118800E+02  0.7818609E-02  0.1379984E+01
      -11   -1    0    0    0    0  0.00000000000E+00  0.00000000000E+00  0.35740347158E-01  0.35744000000E-01  0.51099999109E-03 0. -1.
       11   -1    0    0    0    0 -0.00000000000E+00 -0.00000000000E+00 -0.35740347158E-01  0.35744000000E-01  0.51099999109E-03 0.  1.
       22    1    1    2    0    0 -0.42751401285E-02  0.64300418756E-02  0.34892854902E-01  0.35737005818E-01  0.00000000000E+00 0. -1.
  9000001    1    1    2    0    0  0.42751401285E-02 -0.64300418756E-02 -0.34892854902E-01  0.35750994182E-01  0.10000000475E-02 0.  1.
</event>
<event>
 4   0  0.4892667E-02  0.9118800E+02  0.7818609E-02  0.1379984E+01
      -11   -1    0    0    0    0  0.00000000000E+00  0.00000000000E+00  0.35740347158E-01  0.35744000000E-01  0.51099999109E-03 0.  1.
       11   -1    0    0    0    0 -0.00000000000E+00 -0.00000000000E+00 -0.35740347158E-01  0.35744000000E-01  0.51099999109E-03 0. -1.
       22    1    1    2    0    0  0.21366329090E-01 -0.20888401947E-01 -0.19603270905E-01  0.35737005818E-01  0.00000000000E+00 0. -1.
  9000001    1    1    2    0    0 -0.21366329090E-01  0.20888401947E-01  0.19603270905E-01  0.35750994182E-01  0.10000000475E-02 0.  1.
</event>
<event>
 4   0  0.4892667E-02  0.9118800E+02  0.7818609E-02  0.1379984E+01
      -11   -1    0    0    0    0  0.00000000000E+00  0.00000000000E+00  0.35740347158E-01  0.35744000000E-01  0.51099999109E-03 0.  1.
       11   -1    0    0    0    0 -0.00000000000E+00 -0.00000000000E+00 -0.35740347158E-01  0.35744000000E-01  0.51099999109E-03 0. -1.
       22    1    1    2    0    0 -0.14413263297E-02 -0.51877090806E-02  0.35329079209E-01  0.35737005818E-01  0.00000000000E+00 0.  1.
  9000001    1    1    2    0    0  0.14413263297E-02  0.51877090806E-02 -0.35329079209E-01  0.35750994182E-01  0.10000000475E-02 0. -1.
</event>
<event>
 4   0  0.4892667E-02  0.9118800E+02  0.7818609E-02  0.1379984E+01
      -11   -1    0    0    0    0  0.00000000000E+00  0.00000000000E+00  0.35740347158E-01  0.35744000000E-01  0.51099999109E-03 0.  1.
       11   -1    0    0    0    0 -0.00000000000E+00 -0.00000000000E+00 -0.35740347158E-01  0.35744000000E-01  0.51099999109E-03 0. -1.
       22    1    1    2    0    0 -0.15895399971E-02  0.10743738043E-01 -0.34046718496E-01  0.35737005818E-01  0.00000000000E+00 0. -1.
  9000001    1    1    2    0    0  0.15895399971E-02 -0.10743738043E-01  0.34046718496E-01  0.35750994182E-01  0.10000000475E-02 0.  1.
</event>
<event>
 4   0  0.4892667E-02  0.9118800E+02  0.7818609E-02  0.1379984E+01
      -11   -1    0    0    0    0  0.00000000000E+00  0.00000000000E+00  0.35740347158E-01  0.35744000000E-01  0.51099999109E-03 0.  1.
       11   -1    0    0    0    0 -0.00000000000E+00 -0.00000000000E+00 -0.35740347158E-01  0.35744000000E-01  0.51099999109E-03 0. -1.
       22    1    1    2    0    0 -0.79184235935E-03 -0.11623162906E-01  0.33784739966E-01  0.35737005818E-01  0.00000000000E+00 0.  1.
  9000001    1    1    2    0    0  0.79184235935E-03  0.11623162906E-01 -0.33784739966E-01  0.35750994182E-01  0.10000000475E-02 0. -1.
</event>
<event>
 4   0  0.4892667E-02  0.9118800E+02  0.7818609E-02  0.1379984E+01
      -11   -1    0    0    0    0  0.00000000000E+00  0.00000000000E+00  0.35740347158E-01  0.35744000000E-01  0.51099999109E-03 0. -1.
       11   -1    0    0    0    0 -0.00000000000E+00 -0.00000000000E+00 -0.35740347158E-01  0.35744000000E-01  0.51099999109E-03 0.  1.
       22    1    1    2    0    0  0.31246790260E-02  0.17998586428E-01  0.30715156722E-01  0.35737005818E-01  0.00000000000E+00 0. -1.
  9000001    1    1    2    0    0 -0.31246790260E-02 -0.17998586428E-01 -0.30715156722E-01  0.35750994182E-01  0.10000000475E-02 0.  1.
</event>
<event>
 4   0  0.4892667E-02  0.9118800E+02  0.7818609E-02  0.1379984E+01
      -11   -1    0    0    0    0  0.00000000000E+00  0.00000000000E+00  0.35740347158E-01  0.35744000000E-01  0.51099999109E-03 0. -1.
       11   -1    0    0    0    0 -0.00000000000E+00 -0.00000000000E+00 -0.35740347158E-01  0.35744000000E-01  0.51099999109E-03 0.  1.
       22    1    1    2    0    0  0.24371979300E-01  0.10680888020E-01  0.23854954223E-01  0.35737005818E-01  0.00000000000E+00 0. -1.
  9000001    1    1    2    0    0 -0.24371979300E-01 -0.10680888020E-01 -0.23854954223E-01  0.35750994182E-01  0.10000000475E-02 0.  1.
</event>
<event>
 4   0  0.4892667E-02  0.9118800E+02  0.7818609E-02  0.1379984E+01
      -11   -1    0    0    0    0  0.00000000000E+00  0.00000000000E+00  0.35740347158E-01  0.35744000000E-01  0.51099999109E-03 0.  1.
       11   -1    0    0    0    0 -0.00000000000E+00 -0.00000000000E+00 -0.35740347158E-01  0.35744000000E-01  0.51099999109E-03 0. -1.
       22    1    1    2    0    0  0.55896011266E-02 -0.84346475763E-03  0.35287087034E-01  0.35737005818E-01  0.00000000000E+00 0.  1.
  9000001    1    1    2    0    0 -0.55896011266E-02  0.84346475763E-03 -0.35287087034E-01  0.35750994182E-01  0.10000000475E-02 0. -1.
</event>
<event>
 4   0  0.4892667E-02  0.9118800E+02  0.7818609E-02  0.1379984E+01
      -11   -1    0    0    0    0  0.00000000000E+00  0.00000000000E+00  0.35740347158E-01  0.35744000000E-01  0.51099999109E-03 0.  1.
       11   -1    0    0    0    0 -0.00000000000E+00 -0.00000000000E+00 -0.35740347158E-01  0.35744000000E-01  0.51099999109E-03 0. -1.
       22    1    1    2    0    0  0.59900360078E-02  0.42044658074E-02  0.34979644377E-01  0.35737005818E-01  0.00000000000E+00 0.  1.
  9000001    1    1    2    0    0 -0.59900360078E-02 -0.42044658074E-02 -0.34979644377E-01  0.35750994182E-01  0.10000000475E-02 0. -1.
</event>
<event>
 4   0  0.4892667E-02  0.9118800E+02  0.7818609E-02  0.1379984E+01
      -11   -1    0    0    0    0  0.00000000000E+00  0.00000000000E+00  0.35740347158E-01  0.35744000000E-01  0.51099999109E-03 0. -1.
       11   -1    0    0    0    0 -0.00000000000E+00 -0.00000000000E+00 -0.35740347158E-01  0.35744000000E-01  0.51099999109E-03 0.  1.
       22    1    1    2    0    0 -0.10873619807E-01  0.14332887660E-01  0.30878249764E-01  0.35737005818E-01  0.00000000000E+00 0. -1.
  9000001    1    1    2    0    0  0.10873619807E-01 -0.14332887660E-01 -0.30878249764E-01  0.35750994182E-01  0.10000000475E-02 0.  1.
</event>
<event>
 4   0  0.4892667E-02  0.9118800E+02  0.7818609E-02  0.1379984E+01
      -11   -1    0    0    0    0  0.00000000000E+00  0.00000000000E+00  0.35740347158E-01  0.35744000000E-01  0.51099999109E-03 0. -1.
       11   -1    0    0    0    0 -0.00000000000E+00 -0.00000000000E+00 -0.35740347158E-01  0.35744000000E-01  0.51099999109E-03 0.  1.
       22    1    1    2    0    0  0.14310972231E-01 -0.27128376320E-02 -0.32633880717E-01  0.35737005818E-01  0.00000000000E+00 0.  1.
  9000001    1    1    2    0    0 -0.14310972231E-01  0.27128376320E-02  0.32633880717E-01  0.35750994182E-01  0.10000000475E-02 0. -1.
</event>
<event>
 4   0  0.4892667E-02  0.9118800E+02  0.7818609E-02  0.1379984E+01
      -11   -1    0    0    0    0  0.00000000000E+00  0.00000000000E+00  0.35740347158E-01  0.35744000000E-01  0.51099999109E-03 0.  1.
       11   -1    0    0    0    0 -0.00000000000E+00 -0.00000000000E+00 -0.35740347158E-01  0.35744000000E-01  0.51099999109E-03 0. -1.
       22    1    1    2    0    0 -0.87446844668E-02  0.17786232153E-02  0.34604921296E-01  0.35737005818E-01  0.00000000000E+00 0.  1.
  9000001    1    1    2    0    0  0.87446844668E-02 -0.17786232153E-02 -0.34604921296E-01  0.35750994182E-01  0.10000000475E-02 0. -1.
</event>
<event>
 4   0  0.4892667E-02  0.9118800E+02  0.7818609E-02  0.1379984E+01
      -11   -1    0    0    0    0  0.00000000000E+00  0.00000000000E+00  0.35740347158E-01  0.35744000000E-01  0.51099999109E-03 0. -1.
       11   -1    0    0    0    0 -0.00000000000E+00 -0.00000000000E+00 -0.35740347158E-01  0.35744000000E-01  0.51099999109E-03 0.  1.
       22    1    1    2    0    0  0.12569779681E-01  0.36443120271E-03  0.33451478496E-01  0.35737005818E-01  0.00000000000E+00 0. -1.
  9000001    1    1    2    0    0 -0.12569779681E-01 -0.36443120271E-03 -0.33451478496E-01  0.35750994182E-01  0.10000000475E-02 0.  1.
</event>
<event>
 4   0  0.4892667E-02  0.9118800E+02  0.7818609E-02  0.1379984E+01
      -11   -1    0    0    0    0  0.00000000000E+00  0.00000000000E+00  0.35740347158E-01  0.35744000000E-01  0.51099999109E-03 0. -1.
       11   -1    0    0    0    0 -0.00000000000E+00 -0.00000000000E+00 -0.35740347158E-01  0.35744000000E-01  0.51099999109E-03 0.  1.
       22    1    1    2    0    0 -0.24617052080E-01  0.15237497637E-01 -0.20951205156E-01  0.35737005818E-01  0.00000000000E+00 0. -1.
  9000001    1    1    2    0    0  0.24617052080E-01 -0.15237497637E-01  0.20951205156E-01  0.35750994182E-01  0.10000000475E-02 0.  1.
</event>
<event>
 4   0  0.4892667E-02  0.9118800E+02  0.7818609E-02  0.1379984E+01
      -11   -1    0    0    0    0  0.00000000000E+00  0.00000000000E+00  0.35740347158E-01  0.35744000000E-01  0.51099999109E-03 0. -1.
       11   -1    0    0    0    0 -0.00000000000E+00 -0.00000000000E+00 -0.35740347158E-01  0.35744000000E-01  0.51099999109E-03 0.  1.
       22    1    1    2    0    0 -0.79490622966E-02 -0.14379678896E-01 -0.31735954820E-01  0.35737005818E-01  0.00000000000E+00 0.  1.
  9000001    1    1    2    0    0  0.79490622966E-02  0.14379678896E-01  0.31735954820E-01  0.35750994182E-01  0.10000000475E-02 0. -1.
</event>
<event>
 4   0  0.4892667E-02  0.9118800E+02  0.7818609E-02  0.1379984E+01
      -11   -1    0    0    0    0  0.00000000000E+00  0.00000000000E+00  0.35740347158E-01  0.35744000000E-01  0.51099999109E-03 0. -1.
       11   -1    0    0    0    0 -0.00000000000E+00 -0.00000000000E+00 -0.35740347158E-01  0.35744000000E-01  0.51099999109E-03 0.  1.
       22    1    1    2    0    0 -0.10347905030E-02 -0.43199357270E-02  0.35459849814E-01  0.35737005818E-01  0.00000000000E+00 0. -1.
  9000001    1    1    2    0    0  0.10347905030E-02  0.43199357270E-02 -0.35459849814E-01  0.35750994182E-01  0.10000000475E-02 0.  1.
</event>
<event>
 4   0  0.4892667E-02  0.9118800E+02  0.7818609E-02  0.1379984E+01
      -11   -1    0    0    0    0  0.00000000000E+00  0.00000000000E+00  0.35740347158E-01  0.35744000000E-01  0.51099999109E-03 0.  1.
       11   -1    0    0    0    0 -0.00000000000E+00 -0.00000000000E+00 -0.35740347158E-01  0.35744000000E-01  0.51099999109E-03 0. -1.
       22    1    1    2    0    0  0.96597938201E-02  0.16174212383E-01 -0.30368023018E-01  0.35737005818E-01  0.00000000000E+00 0. -1.
  9000001    1    1    2    0    0 -0.96597938201E-02 -0.16174212383E-01  0.30368023018E-01  0.35750994182E-01  0.10000000475E-02 0.  1.
</event>
<event>
 4   0  0.4892667E-02  0.9118800E+02  0.7818609E-02  0.1379984E+01
      -11   -1    0    0    0    0  0.00000000000E+00  0.00000000000E+00  0.35740347158E-01  0.35744000000E-01  0.51099999109E-03 0.  1.
       11   -1    0    0    0    0 -0.00000000000E+00 -0.00000000000E+00 -0.35740347158E-01  0.35744000000E-01  0.51099999109E-03 0. -1.
       22    1    1    2    0    0 -0.27213371902E-01  0.32107118295E-02 -0.22940298693E-01  0.35737005818E-01  0.00000000000E+00 0. -1.
  9000001    1    1    2    0    0  0.27213371902E-01 -0.32107118295E-02  0.22940298693E-01  0.35750994182E-01  0.10000000475E-02 0.  1.
</event>
<event>
 4   0  0.4892667E-02  0.9118800E+02  0.7818609E-02  0.1379984E+01
      -11   -1    0    0    0    0  0.00000000000E+00  0.00000000000E+00  0.35740347158E-01  0.35744000000E-01  0.51099999109E-03 0.  1.
       11   -1    0    0    0    0 -0.00000000000E+00 -0.00000000000E+00 -0.35740347158E-01  0.35744000000E-01  0.51099999109E-03 0. -1.
       22    1    1    2    0    0 -0.14824562155E-02  0.66059048224E-02  0.35089855085E-01  0.35737005818E-01  0.00000000000E+00 0.  1.
  9000001    1    1    2    0    0  0.14824562155E-02 -0.66059048224E-02 -0.35089855085E-01  0.35750994182E-01  0.10000000475E-02 0. -1.
</event>
<event>
 4   0  0.4892667E-02  0.9118800E+02  0.7818609E-02  0.1379984E+01
      -11   -1    0    0    0    0  0.00000000000E+00  0.00000000000E+00  0.35740347158E-01  0.35744000000E-01  0.51099999109E-03 0. -1.
       11   -1    0    0    0    0 -0.00000000000E+00 -0.00000000000E+00 -0.35740347158E-01  0.35744000000E-01  0.51099999109E-03 0.  1.
       22    1    1    2    0    0  0.18877925868E-02 -0.30651848701E-02 -0.35555231201E-01  0.35737005818E-01  0.00000000000E+00 0.  1.
  9000001    1    1    2    0    0 -0.18877925868E-02  0.30651848701E-02  0.35555231201E-01  0.35750994182E-01  0.10000000475E-02 0. -1.
</event>
<event>
 4   0  0.4892667E-02  0.9118800E+02  0.7818609E-02  0.1379984E+01
      -11   -1    0    0    0    0  0.00000000000E+00  0.00000000000E+00  0.35740347158E-01  0.35744000000E-01  0.51099999109E-03 0. -1.
       11   -1    0    0    0    0 -0.00000000000E+00 -0.00000000000E+00 -0.35740347158E-01  0.35744000000E-01  0.51099999109E-03 0.  1.
       22    1    1    2    0    0 -0.69585799147E-02  0.21113513289E-01  0.27980909689E-01  0.35737005818E-01  0.00000000000E+00 0. -1.
  9000001    1    1    2    0    0  0.69585799147E-02 -0.21113513289E-01 -0.27980909689E-01  0.35750994182E-01  0.10000000475E-02 0.  1.
</event>
<event>
 4   0  0.4892667E-02  0.9118800E+02  0.7818609E-02  0.1379984E+01
      -11   -1    0    0    0    0  0.00000000000E+00  0.00000000000E+00  0.35740347158E-01  0.35744000000E-01  0.51099999109E-03 0.  1.
       11   -1    0    0    0    0 -0.00000000000E+00 -0.00000000000E+00 -0.35740347158E-01  0.35744000000E-01  0.51099999109E-03 0. -1.
       22    1    1    2    0    0 -0.43739569130E-02  0.34810384214E-01 -0.67999438719E-02  0.35737005818E-01  0.00000000000E+00 0. -1.
  9000001    1    1    2    0    0  0.43739569130E-02 -0.34810384214E-01  0.67999438719E-02  0.35750994182E-01  0.10000000475E-02 0.  1.
</event>
<event>
 4   0  0.4892667E-02  0.9118800E+02  0.7818609E-02  0.1379984E+01
      -11   -1    0    0    0    0  0.00000000000E+00  0.00000000000E+00  0.35740347158E-01  0.35744000000E-01  0.51099999109E-03 0.  1.
       11   -1    0    0    0    0 -0.00000000000E+00 -0.00000000000E+00 -0.35740347158E-01  0.35744000000E-01  0.51099999109E-03 0. -1.
       22    1    1    2    0    0 -0.36905110604E-02 -0.36692356056E-02  0.35356052142E-01  0.35737005818E-01  0.00000000000E+00 0.  1.
  9000001    1    1    2    0    0  0.36905110604E-02  0.36692356056E-02 -0.35356052142E-01  0.35750994182E-01  0.10000000475E-02 0. -1.
</event>
<event>
 4   0  0.4892667E-02  0.9118800E+02  0.7818609E-02  0.1379984E+01
      -11   -1    0    0    0    0  0.00000000000E+00  0.00000000000E+00  0.35740347158E-01  0.35744000000E-01  0.51099999109E-03 0.  1.
       11   -1    0    0    0    0 -0.00000000000E+00 -0.00000000000E+00 -0.35740347158E-01  0.35744000000E-01  0.51099999109E-03 0. -1.
       22    1    1    2    0    0 -0.66574712076E-02 -0.13468463464E-02  0.35085576337E-01  0.35737005818E-01  0.00000000000E+00 0.  1.
  9000001    1    1    2    0    0  0.66574712076E-02  0.13468463464E-02 -0.35085576337E-01  0.35750994182E-01  0.10000000475E-02 0. -1.
</event>
<event>
 4   0  0.4892667E-02  0.9118800E+02  0.7818609E-02  0.1379984E+01
      -11   -1    0    0    0    0  0.00000000000E+00  0.00000000000E+00  0.35740347158E-01  0.35744000000E-01  0.51099999109E-03 0. -1.
       11   -1    0    0    0    0 -0.00000000000E+00 -0.00000000000E+00 -0.35740347158E-01  0.35744000000E-01  0.51099999109E-03 0.  1.
       22    1    1    2    0    0 -0.24496210348E-02 -0.13908875541E-01  0.32827977745E-01  0.35737005818E-01  0.00000000000E+00 0. -1.
  9000001    1    1    2    0    0  0.24496210348E-02  0.13908875541E-01 -0.32827977745E-01  0.35750994182E-01  0.10000000475E-02 0.  1.
</event>
<event>
 4   0  0.4892667E-02  0.9118800E+02  0.7818609E-02  0.1379984E+01
      -11   -1    0    0    0    0  0.00000000000E+00  0.00000000000E+00  0.35740347158E-01  0.35744000000E-01  0.51099999109E-03 0.  1.
       11   -1    0    0    0    0 -0.00000000000E+00 -0.00000000000E+00 -0.35740347158E-01  0.35744000000E-01  0.51099999109E-03 0. -1.
       22    1    1    2    0    0  0.22215656623E-01  0.27992430902E-01  0.14831676881E-03  0.35737005818E-01  0.00000000000E+00 0. -1.
  9000001    1    1    2    0    0 -0.22215656623E-01 -0.27992430902E-01 -0.14831676881E-03  0.35750994182E-01  0.10000000475E-02 0.  1.
</event>
<event>
 4   0  0.4892667E-02  0.9118800E+02  0.7818609E-02  0.1379984E+01
      -11   -1    0    0    0    0  0.00000000000E+00  0.00000000000E+00  0.35740347158E-01  0.35744000000E-01  0.51099999109E-03 0.  1.
       11   -1    0    0    0    0 -0.00000000000E+00 -0.00000000000E+00 -0.35740347158E-01  0.35744000000E-01  0.51099999109E-03 0. -1.
       22    1    1    2    0    0 -0.38834594598E-02 -0.59221516309E-02  0.35028280682E-01  0.35737005818E-01  0.00000000000E+00 0.  1.
  9000001    1    1    2    0    0  0.38834594598E-02  0.59221516309E-02 -0.35028280682E-01  0.35750994182E-01  0.10000000475E-02 0. -1.
</event>
<event>
 4   0  0.4892667E-02  0.9118800E+02  0.7818609E-02  0.1379984E+01
      -11   -1    0    0    0    0  0.00000000000E+00  0.00000000000E+00  0.35740347158E-01  0.35744000000E-01  0.51099999109E-03 0.  1.
       11   -1    0    0    0    0 -0.00000000000E+00 -0.00000000000E+00 -0.35740347158E-01  0.35744000000E-01  0.51099999109E-03 0. -1.
       22    1    1    2    0    0  0.31351426757E-01 -0.16844603420E-01 -0.32374312046E-02  0.35737005818E-01  0.00000000000E+00 0.  1.
  9000001    1    1    2    0    0 -0.31351426757E-01  0.16844603420E-01  0.32374312046E-02  0.35750994182E-01  0.10000000475E-02 0. -1.
</event>
<event>
 4   0  0.4892667E-02  0.9118800E+02  0.7818609E-02  0.1379984E+01
      -11   -1    0    0    0    0  0.00000000000E+00  0.00000000000E+00  0.35740347158E-01  0.35744000000E-01  0.51099999109E-03 0.  1.
       11   -1    0    0    0    0 -0.00000000000E+00 -0.00000000000E+00 -0.35740347158E-01  0.35744000000E-01  0.51099999109E-03 0. -1.
       22    1    1    2    0    0 -0.11199028997E-01  0.17565941699E-02  0.33891440089E-01  0.35737005818E-01  0.00000000000E+00 0.  1.
  9000001    1    1    2    0    0  0.11199028997E-01 -0.17565941699E-02 -0.33891440089E-01  0.35750994182E-01  0.10000000475E-02 0. -1.
</event>
<event>
 4   0  0.4892667E-02  0.9118800E+02  0.7818609E-02  0.1379984E+01
      -11   -1    0    0    0    0  0.00000000000E+00  0.00000000000E+00  0.35740347158E-01  0.35744000000E-01  0.51099999109E-03 0.  1.
       11   -1    0    0    0    0 -0.00000000000E+00 -0.00000000000E+00 -0.35740347158E-01  0.35744000000E-01  0.51099999109E-03 0. -1.
       22    1    1    2    0    0 -0.32369988545E-02 -0.41921339626E-03 -0.35587633855E-01  0.35737005818E-01  0.00000000000E+00 0. -1.
  9000001    1    1    2    0    0  0.32369988545E-02  0.41921339626E-03  0.35587633855E-01  0.35750994182E-01  0.10000000475E-02 0.  1.
</event>
<event>
 4   0  0.4892667E-02  0.9118800E+02  0.7818609E-02  0.1379984E+01
      -11   -1    0    0    0    0  0.00000000000E+00  0.00000000000E+00  0.35740347158E-01  0.35744000000E-01  0.51099999109E-03 0. -1.
       11   -1    0    0    0    0 -0.00000000000E+00 -0.00000000000E+00 -0.35740347158E-01  0.35744000000E-01  0.51099999109E-03 0.  1.
       22    1    1    2    0    0  0.40879754806E-02  0.76013477157E-02 -0.34679122743E-01  0.35737005818E-01  0.00000000000E+00 0.  1.
  9000001    1    1    2    0    0 -0.40879754806E-02 -0.76013477157E-02  0.34679122743E-01  0.35750994182E-01  0.10000000475E-02 0. -1.
</event>
<event>
 4   0  0.4892667E-02  0.9118800E+02  0.7818609E-02  0.1379984E+01
      -11   -1    0    0    0    0  0.00000000000E+00  0.00000000000E+00  0.35740347158E-01  0.35744000000E-01  0.51099999109E-03 0.  1.
       11   -1    0    0    0    0 -0.00000000000E+00 -0.00000000000E+00 -0.35740347158E-01  0.35744000000E-01  0.51099999109E-03 0. -1.
       22    1    1    2    0    0 -0.52455918544E-02 -0.40742247432E-02  0.35114356661E-01  0.35737005818E-01  0.00000000000E+00 0.  1.
  9000001    1    1    2    0    0  0.52455918544E-02  0.40742247432E-02 -0.35114356661E-01  0.35750994182E-01  0.10000000475E-02 0. -1.
</event>
<event>
 4   0  0.4892667E-02  0.9118800E+02  0.7818609E-02  0.1379984E+01
      -11   -1    0    0    0    0  0.00000000000E+00  0.00000000000E+00  0.35740347158E-01  0.35744000000E-01  0.51099999109E-03 0. -1.
       11   -1    0    0    0    0 -0.00000000000E+00 -0.00000000000E+00 -0.35740347158E-01  0.35744000000E-01  0.51099999109E-03 0.  1.
       22    1    1    2    0    0  0.65893700812E-02 -0.16222982228E-03 -0.35123887431E-01  0.35737005818E-01  0.00000000000E+00 0.  1.
  9000001    1    1    2    0    0 -0.65893700812E-02  0.16222982228E-03  0.35123887431E-01  0.35750994182E-01  0.10000000475E-02 0. -1.
</event>
<event>
 4   0  0.4892667E-02  0.9118800E+02  0.7818609E-02  0.1379984E+01
      -11   -1    0    0    0    0  0.00000000000E+00  0.00000000000E+00  0.35740347158E-01  0.35744000000E-01  0.51099999109E-03 0.  1.
       11   -1    0    0    0    0 -0.00000000000E+00 -0.00000000000E+00 -0.35740347158E-01  0.35744000000E-01  0.51099999109E-03 0. -1.
       22    1    1    2    0    0 -0.47097812865E-02 -0.48430639501E-03 -0.35421984592E-01  0.35737005818E-01  0.00000000000E+00 0. -1.
  9000001    1    1    2    0    0  0.47097812865E-02  0.48430639501E-03  0.35421984592E-01  0.35750994182E-01  0.10000000475E-02 0.  1.
</event>
<event>
 4   0  0.4892667E-02  0.9118800E+02  0.7818609E-02  0.1379984E+01
      -11   -1    0    0    0    0  0.00000000000E+00  0.00000000000E+00  0.35740347158E-01  0.35744000000E-01  0.51099999109E-03 0.  1.
       11   -1    0    0    0    0 -0.00000000000E+00 -0.00000000000E+00 -0.35740347158E-01  0.35744000000E-01  0.51099999109E-03 0. -1.
       22    1    1    2    0    0  0.19893875714E-01  0.28332969504E-01 -0.88662355621E-02  0.35737005818E-01  0.00000000000E+00 0. -1.
  9000001    1    1    2    0    0 -0.19893875714E-01 -0.28332969504E-01  0.88662355621E-02  0.35750994182E-01  0.10000000475E-02 0.  1.
</event>
<event>
 4   0  0.4892667E-02  0.9118800E+02  0.7818609E-02  0.1379984E+01
      -11   -1    0    0    0    0  0.00000000000E+00  0.00000000000E+00  0.35740347158E-01  0.35744000000E-01  0.51099999109E-03 0. -1.
       11   -1    0    0    0    0 -0.00000000000E+00 -0.00000000000E+00 -0.35740347158E-01  0.35744000000E-01  0.51099999109E-03 0.  1.
       22    1    1    2    0    0  0.31228751729E-02 -0.21215152594E-02 -0.35537028696E-01  0.35737005818E-01  0.00000000000E+00 0.  1.
  9000001    1    1    2    0    0 -0.31228751729E-02  0.21215152594E-02  0.35537028696E-01  0.35750994182E-01  0.10000000475E-02 0. -1.
</event>
<event>
 4   0  0.4892667E-02  0.9118800E+02  0.7818609E-02  0.1379984E+01
      -11   -1    0    0    0    0  0.00000000000E+00  0.00000000000E+00  0.35740347158E-01  0.35744000000E-01  0.51099999109E-03 0.  1.
       11   -1    0    0    0    0 -0.00000000000E+00 -0.00000000000E+00 -0.35740347158E-01  0.35744000000E-01  0.51099999109E-03 0. -1.
       22    1    1    2    0    0 -0.97972792349E-02 -0.21732005143E-01  0.26624553648E-01  0.35737005818E-01  0.00000000000E+00 0.  1.
  9000001    1    1    2    0    0  0.97972792349E-02  0.21732005143E-01 -0.26624553648E-01  0.35750994182E-01  0.10000000475E-02 0. -1.
</event>
<event>
 4   0  0.4892667E-02  0.9118800E+02  0.7818609E-02  0.1379984E+01
      -11   -1    0    0    0    0  0.00000000000E+00  0.00000000000E+00  0.35740347158E-01  0.35744000000E-01  0.51099999109E-03 0. -1.
       11   -1    0    0    0    0 -0.00000000000E+00 -0.00000000000E+00 -0.35740347158E-01  0.35744000000E-01  0.51099999109E-03 0.  1.
       22    1    1    2    0    0 -0.91304744603E-02  0.15775085190E-01  0.30739464996E-01  0.35737005818E-01  0.00000000000E+00 0. -1.
  9000001    1    1    2    0    0  0.91304744603E-02 -0.15775085190E-01 -0.30739464996E-01  0.35750994182E-01  0.10000000475E-02 0.  1.
</event>
<event>
 4   0  0.4892667E-02  0.9118800E+02  0.7818609E-02  0.1379984E+01
      -11   -1    0    0    0    0  0.00000000000E+00  0.00000000000E+00  0.35740347158E-01  0.35744000000E-01  0.51099999109E-03 0. -1.
       11   -1    0    0    0    0 -0.00000000000E+00 -0.00000000000E+00 -0.35740347158E-01  0.35744000000E-01  0.51099999109E-03 0.  1.
       22    1    1    2    0    0  0.71061214155E-02  0.90624611061E-02  0.33830584121E-01  0.35737005818E-01  0.00000000000E+00 0. -1.
  9000001    1    1    2    0    0 -0.71061214155E-02 -0.90624611061E-02 -0.33830584121E-01  0.35750994182E-01  0.10000000475E-02 0.  1.
</event>
<event>
 4   0  0.4892667E-02  0.9118800E+02  0.7818609E-02  0.1379984E+01
      -11   -1    0    0    0    0  0.00000000000E+00  0.00000000000E+00  0.35740347158E-01  0.35744000000E-01  0.51099999109E-03 0.  1.
       11   -1    0    0    0    0 -0.00000000000E+00 -0.00000000000E+00 -0.35740347158E-01  0.35744000000E-01  0.51099999109E-03 0. -1.
       22    1    1    2    0    0  0.34217754165E-01 -0.63673454513E-02  0.81077615099E-02  0.35737005818E-01  0.00000000000E+00 0.  1.
  9000001    1    1    2    0    0 -0.34217754165E-01  0.63673454513E-02 -0.81077615099E-02  0.35750994182E-01  0.10000000475E-02 0. -1.
</event>
<event>
 4   0  0.4892667E-02  0.9118800E+02  0.7818609E-02  0.1379984E+01
      -11   -1    0    0    0    0  0.00000000000E+00  0.00000000000E+00  0.35740347158E-01  0.35744000000E-01  0.51099999109E-03 0.  1.
       11   -1    0    0    0    0 -0.00000000000E+00 -0.00000000000E+00 -0.35740347158E-01  0.35744000000E-01  0.51099999109E-03 0. -1.
       22    1    1    2    0    0 -0.22963618901E-01  0.22348515689E-02  0.27291229915E-01  0.35737005818E-01  0.00000000000E+00 0.  1.
  9000001    1    1    2    0    0  0.22963618901E-01 -0.22348515689E-02 -0.27291229915E-01  0.35750994182E-01  0.10000000475E-02 0. -1.
</event>
<event>
 4   0  0.4892667E-02  0.9118800E+02  0.7818609E-02  0.1379984E+01
      -11   -1    0    0    0    0  0.00000000000E+00  0.00000000000E+00  0.35740347158E-01  0.35744000000E-01  0.51099999109E-03 0.  1.
       11   -1    0    0    0    0 -0.00000000000E+00 -0.00000000000E+00 -0.35740347158E-01  0.35744000000E-01  0.51099999109E-03 0. -1.
       22    1    1    2    0    0  0.13968739518E-01  0.32876473085E-01  0.10702423363E-02  0.35737005818E-01  0.00000000000E+00 0.  1.
  9000001    1    1    2    0    0 -0.13968739518E-01 -0.32876473085E-01 -0.10702423363E-02  0.35750994182E-01  0.10000000475E-02 0. -1.
</event>
<event>
 4   0  0.4892667E-02  0.9118800E+02  0.7818609E-02  0.1379984E+01
      -11   -1    0    0    0    0  0.00000000000E+00  0.00000000000E+00  0.35740347158E-01  0.35744000000E-01  0.51099999109E-03 0.  1.
       11   -1    0    0    0    0 -0.00000000000E+00 -0.00000000000E+00 -0.35740347158E-01  0.35744000000E-01  0.51099999109E-03 0. -1.
       22    1    1    2    0    0  0.20106269690E-01 -0.21276812093E-02 -0.29467685296E-01  0.35737005818E-01  0.00000000000E+00 0. -1.
  9000001    1    1    2    0    0 -0.20106269690E-01  0.21276812093E-02  0.29467685296E-01  0.35750994182E-01  0.10000000475E-02 0.  1.
</event>
<event>
 4   0  0.4892667E-02  0.9118800E+02  0.7818609E-02  0.1379984E+01
      -11   -1    0    0    0    0  0.00000000000E+00  0.00000000000E+00  0.35740347158E-01  0.35744000000E-01  0.51099999109E-03 0.  1.
       11   -1    0    0    0    0 -0.00000000000E+00 -0.00000000000E+00 -0.35740347158E-01  0.35744000000E-01  0.51099999109E-03 0. -1.
       22    1    1    2    0    0 -0.23150592188E-02 -0.37143739972E-02  0.35467978678E-01  0.35737005818E-01  0.00000000000E+00 0.  1.
  9000001    1    1    2    0    0  0.23150592188E-02  0.37143739972E-02 -0.35467978678E-01  0.35750994182E-01  0.10000000475E-02 0. -1.
</event>
<event>
 4   0  0.4892667E-02  0.9118800E+02  0.7818609E-02  0.1379984E+01
      -11   -1    0    0    0    0  0.00000000000E+00  0.00000000000E+00  0.35740347158E-01  0.35744000000E-01  0.51099999109E-03 0.  1.
       11   -1    0    0    0    0 -0.00000000000E+00 -0.00000000000E+00 -0.35740347158E-01  0.35744000000E-01  0.51099999109E-03 0. -1.
       22    1    1    2    0    0  0.10512015564E-01  0.50815373901E-02 -0.33775865517E-01  0.35737005818E-01  0.00000000000E+00 0. -1.
  9000001    1    1    2    0    0 -0.10512015564E-01 -0.50815373901E-02  0.33775865517E-01  0.35750994182E-01  0.10000000475E-02 0.  1.
</event>
<event>
 4   0  0.4892667E-02  0.9118800E+02  0.7818609E-02  0.1379984E+01
      -11   -1    0    0    0    0  0.00000000000E+00  0.00000000000E+00  0.35740347158E-01  0.35744000000E-01  0.51099999109E-03 0. -1.
       11   -1    0    0    0    0 -0.00000000000E+00 -0.00000000000E+00 -0.35740347158E-01  0.35744000000E-01  0.51099999109E-03 0.  1.
       22    1    1    2    0    0 -0.13420074182E-01  0.24900872795E-01 -0.21839911353E-01  0.35737005818E-01  0.00000000000E+00 0.  1.
  9000001    1    1    2    0    0  0.13420074182E-01 -0.24900872795E-01  0.21839911353E-01  0.35750994182E-01  0.10000000475E-02 0. -1.
</event>
<event>
 4   0  0.4892667E-02  0.9118800E+02  0.7818609E-02  0.1379984E+01
      -11   -1    0    0    0    0  0.00000000000E+00  0.00000000000E+00  0.35740347158E-01  0.35744000000E-01  0.51099999109E-03 0. -1.
       11   -1    0    0    0    0 -0.00000000000E+00 -0.00000000000E+00 -0.35740347158E-01  0.35744000000E-01  0.51099999109E-03 0.  1.
       22    1    1    2    0    0 -0.19440273737E-01  0.15777884223E-01  0.25500347279E-01  0.35737005818E-01  0.00000000000E+00 0. -1.
  9000001    1    1    2    0    0  0.19440273737E-01 -0.15777884223E-01 -0.25500347279E-01  0.35750994182E-01  0.10000000475E-02 0.  1.
</event>
<event>
 4   0  0.4892667E-02  0.9118800E+02  0.7818609E-02  0.1379984E+01
      -11   -1    0    0    0    0  0.00000000000E+00  0.00000000000E+00  0.35740347158E-01  0.35744000000E-01  0.51099999109E-03 0. -1.
       11   -1    0    0    0    0 -0.00000000000E+00 -0.00000000000E+00 -0.35740347158E-01  0.35744000000E-01  0.51099999109E-03 0.  1.
       22    1    1    2    0    0  0.71011520114E-04  0.30558672433E-02 -0.35606041870E-01  0.35737005818E-01  0.00000000000E+00 0.  1.
  9000001    1    1    2    0    0 -0.71011520114E-04 -0.30558672433E-02  0.35606041870E-01  0.35750994182E-01  0.10000000475E-02 0. -1.
</event>
<event>
 4   0  0.4892667E-02  0.9118800E+02  0.7818609E-02  0.1379984E+01
      -11   -1    0    0    0    0  0.00000000000E+00  0.00000000000E+00  0.35740347158E-01  0.35744000000E-01  0.51099999109E-03 0. -1.
       11   -1    0    0    0    0 -0.00000000000E+00 -0.00000000000E+00 -0.35740347158E-01  0.35744000000E-01  0.51099999109E-03 0.  1.
       22    1    1    2    0    0  0.31565999550E-02 -0.20409395392E-01 -0.29165494018E-01  0.35737005818E-01  0.00000000000E+00 0.  1.
  9000001    1    1    2    0    0 -0.31565999550E-02  0.20409395392E-01  0.29165494018E-01  0.35750994182E-01  0.10000000475E-02 0. -1.
</event>
<event>
 4   0  0.4892667E-02  0.9118800E+02  0.7818609E-02  0.1379984E+01
      -11   -1    0    0    0    0  0.00000000000E+00  0.00000000000E+00  0.35740347158E-01  0.35744000000E-01  0.51099999109E-03 0. -1.
       11   -1    0    0    0    0 -0.00000000000E+00 -0.00000000000E+00 -0.35740347158E-01  0.35744000000E-01  0.51099999109E-03 0.  1.
       22    1    1    2    0    0  0.12527880213E-01 -0.11421552927E-01 -0.31460037047E-01  0.35737005818E-01  0.00000000000E+00 0.  1.
  9000001    1    1    2    0    0 -0.12527880213E-01  0.11421552927E-01  0.31460037047E-01  0.35750994182E-01  0.10000000475E-02 0. -1.
</event>
<event>
 4   0  0.4892667E-02  0.9118800E+02  0.7818609E-02  0.1379984E+01
      -11   -1    0    0    0    0  0.00000000000E+00  0.00000000000E+00  0.35740347158E-01  0.35744000000E-01  0.51099999109E-03 0.  1.
       11   -1    0    0    0    0 -0.00000000000E+00 -0.00000000000E+00 -0.35740347158E-01  0.35744000000E-01  0.51099999109E-03 0. -1.
       22    1    1    2    0    0  0.20384679225E-02 -0.24367291414E-02 -0.35595513544E-01  0.35737005818E-01  0.00000000000E+00 0. -1.
  9000001    1    1    2    0    0 -0.20384679225E-02  0.24367291414E-02  0.35595513544E-01  0.35750994182E-01  0.10000000475E-02 0.  1.
</event>
<event>
 4   0  0.4892667E-02  0.9118800E+02  0.7818609E-02  0.1379984E+01
      -11   -1    0    0    0    0  0.00000000000E+00  0.00000000000E+00  0.35740347158E-01  0.35744000000E-01  0.51099999109E-03 0. -1.
       11   -1    0    0    0    0 -0.00000000000E+00 -0.00000000000E+00 -0.35740347158E-01  0.35744000000E-01  0.51099999109E-03 0.  1.
       22    1    1    2    0    0  0.32068725437E-02  0.12253102560E-01  0.33417226561E-01  0.35737005818E-01  0.00000000000E+00 0. -1.
  9000001    1    1    2    0    0 -0.32068725437E-02 -0.12253102560E-01 -0.33417226561E-01  0.35750994182E-01  0.10000000475E-02 0.  1.
</event>
<event>
 4   0  0.4892667E-02  0.9118800E+02  0.7818609E-02  0.1379984E+01
      -11   -1    0    0    0    0  0.00000000000E+00  0.00000000000E+00  0.35740347158E-01  0.35744000000E-01  0.51099999109E-03 0. -1.
       11   -1    0    0    0    0 -0.00000000000E+00 -0.00000000000E+00 -0.35740347158E-01  0.35744000000E-01  0.51099999109E-03 0.  1.
       22    1    1    2    0    0  0.43484515004E-02 -0.12164278302E-02 -0.35450597424E-01  0.35737005818E-01  0.00000000000E+00 0.  1.
  9000001    1    1    2    0    0 -0.43484515004E-02  0.12164278302E-02  0.35450597424E-01  0.35750994182E-01  0.10000000475E-02 0. -1.
</event>
<event>
 4   0  0.4892667E-02  0.9118800E+02  0.7818609E-02  0.1379984E+01
      -11   -1    0    0    0    0  0.00000000000E+00  0.00000000000E+00  0.35740347158E-01  0.35744000000E-01  0.51099999109E-03 0. -1.
       11   -1    0    0    0    0 -0.00000000000E+00 -0.00000000000E+00 -0.35740347158E-01  0.35744000000E-01  0.51099999109E-03 0.  1.
       22    1    1    2    0    0  0.15393540381E-02  0.26195492216E-02  0.35607610646E-01  0.35737005818E-01  0.00000000000E+00 0. -1.
  9000001    1    1    2    0    0 -0.15393540381E-02 -0.26195492216E-02 -0.35607610646E-01  0.35750994182E-01  0.10000000475E-02 0.  1.
</event>
<event>
 4   0  0.4892667E-02  0.9118800E+02  0.7818609E-02  0.1379984E+01
      -11   -1    0    0    0    0  0.00000000000E+00  0.00000000000E+00  0.35740347158E-01  0.35744000000E-01  0.51099999109E-03 0. -1.
       11   -1    0    0    0    0 -0.00000000000E+00 -0.00000000000E+00 -0.35740347158E-01  0.35744000000E-01  0.51099999109E-03 0.  1.
       22    1    1    2    0    0  0.83770739821E-02  0.11752579132E-01  0.32693043604E-01  0.35737005818E-01  0.00000000000E+00 0. -1.
  9000001    1    1    2    0    0 -0.83770739821E-02 -0.11752579132E-01 -0.32693043604E-01  0.35750994182E-01  0.10000000475E-02 0.  1.
</event>
<event>
 4   0  0.4892667E-02  0.9118800E+02  0.7818609E-02  0.1379984E+01
      -11   -1    0    0    0    0  0.00000000000E+00  0.00000000000E+00  0.35740347158E-01  0.35744000000E-01  0.51099999109E-03 0. -1.
       11   -1    0    0    0    0 -0.00000000000E+00 -0.00000000000E+00 -0.35740347158E-01  0.35744000000E-01  0.51099999109E-03 0.  1.
       22    1    1    2    0    0  0.52249525854E-02 -0.24927220623E-02  0.35264993862E-01  0.35737005818E-01  0.00000000000E+00 0. -1.
  9000001    1    1    2    0    0 -0.52249525854E-02  0.24927220623E-02 -0.35264993862E-01  0.35750994182E-01  0.10000000475E-02 0.  1.
</event>
<event>
 4   0  0.4892667E-02  0.9118800E+02  0.7818609E-02  0.1379984E+01
      -11   -1    0    0    0    0  0.00000000000E+00  0.00000000000E+00  0.35740347158E-01  0.35744000000E-01  0.51099999109E-03 0. -1.
       11   -1    0    0    0    0 -0.00000000000E+00 -0.00000000000E+00 -0.35740347158E-01  0.35744000000E-01  0.51099999109E-03 0.  1.
       22    1    1    2    0    0  0.23592791436E-01  0.22402735218E-01 -0.14786183818E-01  0.35737005818E-01  0.00000000000E+00 0.  1.
  9000001    1    1    2    0    0 -0.23592791436E-01 -0.22402735218E-01  0.14786183818E-01  0.35750994182E-01  0.10000000475E-02 0. -1.
</event>
<event>
 4   0  0.4892667E-02  0.9118800E+02  0.7818609E-02  0.1379984E+01
      -11   -1    0    0    0    0  0.00000000000E+00  0.00000000000E+00  0.35740347158E-01  0.35744000000E-01  0.51099999109E-03 0.  1.
       11   -1    0    0    0    0 -0.00000000000E+00 -0.00000000000E+00 -0.35740347158E-01  0.35744000000E-01  0.51099999109E-03 0. -1.
       22    1    1    2    0    0  0.73916808069E-03  0.12448905771E-01 -0.33490475669E-01  0.35737005818E-01  0.00000000000E+00 0. -1.
  9000001    1    1    2    0    0 -0.73916808069E-03 -0.12448905771E-01  0.33490475669E-01  0.35750994182E-01  0.10000000475E-02 0.  1.
</event>
<event>
 4   0  0.4892667E-02  0.9118800E+02  0.7818609E-02  0.1379984E+01
      -11   -1    0    0    0    0  0.00000000000E+00  0.00000000000E+00  0.35740347158E-01  0.35744000000E-01  0.51099999109E-03 0. -1.
       11   -1    0    0    0    0 -0.00000000000E+00 -0.00000000000E+00 -0.35740347158E-01  0.35744000000E-01  0.51099999109E-03 0.  1.
       22    1    1    2    0    0  0.35184268651E-02  0.22570172437E-02 -0.35491691005E-01  0.35737005818E-01  0.00000000000E+00 0.  1.
  9000001    1    1    2    0    0 -0.35184268651E-02 -0.22570172437E-02  0.35491691005E-01  0.35750994182E-01  0.10000000475E-02 0. -1.
</event>
<event>
 4   0  0.4892667E-02  0.9118800E+02  0.7818609E-02  0.1379984E+01
      -11   -1    0    0    0    0  0.00000000000E+00  0.00000000000E+00  0.35740347158E-01  0.35744000000E-01  0.51099999109E-03 0.  1.
       11   -1    0    0    0    0 -0.00000000000E+00 -0.00000000000E+00 -0.35740347158E-01  0.35744000000E-01  0.51099999109E-03 0. -1.
       22    1    1    2    0    0 -0.39218558636E-02 -0.10695484478E-01  0.33872691704E-01  0.35737005818E-01  0.00000000000E+00 0.  1.
  9000001    1    1    2    0    0  0.39218558636E-02  0.10695484478E-01 -0.33872691704E-01  0.35750994182E-01  0.10000000475E-02 0. -1.
</event>
<event>
 4   0  0.4892667E-02  0.9118800E+02  0.7818609E-02  0.1379984E+01
      -11   -1    0    0    0    0  0.00000000000E+00  0.00000000000E+00  0.35740347158E-01  0.35744000000E-01  0.51099999109E-03 0.  1.
       11   -1    0    0    0    0 -0.00000000000E+00 -0.00000000000E+00 -0.35740347158E-01  0.35744000000E-01  0.51099999109E-03 0. -1.
       22    1    1    2    0    0  0.29734584206E-02 -0.49658794947E-02  0.35265169371E-01  0.35737005818E-01  0.00000000000E+00 0.  1.
  9000001    1    1    2    0    0 -0.29734584206E-02  0.49658794947E-02 -0.35265169371E-01  0.35750994182E-01  0.10000000475E-02 0. -1.
</event>
<event>
 4   0  0.4892667E-02  0.9118800E+02  0.7818609E-02  0.1379984E+01
      -11   -1    0    0    0    0  0.00000000000E+00  0.00000000000E+00  0.35740347158E-01  0.35744000000E-01  0.51099999109E-03 0.  1.
       11   -1    0    0    0    0 -0.00000000000E+00 -0.00000000000E+00 -0.35740347158E-01  0.35744000000E-01  0.51099999109E-03 0. -1.
       22    1    1    2    0    0  0.20574195201E-01  0.24597470199E-01  0.15773412328E-01  0.35737005818E-01  0.00000000000E+00 0.  1.
  9000001    1    1    2    0    0 -0.20574195201E-01 -0.24597470199E-01 -0.15773412328E-01  0.35750994182E-01  0.10000000475E-02 0. -1.
</event>
<event>
 4   0  0.4892667E-02  0.9118800E+02  0.7818609E-02  0.1379984E+01
      -11   -1    0    0    0    0  0.00000000000E+00  0.00000000000E+00  0.35740347158E-01  0.35744000000E-01  0.51099999109E-03 0. -1.
       11   -1    0    0    0    0 -0.00000000000E+00 -0.00000000000E+00 -0.35740347158E-01  0.35744000000E-01  0.51099999109E-03 0.  1.
       22    1    1    2    0    0  0.11198192962E-01  0.16516041215E-01  0.29647165832E-01  0.35737005818E-01  0.00000000000E+00 0. -1.
  9000001    1    1    2    0    0 -0.11198192962E-01 -0.16516041215E-01 -0.29647165832E-01  0.35750994182E-01  0.10000000475E-02 0.  1.
</event>
<event>
 4   0  0.4892667E-02  0.9118800E+02  0.7818609E-02  0.1379984E+01
      -11   -1    0    0    0    0  0.00000000000E+00  0.00000000000E+00  0.35740347158E-01  0.35744000000E-01  0.51099999109E-03 0.  1.
       11   -1    0    0    0    0 -0.00000000000E+00 -0.00000000000E+00 -0.35740347158E-01  0.35744000000E-01  0.51099999109E-03 0. -1.
       22    1    1    2    0    0 -0.18239850101E-02 -0.65404555473E-02  0.35086024351E-01  0.35737005818E-01  0.00000000000E+00 0.  1.
  9000001    1    1    2    0    0  0.18239850101E-02  0.65404555473E-02 -0.35086024351E-01  0.35750994182E-01  0.10000000475E-02 0. -1.
</event>
<event>
 4   0  0.4892667E-02  0.9118800E+02  0.7818609E-02  0.1379984E+01
      -11   -1    0    0    0    0  0.00000000000E+00  0.00000000000E+00  0.35740347158E-01  0.35744000000E-01  0.51099999109E-03 0.  1.
       11   -1    0    0    0    0 -0.00000000000E+00 -0.00000000000E+00 -0.35740347158E-01  0.35744000000E-01  0.51099999109E-03 0. -1.
       22    1    1    2    0    0  0.10700127281E-01  0.18964037426E-01  0.28337363067E-01  0.35737005818E-01  0.00000000000E+00 0.  1.
  9000001    1    1    2    0    0 -0.10700127281E-01 -0.18964037426E-01 -0.28337363067E-01  0.35750994182E-01  0.10000000475E-02 0. -1.
</event>
<event>
 4   0  0.4892667E-02  0.9118800E+02  0.7818609E-02  0.1379984E+01
      -11   -1    0    0    0    0  0.00000000000E+00  0.00000000000E+00  0.35740347158E-01  0.35744000000E-01  0.51099999109E-03 0.  1.
       11   -1    0    0    0    0 -0.00000000000E+00 -0.00000000000E+00 -0.35740347158E-01  0.35744000000E-01  0.51099999109E-03 0. -1.
       22    1    1    2    0    0  0.20550871775E-02 -0.33573965137E-02  0.35519545186E-01  0.35737005818E-01  0.00000000000E+00 0.  1.
  9000001    1    1    2    0    0 -0.20550871775E-02  0.33573965137E-02 -0.35519545186E-01  0.35750994182E-01  0.10000000475E-02 0. -1.
</event>
<event>
 4   0  0.4892667E-02  0.9118800E+02  0.7818609E-02  0.1379984E+01
      -11   -1    0    0    0    0  0.00000000000E+00  0.00000000000E+00  0.35740347158E-01  0.35744000000E-01  0.51099999109E-03 0. -1.
       11   -1    0    0    0    0 -0.00000000000E+00 -0.00000000000E+00 -0.35740347158E-01  0.35744000000E-01  0.51099999109E-03 0.  1.
       22    1    1    2    0    0 -0.89791466122E-02 -0.19990418898E-02  0.34532772007E-01  0.35737005818E-01  0.00000000000E+00 0. -1.
  9000001    1    1    2    0    0  0.89791466122E-02  0.19990418898E-02 -0.34532772007E-01  0.35750994182E-01  0.10000000475E-02 0.  1.
</event>
<event>
 4   0  0.4892667E-02  0.9118800E+02  0.7818609E-02  0.1379984E+01
      -11   -1    0    0    0    0  0.00000000000E+00  0.00000000000E+00  0.35740347158E-01  0.35744000000E-01  0.51099999109E-03 0.  1.
       11   -1    0    0    0    0 -0.00000000000E+00 -0.00000000000E+00 -0.35740347158E-01  0.35744000000E-01  0.51099999109E-03 0. -1.
       22    1    1    2    0    0  0.19465237136E-02 -0.17892063000E-01  0.30874240265E-01  0.35737005818E-01  0.00000000000E+00 0.  1.
  9000001    1    1    2    0    0 -0.19465237136E-02  0.17892063000E-01 -0.30874240265E-01  0.35750994182E-01  0.10000000475E-02 0. -1.
</event>
<event>
 4   0  0.4892667E-02  0.9118800E+02  0.7818609E-02  0.1379984E+01
      -11   -1    0    0    0    0  0.00000000000E+00  0.00000000000E+00  0.35740347158E-01  0.35744000000E-01  0.51099999109E-03 0. -1.
       11   -1    0    0    0    0 -0.00000000000E+00 -0.00000000000E+00 -0.35740347158E-01  0.35744000000E-01  0.51099999109E-03 0.  1.
       22    1    1    2    0    0  0.40020605461E-02  0.35453715373E-01 -0.20374401894E-02  0.35737005818E-01  0.00000000000E+00 0. -1.
  9000001    1    1    2    0    0 -0.40020605461E-02 -0.35453715373E-01  0.20374401894E-02  0.35750994182E-01  0.10000000475E-02 0.  1.
</event>
<event>
 4   0  0.4892667E-02  0.9118800E+02  0.7818609E-02  0.1379984E+01
      -11   -1    0    0    0    0  0.00000000000E+00  0.00000000000E+00  0.35740347158E-01  0.35744000000E-01  0.51099999109E-03 0. -1.
       11   -1    0    0    0    0 -0.00000000000E+00 -0.00000000000E+00 -0.35740347158E-01  0.35744000000E-01  0.51099999109E-03 0.  1.
       22    1    1    2    0    0 -0.89629537421E-02 -0.15858824459E-01 -0.30745678263E-01  0.35737005818E-01  0.00000000000E+00 0.  1.
  9000001    1    1    2    0    0  0.89629537421E-02  0.15858824459E-01  0.30745678263E-01  0.35750994182E-01  0.10000000475E-02 0. -1.
</event>
<event>
 4   0  0.4892667E-02  0.9118800E+02  0.7818609E-02  0.1379984E+01
      -11   -1    0    0    0    0  0.00000000000E+00  0.00000000000E+00  0.35740347158E-01  0.35744000000E-01  0.51099999109E-03 0.  1.
       11   -1    0    0    0    0 -0.00000000000E+00 -0.00000000000E+00 -0.35740347158E-01  0.35744000000E-01  0.51099999109E-03 0. -1.
       22    1    1    2    0    0 -0.91112111865E-02 -0.82353123304E-02  0.33560379116E-01  0.35737005818E-01  0.00000000000E+00 0.  1.
  9000001    1    1    2    0    0  0.91112111865E-02  0.82353123304E-02 -0.33560379116E-01  0.35750994182E-01  0.10000000475E-02 0. -1.
</event>
<event>
 4   0  0.4892667E-02  0.9118800E+02  0.7818609E-02  0.1379984E+01
      -11   -1    0    0    0    0  0.00000000000E+00  0.00000000000E+00  0.35740347158E-01  0.35744000000E-01  0.51099999109E-03 0.  1.
       11   -1    0    0    0    0 -0.00000000000E+00 -0.00000000000E+00 -0.35740347158E-01  0.35744000000E-01  0.51099999109E-03 0. -1.
       22    1    1    2    0    0 -0.28974703642E-02  0.12716185020E-01  0.33272163875E-01  0.35737005818E-01  0.00000000000E+00 0.  1.
  9000001    1    1    2    0    0  0.28974703642E-02 -0.12716185020E-01 -0.33272163875E-01  0.35750994182E-01  0.10000000475E-02 0. -1.
</event>
<event>
 4   0  0.4892667E-02  0.9118800E+02  0.7818609E-02  0.1379984E+01
      -11   -1    0    0    0    0  0.00000000000E+00  0.00000000000E+00  0.35740347158E-01  0.35744000000E-01  0.51099999109E-03 0. -1.
       11   -1    0    0    0    0 -0.00000000000E+00 -0.00000000000E+00 -0.35740347158E-01  0.35744000000E-01  0.51099999109E-03 0.  1.
       22    1    1    2    0    0 -0.13033785447E-01  0.15837687831E-01 -0.29264682913E-01  0.35737005818E-01  0.00000000000E+00 0.  1.
  9000001    1    1    2    0    0  0.13033785447E-01 -0.15837687831E-01  0.29264682913E-01  0.35750994182E-01  0.10000000475E-02 0. -1.
</event>
<event>
 4   0  0.4892667E-02  0.9118800E+02  0.7818609E-02  0.1379984E+01
      -11   -1    0    0    0    0  0.00000000000E+00  0.00000000000E+00  0.35740347158E-01  0.35744000000E-01  0.51099999109E-03 0.  1.
       11   -1    0    0    0    0 -0.00000000000E+00 -0.00000000000E+00 -0.35740347158E-01  0.35744000000E-01  0.51099999109E-03 0. -1.
       22    1    1    2    0    0  0.66614663970E-02 -0.14675104891E-02 -0.35079978097E-01  0.35737005818E-01  0.00000000000E+00 0. -1.
  9000001    1    1    2    0    0 -0.66614663970E-02  0.14675104891E-02  0.35079978097E-01  0.35750994182E-01  0.10000000475E-02 0.  1.
</event>
<event>
 4   0  0.4892667E-02  0.9118800E+02  0.7818609E-02  0.1379984E+01
      -11   -1    0    0    0    0  0.00000000000E+00  0.00000000000E+00  0.35740347158E-01  0.35744000000E-01  0.51099999109E-03 0. -1.
       11   -1    0    0    0    0 -0.00000000000E+00 -0.00000000000E+00 -0.35740347158E-01  0.35744000000E-01  0.51099999109E-03 0.  1.
       22    1    1    2    0    0 -0.13980739897E-01  0.71937116890E-02  0.32092413573E-01  0.35737005818E-01  0.00000000000E+00 0. -1.
  9000001    1    1    2    0    0  0.13980739897E-01 -0.71937116890E-02 -0.32092413573E-01  0.35750994182E-01  0.10000000475E-02 0.  1.
</event>
<event>
 4   0  0.4892667E-02  0.9118800E+02  0.7818609E-02  0.1379984E+01
      -11   -1    0    0    0    0  0.00000000000E+00  0.00000000000E+00  0.35740347158E-01  0.35744000000E-01  0.51099999109E-03 0. -1.
       11   -1    0    0    0    0 -0.00000000000E+00 -0.00000000000E+00 -0.35740347158E-01  0.35744000000E-01  0.51099999109E-03 0.  1.
       22    1    1    2    0    0  0.11816300292E-02  0.64229307840E-02 -0.35135214465E-01  0.35737005818E-01  0.00000000000E+00 0.  1.
  9000001    1    1    2    0    0 -0.11816300292E-02 -0.64229307840E-02  0.35135214465E-01  0.35750994182E-01  0.10000000475E-02 0. -1.
</event>
<event>
 4   0  0.4892667E-02  0.9118800E+02  0.7818609E-02  0.1379984E+01
      -11   -1    0    0    0    0  0.00000000000E+00  0.00000000000E+00  0.35740347158E-01  0.35744000000E-01  0.51099999109E-03 0.  1.
       11   -1    0    0    0    0 -0.00000000000E+00 -0.00000000000E+00 -0.35740347158E-01  0.35744000000E-01  0.51099999109E-03 0. -1.
       22    1    1    2    0    0 -0.25074217193E-01  0.11629089530E-01 -0.22653509524E-01  0.35737005818E-01  0.00000000000E+00 0. -1.
  9000001    1    1    2    0    0  0.25074217193E-01 -0.11629089530E-01  0.22653509524E-01  0.35750994182E-01  0.10000000475E-02 0.  1.
</event>
<event>
 4   0  0.4892667E-02  0.9118800E+02  0.7818609E-02  0.1379984E+01
      -11   -1    0    0    0    0  0.00000000000E+00  0.00000000000E+00  0.35740347158E-01  0.35744000000E-01  0.51099999109E-03 0.  1.
       11   -1    0    0    0    0 -0.00000000000E+00 -0.00000000000E+00 -0.35740347158E-01  0.35744000000E-01  0.51099999109E-03 0. -1.
       22    1    1    2    0    0  0.14044317705E-01  0.27045177308E-01 -0.18666791622E-01  0.35737005818E-01  0.00000000000E+00 0. -1.
  9000001    1    1    2    0    0 -0.14044317705E-01 -0.27045177308E-01  0.18666791622E-01  0.35750994182E-01  0.10000000475E-02 0.  1.
</event>
<event>
 4   0  0.4892667E-02  0.9118800E+02  0.7818609E-02  0.1379984E+01
      -11   -1    0    0    0    0  0.00000000000E+00  0.00000000000E+00  0.35740347158E-01  0.35744000000E-01  0.51099999109E-03 0. -1.
       11   -1    0    0    0    0 -0.00000000000E+00 -0.00000000000E+00 -0.35740347158E-01  0.35744000000E-01  0.51099999109E-03 0.  1.
       22    1    1    2    0    0 -0.86968936447E-03 -0.36752687231E-02  0.35536876974E-01  0.35737005818E-01  0.00000000000E+00 0. -1.
  9000001    1    1    2    0    0  0.86968936447E-03  0.36752687231E-02 -0.35536876974E-01  0.35750994182E-01  0.10000000475E-02 0.  1.
</event>
<event>
 4   0  0.4892667E-02  0.9118800E+02  0.7818609E-02  0.1379984E+01
      -11   -1    0    0    0    0  0.00000000000E+00  0.00000000000E+00  0.35740347158E-01  0.35744000000E-01  0.51099999109E-03 0. -1.
       11   -1    0    0    0    0 -0.00000000000E+00 -0.00000000000E+00 -0.35740347158E-01  0.35744000000E-01  0.51099999109E-03 0.  1.
       22    1    1    2    0    0 -0.24330180264E-02  0.34230763018E-02 -0.35489386537E-01  0.35737005818E-01  0.00000000000E+00 0.  1.
  9000001    1    1    2    0    0  0.24330180264E-02 -0.34230763018E-02  0.35489386537E-01  0.35750994182E-01  0.10000000475E-02 0. -1.
</event>
<event>
 4   0  0.4892667E-02  0.9118800E+02  0.7818609E-02  0.1379984E+01
      -11   -1    0    0    0    0  0.00000000000E+00  0.00000000000E+00  0.35740347158E-01  0.35744000000E-01  0.51099999109E-03 0.  1.
       11   -1    0    0    0    0 -0.00000000000E+00 -0.00000000000E+00 -0.35740347158E-01  0.35744000000E-01  0.51099999109E-03 0. -1.
       22    1    1    2    0    0  0.33578856535E-02  0.13825623112E-02 -0.35552028216E-01  0.35737005818E-01  0.00000000000E+00 0. -1.
  9000001    1    1    2    0    0 -0.33578856535E-02 -0.13825623112E-02  0.35552028216E-01  0.35750994182E-01  0.10000000475E-02 0.  1.
</event>
<event>
 4   0  0.4892667E-02  0.9118800E+02  0.7818609E-02  0.1379984E+01
      -11   -1    0    0    0    0  0.00000000000E+00  0.00000000000E+00  0.35740347158E-01  0.35744000000E-01  0.51099999109E-03 0.  1.
       11   -1    0    0    0    0 -0.00000000000E+00 -0.00000000000E+00 -0.35740347158E-01  0.35744000000E-01  0.51099999109E-03 0. -1.
       22    1    1    2    0    0  0.82496743596E-02 -0.63833323985E-02  0.34180835644E-01  0.35737005818E-01  0.00000000000E+00 0.  1.
  9000001    1    1    2    0    0 -0.82496743596E-02  0.63833323985E-02 -0.34180835644E-01  0.35750994182E-01  0.10000000475E-02 0. -1.
</event>
<event>
 4   0  0.4892667E-02  0.9118800E+02  0.7818609E-02  0.1379984E+01
      -11   -1    0    0    0    0  0.00000000000E+00  0.00000000000E+00  0.35740347158E-01  0.35744000000E-01  0.51099999109E-03 0. -1.
       11   -1    0    0    0    0 -0.00000000000E+00 -0.00000000000E+00 -0.35740347158E-01  0.35744000000E-01  0.51099999109E-03 0.  1.
       22    1    1    2    0    0  0.15937553058E-02 -0.34325844436E-02  0.35536050610E-01  0.35737005818E-01  0.00000000000E+00 0. -1.
  9000001    1    1    2    0    0 -0.15937553058E-02  0.34325844436E-02 -0.35536050610E-01  0.35750994182E-01  0.10000000475E-02 0.  1.
</event>
<event>
 4   0  0.4892667E-02  0.9118800E+02  0.7818609E-02  0.1379984E+01
      -11   -1    0    0    0    0  0.00000000000E+00  0.00000000000E+00  0.35740347158E-01  0.35744000000E-01  0.51099999109E-03 0.  1.
       11   -1    0    0    0    0 -0.00000000000E+00 -0.00000000000E+00 -0.35740347158E-01  0.35744000000E-01  0.51099999109E-03 0. -1.
       22    1    1    2    0    0  0.32237039584E-01 -0.12220432294E-01 -0.94110519216E-02  0.35737005818E-01  0.00000000000E+00 0. -1.
  9000001    1    1    2    0    0 -0.32237039584E-01  0.12220432294E-01  0.94110519216E-02  0.35750994182E-01  0.10000000475E-02 0.  1.
</event>
<event>
 4   0  0.4892667E-02  0.9118800E+02  0.7818609E-02  0.1379984E+01
      -11   -1    0    0    0    0  0.00000000000E+00  0.00000000000E+00  0.35740347158E-01  0.35744000000E-01  0.51099999109E-03 0.  1.
       11   -1    0    0    0    0 -0.00000000000E+00 -0.00000000000E+00 -0.35740347158E-01  0.35744000000E-01  0.51099999109E-03 0. -1.
       22    1    1    2    0    0 -0.25534488605E-02 -0.11494949819E-01 -0.33741363524E-01  0.35737005818E-01  0.00000000000E+00 0. -1.
  9000001    1    1    2    0    0  0.25534488605E-02  0.11494949819E-01  0.33741363524E-01  0.35750994182E-01  0.10000000475E-02 0.  1.
</event>
<event>
 4   0  0.4892667E-02  0.9118800E+02  0.7818609E-02  0.1379984E+01
      -11   -1    0    0    0    0  0.00000000000E+00  0.00000000000E+00  0.35740347158E-01  0.35744000000E-01  0.51099999109E-03 0. -1.
       11   -1    0    0    0    0 -0.00000000000E+00 -0.00000000000E+00 -0.35740347158E-01  0.35744000000E-01  0.51099999109E-03 0.  1.
       22    1    1    2    0    0  0.14694229312E-01 -0.43126020466E-02  0.32289544336E-01  0.35737005818E-01  0.00000000000E+00 0. -1.
  9000001    1    1    2    0    0 -0.14694229312E-01  0.43126020466E-02 -0.32289544336E-01  0.35750994182E-01  0.10000000475E-02 0.  1.
</event>
<event>
 4   0  0.4892667E-02  0.9118800E+02  0.7818609E-02  0.1379984E+01
      -11   -1    0    0    0    0  0.00000000000E+00  0.00000000000E+00  0.35740347158E-01  0.35744000000E-01  0.51099999109E-03 0.  1.
       11   -1    0    0    0    0 -0.00000000000E+00 -0.00000000000E+00 -0.35740347158E-01  0.35744000000E-01  0.51099999109E-03 0. -1.
       22    1    1    2    0    0  0.15964555801E-02 -0.28348747634E-02 -0.35588599291E-01  0.35737005818E-01  0.00000000000E+00 0. -1.
  9000001    1    1    2    0    0 -0.15964555801E-02  0.28348747634E-02  0.35588599291E-01  0.35750994182E-01  0.10000000475E-02 0.  1.
</event>
<event>
 4   0  0.4892667E-02  0.9118800E+02  0.7818609E-02  0.1379984E+01
      -11   -1    0    0    0    0  0.00000000000E+00  0.00000000000E+00  0.35740347158E-01  0.35744000000E-01  0.51099999109E-03 0.  1.
       11   -1    0    0    0    0 -0.00000000000E+00 -0.00000000000E+00 -0.35740347158E-01  0.35744000000E-01  0.51099999109E-03 0. -1.
       22    1    1    2    0    0  0.41281054109E-02  0.44181483155E-02 -0.35221758844E-01  0.35737005818E-01  0.00000000000E+00 0. -1.
  9000001    1    1    2    0    0 -0.41281054109E-02 -0.44181483155E-02  0.35221758844E-01  0.35750994182E-01  0.10000000475E-02 0.  1.
</event>
<event>
 4   0  0.4892667E-02  0.9118800E+02  0.7818609E-02  0.1379984E+01
      -11   -1    0    0    0    0  0.00000000000E+00  0.00000000000E+00  0.35740347158E-01  0.35744000000E-01  0.51099999109E-03 0. -1.
       11   -1    0    0    0    0 -0.00000000000E+00 -0.00000000000E+00 -0.35740347158E-01  0.35744000000E-01  0.51099999109E-03 0.  1.
       22    1    1    2    0    0 -0.95727164340E-02  0.30674815303E-01 -0.15638170963E-01  0.35737005818E-01  0.00000000000E+00 0.  1.
  9000001    1    1    2    0    0  0.95727164340E-02 -0.30674815303E-01  0.15638170963E-01  0.35750994182E-01  0.10000000475E-02 0. -1.
</event>
<event>
 4   0  0.4892667E-02  0.9118800E+02  0.7818609E-02  0.1379984E+01
      -11   -1    0    0    0    0  0.00000000000E+00  0.00000000000E+00  0.35740347158E-01  0.35744000000E-01  0.51099999109E-03 0. -1.
       11   -1    0    0    0    0 -0.00000000000E+00 -0.00000000000E+00 -0.35740347158E-01  0.35744000000E-01  0.51099999109E-03 0.  1.
       22    1    1    2    0    0  0.32327316446E-02 -0.12196163943E-01 -0.33435559156E-01  0.35737005818E-01  0.00000000000E+00 0.  1.
  9000001    1    1    2    0    0 -0.32327316446E-02  0.12196163943E-01  0.33435559156E-01  0.35750994182E-01  0.10000000475E-02 0. -1.
</event>
<event>
 4   0  0.4892667E-02  0.9118800E+02  0.7818609E-02  0.1379984E+01
      -11   -1    0    0    0    0  0.00000000000E+00  0.00000000000E+00  0.35740347158E-01  0.35744000000E-01  0.51099999109E-03 0.  1.
       11   -1    0    0    0    0 -0.00000000000E+00 -0.00000000000E+00 -0.35740347158E-01  0.35744000000E-01  0.51099999109E-03 0. -1.
       22    1    1    2    0    0  0.49338505120E-02 -0.16928498032E-01 -0.31084025775E-01  0.35737005818E-01  0.00000000000E+00 0. -1.
  9000001    1    1    2    0    0 -0.49338505120E-02  0.16928498032E-01  0.31084025775E-01  0.35750994182E-01  0.10000000475E-02 0.  1.
</event>
<event>
 4   0  0.4892667E-02  0.9118800E+02  0.7818609E-02  0.1379984E+01
      -11   -1    0    0    0    0  0.00000000000E+00  0.00000000000E+00  0.35740347158E-01  0.35744000000E-01  0.51099999109E-03 0. -1.
       11   -1    0    0    0    0 -0.00000000000E+00 -0.00000000000E+00 -0.35740347158E-01  0.35744000000E-01  0.51099999109E-03 0.  1.
       22    1    1    2    0    0 -0.41708118026E-02  0.14835622852E-01  0.32243483192E-01  0.35737005818E-01  0.00000000000E+00 0. -1.
  9000001    1    1    2    0    0  0.41708118026E-02 -0.14835622852E-01 -0.32243483192E-01  0.35750994182E-01  0.10000000475E-02 0.  1.
</event>
<event>
 4   0  0.4892667E-02  0.9118800E+02  0.7818609E-02  0.1379984E+01
      -11   -1    0    0    0    0  0.00000000000E+00  0.00000000000E+00  0.35740347158E-01  0.35744000000E-01  0.51099999109E-03 0. -1.
       11   -1    0    0    0    0 -0.00000000000E+00 -0.00000000000E+00 -0.35740347158E-01  0.35744000000E-01  0.51099999109E-03 0.  1.
       22    1    1    2    0    0 -0.48226162215E-02 -0.28092469562E-02 -0.35298499815E-01  0.35737005818E-01  0.00000000000E+00 0.  1.
  9000001    1    1    2    0    0  0.48226162215E-02  0.28092469562E-02  0.35298499815E-01  0.35750994182E-01  0.10000000475E-02 0. -1.
</event>
<event>
 4   0  0.4892667E-02  0.9118800E+02  0.7818609E-02  0.1379984E+01
      -11   -1    0    0    0    0  0.00000000000E+00  0.00000000000E+00  0.35740347158E-01  0.35744000000E-01  0.51099999109E-03 0.  1.
       11   -1    0    0    0    0 -0.00000000000E+00 -0.00000000000E+00 -0.35740347158E-01  0.35744000000E-01  0.51099999109E-03 0. -1.
       22    1    1    2    0    0 -0.15425374313E-02 -0.28626399664E-02  0.35588754622E-01  0.35737005818E-01  0.00000000000E+00 0.  1.
  9000001    1    1    2    0    0  0.15425374313E-02  0.28626399664E-02 -0.35588754622E-01  0.35750994182E-01  0.10000000475E-02 0. -1.
</event>
<event>
 4   0  0.4892667E-02  0.9118800E+02  0.7818609E-02  0.1379984E+01
      -11   -1    0    0    0    0  0.00000000000E+00  0.00000000000E+00  0.35740347158E-01  0.35744000000E-01  0.51099999109E-03 0. -1.
       11   -1    0    0    0    0 -0.00000000000E+00 -0.00000000000E+00 -0.35740347158E-01  0.35744000000E-01  0.51099999109E-03 0.  1.
       22    1    1    2    0    0 -0.36639727879E-02 -0.10039349326E-01 -0.34101618047E-01  0.35737005818E-01  0.00000000000E+00 0.  1.
  9000001    1    1    2    0    0  0.36639727879E-02  0.10039349326E-01  0.34101618047E-01  0.35750994182E-01  0.10000000475E-02 0. -1.
</event>
<event>
 4   0  0.4892667E-02  0.9118800E+02  0.7818609E-02  0.1379984E+01
      -11   -1    0    0    0    0  0.00000000000E+00  0.00000000000E+00  0.35740347158E-01  0.35744000000E-01  0.51099999109E-03 0. -1.
       11   -1    0    0    0    0 -0.00000000000E+00 -0.00000000000E+00 -0.35740347158E-01  0.35744000000E-01  0.51099999109E-03 0.  1.
       22    1    1    2    0    0  0.67807009387E-02  0.62411308282E-02  0.34528306730E-01  0.35737005818E-01  0.00000000000E+00 0. -1.
  9000001    1    1    2    0    0 -0.67807009387E-02 -0.62411308282E-02 -0.34528306730E-01  0.35750994182E-01  0.10000000475E-02 0.  1.
</event>
<event>
 4   0  0.4892667E-02  0.9118800E+02  0.7818609E-02  0.1379984E+01
      -11   -1    0    0    0    0  0.00000000000E+00  0.00000000000E+00  0.35740347158E-01  0.35744000000E-01  0.51099999109E-03 0. -1.
       11   -1    0    0    0    0 -0.00000000000E+00 -0.00000000000E+00 -0.35740347158E-01  0.35744000000E-01  0.51099999109E-03 0.  1.
       22    1    1    2    0    0 -0.27444744541E-01 -0.12834600965E-01  0.18952377160E-01  0.35737005818E-01  0.00000000000E+00 0. -1.
  9000001    1    1    2    0    0  0.27444744541E-01  0.12834600965E-01 -0.18952377160E-01  0.35750994182E-01  0.10000000475E-02 0.  1.
</event>
<event>
 4   0  0.4892667E-02  0.9118800E+02  0.7818609E-02  0.1379984E+01
      -11   -1    0    0    0    0  0.00000000000E+00  0.00000000000E+00  0.35740347158E-01  0.35744000000E-01  0.51099999109E-03 0. -1.
       11   -1    0    0    0    0 -0.00000000000E+00 -0.00000000000E+00 -0.35740347158E-01  0.35744000000E-01  0.51099999109E-03 0.  1.
       22    1    1    2    0    0 -0.15975914298E-02 -0.14957034803E-01 -0.32417100370E-01  0.35737005818E-01  0.00000000000E+00 0.  1.
  9000001    1    1    2    0    0  0.15975914298E-02  0.14957034803E-01  0.32417100370E-01  0.35750994182E-01  0.10000000475E-02 0. -1.
</event>
<event>
 4   0  0.4892667E-02  0.9118800E+02  0.7818609E-02  0.1379984E+01
      -11   -1    0    0    0    0  0.00000000000E+00  0.00000000000E+00  0.35740347158E-01  0.35744000000E-01  0.51099999109E-03 0. -1.
       11   -1    0    0    0    0 -0.00000000000E+00 -0.00000000000E+00 -0.35740347158E-01  0.35744000000E-01  0.51099999109E-03 0.  1.
       22    1    1    2    0    0 -0.23437675170E-01  0.12337341608E-01  0.23991643745E-01  0.35737005818E-01  0.00000000000E+00 0. -1.
  9000001    1    1    2    0    0  0.23437675170E-01 -0.12337341608E-01 -0.23991643745E-01  0.35750994182E-01  0.10000000475E-02 0.  1.
</event>
<event>
 4   0  0.4892667E-02  0.9118800E+02  0.7818609E-02  0.1379984E+01
      -11   -1    0    0    0    0  0.00000000000E+00  0.00000000000E+00  0.35740347158E-01  0.35744000000E-01  0.51099999109E-03 0. -1.
       11   -1    0    0    0    0 -0.00000000000E+00 -0.00000000000E+00 -0.35740347158E-01  0.35744000000E-01  0.51099999109E-03 0.  1.
       22    1    1    2    0    0  0.15489416004E-01 -0.93680166231E-02  0.30813176423E-01  0.35737005818E-01  0.00000000000E+00 0. -1.
  9000001    1    1    2    0    0 -0.15489416004E-01  0.93680166231E-02 -0.30813176423E-01  0.35750994182E-01  0.10000000475E-02 0.  1.
</event>
<event>
 4   0  0.4892667E-02  0.9118800E+02  0.7818609E-02  0.1379984E+01
      -11   -1    0    0    0    0  0.00000000000E+00  0.00000000000E+00  0.35740347158E-01  0.35744000000E-01  0.51099999109E-03 0.  1.
       11   -1    0    0    0    0 -0.00000000000E+00 -0.00000000000E+00 -0.35740347158E-01  0.35744000000E-01  0.51099999109E-03 0. -1.
       22    1    1    2    0    0 -0.16816365133E-01 -0.13878806935E-01  0.28314698774E-01  0.35737005818E-01  0.00000000000E+00 0.  1.
  9000001    1    1    2    0    0  0.16816365133E-01  0.13878806935E-01 -0.28314698774E-01  0.35750994182E-01  0.10000000475E-02 0. -1.
</event>
<event>
 4   0  0.4892667E-02  0.9118800E+02  0.7818609E-02  0.1379984E+01
      -11   -1    0    0    0    0  0.00000000000E+00  0.00000000000E+00  0.35740347158E-01  0.35744000000E-01  0.51099999109E-03 0. -1.
       11   -1    0    0    0    0 -0.00000000000E+00 -0.00000000000E+00 -0.35740347158E-01  0.35744000000E-01  0.51099999109E-03 0.  1.
       22    1    1    2    0    0 -0.44896753242E-02 -0.72938925818E-02  0.34695468456E-01  0.35737005818E-01  0.00000000000E+00 0. -1.
  9000001    1    1    2    0    0  0.44896753242E-02  0.72938925818E-02 -0.34695468456E-01  0.35750994182E-01  0.10000000475E-02 0.  1.
</event>
<event>
 4   0  0.4892667E-02  0.9118800E+02  0.7818609E-02  0.1379984E+01
      -11   -1    0    0    0    0  0.00000000000E+00  0.00000000000E+00  0.35740347158E-01  0.35744000000E-01  0.51099999109E-03 0.  1.
       11   -1    0    0    0    0 -0.00000000000E+00 -0.00000000000E+00 -0.35740347158E-01  0.35744000000E-01  0.51099999109E-03 0. -1.
       22    1    1    2    0    0 -0.53711496312E-02  0.33866572329E-02  0.35168379111E-01  0.35737005818E-01  0.00000000000E+00 0.  1.
  9000001    1    1    2    0    0  0.53711496312E-02 -0.33866572329E-02 -0.35168379111E-01  0.35750994182E-01  0.10000000475E-02 0. -1.
</event>
<event>
 4   0  0.4892667E-02  0.9118800E+02  0.7818609E-02  0.1379984E+01
      -11   -1    0    0    0    0  0.00000000000E+00  0.00000000000E+00  0.35740347158E-01  0.35744000000E-01  0.51099999109E-03 0. -1.
       11   -1    0    0    0    0 -0.00000000000E+00 -0.00000000000E+00 -0.35740347158E-01  0.35744000000E-01  0.51099999109E-03 0.  1.
       22    1    1    2    0    0 -0.13051802829E-01 -0.73258742878E-02  0.32451742537E-01  0.35737005818E-01  0.00000000000E+00 0. -1.
  9000001    1    1    2    0    0  0.13051802829E-01  0.73258742878E-02 -0.32451742537E-01  0.35750994182E-01  0.10000000475E-02 0.  1.
</event>
<event>
 4   0  0.4892667E-02  0.9118800E+02  0.7818609E-02  0.1379984E+01
      -11   -1    0    0    0    0  0.00000000000E+00  0.00000000000E+00  0.35740347158E-01  0.35744000000E-01  0.51099999109E-03 0.  1.
       11   -1    0    0    0    0 -0.00000000000E+00 -0.00000000000E+00 -0.35740347158E-01  0.35744000000E-01  0.51099999109E-03 0. -1.
       22    1    1    2    0    0  0.45667437036E-02 -0.50816854578E-02 -0.35077840722E-01  0.35737005818E-01  0.00000000000E+00 0. -1.
  9000001    1    1    2    0    0 -0.45667437036E-02  0.50816854578E-02  0.35077840722E-01  0.35750994182E-01  0.10000000475E-02 0.  1.
</event>
<event>
 4   0  0.4892667E-02  0.9118800E+02  0.7818609E-02  0.1379984E+01
      -11   -1    0    0    0    0  0.00000000000E+00  0.00000000000E+00  0.35740347158E-01  0.35744000000E-01  0.51099999109E-03 0. -1.
       11   -1    0    0    0    0 -0.00000000000E+00 -0.00000000000E+00 -0.35740347158E-01  0.35744000000E-01  0.51099999109E-03 0.  1.
       22    1    1    2    0    0  0.47602072130E-02  0.21754175423E-02  0.35351684128E-01  0.35737005818E-01  0.00000000000E+00 0. -1.
  9000001    1    1    2    0    0 -0.47602072130E-02 -0.21754175423E-02 -0.35351684128E-01  0.35750994182E-01  0.10000000475E-02 0.  1.
</event>
<event>
 4   0  0.4892667E-02  0.9118800E+02  0.7818609E-02  0.1379984E+01
      -11   -1    0    0    0    0  0.00000000000E+00  0.00000000000E+00  0.35740347158E-01  0.35744000000E-01  0.51099999109E-03 0.  1.
       11   -1    0    0    0    0 -0.00000000000E+00 -0.00000000000E+00 -0.35740347158E-01  0.35744000000E-01  0.51099999109E-03 0. -1.
       22    1    1    2    0    0 -0.37860728027E-02 -0.83723645571E-03 -0.35526022473E-01  0.35737005818E-01  0.00000000000E+00 0. -1.
  9000001    1    1    2    0    0  0.37860728027E-02  0.83723645571E-03  0.35526022473E-01  0.35750994182E-01  0.10000000475E-02 0.  1.
</event>
<event>
 4   0  0.4892667E-02  0.9118800E+02  0.7818609E-02  0.1379984E+01
      -11   -1    0    0    0    0  0.00000000000E+00  0.00000000000E+00  0.35740347158E-01  0.35744000000E-01  0.51099999109E-03 0.  1.
       11   -1    0    0    0    0 -0.00000000000E+00 -0.00000000000E+00 -0.35740347158E-01  0.35744000000E-01  0.51099999109E-03 0. -1.
       22    1    1    2    0    0  0.49956660043E-03 -0.75413498676E-02 -0.34928671035E-01  0.35737005818E-01  0.00000000000E+00 0. -1.
  9000001    1    1    2    0    0 -0.49956660043E-03  0.75413498676E-02  0.34928671035E-01  0.35750994182E-01  0.10000000475E-02 0.  1.
</event>
<event>
 4   0  0.4892667E-02  0.9118800E+02  0.7818609E-02  0.1379984E+01
      -11   -1    0    0    0    0  0.00000000000E+00  0.00000000000E+00  0.35740347158E-01  0.35744000000E-01  0.51099999109E-03 0.  1.
       11   -1    0    0    0    0 -0.00000000000E+00 -0.00000000000E+00 -0.35740347158E-01  0.35744000000E-01  0.51099999109E-03 0. -1.
       22    1    1    2    0    0  0.53910233251E-02  0.36676991595E-02  0.35137137551E-01  0.35737005818E-01  0.00000000000E+00 0.  1.
  9000001    1    1    2    0    0 -0.53910233251E-02 -0.36676991595E-02 -0.35137137551E-01  0.35750994182E-01  0.10000000475E-02 0. -1.
</event>
<event>
 4   0  0.4892667E-02  0.9118800E+02  0.7818609E-02  0.1379984E+01
      -11   -1    0    0    0    0  0.00000000000E+00  0.00000000000E+00  0.35740347158E-01  0.35744000000E-01  0.51099999109E-03 0.  1.
       11   -1    0    0    0    0 -0.00000000000E+00 -0.00000000000E+00 -0.35740347158E-01  0.35744000000E-01  0.51099999109E-03 0. -1.
       22    1    1    2    0    0 -0.68040444235E-02 -0.19469661078E-02 -0.35029243317E-01  0.35737005818E-01  0.00000000000E+00 0. -1.
  9000001    1    1    2    0    0  0.68040444235E-02  0.19469661078E-02  0.35029243317E-01  0.35750994182E-01  0.10000000475E-02 0.  1.
</event>
<event>
 4   0  0.4892667E-02  0.9118800E+02  0.7818609E-02  0.1379984E+01
      -11   -1    0    0    0    0  0.00000000000E+00  0.00000000000E+00  0.35740347158E-01  0.35744000000E-01  0.51099999109E-03 0. -1.
       11   -1    0    0    0    0 -0.00000000000E+00 -0.00000000000E+00 -0.35740347158E-01  0.35744000000E-01  0.51099999109E-03 0.  1.
       22    1    1    2    0    0  0.30294261468E-01 -0.60704012112E-02  0.17959441419E-01  0.35737005818E-01  0.00000000000E+00 0. -1.
  9000001    1    1    2    0    0 -0.30294261468E-01  0.60704012112E-02 -0.17959441419E-01  0.35750994182E-01  0.10000000475E-02 0.  1.
</event>
<event>
 4   0  0.4892667E-02  0.9118800E+02  0.7818609E-02  0.1379984E+01
      -11   -1    0    0    0    0  0.00000000000E+00  0.00000000000E+00  0.35740347158E-01  0.35744000000E-01  0.51099999109E-03 0.  1.
       11   -1    0    0    0    0 -0.00000000000E+00 -0.00000000000E+00 -0.35740347158E-01  0.35744000000E-01  0.51099999109E-03 0. -1.
       22    1    1    2    0    0  0.46040560796E-02 -0.48306766193E-02  0.35108415172E-01  0.35737005818E-01  0.00000000000E+00 0.  1.
  9000001    1    1    2    0    0 -0.46040560796E-02  0.48306766193E-02 -0.35108415172E-01  0.35750994182E-01  0.10000000475E-02 0. -1.
</event>
<event>
 4   0  0.4892667E-02  0.9118800E+02  0.7818609E-02  0.1379984E+01
      -11   -1    0    0    0    0  0.00000000000E+00  0.00000000000E+00  0.35740347158E-01  0.35744000000E-01  0.51099999109E-03 0. -1.
       11   -1    0    0    0    0 -0.00000000000E+00 -0.00000000000E+00 -0.35740347158E-01  0.35744000000E-01  0.51099999109E-03 0.  1.
       22    1    1    2    0    0  0.98364751300E-03 -0.19037628048E-01 -0.30228045599E-01  0.35737005818E-01  0.00000000000E+00 0.  1.
  9000001    1    1    2    0    0 -0.98364751300E-03  0.19037628048E-01  0.30228045599E-01  0.35750994182E-01  0.10000000475E-02 0. -1.
</event>
<event>
 4   0  0.4892667E-02  0.9118800E+02  0.7818609E-02  0.1379984E+01
      -11   -1    0    0    0    0  0.00000000000E+00  0.00000000000E+00  0.35740347158E-01  0.35744000000E-01  0.51099999109E-03 0.  1.
       11   -1    0    0    0    0 -0.00000000000E+00 -0.00000000000E+00 -0.35740347158E-01  0.35744000000E-01  0.51099999109E-03 0. -1.
       22    1    1    2    0    0  0.58541608050E-02  0.93235298541E-03  0.35241922536E-01  0.35737005818E-01  0.00000000000E+00 0.  1.
  9000001    1    1    2    0    0 -0.58541608050E-02 -0.93235298541E-03 -0.35241922536E-01  0.35750994182E-01  0.10000000475E-02 0. -1.
</event>
<event>
 4   0  0.4892667E-02  0.9118800E+02  0.7818609E-02  0.1379984E+01
      -11   -1    0    0    0    0  0.00000000000E+00  0.00000000000E+00  0.35740347158E-01  0.35744000000E-01  0.51099999109E-03 0. -1.
       11   -1    0    0    0    0 -0.00000000000E+00 -0.00000000000E+00 -0.35740347158E-01  0.35744000000E-01  0.51099999109E-03 0.  1.
       22    1    1    2    0    0  0.71362402578E-02  0.23614217598E-01 -0.25856844105E-01  0.35737005818E-01  0.00000000000E+00 0.  1.
  9000001    1    1    2    0    0 -0.71362402578E-02 -0.23614217598E-01  0.25856844105E-01  0.35750994182E-01  0.10000000475E-02 0. -1.
</event>
<event>
 4   0  0.4892667E-02  0.9118800E+02  0.7818609E-02  0.1379984E+01
      -11   -1    0    0    0    0  0.00000000000E+00  0.00000000000E+00  0.35740347158E-01  0.35744000000E-01  0.51099999109E-03 0.  1.
       11   -1    0    0    0    0 -0.00000000000E+00 -0.00000000000E+00 -0.35740347158E-01  0.35744000000E-01  0.51099999109E-03 0. -1.
       22    1    1    2    0    0  0.95043291232E-02 -0.53669369408E-02  0.34029359392E-01  0.35737005818E-01  0.00000000000E+00 0.  1.
  9000001    1    1    2    0    0 -0.95043291232E-02  0.53669369408E-02 -0.34029359392E-01  0.35750994182E-01  0.10000000475E-02 0. -1.
</event>
<event>
 4   0  0.4892667E-02  0.9118800E+02  0.7818609E-02  0.1379984E+01
      -11   -1    0    0    0    0  0.00000000000E+00  0.00000000000E+00  0.35740347158E-01  0.35744000000E-01  0.51099999109E-03 0.  1.
       11   -1    0    0    0    0 -0.00000000000E+00 -0.00000000000E+00 -0.35740347158E-01  0.35744000000E-01  0.51099999109E-03 0. -1.
       22    1    1    2    0    0  0.18453789082E-01  0.20314572002E-01  0.22889067647E-01  0.35737005818E-01  0.00000000000E+00 0.  1.
  9000001    1    1    2    0    0 -0.18453789082E-01 -0.20314572002E-01 -0.22889067647E-01  0.35750994182E-01  0.10000000475E-02 0. -1.
</event>
<event>
 4   0  0.4892667E-02  0.9118800E+02  0.7818609E-02  0.1379984E+01
      -11   -1    0    0    0    0  0.00000000000E+00  0.00000000000E+00  0.35740347158E-01  0.35744000000E-01  0.51099999109E-03 0.  1.
       11   -1    0    0    0    0 -0.00000000000E+00 -0.00000000000E+00 -0.35740347158E-01  0.35744000000E-01  0.51099999109E-03 0. -1.
       22    1    1    2    0    0  0.65213131147E-02 -0.30366662511E-01 -0.17676873821E-01  0.35737005818E-01  0.00000000000E+00 0. -1.
  9000001    1    1    2    0    0 -0.65213131147E-02  0.30366662511E-01  0.17676873821E-01  0.35750994182E-01  0.10000000475E-02 0.  1.
</event>
<event>
 4   0  0.4892667E-02  0.9118800E+02  0.7818609E-02  0.1379984E+01
      -11   -1    0    0    0    0  0.00000000000E+00  0.00000000000E+00  0.35740347158E-01  0.35744000000E-01  0.51099999109E-03 0. -1.
       11   -1    0    0    0    0 -0.00000000000E+00 -0.00000000000E+00 -0.35740347158E-01  0.35744000000E-01  0.51099999109E-03 0.  1.
       22    1    1    2    0    0 -0.17940677775E-02  0.21397612861E-01 -0.28566712613E-01  0.35737005818E-01  0.00000000000E+00 0.  1.
  9000001    1    1    2    0    0  0.17940677775E-02 -0.21397612861E-01  0.28566712613E-01  0.35750994182E-01  0.10000000475E-02 0. -1.
</event>
<event>
 4   0  0.4892667E-02  0.9118800E+02  0.7818609E-02  0.1379984E+01
      -11   -1    0    0    0    0  0.00000000000E+00  0.00000000000E+00  0.35740347158E-01  0.35744000000E-01  0.51099999109E-03 0.  1.
       11   -1    0    0    0    0 -0.00000000000E+00 -0.00000000000E+00 -0.35740347158E-01  0.35744000000E-01  0.51099999109E-03 0. -1.
       22    1    1    2    0    0  0.96131240993E-02  0.86985714447E-02  0.33302496674E-01  0.35737005818E-01  0.00000000000E+00 0.  1.
  9000001    1    1    2    0    0 -0.96131240993E-02 -0.86985714447E-02 -0.33302496674E-01  0.35750994182E-01  0.10000000475E-02 0. -1.
</event>
<event>
 4   0  0.4892667E-02  0.9118800E+02  0.7818609E-02  0.1379984E+01
      -11   -1    0    0    0    0  0.00000000000E+00  0.00000000000E+00  0.35740347158E-01  0.35744000000E-01  0.51099999109E-03 0.  1.
       11   -1    0    0    0    0 -0.00000000000E+00 -0.00000000000E+00 -0.35740347158E-01  0.35744000000E-01  0.51099999109E-03 0. -1.
       22    1    1    2    0    0  0.89499846778E-02  0.19814334392E-01  0.28362360828E-01  0.35737005818E-01  0.00000000000E+00 0.  1.
  9000001    1    1    2    0    0 -0.89499846778E-02 -0.19814334392E-01 -0.28362360828E-01  0.35750994182E-01  0.10000000475E-02 0. -1.
</event>
<event>
 4   0  0.4892667E-02  0.9118800E+02  0.7818609E-02  0.1379984E+01
      -11   -1    0    0    0    0  0.00000000000E+00  0.00000000000E+00  0.35740347158E-01  0.35744000000E-01  0.51099999109E-03 0. -1.
       11   -1    0    0    0    0 -0.00000000000E+00 -0.00000000000E+00 -0.35740347158E-01  0.35744000000E-01  0.51099999109E-03 0.  1.
       22    1    1    2    0    0 -0.39717667231E-02 -0.61521336208E-02  0.34978706464E-01  0.35737005818E-01  0.00000000000E+00 0. -1.
  9000001    1    1    2    0    0  0.39717667231E-02  0.61521336208E-02 -0.34978706464E-01  0.35750994182E-01  0.10000000475E-02 0.  1.
</event>
<event>
 4   0  0.4892667E-02  0.9118800E+02  0.7818609E-02  0.1379984E+01
      -11   -1    0    0    0    0  0.00000000000E+00  0.00000000000E+00  0.35740347158E-01  0.35744000000E-01  0.51099999109E-03 0.  1.
       11   -1    0    0    0    0 -0.00000000000E+00 -0.00000000000E+00 -0.35740347158E-01  0.35744000000E-01  0.51099999109E-03 0. -1.
       22    1    1    2    0    0  0.38814460758E-02  0.31110081099E-02  0.35389116827E-01  0.35737005818E-01  0.00000000000E+00 0.  1.
  9000001    1    1    2    0    0 -0.38814460758E-02 -0.31110081099E-02 -0.35389116827E-01  0.35750994182E-01  0.10000000475E-02 0. -1.
</event>
<event>
 4   0  0.4892667E-02  0.9118800E+02  0.7818609E-02  0.1379984E+01
      -11   -1    0    0    0    0  0.00000000000E+00  0.00000000000E+00  0.35740347158E-01  0.35744000000E-01  0.51099999109E-03 0. -1.
       11   -1    0    0    0    0 -0.00000000000E+00 -0.00000000000E+00 -0.35740347158E-01  0.35744000000E-01  0.51099999109E-03 0.  1.
       22    1    1    2    0    0  0.14119984120E-01  0.23666286798E-01  0.22752285654E-01  0.35737005818E-01  0.00000000000E+00 0. -1.
  9000001    1    1    2    0    0 -0.14119984120E-01 -0.23666286798E-01 -0.22752285654E-01  0.35750994182E-01  0.10000000475E-02 0.  1.
</event>
<event>
 4   0  0.4892667E-02  0.9118800E+02  0.7818609E-02  0.1379984E+01
      -11   -1    0    0    0    0  0.00000000000E+00  0.00000000000E+00  0.35740347158E-01  0.35744000000E-01  0.51099999109E-03 0. -1.
       11   -1    0    0    0    0 -0.00000000000E+00 -0.00000000000E+00 -0.35740347158E-01  0.35744000000E-01  0.51099999109E-03 0.  1.
       22    1    1    2    0    0  0.25092405578E-02  0.17469557394E-02  0.35605974812E-01  0.35737005818E-01  0.00000000000E+00 0. -1.
  9000001    1    1    2    0    0 -0.25092405578E-02 -0.17469557394E-02 -0.35605974812E-01  0.35750994182E-01  0.10000000475E-02 0.  1.
</event>
<event>
 4   0  0.4892667E-02  0.9118800E+02  0.7818609E-02  0.1379984E+01
      -11   -1    0    0    0    0  0.00000000000E+00  0.00000000000E+00  0.35740347158E-01  0.35744000000E-01  0.51099999109E-03 0.  1.
       11   -1    0    0    0    0 -0.00000000000E+00 -0.00000000000E+00 -0.35740347158E-01  0.35744000000E-01  0.51099999109E-03 0. -1.
       22    1    1    2    0    0 -0.38624146407E-02 -0.11708721321E-01  0.33542826104E-01  0.35737005818E-01  0.00000000000E+00 0.  1.
  9000001    1    1    2    0    0  0.38624146407E-02  0.11708721321E-01 -0.33542826104E-01  0.35750994182E-01  0.10000000475E-02 0. -1.
</event>
<event>
 4   0  0.4892667E-02  0.9118800E+02  0.7818609E-02  0.1379984E+01
      -11   -1    0    0    0    0  0.00000000000E+00  0.00000000000E+00  0.35740347158E-01  0.35744000000E-01  0.51099999109E-03 0.  1.
       11   -1    0    0    0    0 -0.00000000000E+00 -0.00000000000E+00 -0.35740347158E-01  0.35744000000E-01  0.51099999109E-03 0. -1.
       22    1    1    2    0    0 -0.96520884404E-02  0.70742654220E-02  0.33673810927E-01  0.35737005818E-01  0.00000000000E+00 0.  1.
  9000001    1    1    2    0    0  0.96520884404E-02 -0.70742654220E-02 -0.33673810927E-01  0.35750994182E-01  0.10000000475E-02 0. -1.
</event>
<event>
 4   0  0.4892667E-02  0.9118800E+02  0.7818609E-02  0.1379984E+01
      -11   -1    0    0    0    0  0.00000000000E+00  0.00000000000E+00  0.35740347158E-01  0.35744000000E-01  0.51099999109E-03 0.  1.
       11   -1    0    0    0    0 -0.00000000000E+00 -0.00000000000E+00 -0.35740347158E-01  0.35744000000E-01  0.51099999109E-03 0. -1.
       22    1    1    2    0    0  0.70106634440E-02 -0.69272234942E-03  0.35035757715E-01  0.35737005818E-01  0.00000000000E+00 0.  1.
  9000001    1    1    2    0    0 -0.70106634440E-02  0.69272234942E-03 -0.35035757715E-01  0.35750994182E-01  0.10000000475E-02 0. -1.
</event>
<event>
 4   0  0.4892667E-02  0.9118800E+02  0.7818609E-02  0.1379984E+01
      -11   -1    0    0    0    0  0.00000000000E+00  0.00000000000E+00  0.35740347158E-01  0.35744000000E-01  0.51099999109E-03 0.  1.
       11   -1    0    0    0    0 -0.00000000000E+00 -0.00000000000E+00 -0.35740347158E-01  0.35744000000E-01  0.51099999109E-03 0. -1.
       22    1    1    2    0    0 -0.56379249661E-02  0.96293299348E-03 -0.35276339762E-01  0.35737005818E-01  0.00000000000E+00 0. -1.
  9000001    1    1    2    0    0  0.56379249661E-02 -0.96293299348E-03  0.35276339762E-01  0.35750994182E-01  0.10000000475E-02 0.  1.
</event>
<event>
 4   0  0.4892667E-02  0.9118800E+02  0.7818609E-02  0.1379984E+01
      -11   -1    0    0    0    0  0.00000000000E+00  0.00000000000E+00  0.35740347158E-01  0.35744000000E-01  0.51099999109E-03 0.  1.
       11   -1    0    0    0    0 -0.00000000000E+00 -0.00000000000E+00 -0.35740347158E-01  0.35744000000E-01  0.51099999109E-03 0. -1.
       22    1    1    2    0    0  0.25814350621E-02  0.33019789080E-02  0.35490374937E-01  0.35737005818E-01  0.00000000000E+00 0.  1.
  9000001    1    1    2    0    0 -0.25814350621E-02 -0.33019789080E-02 -0.35490374937E-01  0.35750994182E-01  0.10000000475E-02 0. -1.
</event>
<event>
 4   0  0.4892667E-02  0.9118800E+02  0.7818609E-02  0.1379984E+01
      -11   -1    0    0    0    0  0.00000000000E+00  0.00000000000E+00  0.35740347158E-01  0.35744000000E-01  0.51099999109E-03 0. -1.
       11   -1    0    0    0    0 -0.00000000000E+00 -0.00000000000E+00 -0.35740347158E-01  0.35744000000E-01  0.51099999109E-03 0.  1.
       22    1    1    2    0    0 -0.34916995316E-01 -0.71468319731E-02  0.26191249865E-02  0.35737005818E-01  0.00000000000E+00 0. -1.
  9000001    1    1    2    0    0  0.34916995316E-01  0.71468319731E-02 -0.26191249865E-02  0.35750994182E-01  0.10000000475E-02 0.  1.
</event>
<event>
 4   0  0.4892667E-02  0.9118800E+02  0.7818609E-02  0.1379984E+01
      -11   -1    0    0    0    0  0.00000000000E+00  0.00000000000E+00  0.35740347158E-01  0.35744000000E-01  0.51099999109E-03 0.  1.
       11   -1    0    0    0    0 -0.00000000000E+00 -0.00000000000E+00 -0.35740347158E-01  0.35744000000E-01  0.51099999109E-03 0. -1.
       22    1    1    2    0    0 -0.22163251449E-01 -0.17633502610E-01  0.21794115163E-01  0.35737005818E-01  0.00000000000E+00 0.  1.
  9000001    1    1    2    0    0  0.22163251449E-01  0.17633502610E-01 -0.21794115163E-01  0.35750994182E-01  0.10000000475E-02 0. -1.
</event>
<event>
 4   0  0.4892667E-02  0.9118800E+02  0.7818609E-02  0.1379984E+01
      -11   -1    0    0    0    0  0.00000000000E+00  0.00000000000E+00  0.35740347158E-01  0.35744000000E-01  0.51099999109E-03 0.  1.
       11   -1    0    0    0    0 -0.00000000000E+00 -0.00000000000E+00 -0.35740347158E-01  0.35744000000E-01  0.51099999109E-03 0. -1.
       22    1    1    2    0    0  0.17963598255E-01  0.30422043287E-01  0.53797773972E-02  0.35737005818E-01  0.00000000000E+00 0. -1.
  9000001    1    1    2    0    0 -0.17963598255E-01 -0.30422043287E-01 -0.53797773972E-02  0.35750994182E-01  0.10000000475E-02 0.  1.
</event>
<event>
 4   0  0.4892667E-02  0.9118800E+02  0.7818609E-02  0.1379984E+01
      -11   -1    0    0    0    0  0.00000000000E+00  0.00000000000E+00  0.35740347158E-01  0.35744000000E-01  0.51099999109E-03 0. -1.
       11   -1    0    0    0    0 -0.00000000000E+00 -0.00000000000E+00 -0.35740347158E-01  0.35744000000E-01  0.51099999109E-03 0.  1.
       22    1    1    2    0    0 -0.10286409533E-01 -0.40019914414E-02 -0.33989813596E-01  0.35737005818E-01  0.00000000000E+00 0.  1.
  9000001    1    1    2    0    0  0.10286409533E-01  0.40019914414E-02  0.33989813596E-01  0.35750994182E-01  0.10000000475E-02 0. -1.
</event>
<event>
 4   0  0.4892667E-02  0.9118800E+02  0.7818609E-02  0.1379984E+01
      -11   -1    0    0    0    0  0.00000000000E+00  0.00000000000E+00  0.35740347158E-01  0.35744000000E-01  0.51099999109E-03 0.  1.
       11   -1    0    0    0    0 -0.00000000000E+00 -0.00000000000E+00 -0.35740347158E-01  0.35744000000E-01  0.51099999109E-03 0. -1.
       22    1    1    2    0    0  0.42973909235E-02 -0.25694501650E-01 -0.24463413521E-01  0.35737005818E-01  0.00000000000E+00 0. -1.
  9000001    1    1    2    0    0 -0.42973909235E-02  0.25694501650E-01  0.24463413521E-01  0.35750994182E-01  0.10000000475E-02 0.  1.
</event>
<event>
 4   0  0.4892667E-02  0.9118800E+02  0.7818609E-02  0.1379984E+01
      -11   -1    0    0    0    0  0.00000000000E+00  0.00000000000E+00  0.35740347158E-01  0.35744000000E-01  0.51099999109E-03 0.  1.
       11   -1    0    0    0    0 -0.00000000000E+00 -0.00000000000E+00 -0.35740347158E-01  0.35744000000E-01  0.51099999109E-03 0. -1.
       22    1    1    2    0    0 -0.21867369705E-01  0.49493065140E-02 -0.27829051225E-01  0.35737005818E-01  0.00000000000E+00 0. -1.
  9000001    1    1    2    0    0  0.21867369705E-01 -0.49493065140E-02  0.27829051225E-01  0.35750994182E-01  0.10000000475E-02 0.  1.
</event>
<event>
 4   0  0.4892667E-02  0.9118800E+02  0.7818609E-02  0.1379984E+01
      -11   -1    0    0    0    0  0.00000000000E+00  0.00000000000E+00  0.35740347158E-01  0.35744000000E-01  0.51099999109E-03 0.  1.
       11   -1    0    0    0    0 -0.00000000000E+00 -0.00000000000E+00 -0.35740347158E-01  0.35744000000E-01  0.51099999109E-03 0. -1.
       22    1    1    2    0    0 -0.23057063314E-01  0.69292760058E-02 -0.26410046389E-01  0.35737005818E-01  0.00000000000E+00 0. -1.
  9000001    1    1    2    0    0  0.23057063314E-01 -0.69292760058E-02  0.26410046389E-01  0.35750994182E-01  0.10000000475E-02 0.  1.
</event>
<event>
 4   0  0.4892667E-02  0.9118800E+02  0.7818609E-02  0.1379984E+01
      -11   -1    0    0    0    0  0.00000000000E+00  0.00000000000E+00  0.35740347158E-01  0.35744000000E-01  0.51099999109E-03 0. -1.
       11   -1    0    0    0    0 -0.00000000000E+00 -0.00000000000E+00 -0.35740347158E-01  0.35744000000E-01  0.51099999109E-03 0.  1.
       22    1    1    2    0    0 -0.27324385326E-02 -0.40639460203E-02  0.35399882871E-01  0.35737005818E-01  0.00000000000E+00 0. -1.
  9000001    1    1    2    0    0  0.27324385326E-02  0.40639460203E-02 -0.35399882871E-01  0.35750994182E-01  0.10000000475E-02 0.  1.
</event>
<event>
 4   0  0.4892667E-02  0.9118800E+02  0.7818609E-02  0.1379984E+01
      -11   -1    0    0    0    0  0.00000000000E+00  0.00000000000E+00  0.35740347158E-01  0.35744000000E-01  0.51099999109E-03 0.  1.
       11   -1    0    0    0    0 -0.00000000000E+00 -0.00000000000E+00 -0.35740347158E-01  0.35744000000E-01  0.51099999109E-03 0. -1.
       22    1    1    2    0    0  0.14407036026E-01  0.32241546866E-01  0.54821121404E-02  0.35737005818E-01  0.00000000000E+00 0. -1.
  9000001    1    1    2    0    0 -0.14407036026E-01 -0.32241546866E-01 -0.54821121404E-02  0.35750994182E-01  0.10000000475E-02 0.  1.
</event>
<event>
 4   0  0.4892667E-02  0.9118800E+02  0.7818609E-02  0.1379984E+01
      -11   -1    0    0    0    0  0.00000000000E+00  0.00000000000E+00  0.35740347158E-01  0.35744000000E-01  0.51099999109E-03 0.  1.
       11   -1    0    0    0    0 -0.00000000000E+00 -0.00000000000E+00 -0.35740347158E-01  0.35744000000E-01  0.51099999109E-03 0. -1.
       22    1    1    2    0    0 -0.88780498876E-02 -0.10657162442E-01  0.32935371620E-01  0.35737005818E-01  0.00000000000E+00 0.  1.
  9000001    1    1    2    0    0  0.88780498876E-02  0.10657162442E-01 -0.32935371620E-01  0.35750994182E-01  0.10000000475E-02 0. -1.
</event>
<event>
 4   0  0.4892667E-02  0.9118800E+02  0.7818609E-02  0.1379984E+01
      -11   -1    0    0    0    0  0.00000000000E+00  0.00000000000E+00  0.35740347158E-01  0.35744000000E-01  0.51099999109E-03 0. -1.
       11   -1    0    0    0    0 -0.00000000000E+00 -0.00000000000E+00 -0.35740347158E-01  0.35744000000E-01  0.51099999109E-03 0.  1.
       22    1    1    2    0    0  0.20118831679E-01 -0.98688376530E-02  0.27838323228E-01  0.35737005818E-01  0.00000000000E+00 0. -1.
  9000001    1    1    2    0    0 -0.20118831679E-01  0.98688376530E-02 -0.27838323228E-01  0.35750994182E-01  0.10000000475E-02 0.  1.
</event>
<event>
 4   0  0.4892667E-02  0.9118800E+02  0.7818609E-02  0.1379984E+01
      -11   -1    0    0    0    0  0.00000000000E+00  0.00000000000E+00  0.35740347158E-01  0.35744000000E-01  0.51099999109E-03 0. -1.
       11   -1    0    0    0    0 -0.00000000000E+00 -0.00000000000E+00 -0.35740347158E-01  0.35744000000E-01  0.51099999109E-03 0.  1.
       22    1    1    2    0    0  0.13930041391E-01 -0.13706353117E-01  0.29920284356E-01  0.35737005818E-01  0.00000000000E+00 0. -1.
  9000001    1    1    2    0    0 -0.13930041391E-01  0.13706353117E-01 -0.29920284356E-01  0.35750994182E-01  0.10000000475E-02 0.  1.
</event>
<event>
 4   0  0.4892667E-02  0.9118800E+02  0.7818609E-02  0.1379984E+01
      -11   -1    0    0    0    0  0.00000000000E+00  0.00000000000E+00  0.35740347158E-01  0.35744000000E-01  0.51099999109E-03 0. -1.
       11   -1    0    0    0    0 -0.00000000000E+00 -0.00000000000E+00 -0.35740347158E-01  0.35744000000E-01  0.51099999109E-03 0.  1.
       22    1    1    2    0    0  0.23410837857E-01  0.73287516049E-03  0.26991279142E-01  0.35737005818E-01  0.00000000000E+00 0. -1.
  9000001    1    1    2    0    0 -0.23410837857E-01 -0.73287516049E-03 -0.26991279142E-01  0.35750994182E-01  0.10000000475E-02 0.  1.
</event>
<event>
 4   0  0.4892667E-02  0.9118800E+02  0.7818609E-02  0.1379984E+01
      -11   -1    0    0    0    0  0.00000000000E+00  0.00000000000E+00  0.35740347158E-01  0.35744000000E-01  0.51099999109E-03 0.  1.
       11   -1    0    0    0    0 -0.00000000000E+00 -0.00000000000E+00 -0.35740347158E-01  0.35744000000E-01  0.51099999109E-03 0. -1.
       22    1    1    2    0    0  0.11038821742E-01  0.33375909863E-02 -0.33825116198E-01  0.35737005818E-01  0.00000000000E+00 0. -1.
  9000001    1    1    2    0    0 -0.11038821742E-01 -0.33375909863E-02  0.33825116198E-01  0.35750994182E-01  0.10000000475E-02 0.  1.
</event>
<event>
 4   0  0.4892667E-02  0.9118800E+02  0.7818609E-02  0.1379984E+01
      -11   -1    0    0    0    0  0.00000000000E+00  0.00000000000E+00  0.35740347158E-01  0.35744000000E-01  0.51099999109E-03 0.  1.
       11   -1    0    0    0    0 -0.00000000000E+00 -0.00000000000E+00 -0.35740347158E-01  0.35744000000E-01  0.51099999109E-03 0. -1.
       22    1    1    2    0    0  0.34646540514E-01 -0.44108848230E-02  0.75693401545E-02  0.35737005818E-01  0.00000000000E+00 0.  1.
  9000001    1    1    2    0    0 -0.34646540514E-01  0.44108848230E-02 -0.75693401545E-02  0.35750994182E-01  0.10000000475E-02 0. -1.
</event>
<event>
 4   0  0.4892667E-02  0.9118800E+02  0.7818609E-02  0.1379984E+01
      -11   -1    0    0    0    0  0.00000000000E+00  0.00000000000E+00  0.35740347158E-01  0.35744000000E-01  0.51099999109E-03 0. -1.
       11   -1    0    0    0    0 -0.00000000000E+00 -0.00000000000E+00 -0.35740347158E-01  0.35744000000E-01  0.51099999109E-03 0.  1.
       22    1    1    2    0    0 -0.29845782431E-01  0.17570179028E-01 -0.88120182081E-02  0.35737005818E-01  0.00000000000E+00 0. -1.
  9000001    1    1    2    0    0  0.29845782431E-01 -0.17570179028E-01  0.88120182081E-02  0.35750994182E-01  0.10000000475E-02 0.  1.
</event>
<event>
 4   0  0.4892667E-02  0.9118800E+02  0.7818609E-02  0.1379984E+01
      -11   -1    0    0    0    0  0.00000000000E+00  0.00000000000E+00  0.35740347158E-01  0.35744000000E-01  0.51099999109E-03 0.  1.
       11   -1    0    0    0    0 -0.00000000000E+00 -0.00000000000E+00 -0.35740347158E-01  0.35744000000E-01  0.51099999109E-03 0. -1.
       22    1    1    2    0    0 -0.25504479777E-01  0.18198581290E-01  0.17189145854E-01  0.35737005818E-01  0.00000000000E+00 0.  1.
  9000001    1    1    2    0    0  0.25504479777E-01 -0.18198581290E-01 -0.17189145854E-01  0.35750994182E-01  0.10000000475E-02 0. -1.
</event>
<event>
 4   0  0.4892667E-02  0.9118800E+02  0.7818609E-02  0.1379984E+01
      -11   -1    0    0    0    0  0.00000000000E+00  0.00000000000E+00  0.35740347158E-01  0.35744000000E-01  0.51099999109E-03 0. -1.
       11   -1    0    0    0    0 -0.00000000000E+00 -0.00000000000E+00 -0.35740347158E-01  0.35744000000E-01  0.51099999109E-03 0.  1.
       22    1    1    2    0    0  0.34310124885E-02  0.60655309959E-02  0.35050978188E-01  0.35737005818E-01  0.00000000000E+00 0. -1.
  9000001    1    1    2    0    0 -0.34310124885E-02 -0.60655309959E-02 -0.35050978188E-01  0.35750994182E-01  0.10000000475E-02 0.  1.
</event>
<event>
 4   0  0.4892667E-02  0.9118800E+02  0.7818609E-02  0.1379984E+01
      -11   -1    0    0    0    0  0.00000000000E+00  0.00000000000E+00  0.35740347158E-01  0.35744000000E-01  0.51099999109E-03 0.  1.
       11   -1    0    0    0    0 -0.00000000000E+00 -0.00000000000E+00 -0.35740347158E-01  0.35744000000E-01  0.51099999109E-03 0. -1.
       22    1    1    2    0    0 -0.22985339904E-01 -0.67567346212E-02  0.26517056239E-01  0.35737005818E-01  0.00000000000E+00 0.  1.
  9000001    1    1    2    0    0  0.22985339904E-01  0.67567346212E-02 -0.26517056239E-01  0.35750994182E-01  0.10000000475E-02 0. -1.
</event>
<event>
 4   0  0.4892667E-02  0.9118800E+02  0.7818609E-02  0.1379984E+01
      -11   -1    0    0    0    0  0.00000000000E+00  0.00000000000E+00  0.35740347158E-01  0.35744000000E-01  0.51099999109E-03 0.  1.
       11   -1    0    0    0    0 -0.00000000000E+00 -0.00000000000E+00 -0.35740347158E-01  0.35744000000E-01  0.51099999109E-03 0. -1.
       22    1    1    2    0    0 -0.64246984561E-02 -0.88961226674E-03 -0.35143497615E-01  0.35737005818E-01  0.00000000000E+00 0. -1.
  9000001    1    1    2    0    0  0.64246984561E-02  0.88961226674E-03  0.35143497615E-01  0.35750994182E-01  0.10000000475E-02 0.  1.
</event>
<event>
 4   0  0.4892667E-02  0.9118800E+02  0.7818609E-02  0.1379984E+01
      -11   -1    0    0    0    0  0.00000000000E+00  0.00000000000E+00  0.35740347158E-01  0.35744000000E-01  0.51099999109E-03 0. -1.
       11   -1    0    0    0    0 -0.00000000000E+00 -0.00000000000E+00 -0.35740347158E-01  0.35744000000E-01  0.51099999109E-03 0.  1.
       22    1    1    2    0    0 -0.87102110675E-02 -0.11629183252E-01  0.32650082771E-01  0.35737005818E-01  0.00000000000E+00 0. -1.
  9000001    1    1    2    0    0  0.87102110675E-02  0.11629183252E-01 -0.32650082771E-01  0.35750994182E-01  0.10000000475E-02 0.  1.
</event>
<event>
 4   0  0.4892667E-02  0.9118800E+02  0.7818609E-02  0.1379984E+01
      -11   -1    0    0    0    0  0.00000000000E+00  0.00000000000E+00  0.35740347158E-01  0.35744000000E-01  0.51099999109E-03 0.  1.
       11   -1    0    0    0    0 -0.00000000000E+00 -0.00000000000E+00 -0.35740347158E-01  0.35744000000E-01  0.51099999109E-03 0. -1.
       22    1    1    2    0    0 -0.19562688852E-03  0.72891085509E-02  0.34985199893E-01  0.35737005818E-01  0.00000000000E+00 0.  1.
  9000001    1    1    2    0    0  0.19562688852E-03 -0.72891085509E-02 -0.34985199893E-01  0.35750994182E-01  0.10000000475E-02 0. -1.
</event>
<event>
 4   0  0.4892667E-02  0.9118800E+02  0.7818609E-02  0.1379984E+01
      -11   -1    0    0    0    0  0.00000000000E+00  0.00000000000E+00  0.35740347158E-01  0.35744000000E-01  0.51099999109E-03 0.  1.
       11   -1    0    0    0    0 -0.00000000000E+00 -0.00000000000E+00 -0.35740347158E-01  0.35744000000E-01  0.51099999109E-03 0. -1.
       22    1    1    2    0    0  0.70052496809E-02  0.21374495338E-02 -0.34978441521E-01  0.35737005818E-01  0.00000000000E+00 0. -1.
  9000001    1    1    2    0    0 -0.70052496809E-02 -0.21374495338E-02  0.34978441521E-01  0.35750994182E-01  0.10000000475E-02 0.  1.
</event>
<event>
 4   0  0.4892667E-02  0.9118800E+02  0.7818609E-02  0.1379984E+01
      -11   -1    0    0    0    0  0.00000000000E+00  0.00000000000E+00  0.35740347158E-01  0.35744000000E-01  0.51099999109E-03 0.  1.
       11   -1    0    0    0    0 -0.00000000000E+00 -0.00000000000E+00 -0.35740347158E-01  0.35744000000E-01  0.51099999109E-03 0. -1.
       22    1    1    2    0    0  0.36295231479E-02 -0.15979256563E-02  0.35516288942E-01  0.35737005818E-01  0.00000000000E+00 0.  1.
  9000001    1    1    2    0    0 -0.36295231479E-02  0.15979256563E-02 -0.35516288942E-01  0.35750994182E-01  0.10000000475E-02 0. -1.
</event>
<event>
 4   0  0.4892667E-02  0.9118800E+02  0.7818609E-02  0.1379984E+01
      -11   -1    0    0    0    0  0.00000000000E+00  0.00000000000E+00  0.35740347158E-01  0.35744000000E-01  0.51099999109E-03 0. -1.
       11   -1    0    0    0    0 -0.00000000000E+00 -0.00000000000E+00 -0.35740347158E-01  0.35744000000E-01  0.51099999109E-03 0.  1.
       22    1    1    2    0    0  0.81736066337E-02 -0.82889756919E-02 -0.33787847245E-01  0.35737005818E-01  0.00000000000E+00 0.  1.
  9000001    1    1    2    0    0 -0.81736066337E-02  0.82889756919E-02  0.33787847245E-01  0.35750994182E-01  0.10000000475E-02 0. -1.
</event>
<event>
 4   0  0.4892667E-02  0.9118800E+02  0.7818609E-02  0.1379984E+01
      -11   -1    0    0    0    0  0.00000000000E+00  0.00000000000E+00  0.35740347158E-01  0.35744000000E-01  0.51099999109E-03 0.  1.
       11   -1    0    0    0    0 -0.00000000000E+00 -0.00000000000E+00 -0.35740347158E-01  0.35744000000E-01  0.51099999109E-03 0. -1.
       22    1    1    2    0    0  0.86937012823E-02 -0.40164779046E-02 -0.34429944062E-01  0.35737005818E-01  0.00000000000E+00 0. -1.
  9000001    1    1    2    0    0 -0.86937012823E-02  0.40164779046E-02  0.34429944062E-01  0.35750994182E-01  0.10000000475E-02 0.  1.
</event>
<event>
 4   0  0.4892667E-02  0.9118800E+02  0.7818609E-02  0.1379984E+01
      -11   -1    0    0    0    0  0.00000000000E+00  0.00000000000E+00  0.35740347158E-01  0.35744000000E-01  0.51099999109E-03 0.  1.
       11   -1    0    0    0    0 -0.00000000000E+00 -0.00000000000E+00 -0.35740347158E-01  0.35744000000E-01  0.51099999109E-03 0. -1.
       22    1    1    2    0    0 -0.89196382013E-03  0.51003405035E-02 -0.35359928057E-01  0.35737005818E-01  0.00000000000E+00 0. -1.
  9000001    1    1    2    0    0  0.89196382013E-03 -0.51003405035E-02  0.35359928057E-01  0.35750994182E-01  0.10000000475E-02 0.  1.
</event>
<event>
 4   0  0.4892667E-02  0.9118800E+02  0.7818609E-02  0.1379984E+01
      -11   -1    0    0    0    0  0.00000000000E+00  0.00000000000E+00  0.35740347158E-01  0.35744000000E-01  0.51099999109E-03 0. -1.
       11   -1    0    0    0    0 -0.00000000000E+00 -0.00000000000E+00 -0.35740347158E-01  0.35744000000E-01  0.51099999109E-03 0.  1.
       22    1    1    2    0    0  0.44788557836E-02 -0.10802907131E-01 -0.33769374191E-01  0.35737005818E-01  0.00000000000E+00 0.  1.
  9000001    1    1    2    0    0 -0.44788557836E-02  0.10802907131E-01  0.33769374191E-01  0.35750994182E-01  0.10000000475E-02 0. -1.
</event>
<event>
 4   0  0.4892667E-02  0.9118800E+02  0.7818609E-02  0.1379984E+01
      -11   -1    0    0    0    0  0.00000000000E+00  0.00000000000E+00  0.35740347158E-01  0.35744000000E-01  0.51099999109E-03 0. -1.
       11   -1    0    0    0    0 -0.00000000000E+00 -0.00000000000E+00 -0.35740347158E-01  0.35744000000E-01  0.51099999109E-03 0.  1.
       22    1    1    2    0    0  0.11038783558E-01  0.32988846939E-01  0.81862580028E-02  0.35737005818E-01  0.00000000000E+00 0. -1.
  9000001    1    1    2    0    0 -0.11038783558E-01 -0.32988846939E-01 -0.81862580028E-02  0.35750994182E-01  0.10000000475E-02 0.  1.
</event>
<event>
 4   0  0.4892667E-02  0.9118800E+02  0.7818609E-02  0.1379984E+01
      -11   -1    0    0    0    0  0.00000000000E+00  0.00000000000E+00  0.35740347158E-01  0.35744000000E-01  0.51099999109E-03 0.  1.
       11   -1    0    0    0    0 -0.00000000000E+00 -0.00000000000E+00 -0.35740347158E-01  0.35744000000E-01  0.51099999109E-03 0. -1.
       22    1    1    2    0    0  0.52445588292E-02 -0.19412052855E-01 -0.29543195350E-01  0.35737005818E-01  0.00000000000E+00 0. -1.
  9000001    1    1    2    0    0 -0.52445588292E-02  0.19412052855E-01  0.29543195350E-01  0.35750994182E-01  0.10000000475E-02 0.  1.
</event>
<event>
 4   0  0.4892667E-02  0.9118800E+02  0.7818609E-02  0.1379984E+01
      -11   -1    0    0    0    0  0.00000000000E+00  0.00000000000E+00  0.35740347158E-01  0.35744000000E-01  0.51099999109E-03 0.  1.
       11   -1    0    0    0    0 -0.00000000000E+00 -0.00000000000E+00 -0.35740347158E-01  0.35744000000E-01  0.51099999109E-03 0. -1.
       22    1    1    2    0    0  0.21464417397E-02  0.44411633989E-02 -0.35394949363E-01  0.35737005818E-01  0.00000000000E+00 0. -1.
  9000001    1    1    2    0    0 -0.21464417397E-02 -0.44411633989E-02  0.35394949363E-01  0.35750994182E-01  0.10000000475E-02 0.  1.
</event>
<event>
 4   0  0.4892667E-02  0.9118800E+02  0.7818609E-02  0.1379984E+01
      -11   -1    0    0    0    0  0.00000000000E+00  0.00000000000E+00  0.35740347158E-01  0.35744000000E-01  0.51099999109E-03 0.  1.
       11   -1    0    0    0    0 -0.00000000000E+00 -0.00000000000E+00 -0.35740347158E-01  0.35744000000E-01  0.51099999109E-03 0. -1.
       22    1    1    2    0    0  0.98876891069E-02 -0.24028097688E-02 -0.34257753782E-01  0.35737005818E-01  0.00000000000E+00 0. -1.
  9000001    1    1    2    0    0 -0.98876891069E-02  0.24028097688E-02  0.34257753782E-01  0.35750994182E-01  0.10000000475E-02 0.  1.
</event>
<event>
 4   0  0.4892667E-02  0.9118800E+02  0.7818609E-02  0.1379984E+01
      -11   -1    0    0    0    0  0.00000000000E+00  0.00000000000E+00  0.35740347158E-01  0.35744000000E-01  0.51099999109E-03 0.  1.
       11   -1    0    0    0    0 -0.00000000000E+00 -0.00000000000E+00 -0.35740347158E-01  0.35744000000E-01  0.51099999109E-03 0. -1.
       22    1    1    2    0    0  0.13132367497E-01  0.25694355798E-01 -0.21082565994E-01  0.35737005818E-01  0.00000000000E+00 0.  1.
  9000001    1    1    2    0    0 -0.13132367497E-01 -0.25694355798E-01  0.21082565994E-01  0.35750994182E-01  0.10000000475E-02 0. -1.
</event>
<event>
 4   0  0.4892667E-02  0.9118800E+02  0.7818609E-02  0.1379984E+01
      -11   -1    0    0    0    0  0.00000000000E+00  0.00000000000E+00  0.35740347158E-01  0.35744000000E-01  0.51099999109E-03 0. -1.
       11   -1    0    0    0    0 -0.00000000000E+00 -0.00000000000E+00 -0.35740347158E-01  0.35744000000E-01  0.51099999109E-03 0.  1.
       22    1    1    2    0    0 -0.83971466000E-02 -0.92976005907E-02 -0.33469032509E-01  0.35737005818E-01  0.00000000000E+00 0.  1.
  9000001    1    1    2    0    0  0.83971466000E-02  0.92976005907E-02  0.33469032509E-01  0.35750994182E-01  0.10000000475E-02 0. -1.
</event>
<event>
 4   0  0.4892667E-02  0.9118800E+02  0.7818609E-02  0.1379984E+01
      -11   -1    0    0    0    0  0.00000000000E+00  0.00000000000E+00  0.35740347158E-01  0.35744000000E-01  0.51099999109E-03 0.  1.
       11   -1    0    0    0    0 -0.00000000000E+00 -0.00000000000E+00 -0.35740347158E-01  0.35744000000E-01  0.51099999109E-03 0. -1.
       22    1    1    2    0    0  0.55715019311E-02 -0.39232995648E-02  0.35081329388E-01  0.35737005818E-01  0.00000000000E+00 0.  1.
  9000001    1    1    2    0    0 -0.55715019311E-02  0.39232995648E-02 -0.35081329388E-01  0.35750994182E-01  0.10000000475E-02 0. -1.
</event>
<event>
 4   0  0.4892667E-02  0.9118800E+02  0.7818609E-02  0.1379984E+01
      -11   -1    0    0    0    0  0.00000000000E+00  0.00000000000E+00  0.35740347158E-01  0.35744000000E-01  0.51099999109E-03 0. -1.
       11   -1    0    0    0    0 -0.00000000000E+00 -0.00000000000E+00 -0.35740347158E-01  0.35744000000E-01  0.51099999109E-03 0.  1.
       22    1    1    2    0    0  0.12676731902E-01 -0.13198763928E-02  0.33387003152E-01  0.35737005818E-01  0.00000000000E+00 0. -1.
  9000001    1    1    2    0    0 -0.12676731902E-01  0.13198763928E-02 -0.33387003152E-01  0.35750994182E-01  0.10000000475E-02 0.  1.
</event>
<event>
 4   0  0.4892667E-02  0.9118800E+02  0.7818609E-02  0.1379984E+01
      -11   -1    0    0    0    0  0.00000000000E+00  0.00000000000E+00  0.35740347158E-01  0.35744000000E-01  0.51099999109E-03 0.  1.
       11   -1    0    0    0    0 -0.00000000000E+00 -0.00000000000E+00 -0.35740347158E-01  0.35744000000E-01  0.51099999109E-03 0. -1.
       22    1    1    2    0    0  0.15854199487E-01  0.21538001465E-01 -0.23704270425E-01  0.35737005818E-01  0.00000000000E+00 0. -1.
  9000001    1    1    2    0    0 -0.15854199487E-01 -0.21538001465E-01  0.23704270425E-01  0.35750994182E-01  0.10000000475E-02 0.  1.
</event>
<event>
 4   0  0.4892667E-02  0.9118800E+02  0.7818609E-02  0.1379984E+01
      -11   -1    0    0    0    0  0.00000000000E+00  0.00000000000E+00  0.35740347158E-01  0.35744000000E-01  0.51099999109E-03 0.  1.
       11   -1    0    0    0    0 -0.00000000000E+00 -0.00000000000E+00 -0.35740347158E-01  0.35744000000E-01  0.51099999109E-03 0. -1.
       22    1    1    2    0    0 -0.30293635821E-02 -0.44247163349E-03 -0.35605628207E-01  0.35737005818E-01  0.00000000000E+00 0. -1.
  9000001    1    1    2    0    0  0.30293635821E-02  0.44247163349E-03  0.35605628207E-01  0.35750994182E-01  0.10000000475E-02 0.  1.
</event>
<event>
 4   0  0.4892667E-02  0.9118800E+02  0.7818609E-02  0.1379984E+01
      -11   -1    0    0    0    0  0.00000000000E+00  0.00000000000E+00  0.35740347158E-01  0.35744000000E-01  0.51099999109E-03 0. -1.
       11   -1    0    0    0    0 -0.00000000000E+00 -0.00000000000E+00 -0.35740347158E-01  0.35744000000E-01  0.51099999109E-03 0.  1.
       22    1    1    2    0    0  0.23786003895E-01  0.14352932049E-02  0.26632677992E-01  0.35737005818E-01  0.00000000000E+00 0. -1.
  9000001    1    1    2    0    0 -0.23786003895E-01 -0.14352932049E-02 -0.26632677992E-01  0.35750994182E-01  0.10000000475E-02 0.  1.
</event>
<event>
 4   0  0.4892667E-02  0.9118800E+02  0.7818609E-02  0.1379984E+01
      -11   -1    0    0    0    0  0.00000000000E+00  0.00000000000E+00  0.35740347158E-01  0.35744000000E-01  0.51099999109E-03 0. -1.
       11   -1    0    0    0    0 -0.00000000000E+00 -0.00000000000E+00 -0.35740347158E-01  0.35744000000E-01  0.51099999109E-03 0.  1.
       22    1    1    2    0    0 -0.12349813435E-01 -0.54674725441E-02 -0.33086589987E-01  0.35737005818E-01  0.00000000000E+00 0.  1.
  9000001    1    1    2    0    0  0.12349813435E-01  0.54674725441E-02  0.33086589987E-01  0.35750994182E-01  0.10000000475E-02 0. -1.
</event>
<event>
 4   0  0.4892667E-02  0.9118800E+02  0.7818609E-02  0.1379984E+01
      -11   -1    0    0    0    0  0.00000000000E+00  0.00000000000E+00  0.35740347158E-01  0.35744000000E-01  0.51099999109E-03 0.  1.
       11   -1    0    0    0    0 -0.00000000000E+00 -0.00000000000E+00 -0.35740347158E-01  0.35744000000E-01  0.51099999109E-03 0. -1.
       22    1    1    2    0    0  0.14533427385E-01 -0.41737420400E-02  0.32380440866E-01  0.35737005818E-01  0.00000000000E+00 0.  1.
  9000001    1    1    2    0    0 -0.14533427385E-01  0.41737420400E-02 -0.32380440866E-01  0.35750994182E-01  0.10000000475E-02 0. -1.
</event>
<event>
 4   0  0.4892667E-02  0.9118800E+02  0.7818609E-02  0.1379984E+01
      -11   -1    0    0    0    0  0.00000000000E+00  0.00000000000E+00  0.35740347158E-01  0.35744000000E-01  0.51099999109E-03 0. -1.
       11   -1    0    0    0    0 -0.00000000000E+00 -0.00000000000E+00 -0.35740347158E-01  0.35744000000E-01  0.51099999109E-03 0.  1.
       22    1    1    2    0    0  0.20646269818E-01  0.11577630679E-01  0.26773561499E-01  0.35737005818E-01  0.00000000000E+00 0. -1.
  9000001    1    1    2    0    0 -0.20646269818E-01 -0.11577630679E-01 -0.26773561499E-01  0.35750994182E-01  0.10000000475E-02 0.  1.
</event>
<event>
 4   0  0.4892667E-02  0.9118800E+02  0.7818609E-02  0.1379984E+01
      -11   -1    0    0    0    0  0.00000000000E+00  0.00000000000E+00  0.35740347158E-01  0.35744000000E-01  0.51099999109E-03 0. -1.
       11   -1    0    0    0    0 -0.00000000000E+00 -0.00000000000E+00 -0.35740347158E-01  0.35744000000E-01  0.51099999109E-03 0.  1.
       22    1    1    2    0    0  0.26017595910E-02 -0.29192174070E-02 -0.35522423927E-01  0.35737005818E-01  0.00000000000E+00 0.  1.
  9000001    1    1    2    0    0 -0.26017595910E-02  0.29192174070E-02  0.35522423927E-01  0.35750994182E-01  0.10000000475E-02 0. -1.
</event>
<event>
 4   0  0.4892667E-02  0.9118800E+02  0.7818609E-02  0.1379984E+01
      -11   -1    0    0    0    0  0.00000000000E+00  0.00000000000E+00  0.35740347158E-01  0.35744000000E-01  0.51099999109E-03 0.  1.
       11   -1    0    0    0    0 -0.00000000000E+00 -0.00000000000E+00 -0.35740347158E-01  0.35744000000E-01  0.51099999109E-03 0. -1.
       22    1    1    2    0    0 -0.13516645432E-01 -0.23667448503E-01  0.23114622266E-01  0.35737005818E-01  0.00000000000E+00 0.  1.
  9000001    1    1    2    0    0  0.13516645432E-01  0.23667448503E-01 -0.23114622266E-01  0.35750994182E-01  0.10000000475E-02 0. -1.
</event>
<event>
 4   0  0.4892667E-02  0.9118800E+02  0.7818609E-02  0.1379984E+01
      -11   -1    0    0    0    0  0.00000000000E+00  0.00000000000E+00  0.35740347158E-01  0.35744000000E-01  0.51099999109E-03 0. -1.
       11   -1    0    0    0    0 -0.00000000000E+00 -0.00000000000E+00 -0.35740347158E-01  0.35744000000E-01  0.51099999109E-03 0.  1.
       22    1    1    2    0    0  0.74731368823E-02  0.23543512312E-01  0.25826127043E-01  0.35737005818E-01  0.00000000000E+00 0. -1.
  9000001    1    1    2    0    0 -0.74731368823E-02 -0.23543512312E-01 -0.25826127043E-01  0.35750994182E-01  0.10000000475E-02 0.  1.
</event>
<event>
 4   0  0.4892667E-02  0.9118800E+02  0.7818609E-02  0.1379984E+01
      -11   -1    0    0    0    0  0.00000000000E+00  0.00000000000E+00  0.35740347158E-01  0.35744000000E-01  0.51099999109E-03 0. -1.
       11   -1    0    0    0    0 -0.00000000000E+00 -0.00000000000E+00 -0.35740347158E-01  0.35744000000E-01  0.51099999109E-03 0.  1.
       22    1    1    2    0    0  0.14204484366E-01 -0.15602257241E-01 -0.28843296929E-01  0.35737005818E-01  0.00000000000E+00 0.  1.
  9000001    1    1    2    0    0 -0.14204484366E-01  0.15602257241E-01  0.28843296929E-01  0.35750994182E-01  0.10000000475E-02 0. -1.
</event>
<event>
 4   0  0.4892667E-02  0.9118800E+02  0.7818609E-02  0.1379984E+01
      -11   -1    0    0    0    0  0.00000000000E+00  0.00000000000E+00  0.35740347158E-01  0.35744000000E-01  0.51099999109E-03 0.  1.
       11   -1    0    0    0    0 -0.00000000000E+00 -0.00000000000E+00 -0.35740347158E-01  0.35744000000E-01  0.51099999109E-03 0. -1.
       22    1    1    2    0    0 -0.34199426689E-02  0.18552153956E-02  0.35524579559E-01  0.35737005818E-01  0.00000000000E+00 0.  1.
  9000001    1    1    2    0    0  0.34199426689E-02 -0.18552153956E-02 -0.35524579559E-01  0.35750994182E-01  0.10000000475E-02 0. -1.
</event>
<event>
 4   0  0.4892667E-02  0.9118800E+02  0.7818609E-02  0.1379984E+01
      -11   -1    0    0    0    0  0.00000000000E+00  0.00000000000E+00  0.35740347158E-01  0.35744000000E-01  0.51099999109E-03 0.  1.
       11   -1    0    0    0    0 -0.00000000000E+00 -0.00000000000E+00 -0.35740347158E-01  0.35744000000E-01  0.51099999109E-03 0. -1.
       22    1    1    2    0    0 -0.81926088299E-02  0.15850404058E-02  0.34749135131E-01  0.35737005818E-01  0.00000000000E+00 0.  1.
  9000001    1    1    2    0    0  0.81926088299E-02 -0.15850404058E-02 -0.34749135131E-01  0.35750994182E-01  0.10000000475E-02 0. -1.
</event>
<event>
 4   0  0.4892667E-02  0.9118800E+02  0.7818609E-02  0.1379984E+01
      -11   -1    0    0    0    0  0.00000000000E+00  0.00000000000E+00  0.35740347158E-01  0.35744000000E-01  0.51099999109E-03 0.  1.
       11   -1    0    0    0    0 -0.00000000000E+00 -0.00000000000E+00 -0.35740347158E-01  0.35744000000E-01  0.51099999109E-03 0. -1.
       22    1    1    2    0    0  0.38813546912E-02  0.63740527101E-03  0.35519887178E-01  0.35737005818E-01  0.00000000000E+00 0.  1.
  9000001    1    1    2    0    0 -0.38813546912E-02 -0.63740527101E-03 -0.35519887178E-01  0.35750994182E-01  0.10000000475E-02 0. -1.
</event>
<event>
 4   0  0.4892667E-02  0.9118800E+02  0.7818609E-02  0.1379984E+01
      -11   -1    0    0    0    0  0.00000000000E+00  0.00000000000E+00  0.35740347158E-01  0.35744000000E-01  0.51099999109E-03 0.  1.
       11   -1    0    0    0    0 -0.00000000000E+00 -0.00000000000E+00 -0.35740347158E-01  0.35744000000E-01  0.51099999109E-03 0. -1.
       22    1    1    2    0    0 -0.62776819298E-02 -0.94466654862E-02  0.33889302230E-01  0.35737005818E-01  0.00000000000E+00 0.  1.
  9000001    1    1    2    0    0  0.62776819298E-02  0.94466654862E-02 -0.33889302230E-01  0.35750994182E-01  0.10000000475E-02 0. -1.
</event>
<event>
 4   0  0.4892667E-02  0.9118800E+02  0.7818609E-02  0.1379984E+01
      -11   -1    0    0    0    0  0.00000000000E+00  0.00000000000E+00  0.35740347158E-01  0.35744000000E-01  0.51099999109E-03 0.  1.
       11   -1    0    0    0    0 -0.00000000000E+00 -0.00000000000E+00 -0.35740347158E-01  0.35744000000E-01  0.51099999109E-03 0. -1.
       22    1    1    2    0    0 -0.53377503809E-02 -0.88805047479E-03 -0.35324968112E-01  0.35737005818E-01  0.00000000000E+00 0. -1.
  9000001    1    1    2    0    0  0.53377503809E-02  0.88805047479E-03  0.35324968112E-01  0.35750994182E-01  0.10000000475E-02 0.  1.
</event>
<event>
 4   0  0.4892667E-02  0.9118800E+02  0.7818609E-02  0.1379984E+01
      -11   -1    0    0    0    0  0.00000000000E+00  0.00000000000E+00  0.35740347158E-01  0.35744000000E-01  0.51099999109E-03 0.  1.
       11   -1    0    0    0    0 -0.00000000000E+00 -0.00000000000E+00 -0.35740347158E-01  0.35744000000E-01  0.51099999109E-03 0. -1.
       22    1    1    2    0    0  0.76867074015E-05  0.25279390669E-01 -0.25260362888E-01  0.35737005818E-01  0.00000000000E+00 0. -1.
  9000001    1    1    2    0    0 -0.76867074015E-05 -0.25279390669E-01  0.25260362888E-01  0.35750994182E-01  0.10000000475E-02 0.  1.
</event>
<event>
 4   0  0.4892667E-02  0.9118800E+02  0.7818609E-02  0.1379984E+01
      -11   -1    0    0    0    0  0.00000000000E+00  0.00000000000E+00  0.35740347158E-01  0.35744000000E-01  0.51099999109E-03 0.  1.
       11   -1    0    0    0    0 -0.00000000000E+00 -0.00000000000E+00 -0.35740347158E-01  0.35744000000E-01  0.51099999109E-03 0. -1.
       22    1    1    2    0    0  0.15482503866E-02 -0.13084353075E-01 -0.33219515503E-01  0.35737005818E-01  0.00000000000E+00 0. -1.
  9000001    1    1    2    0    0 -0.15482503866E-02  0.13084353075E-01  0.33219515503E-01  0.35750994182E-01  0.10000000475E-02 0.  1.
</event>
<event>
 4   0  0.4892667E-02  0.9118800E+02  0.7818609E-02  0.1379984E+01
      -11   -1    0    0    0    0  0.00000000000E+00  0.00000000000E+00  0.35740347158E-01  0.35744000000E-01  0.51099999109E-03 0. -1.
       11   -1    0    0    0    0 -0.00000000000E+00 -0.00000000000E+00 -0.35740347158E-01  0.35744000000E-01  0.51099999109E-03 0.  1.
       22    1    1    2    0    0 -0.16518795183E-02  0.30181725701E-01 -0.19064844942E-01  0.35737005818E-01  0.00000000000E+00 0. -1.
  9000001    1    1    2    0    0  0.16518795183E-02 -0.30181725701E-01  0.19064844942E-01  0.35750994182E-01  0.10000000475E-02 0.  1.
</event>
<event>
 4   0  0.4892667E-02  0.9118800E+02  0.7818609E-02  0.1379984E+01
      -11   -1    0    0    0    0  0.00000000000E+00  0.00000000000E+00  0.35740347158E-01  0.35744000000E-01  0.51099999109E-03 0.  1.
       11   -1    0    0    0    0 -0.00000000000E+00 -0.00000000000E+00 -0.35740347158E-01  0.35744000000E-01  0.51099999109E-03 0. -1.
       22    1    1    2    0    0  0.28051664937E-02 -0.63261249908E-02 -0.35060587109E-01  0.35737005818E-01  0.00000000000E+00 0. -1.
  9000001    1    1    2    0    0 -0.28051664937E-02  0.63261249908E-02  0.35060587109E-01  0.35750994182E-01  0.10000000475E-02 0.  1.
</event>
<event>
 4   0  0.4892667E-02  0.9118800E+02  0.7818609E-02  0.1379984E+01
      -11   -1    0    0    0    0  0.00000000000E+00  0.00000000000E+00  0.35740347158E-01  0.35744000000E-01  0.51099999109E-03 0.  1.
       11   -1    0    0    0    0 -0.00000000000E+00 -0.00000000000E+00 -0.35740347158E-01  0.35744000000E-01  0.51099999109E-03 0. -1.
       22    1    1    2    0    0  0.49393573720E-02  0.38135440577E-02 -0.35187969753E-01  0.35737005818E-01  0.00000000000E+00 0. -1.
  9000001    1    1    2    0    0 -0.49393573720E-02 -0.38135440577E-02  0.35187969753E-01  0.35750994182E-01  0.10000000475E-02 0.  1.
</event>
<event>
 4   0  0.4892667E-02  0.9118800E+02  0.7818609E-02  0.1379984E+01
      -11   -1    0    0    0    0  0.00000000000E+00  0.00000000000E+00  0.35740347158E-01  0.35744000000E-01  0.51099999109E-03 0. -1.
       11   -1    0    0    0    0 -0.00000000000E+00 -0.00000000000E+00 -0.35740347158E-01  0.35744000000E-01  0.51099999109E-03 0.  1.
       22    1    1    2    0    0 -0.10350424437E-01  0.34205117535E-01 -0.11060388504E-03  0.35737005818E-01  0.00000000000E+00 0. -1.
  9000001    1    1    2    0    0  0.10350424437E-01 -0.34205117535E-01  0.11060388504E-03  0.35750994182E-01  0.10000000475E-02 0.  1.
</event>
<event>
 4   0  0.4892667E-02  0.9118800E+02  0.7818609E-02  0.1379984E+01
      -11   -1    0    0    0    0  0.00000000000E+00  0.00000000000E+00  0.35740347158E-01  0.35744000000E-01  0.51099999109E-03 0. -1.
       11   -1    0    0    0    0 -0.00000000000E+00 -0.00000000000E+00 -0.35740347158E-01  0.35744000000E-01  0.51099999109E-03 0.  1.
       22    1    1    2    0    0  0.77998927625E-02 -0.61067863393E-02 -0.34336604642E-01  0.35737005818E-01  0.00000000000E+00 0.  1.
  9000001    1    1    2    0    0 -0.77998927625E-02  0.61067863393E-02  0.34336604642E-01  0.35750994182E-01  0.10000000475E-02 0. -1.
</event>
<event>
 4   0  0.4892667E-02  0.9118800E+02  0.7818609E-02  0.1379984E+01
      -11   -1    0    0    0    0  0.00000000000E+00  0.00000000000E+00  0.35740347158E-01  0.35744000000E-01  0.51099999109E-03 0. -1.
       11   -1    0    0    0    0 -0.00000000000E+00 -0.00000000000E+00 -0.35740347158E-01  0.35744000000E-01  0.51099999109E-03 0.  1.
       22    1    1    2    0    0  0.33709934400E-02  0.40737055975E-02  0.35343668610E-01  0.35737005818E-01  0.00000000000E+00 0. -1.
  9000001    1    1    2    0    0 -0.33709934400E-02 -0.40737055975E-02 -0.35343668610E-01  0.35750994182E-01  0.10000000475E-02 0.  1.
</event>
<event>
 4   0  0.4892667E-02  0.9118800E+02  0.7818609E-02  0.1379984E+01
      -11   -1    0    0    0    0  0.00000000000E+00  0.00000000000E+00  0.35740347158E-01  0.35744000000E-01  0.51099999109E-03 0. -1.
       11   -1    0    0    0    0 -0.00000000000E+00 -0.00000000000E+00 -0.35740347158E-01  0.35744000000E-01  0.51099999109E-03 0.  1.
       22    1    1    2    0    0 -0.35498418667E-02  0.35229022867E-02  0.35385327002E-01  0.35737005818E-01  0.00000000000E+00 0. -1.
  9000001    1    1    2    0    0  0.35498418667E-02 -0.35229022867E-02 -0.35385327002E-01  0.35750994182E-01  0.10000000475E-02 0.  1.
</event>
<event>
 4   0  0.4892667E-02  0.9118800E+02  0.7818609E-02  0.1379984E+01
      -11   -1    0    0    0    0  0.00000000000E+00  0.00000000000E+00  0.35740347158E-01  0.35744000000E-01  0.51099999109E-03 0. -1.
       11   -1    0    0    0    0 -0.00000000000E+00 -0.00000000000E+00 -0.35740347158E-01  0.35744000000E-01  0.51099999109E-03 0.  1.
       22    1    1    2    0    0 -0.12067324771E-01 -0.21885207283E-01  0.25545077020E-01  0.35737005818E-01  0.00000000000E+00 0. -1.
  9000001    1    1    2    0    0  0.12067324771E-01  0.21885207283E-01 -0.25545077020E-01  0.35750994182E-01  0.10000000475E-02 0.  1.
</event>
<event>
 4   0  0.4892667E-02  0.9118800E+02  0.7818609E-02  0.1379984E+01
      -11   -1    0    0    0    0  0.00000000000E+00  0.00000000000E+00  0.35740347158E-01  0.35744000000E-01  0.51099999109E-03 0.  1.
       11   -1    0    0    0    0 -0.00000000000E+00 -0.00000000000E+00 -0.35740347158E-01  0.35744000000E-01  0.51099999109E-03 0. -1.
       22    1    1    2    0    0  0.26847406228E-01 -0.13852185210E-01 -0.19091027437E-01  0.35737005818E-01  0.00000000000E+00 0. -1.
  9000001    1    1    2    0    0 -0.26847406228E-01  0.13852185210E-01  0.19091027437E-01  0.35750994182E-01  0.10000000475E-02 0.  1.
</event>
<event>
 4   0  0.4892667E-02  0.9118800E+02  0.7818609E-02  0.1379984E+01
      -11   -1    0    0    0    0  0.00000000000E+00  0.00000000000E+00  0.35740347158E-01  0.35744000000E-01  0.51099999109E-03 0.  1.
       11   -1    0    0    0    0 -0.00000000000E+00 -0.00000000000E+00 -0.35740347158E-01  0.35744000000E-01  0.51099999109E-03 0. -1.
       22    1    1    2    0    0 -0.23128244117E-02 -0.35649087675E-01  0.96279595186E-03  0.35737005818E-01  0.00000000000E+00 0.  1.
  9000001    1    1    2    0    0  0.23128244117E-02  0.35649087675E-01 -0.96279595186E-03  0.35750994182E-01  0.10000000475E-02 0. -1.
</event>
<event>
 4   0  0.4892667E-02  0.9118800E+02  0.7818609E-02  0.1379984E+01
      -11   -1    0    0    0    0  0.00000000000E+00  0.00000000000E+00  0.35740347158E-01  0.35744000000E-01  0.51099999109E-03 0. -1.
       11   -1    0    0    0    0 -0.00000000000E+00 -0.00000000000E+00 -0.35740347158E-01  0.35744000000E-01  0.51099999109E-03 0.  1.
       22    1    1    2    0    0 -0.49375687229E-02  0.32486245070E-02 -0.35244864006E-01  0.35737005818E-01  0.00000000000E+00 0.  1.
  9000001    1    1    2    0    0  0.49375687229E-02 -0.32486245070E-02  0.35244864006E-01  0.35750994182E-01  0.10000000475E-02 0. -1.
</event>
<event>
 4   0  0.4892667E-02  0.9118800E+02  0.7818609E-02  0.1379984E+01
      -11   -1    0    0    0    0  0.00000000000E+00  0.00000000000E+00  0.35740347158E-01  0.35744000000E-01  0.51099999109E-03 0.  1.
       11   -1    0    0    0    0 -0.00000000000E+00 -0.00000000000E+00 -0.35740347158E-01  0.35744000000E-01  0.51099999109E-03 0. -1.
       22    1    1    2    0    0 -0.17728219534E-02 -0.61381907116E-02  0.35161247162E-01  0.35737005818E-01  0.00000000000E+00 0.  1.
  9000001    1    1    2    0    0  0.17728219534E-02  0.61381907116E-02 -0.35161247162E-01  0.35750994182E-01  0.10000000475E-02 0. -1.
</event>
<event>
 4   0  0.4892667E-02  0.9118800E+02  0.7818609E-02  0.1379984E+01
      -11   -1    0    0    0    0  0.00000000000E+00  0.00000000000E+00  0.35740347158E-01  0.35744000000E-01  0.51099999109E-03 0. -1.
       11   -1    0    0    0    0 -0.00000000000E+00 -0.00000000000E+00 -0.35740347158E-01  0.35744000000E-01  0.51099999109E-03 0.  1.
       22    1    1    2    0    0  0.53756189284E-02 -0.19895786270E-01  0.29195787277E-01  0.35737005818E-01  0.00000000000E+00 0. -1.
  9000001    1    1    2    0    0 -0.53756189284E-02  0.19895786270E-01 -0.29195787277E-01  0.35750994182E-01  0.10000000475E-02 0.  1.
</event>
<event>
 4   0  0.4892667E-02  0.9118800E+02  0.7818609E-02  0.1379984E+01
      -11   -1    0    0    0    0  0.00000000000E+00  0.00000000000E+00  0.35740347158E-01  0.35744000000E-01  0.51099999109E-03 0.  1.
       11   -1    0    0    0    0 -0.00000000000E+00 -0.00000000000E+00 -0.35740347158E-01  0.35744000000E-01  0.51099999109E-03 0. -1.
       22    1    1    2    0    0  0.24986680634E-01 -0.25374776875E-01 -0.29866493458E-02  0.35737005818E-01  0.00000000000E+00 0. -1.
  9000001    1    1    2    0    0 -0.24986680634E-01  0.25374776875E-01  0.29866493458E-02  0.35750994182E-01  0.10000000475E-02 0.  1.
</event>
<event>
 4   0  0.4892667E-02  0.9118800E+02  0.7818609E-02  0.1379984E+01
      -11   -1    0    0    0    0  0.00000000000E+00  0.00000000000E+00  0.35740347158E-01  0.35744000000E-01  0.51099999109E-03 0.  1.
       11   -1    0    0    0    0 -0.00000000000E+00 -0.00000000000E+00 -0.35740347158E-01  0.35744000000E-01  0.51099999109E-03 0. -1.
       22    1    1    2    0    0 -0.26169498413E-01  0.64977466613E-02  0.23453575975E-01  0.35737005818E-01  0.00000000000E+00 0.  1.
  9000001    1    1    2    0    0  0.26169498413E-01 -0.64977466613E-02 -0.23453575975E-01  0.35750994182E-01  0.10000000475E-02 0. -1.
</event>
<event>
 4   0  0.4892667E-02  0.9118800E+02  0.7818609E-02  0.1379984E+01
      -11   -1    0    0    0    0  0.00000000000E+00  0.00000000000E+00  0.35740347158E-01  0.35744000000E-01  0.51099999109E-03 0. -1.
       11   -1    0    0    0    0 -0.00000000000E+00 -0.00000000000E+00 -0.35740347158E-01  0.35744000000E-01  0.51099999109E-03 0. -1.
       22    1    1    2    0    0 -0.44255767578E-02  0.13327930451E-02  0.35436866649E-01  0.35737005818E-01  0.00000000000E+00 0. -1.
  9000001    1    1    2    0    0  0.44255767578E-02 -0.13327930451E-02 -0.35436866649E-01  0.35750994182E-01  0.10000000475E-02 0. -1.
</event>
<event>
 4   0  0.4892667E-02  0.9118800E+02  0.7818609E-02  0.1379984E+01
      -11   -1    0    0    0    0  0.00000000000E+00  0.00000000000E+00  0.35740347158E-01  0.35744000000E-01  0.51099999109E-03 0.  1.
       11   -1    0    0    0    0 -0.00000000000E+00 -0.00000000000E+00 -0.35740347158E-01  0.35744000000E-01  0.51099999109E-03 0. -1.
       22    1    1    2    0    0  0.30703451940E-02 -0.71887485606E-02 -0.34871599610E-01  0.35737005818E-01  0.00000000000E+00 0. -1.
  9000001    1    1    2    0    0 -0.30703451940E-02  0.71887485606E-02  0.34871599610E-01  0.35750994182E-01  0.10000000475E-02 0.  1.
</event>
<event>
 4   0  0.4892667E-02  0.9118800E+02  0.7818609E-02  0.1379984E+01
      -11   -1    0    0    0    0  0.00000000000E+00  0.00000000000E+00  0.35740347158E-01  0.35744000000E-01  0.51099999109E-03 0.  1.
       11   -1    0    0    0    0 -0.00000000000E+00 -0.00000000000E+00 -0.35740347158E-01  0.35744000000E-01  0.51099999109E-03 0. -1.
       22    1    1    2    0    0 -0.29916541721E-01  0.34325721891E-02 -0.19244520376E-01  0.35737005818E-01  0.00000000000E+00 0. -1.
  9000001    1    1    2    0    0  0.29916541721E-01 -0.34325721891E-02  0.19244520376E-01  0.35750994182E-01  0.10000000475E-02 0.  1.
</event>
<event>
 4   0  0.4892667E-02  0.9118800E+02  0.7818609E-02  0.1379984E+01
      -11   -1    0    0    0    0  0.00000000000E+00  0.00000000000E+00  0.35740347158E-01  0.35744000000E-01  0.51099999109E-03 0. -1.
       11   -1    0    0    0    0 -0.00000000000E+00 -0.00000000000E+00 -0.35740347158E-01  0.35744000000E-01  0.51099999109E-03 0.  1.
       22    1    1    2    0    0 -0.26190527393E-02 -0.33694882235E-02 -0.35481272479E-01  0.35737005818E-01  0.00000000000E+00 0.  1.
  9000001    1    1    2    0    0  0.26190527393E-02  0.33694882235E-02  0.35481272479E-01  0.35750994182E-01  0.10000000475E-02 0. -1.
</event>
<event>
 4   0  0.4892667E-02  0.9118800E+02  0.7818609E-02  0.1379984E+01
      -11   -1    0    0    0    0  0.00000000000E+00  0.00000000000E+00  0.35740347158E-01  0.35744000000E-01  0.51099999109E-03 0. -1.
       11   -1    0    0    0    0 -0.00000000000E+00 -0.00000000000E+00 -0.35740347158E-01  0.35744000000E-01  0.51099999109E-03 0.  1.
       22    1    1    2    0    0  0.24526679206E-01  0.15486888970E-01 -0.20874191290E-01  0.35737005818E-01  0.00000000000E+00 0.  1.
  9000001    1    1    2    0    0 -0.24526679206E-01 -0.15486888970E-01  0.20874191290E-01  0.35750994182E-01  0.10000000475E-02 0. -1.
</event>
<event>
 4   0  0.4892667E-02  0.9118800E+02  0.7818609E-02  0.1379984E+01
      -11   -1    0    0    0    0  0.00000000000E+00  0.00000000000E+00  0.35740347158E-01  0.35744000000E-01  0.51099999109E-03 0. -1.
       11   -1    0    0    0    0 -0.00000000000E+00 -0.00000000000E+00 -0.35740347158E-01  0.35744000000E-01  0.51099999109E-03 0.  1.
       22    1    1    2    0    0 -0.18384226835E-01 -0.12733170964E-01 -0.27875081089E-01  0.35737005818E-01  0.00000000000E+00 0.  1.
  9000001    1    1    2    0    0  0.18384226835E-01  0.12733170964E-01  0.27875081089E-01  0.35750994182E-01  0.10000000475E-02 0. -1.
</event>
<event>
 4   0  0.4892667E-02  0.9118800E+02  0.7818609E-02  0.1379984E+01
      -11   -1    0    0    0    0  0.00000000000E+00  0.00000000000E+00  0.35740347158E-01  0.35744000000E-01  0.51099999109E-03 0. -1.
       11   -1    0    0    0    0 -0.00000000000E+00 -0.00000000000E+00 -0.35740347158E-01  0.35744000000E-01  0.51099999109E-03 0.  1.
       22    1    1    2    0    0 -0.83157908380E-02  0.14606128063E-02  0.34725319550E-01  0.35737005818E-01  0.00000000000E+00 0. -1.
  9000001    1    1    2    0    0  0.83157908380E-02 -0.14606128063E-02 -0.34725319550E-01  0.35750994182E-01  0.10000000475E-02 0.  1.
</event>
<event>
 4   0  0.4892667E-02  0.9118800E+02  0.7818609E-02  0.1379984E+01
      -11   -1    0    0    0    0  0.00000000000E+00  0.00000000000E+00  0.35740347158E-01  0.35744000000E-01  0.51099999109E-03 0.  1.
       11   -1    0    0    0    0 -0.00000000000E+00 -0.00000000000E+00 -0.35740347158E-01  0.35744000000E-01  0.51099999109E-03 0. -1.
       22    1    1    2    0    0 -0.63718621977E-03  0.35502546162E-02 -0.35554511257E-01  0.35737005818E-01  0.00000000000E+00 0. -1.
  9000001    1    1    2    0    0  0.63718621977E-03 -0.35502546162E-02  0.35554511257E-01  0.35750994182E-01  0.10000000475E-02 0.  1.
</event>
<event>
 4   0  0.4892667E-02  0.9118800E+02  0.7818609E-02  0.1379984E+01
      -11   -1    0    0    0    0  0.00000000000E+00  0.00000000000E+00  0.35740347158E-01  0.35744000000E-01  0.51099999109E-03 0.  1.
       11   -1    0    0    0    0 -0.00000000000E+00 -0.00000000000E+00 -0.35740347158E-01  0.35744000000E-01  0.51099999109E-03 0. -1.
       22    1    1    2    0    0  0.68867963607E-02  0.30229201111E-01  0.17773604613E-01  0.35737005818E-01  0.00000000000E+00 0.  1.
  9000001    1    1    2    0    0 -0.68867963607E-02 -0.30229201111E-01 -0.17773604613E-01  0.35750994182E-01  0.10000000475E-02 0. -1.
</event>
<event>
 4   0  0.4892667E-02  0.9118800E+02  0.7818609E-02  0.1379984E+01
      -11   -1    0    0    0    0  0.00000000000E+00  0.00000000000E+00  0.35740347158E-01  0.35744000000E-01  0.51099999109E-03 0.  1.
       11   -1    0    0    0    0 -0.00000000000E+00 -0.00000000000E+00 -0.35740347158E-01  0.35744000000E-01  0.51099999109E-03 0. -1.
       22    1    1    2    0    0 -0.61032665914E-02 -0.40087230174E-02  0.34983051061E-01  0.35737005818E-01  0.00000000000E+00 0.  1.
  9000001    1    1    2    0    0  0.61032665914E-02  0.40087230174E-02 -0.34983051061E-01  0.35750994182E-01  0.10000000475E-02 0. -1.
</event>
<event>
 4   0  0.4892667E-02  0.9118800E+02  0.7818609E-02  0.1379984E+01
      -11   -1    0    0    0    0  0.00000000000E+00  0.00000000000E+00  0.35740347158E-01  0.35744000000E-01  0.51099999109E-03 0. -1.
       11   -1    0    0    0    0 -0.00000000000E+00 -0.00000000000E+00 -0.35740347158E-01  0.35744000000E-01  0.51099999109E-03 0.  1.
       22    1    1    2    0    0 -0.54568583310E-02  0.22526467270E-02 -0.35246019133E-01  0.35737005818E-01  0.00000000000E+00 0.  1.
  9000001    1    1    2    0    0  0.54568583310E-02 -0.22526467270E-02  0.35246019133E-01  0.35750994182E-01  0.10000000475E-02 0. -1.
</event>
<event>
 4   0  0.4892667E-02  0.9118800E+02  0.7818609E-02  0.1379984E+01
      -11   -1    0    0    0    0  0.00000000000E+00  0.00000000000E+00  0.35740347158E-01  0.35744000000E-01  0.51099999109E-03 0.  1.
       11   -1    0    0    0    0 -0.00000000000E+00 -0.00000000000E+00 -0.35740347158E-01  0.35744000000E-01  0.51099999109E-03 0. -1.
       22    1    1    2    0    0  0.13950170888E-01 -0.80891837383E-03  0.32891822208E-01  0.35737005818E-01  0.00000000000E+00 0.  1.
  9000001    1    1    2    0    0 -0.13950170888E-01  0.80891837383E-03 -0.32891822208E-01  0.35750994182E-01  0.10000000475E-02 0. -1.
</event>
<event>
 4   0  0.4892667E-02  0.9118800E+02  0.7818609E-02  0.1379984E+01
      -11   -1    0    0    0    0  0.00000000000E+00  0.00000000000E+00  0.35740347158E-01  0.35744000000E-01  0.51099999109E-03 0. -1.
       11   -1    0    0    0    0 -0.00000000000E+00 -0.00000000000E+00 -0.35740347158E-01  0.35744000000E-01  0.51099999109E-03 0.  1.
       22    1    1    2    0    0  0.16956497210E-01 -0.28178496272E-01  0.13985104043E-01  0.35737005818E-01  0.00000000000E+00 0. -1.
  9000001    1    1    2    0    0 -0.16956497210E-01  0.28178496272E-01 -0.13985104043E-01  0.35750994182E-01  0.10000000475E-02 0.  1.
</event>
<event>
 4   0  0.4892667E-02  0.9118800E+02  0.7818609E-02  0.1379984E+01
      -11   -1    0    0    0    0  0.00000000000E+00  0.00000000000E+00  0.35740347158E-01  0.35744000000E-01  0.51099999109E-03 0. -1.
       11   -1    0    0    0    0 -0.00000000000E+00 -0.00000000000E+00 -0.35740347158E-01  0.35744000000E-01  0.51099999109E-03 0.  1.
       22    1    1    2    0    0 -0.81689684698E-02 -0.41519201166E-02 -0.34542193016E-01  0.35737005818E-01  0.00000000000E+00 0.  1.
  9000001    1    1    2    0    0  0.81689684698E-02  0.41519201166E-02  0.34542193016E-01  0.35750994182E-01  0.10000000475E-02 0. -1.
</event>
<event>
 4   0  0.4892667E-02  0.9118800E+02  0.7818609E-02  0.1379984E+01
      -11   -1    0    0    0    0  0.00000000000E+00  0.00000000000E+00  0.35740347158E-01  0.35744000000E-01  0.51099999109E-03 0. -1.
       11   -1    0    0    0    0 -0.00000000000E+00 -0.00000000000E+00 -0.35740347158E-01  0.35744000000E-01  0.51099999109E-03 0.  1.
       22    1    1    2    0    0  0.51709539970E-04  0.16892585556E-01  0.31492403278E-01  0.35737005818E-01  0.00000000000E+00 0. -1.
  9000001    1    1    2    0    0 -0.51709539970E-04 -0.16892585556E-01 -0.31492403278E-01  0.35750994182E-01  0.10000000475E-02 0.  1.
</event>
<event>
 4   0  0.4892667E-02  0.9118800E+02  0.7818609E-02  0.1379984E+01
      -11   -1    0    0    0    0  0.00000000000E+00  0.00000000000E+00  0.35740347158E-01  0.35744000000E-01  0.51099999109E-03 0.  1.
       11   -1    0    0    0    0 -0.00000000000E+00 -0.00000000000E+00 -0.35740347158E-01  0.35744000000E-01  0.51099999109E-03 0. -1.
       22    1    1    2    0    0 -0.61604273034E-02  0.17626994512E-03 -0.35201585891E-01  0.35737005818E-01  0.00000000000E+00 0. -1.
  9000001    1    1    2    0    0  0.61604273034E-02 -0.17626994512E-03  0.35201585891E-01  0.35750994182E-01  0.10000000475E-02 0.  1.
</event>
<event>
 4   0  0.4892667E-02  0.9118800E+02  0.7818609E-02  0.1379984E+01
      -11   -1    0    0    0    0  0.00000000000E+00  0.00000000000E+00  0.35740347158E-01  0.35744000000E-01  0.51099999109E-03 0. -1.
       11   -1    0    0    0    0 -0.00000000000E+00 -0.00000000000E+00 -0.35740347158E-01  0.35744000000E-01  0.51099999109E-03 0.  1.
       22    1    1    2    0    0  0.32634826254E-02 -0.18923331791E-02 -0.35537337283E-01  0.35737005818E-01  0.00000000000E+00 0.  1.
  9000001    1    1    2    0    0 -0.32634826254E-02  0.18923331791E-02  0.35537337283E-01  0.35750994182E-01  0.10000000475E-02 0. -1.
</event>
<event>
 4   0  0.4892667E-02  0.9118800E+02  0.7818609E-02  0.1379984E+01
      -11   -1    0    0    0    0  0.00000000000E+00  0.00000000000E+00  0.35740347158E-01  0.35744000000E-01  0.51099999109E-03 0. -1.
       11   -1    0    0    0    0 -0.00000000000E+00 -0.00000000000E+00 -0.35740347158E-01  0.35744000000E-01  0.51099999109E-03 0.  1.
       22    1    1    2    0    0  0.24359813490E-01  0.46131473617E-02  0.25738141794E-01  0.35737005818E-01  0.00000000000E+00 0. -1.
  9000001    1    1    2    0    0 -0.24359813490E-01 -0.46131473617E-02 -0.25738141794E-01  0.35750994182E-01  0.10000000475E-02 0.  1.
</event>
<event>
 4   0  0.4892667E-02  0.9118800E+02  0.7818609E-02  0.1379984E+01
      -11   -1    0    0    0    0  0.00000000000E+00  0.00000000000E+00  0.35740347158E-01  0.35744000000E-01  0.51099999109E-03 0.  1.
       11   -1    0    0    0    0 -0.00000000000E+00 -0.00000000000E+00 -0.35740347158E-01  0.35744000000E-01  0.51099999109E-03 0. -1.
       22    1    1    2    0    0  0.82361424072E-02  0.32816224922E-02 -0.34619799204E-01  0.35737005818E-01  0.00000000000E+00 0. -1.
  9000001    1    1    2    0    0 -0.82361424072E-02 -0.32816224922E-02  0.34619799204E-01  0.35750994182E-01  0.10000000475E-02 0.  1.
</event>
<event>
 4   0  0.4892667E-02  0.9118800E+02  0.7818609E-02  0.1379984E+01
      -11   -1    0    0    0    0  0.00000000000E+00  0.00000000000E+00  0.35740347158E-01  0.35744000000E-01  0.51099999109E-03 0. -1.
       11   -1    0    0    0    0 -0.00000000000E+00 -0.00000000000E+00 -0.35740347158E-01  0.35744000000E-01  0.51099999109E-03 0.  1.
       22    1    1    2    0    0 -0.16732641885E-01 -0.11918196383E-01  0.29242244705E-01  0.35737005818E-01  0.00000000000E+00 0. -1.
  9000001    1    1    2    0    0  0.16732641885E-01  0.11918196383E-01 -0.29242244705E-01  0.35750994182E-01  0.10000000475E-02 0.  1.
</event>
<event>
 4   0  0.4892667E-02  0.9118800E+02  0.7818609E-02  0.1379984E+01
      -11   -1    0    0    0    0  0.00000000000E+00  0.00000000000E+00  0.35740347158E-01  0.35744000000E-01  0.51099999109E-03 0.  1.
       11   -1    0    0    0    0 -0.00000000000E+00 -0.00000000000E+00 -0.35740347158E-01  0.35744000000E-01  0.51099999109E-03 0. -1.
       22    1    1    2    0    0  0.15981594644E-01 -0.62999896171E-02  0.31337395366E-01  0.35737005818E-01  0.00000000000E+00 0.  1.
  9000001    1    1    2    0    0 -0.15981594644E-01  0.62999896171E-02 -0.31337395366E-01  0.35750994182E-01  0.10000000475E-02 0. -1.
</event>
<event>
 4   0  0.4892667E-02  0.9118800E+02  0.7818609E-02  0.1379984E+01
      -11   -1    0    0    0    0  0.00000000000E+00  0.00000000000E+00  0.35740347158E-01  0.35744000000E-01  0.51099999109E-03 0.  1.
       11   -1    0    0    0    0 -0.00000000000E+00 -0.00000000000E+00 -0.35740347158E-01  0.35744000000E-01  0.51099999109E-03 0. -1.
       22    1    1    2    0    0  0.27234314859E-01  0.15023717767E-01  0.17598681299E-01  0.35737005818E-01  0.00000000000E+00 0.  1.
  9000001    1    1    2    0    0 -0.27234314859E-01 -0.15023717767E-01 -0.17598681299E-01  0.35750994182E-01  0.10000000475E-02 0. -1.
</event>
<event>
 4   0  0.4892667E-02  0.9118800E+02  0.7818609E-02  0.1379984E+01
      -11   -1    0    0    0    0  0.00000000000E+00  0.00000000000E+00  0.35740347158E-01  0.35744000000E-01  0.51099999109E-03 0.  1.
       11   -1    0    0    0    0 -0.00000000000E+00 -0.00000000000E+00 -0.35740347158E-01  0.35744000000E-01  0.51099999109E-03 0. -1.
       22    1    1    2    0    0 -0.39936903325E-02  0.23760382168E-02  0.35433578210E-01  0.35737005818E-01  0.00000000000E+00 0.  1.
  9000001    1    1    2    0    0  0.39936903325E-02 -0.23760382168E-02 -0.35433578210E-01  0.35750994182E-01  0.10000000475E-02 0. -1.
</event>
<event>
 4   0  0.4892667E-02  0.9118800E+02  0.7818609E-02  0.1379984E+01
      -11   -1    0    0    0    0  0.00000000000E+00  0.00000000000E+00  0.35740347158E-01  0.35744000000E-01  0.51099999109E-03 0. -1.
       11   -1    0    0    0    0 -0.00000000000E+00 -0.00000000000E+00 -0.35740347158E-01  0.35744000000E-01  0.51099999109E-03 0.  1.
       22    1    1    2    0    0 -0.74435589363E-02 -0.96633548993E-03 -0.34939851330E-01  0.35737005818E-01  0.00000000000E+00 0.  1.
  9000001    1    1    2    0    0  0.74435589363E-02  0.96633548993E-03  0.34939851330E-01  0.35750994182E-01  0.10000000475E-02 0. -1.
</event>
<event>
 4   0  0.4892667E-02  0.9118800E+02  0.7818609E-02  0.1379984E+01
      -11   -1    0    0    0    0  0.00000000000E+00  0.00000000000E+00  0.35740347158E-01  0.35744000000E-01  0.51099999109E-03 0. -1.
       11   -1    0    0    0    0 -0.00000000000E+00 -0.00000000000E+00 -0.35740347158E-01  0.35744000000E-01  0.51099999109E-03 0.  1.
       22    1    1    2    0    0 -0.91312247219E-02  0.25213975585E-01  0.23622230105E-01  0.35737005818E-01  0.00000000000E+00 0. -1.
  9000001    1    1    2    0    0  0.91312247219E-02 -0.25213975585E-01 -0.23622230105E-01  0.35750994182E-01  0.10000000475E-02 0.  1.
</event>
<event>
 4   0  0.4892667E-02  0.9118800E+02  0.7818609E-02  0.1379984E+01
      -11   -1    0    0    0    0  0.00000000000E+00  0.00000000000E+00  0.35740347158E-01  0.35744000000E-01  0.51099999109E-03 0.  1.
       11   -1    0    0    0    0 -0.00000000000E+00 -0.00000000000E+00 -0.35740347158E-01  0.35744000000E-01  0.51099999109E-03 0. -1.
       22    1    1    2    0    0  0.19735061900E-01 -0.61195822435E-02 -0.29158388670E-01  0.35737005818E-01  0.00000000000E+00 0. -1.
  9000001    1    1    2    0    0 -0.19735061900E-01  0.61195822435E-02  0.29158388670E-01  0.35750994182E-01  0.10000000475E-02 0.  1.
</event>
<event>
 4   0  0.4892667E-02  0.9118800E+02  0.7818609E-02  0.1379984E+01
      -11   -1    0    0    0    0  0.00000000000E+00  0.00000000000E+00  0.35740347158E-01  0.35744000000E-01  0.51099999109E-03 0. -1.
       11   -1    0    0    0    0 -0.00000000000E+00 -0.00000000000E+00 -0.35740347158E-01  0.35744000000E-01  0.51099999109E-03 0.  1.
       22    1    1    2    0    0 -0.65879196295E-02 -0.22001951537E-01 -0.27379682766E-01  0.35737005818E-01  0.00000000000E+00 0.  1.
  9000001    1    1    2    0    0  0.65879196295E-02  0.22001951537E-01  0.27379682766E-01  0.35750994182E-01  0.10000000475E-02 0. -1.
</event>
<event>
 4   0  0.4892667E-02  0.9118800E+02  0.7818609E-02  0.1379984E+01
      -11   -1    0    0    0    0  0.00000000000E+00  0.00000000000E+00  0.35740347158E-01  0.35744000000E-01  0.51099999109E-03 0.  1.
       11   -1    0    0    0    0 -0.00000000000E+00 -0.00000000000E+00 -0.35740347158E-01  0.35744000000E-01  0.51099999109E-03 0. -1.
       22    1    1    2    0    0 -0.29634909050E-01  0.27397777143E-02  0.19783815824E-01  0.35737005818E-01  0.00000000000E+00 0. -1.
  9000001    1    1    2    0    0  0.29634909050E-01 -0.27397777143E-02 -0.19783815824E-01  0.35750994182E-01  0.10000000475E-02 0.  1.
</event>
<event>
 4   0  0.4892667E-02  0.9118800E+02  0.7818609E-02  0.1379984E+01
      -11   -1    0    0    0    0  0.00000000000E+00  0.00000000000E+00  0.35740347158E-01  0.35744000000E-01  0.51099999109E-03 0. -1.
       11   -1    0    0    0    0 -0.00000000000E+00 -0.00000000000E+00 -0.35740347158E-01  0.35744000000E-01  0.51099999109E-03 0.  1.
       22    1    1    2    0    0 -0.41314967238E-02 -0.66891693543E-02 -0.34861430450E-01  0.35737005818E-01  0.00000000000E+00 0.  1.
  9000001    1    1    2    0    0  0.41314967238E-02  0.66891693543E-02  0.34861430450E-01  0.35750994182E-01  0.10000000475E-02 0. -1.
</event>
<event>
 4   0  0.4892667E-02  0.9118800E+02  0.7818609E-02  0.1379984E+01
      -11   -1    0    0    0    0  0.00000000000E+00  0.00000000000E+00  0.35740347158E-01  0.35744000000E-01  0.51099999109E-03 0.  1.
       11   -1    0    0    0    0 -0.00000000000E+00 -0.00000000000E+00 -0.35740347158E-01  0.35744000000E-01  0.51099999109E-03 0. -1.
       22    1    1    2    0    0  0.46665482932E-02 -0.48427209110E-03 -0.35427706565E-01  0.35737005818E-01  0.00000000000E+00 0. -1.
  9000001    1    1    2    0    0 -0.46665482932E-02  0.48427209110E-03  0.35427706565E-01  0.35750994182E-01  0.10000000475E-02 0.  1.
</event>
<event>
 4   0  0.4892667E-02  0.9118800E+02  0.7818609E-02  0.1379984E+01
      -11   -1    0    0    0    0  0.00000000000E+00  0.00000000000E+00  0.35740347158E-01  0.35744000000E-01  0.51099999109E-03 0. -1.
       11   -1    0    0    0    0 -0.00000000000E+00 -0.00000000000E+00 -0.35740347158E-01  0.35744000000E-01  0.51099999109E-03 0.  1.
       22    1    1    2    0    0 -0.80941106406E-02 -0.21322320561E-01 -0.27513225978E-01  0.35737005818E-01  0.00000000000E+00 0.  1.
  9000001    1    1    2    0    0  0.80941106406E-02  0.21322320561E-01  0.27513225978E-01  0.35750994182E-01  0.10000000475E-02 0. -1.
</event>
<event>
 4   0  0.4892667E-02  0.9118800E+02  0.7818609E-02  0.1379984E+01
      -11   -1    0    0    0    0  0.00000000000E+00  0.00000000000E+00  0.35740347158E-01  0.35744000000E-01  0.51099999109E-03 0.  1.
       11   -1    0    0    0    0 -0.00000000000E+00 -0.00000000000E+00 -0.35740347158E-01  0.35744000000E-01  0.51099999109E-03 0. -1.
       22    1    1    2    0    0  0.57298990201E-02 -0.22007549539E-01  0.27567546234E-01  0.35737005818E-01  0.00000000000E+00 0.  1.
  9000001    1    1    2    0    0 -0.57298990201E-02  0.22007549539E-01 -0.27567546234E-01  0.35750994182E-01  0.10000000475E-02 0. -1.
</event>
<event>
 4   0  0.4892667E-02  0.9118800E+02  0.7818609E-02  0.1379984E+01
      -11   -1    0    0    0    0  0.00000000000E+00  0.00000000000E+00  0.35740347158E-01  0.35744000000E-01  0.51099999109E-03 0.  1.
       11   -1    0    0    0    0 -0.00000000000E+00 -0.00000000000E+00 -0.35740347158E-01  0.35744000000E-01  0.51099999109E-03 0. -1.
       22    1    1    2    0    0 -0.14365157881E-02 -0.81867117878E-02 -0.34756981419E-01  0.35737005818E-01  0.00000000000E+00 0. -1.
  9000001    1    1    2    0    0  0.14365157881E-02  0.81867117878E-02  0.34756981419E-01  0.35750994182E-01  0.10000000475E-02 0.  1.
</event>
<event>
 4   0  0.4892667E-02  0.9118800E+02  0.7818609E-02  0.1379984E+01
      -11   -1    0    0    0    0  0.00000000000E+00  0.00000000000E+00  0.35740347158E-01  0.35744000000E-01  0.51099999109E-03 0. -1.
       11   -1    0    0    0    0 -0.00000000000E+00 -0.00000000000E+00 -0.35740347158E-01  0.35744000000E-01  0.51099999109E-03 0.  1.
       22    1    1    2    0    0  0.30000869775E-02  0.28429131972E-02 -0.35497195770E-01  0.35737005818E-01  0.00000000000E+00 0.  1.
  9000001    1    1    2    0    0 -0.30000869775E-02 -0.28429131972E-02  0.35497195770E-01  0.35750994182E-01  0.10000000475E-02 0. -1.
</event>
<event>
 4   0  0.4892667E-02  0.9118800E+02  0.7818609E-02  0.1379984E+01
      -11   -1    0    0    0    0  0.00000000000E+00  0.00000000000E+00  0.35740347158E-01  0.35744000000E-01  0.51099999109E-03 0.  1.
       11   -1    0    0    0    0 -0.00000000000E+00 -0.00000000000E+00 -0.35740347158E-01  0.35744000000E-01  0.51099999109E-03 0. -1.
       22    1    1    2    0    0  0.21552871456E-02 -0.10657798354E-01 -0.34042615300E-01  0.35737005818E-01  0.00000000000E+00 0. -1.
  9000001    1    1    2    0    0 -0.21552871456E-02  0.10657798354E-01  0.34042615300E-01  0.35750994182E-01  0.10000000475E-02 0.  1.
</event>
<event>
 4   0  0.4892667E-02  0.9118800E+02  0.7818609E-02  0.1379984E+01
      -11   -1    0    0    0    0  0.00000000000E+00  0.00000000000E+00  0.35740347158E-01  0.35744000000E-01  0.51099999109E-03 0.  1.
       11   -1    0    0    0    0 -0.00000000000E+00 -0.00000000000E+00 -0.35740347158E-01  0.35744000000E-01  0.51099999109E-03 0. -1.
       22    1    1    2    0    0 -0.28753370815E-02 -0.36162250663E-02  0.35437112436E-01  0.35737005818E-01  0.00000000000E+00 0.  1.
  9000001    1    1    2    0    0  0.28753370815E-02  0.36162250663E-02 -0.35437112436E-01  0.35750994182E-01  0.10000000475E-02 0. -1.
</event>
<event>
 4   0  0.4892667E-02  0.9118800E+02  0.7818609E-02  0.1379984E+01
      -11   -1    0    0    0    0  0.00000000000E+00  0.00000000000E+00  0.35740347158E-01  0.35744000000E-01  0.51099999109E-03 0. -1.
       11   -1    0    0    0    0 -0.00000000000E+00 -0.00000000000E+00 -0.35740347158E-01  0.35744000000E-01  0.51099999109E-03 0.  1.
       22    1    1    2    0    0  0.10844446054E-02  0.16355410560E-01  0.31756229470E-01  0.35737005818E-01  0.00000000000E+00 0. -1.
  9000001    1    1    2    0    0 -0.10844446054E-02 -0.16355410560E-01 -0.31756229470E-01  0.35750994182E-01  0.10000000475E-02 0.  1.
</event>
<event>
 4   0  0.4892667E-02  0.9118800E+02  0.7818609E-02  0.1379984E+01
      -11   -1    0    0    0    0  0.00000000000E+00  0.00000000000E+00  0.35740347158E-01  0.35744000000E-01  0.51099999109E-03 0.  1.
       11   -1    0    0    0    0 -0.00000000000E+00 -0.00000000000E+00 -0.35740347158E-01  0.35744000000E-01  0.51099999109E-03 0. -1.
       22    1    1    2    0    0  0.15950897915E-02 -0.11975487582E-01  0.33632974454E-01  0.35737005818E-01  0.00000000000E+00 0.  1.
  9000001    1    1    2    0    0 -0.15950897915E-02  0.11975487582E-01 -0.33632974454E-01  0.35750994182E-01  0.10000000475E-02 0. -1.
</event>
<event>
 4   0  0.4892667E-02  0.9118800E+02  0.7818609E-02  0.1379984E+01
      -11   -1    0    0    0    0  0.00000000000E+00  0.00000000000E+00  0.35740347158E-01  0.35744000000E-01  0.51099999109E-03 0.  1.
       11   -1    0    0    0    0 -0.00000000000E+00 -0.00000000000E+00 -0.35740347158E-01  0.35744000000E-01  0.51099999109E-03 0. -1.
       22    1    1    2    0    0  0.18560740100E-01 -0.73282989310E-02  0.29646729105E-01  0.35737005818E-01  0.00000000000E+00 0.  1.
  9000001    1    1    2    0    0 -0.18560740100E-01  0.73282989310E-02 -0.29646729105E-01  0.35750994182E-01  0.10000000475E-02 0. -1.
</event>
<event>
 4   0  0.4892667E-02  0.9118800E+02  0.7818609E-02  0.1379984E+01
      -11   -1    0    0    0    0  0.00000000000E+00  0.00000000000E+00  0.35740347158E-01  0.35744000000E-01  0.51099999109E-03 0.  1.
       11   -1    0    0    0    0 -0.00000000000E+00 -0.00000000000E+00 -0.35740347158E-01  0.35744000000E-01  0.51099999109E-03 0. -1.
       22    1    1    2    0    0 -0.27080668563E-01 -0.18536608561E-01  0.14147972226E-01  0.35737005818E-01  0.00000000000E+00 0.  1.
  9000001    1    1    2    0    0  0.27080668563E-01  0.18536608561E-01 -0.14147972226E-01  0.35750994182E-01  0.10000000475E-02 0. -1.
</event>
<event>
 4   0  0.4892667E-02  0.9118800E+02  0.7818609E-02  0.1379984E+01
      -11   -1    0    0    0    0  0.00000000000E+00  0.00000000000E+00  0.35740347158E-01  0.35744000000E-01  0.51099999109E-03 0. -1.
       11   -1    0    0    0    0 -0.00000000000E+00 -0.00000000000E+00 -0.35740347158E-01  0.35744000000E-01  0.51099999109E-03 0.  1.
       22    1    1    2    0    0 -0.19309203497E-01 -0.23376663292E-01  0.18916126942E-01  0.35737005818E-01  0.00000000000E+00 0. -1.
  9000001    1    1    2    0    0  0.19309203497E-01  0.23376663292E-01 -0.18916126942E-01  0.35750994182E-01  0.10000000475E-02 0.  1.
</event>
<event>
 4   0  0.4892667E-02  0.9118800E+02  0.7818609E-02  0.1379984E+01
      -11   -1    0    0    0    0  0.00000000000E+00  0.00000000000E+00  0.35740347158E-01  0.35744000000E-01  0.51099999109E-03 0.  1.
       11   -1    0    0    0    0 -0.00000000000E+00 -0.00000000000E+00 -0.35740347158E-01  0.35744000000E-01  0.51099999109E-03 0. -1.
       22    1    1    2    0    0 -0.59767950905E-02  0.23002808213E-01  0.26688617792E-01  0.35737005818E-01  0.00000000000E+00 0.  1.
  9000001    1    1    2    0    0  0.59767950905E-02 -0.23002808213E-01 -0.26688617792E-01  0.35750994182E-01  0.10000000475E-02 0. -1.
</event>
<event>
 4   0  0.4892667E-02  0.9118800E+02  0.7818609E-02  0.1379984E+01
      -11   -1    0    0    0    0  0.00000000000E+00  0.00000000000E+00  0.35740347158E-01  0.35744000000E-01  0.51099999109E-03 0. -1.
       11   -1    0    0    0    0 -0.00000000000E+00 -0.00000000000E+00 -0.35740347158E-01  0.35744000000E-01  0.51099999109E-03 0.  1.
       22    1    1    2    0    0 -0.35556445804E-01  0.35874261701E-02  0.55858210256E-04  0.35737005818E-01  0.00000000000E+00 0. -1.
  9000001    1    1    2    0    0  0.35556445804E-01 -0.35874261701E-02 -0.55858210256E-04  0.35750994182E-01  0.10000000475E-02 0.  1.
</event>
<event>
 4   0  0.4892667E-02  0.9118800E+02  0.7818609E-02  0.1379984E+01
      -11   -1    0    0    0    0  0.00000000000E+00  0.00000000000E+00  0.35740347158E-01  0.35744000000E-01  0.51099999109E-03 0. -1.
       11   -1    0    0    0    0 -0.00000000000E+00 -0.00000000000E+00 -0.35740347158E-01  0.35744000000E-01  0.51099999109E-03 0.  1.
       22    1    1    2    0    0 -0.26918559381E-02 -0.23869271875E-01  0.26460259951E-01  0.35737005818E-01  0.00000000000E+00 0. -1.
  9000001    1    1    2    0    0  0.26918559381E-02  0.23869271875E-01 -0.26460259951E-01  0.35750994182E-01  0.10000000475E-02 0.  1.
</event>
<event>
 4   0  0.4892667E-02  0.9118800E+02  0.7818609E-02  0.1379984E+01
      -11   -1    0    0    0    0  0.00000000000E+00  0.00000000000E+00  0.35740347158E-01  0.35744000000E-01  0.51099999109E-03 0.  1.
       11   -1    0    0    0    0 -0.00000000000E+00 -0.00000000000E+00 -0.35740347158E-01  0.35744000000E-01  0.51099999109E-03 0. -1.
       22    1    1    2    0    0  0.27617493140E-01  0.21927797353E-01  0.57947701219E-02  0.35737005818E-01  0.00000000000E+00 0. -1.
  9000001    1    1    2    0    0 -0.27617493140E-01 -0.21927797353E-01 -0.57947701219E-02  0.35750994182E-01  0.10000000475E-02 0.  1.
</event>
<event>
 4   0  0.4892667E-02  0.9118800E+02  0.7818609E-02  0.1379984E+01
      -11   -1    0    0    0    0  0.00000000000E+00  0.00000000000E+00  0.35740347158E-01  0.35744000000E-01  0.51099999109E-03 0. -1.
       11   -1    0    0    0    0 -0.00000000000E+00 -0.00000000000E+00 -0.35740347158E-01  0.35744000000E-01  0.51099999109E-03 0.  1.
       22    1    1    2    0    0  0.85899131517E-02  0.22950584198E-02 -0.34613287676E-01  0.35737005818E-01  0.00000000000E+00 0.  1.
  9000001    1    1    2    0    0 -0.85899131517E-02 -0.22950584198E-02  0.34613287676E-01  0.35750994182E-01  0.10000000475E-02 0. -1.
</event>
<event>
 4   0  0.4892667E-02  0.9118800E+02  0.7818609E-02  0.1379984E+01
      -11   -1    0    0    0    0  0.00000000000E+00  0.00000000000E+00  0.35740347158E-01  0.35744000000E-01  0.51099999109E-03 0. -1.
       11   -1    0    0    0    0 -0.00000000000E+00 -0.00000000000E+00 -0.35740347158E-01  0.35744000000E-01  0.51099999109E-03 0.  1.
       22    1    1    2    0    0  0.25277337487E-02 -0.14794422008E-01 -0.32432533426E-01  0.35737005818E-01  0.00000000000E+00 0.  1.
  9000001    1    1    2    0    0 -0.25277337487E-02  0.14794422008E-01  0.32432533426E-01  0.35750994182E-01  0.10000000475E-02 0. -1.
</event>
<event>
 4   0  0.4892667E-02  0.9118800E+02  0.7818609E-02  0.1379984E+01
      -11   -1    0    0    0    0  0.00000000000E+00  0.00000000000E+00  0.35740347158E-01  0.35744000000E-01  0.51099999109E-03 0. -1.
       11   -1    0    0    0    0 -0.00000000000E+00 -0.00000000000E+00 -0.35740347158E-01  0.35744000000E-01  0.51099999109E-03 0.  1.
       22    1    1    2    0    0  0.21565879359E-02 -0.88490438242E-02 -0.34556868156E-01  0.35737005818E-01  0.00000000000E+00 0.  1.
  9000001    1    1    2    0    0 -0.21565879359E-02  0.88490438242E-02  0.34556868156E-01  0.35750994182E-01  0.10000000475E-02 0. -1.
</event>
<event>
 4   0  0.4892667E-02  0.9118800E+02  0.7818609E-02  0.1379984E+01
      -11   -1    0    0    0    0  0.00000000000E+00  0.00000000000E+00  0.35740347158E-01  0.35744000000E-01  0.51099999109E-03 0. -1.
       11   -1    0    0    0    0 -0.00000000000E+00 -0.00000000000E+00 -0.35740347158E-01  0.35744000000E-01  0.51099999109E-03 0.  1.
       22    1    1    2    0    0 -0.11145813027E-01  0.16507458521E-01  0.29671674203E-01  0.35737005818E-01  0.00000000000E+00 0. -1.
  9000001    1    1    2    0    0  0.11145813027E-01 -0.16507458521E-01 -0.29671674203E-01  0.35750994182E-01  0.10000000475E-02 0.  1.
</event>
<event>
 4   0  0.4892667E-02  0.9118800E+02  0.7818609E-02  0.1379984E+01
      -11   -1    0    0    0    0  0.00000000000E+00  0.00000000000E+00  0.35740347158E-01  0.35744000000E-01  0.51099999109E-03 0. -1.
       11   -1    0    0    0    0 -0.00000000000E+00 -0.00000000000E+00 -0.35740347158E-01  0.35744000000E-01  0.51099999109E-03 0.  1.
       22    1    1    2    0    0 -0.49143309037E-02  0.66405734494E-02 -0.34769033937E-01  0.35737005818E-01  0.00000000000E+00 0.  1.
  9000001    1    1    2    0    0  0.49143309037E-02 -0.66405734494E-02  0.34769033937E-01  0.35750994182E-01  0.10000000475E-02 0. -1.
</event>
<event>
 4   0  0.4892667E-02  0.9118800E+02  0.7818609E-02  0.1379984E+01
      -11   -1    0    0    0    0  0.00000000000E+00  0.00000000000E+00  0.35740347158E-01  0.35744000000E-01  0.51099999109E-03 0. -1.
       11   -1    0    0    0    0 -0.00000000000E+00 -0.00000000000E+00 -0.35740347158E-01  0.35744000000E-01  0.51099999109E-03 0.  1.
       22    1    1    2    0    0  0.27170106220E-01  0.18982616750E-01 -0.13363351908E-01  0.35737005818E-01  0.00000000000E+00 0. -1.
  9000001    1    1    2    0    0 -0.27170106220E-01 -0.18982616750E-01  0.13363351908E-01  0.35750994182E-01  0.10000000475E-02 0.  1.
</event>
<event>
 4   0  0.4892667E-02  0.9118800E+02  0.7818609E-02  0.1379984E+01
      -11   -1    0    0    0    0  0.00000000000E+00  0.00000000000E+00  0.35740347158E-01  0.35744000000E-01  0.51099999109E-03 0. -1.
       11   -1    0    0    0    0 -0.00000000000E+00 -0.00000000000E+00 -0.35740347158E-01  0.35744000000E-01  0.51099999109E-03 0.  1.
       22    1    1    2    0    0 -0.33685777028E-02  0.20011073084E-02  0.35521568640E-01  0.35737005818E-01  0.00000000000E+00 0. -1.
  9000001    1    1    2    0    0  0.33685777028E-02 -0.20011073084E-02 -0.35521568640E-01  0.35750994182E-01  0.10000000475E-02 0.  1.
</event>
<event>
 4   0  0.4892667E-02  0.9118800E+02  0.7818609E-02  0.1379984E+01
      -11   -1    0    0    0    0  0.00000000000E+00  0.00000000000E+00  0.35740347158E-01  0.35744000000E-01  0.51099999109E-03 0.  1.
       11   -1    0    0    0    0 -0.00000000000E+00 -0.00000000000E+00 -0.35740347158E-01  0.35744000000E-01  0.51099999109E-03 0. -1.
       22    1    1    2    0    0 -0.16837687442E-02 -0.75273359068E-02 -0.34894666094E-01  0.35737005818E-01  0.00000000000E+00 0. -1.
  9000001    1    1    2    0    0  0.16837687442E-02  0.75273359068E-02  0.34894666094E-01  0.35750994182E-01  0.10000000475E-02 0.  1.
</event>
<event>
 4   0  0.4892667E-02  0.9118800E+02  0.7818609E-02  0.1379984E+01
      -11   -1    0    0    0    0  0.00000000000E+00  0.00000000000E+00  0.35740347158E-01  0.35744000000E-01  0.51099999109E-03 0.  1.
       11   -1    0    0    0    0 -0.00000000000E+00 -0.00000000000E+00 -0.35740347158E-01  0.35744000000E-01  0.51099999109E-03 0. -1.
       22    1    1    2    0    0  0.38017040480E-03 -0.33623818675E-02 -0.35576445066E-01  0.35737005818E-01  0.00000000000E+00 0. -1.
  9000001    1    1    2    0    0 -0.38017040480E-03  0.33623818675E-02  0.35576445066E-01  0.35750994182E-01  0.10000000475E-02 0.  1.
</event>
<event>
 4   0  0.4892667E-02  0.9118800E+02  0.7818609E-02  0.1379984E+01
      -11   -1    0    0    0    0  0.00000000000E+00  0.00000000000E+00  0.35740347158E-01  0.35744000000E-01  0.51099999109E-03 0. -1.
       11   -1    0    0    0    0 -0.00000000000E+00 -0.00000000000E+00 -0.35740347158E-01  0.35744000000E-01  0.51099999109E-03 0.  1.
       22    1    1    2    0    0  0.46633726906E-02  0.15936960463E-02 -0.35395574200E-01  0.35737005818E-01  0.00000000000E+00 0.  1.
  9000001    1    1    2    0    0 -0.46633726906E-02 -0.15936960463E-02  0.35395574200E-01  0.35750994182E-01  0.10000000475E-02 0. -1.
</event>
<event>
 4   0  0.4892667E-02  0.9118800E+02  0.7818609E-02  0.1379984E+01
      -11   -1    0    0    0    0  0.00000000000E+00  0.00000000000E+00  0.35740347158E-01  0.35744000000E-01  0.51099999109E-03 0. -1.
       11   -1    0    0    0    0 -0.00000000000E+00 -0.00000000000E+00 -0.35740347158E-01  0.35744000000E-01  0.51099999109E-03 0.  1.
       22    1    1    2    0    0 -0.13029292390E-01 -0.32940844659E-02  0.33113745367E-01  0.35737005818E-01  0.00000000000E+00 0. -1.
  9000001    1    1    2    0    0  0.13029292390E-01  0.32940844659E-02 -0.33113745367E-01  0.35750994182E-01  0.10000000475E-02 0.  1.
</event>
<event>
 4   0  0.4892667E-02  0.9118800E+02  0.7818609E-02  0.1379984E+01
      -11   -1    0    0    0    0  0.00000000000E+00  0.00000000000E+00  0.35740347158E-01  0.35744000000E-01  0.51099999109E-03 0.  1.
       11   -1    0    0    0    0 -0.00000000000E+00 -0.00000000000E+00 -0.35740347158E-01  0.35744000000E-01  0.51099999109E-03 0. -1.
       22    1    1    2    0    0  0.25567501942E-01  0.81439916228E-02  0.23603216513E-01  0.35737005818E-01  0.00000000000E+00 0.  1.
  9000001    1    1    2    0    0 -0.25567501942E-01 -0.81439916228E-02 -0.23603216513E-01  0.35750994182E-01  0.10000000475E-02 0. -1.
</event>
<event>
 4   0  0.4892667E-02  0.9118800E+02  0.7818609E-02  0.1379984E+01
      -11   -1    0    0    0    0  0.00000000000E+00  0.00000000000E+00  0.35740347158E-01  0.35744000000E-01  0.51099999109E-03 0. -1.
       11   -1    0    0    0    0 -0.00000000000E+00 -0.00000000000E+00 -0.35740347158E-01  0.35744000000E-01  0.51099999109E-03 0.  1.
       22    1    1    2    0    0  0.29795475739E-02  0.19599813823E-01  0.29733872590E-01  0.35737005818E-01  0.00000000000E+00 0. -1.
  9000001    1    1    2    0    0 -0.29795475739E-02 -0.19599813823E-01 -0.29733872590E-01  0.35750994182E-01  0.10000000475E-02 0.  1.
</event>
<event>
 4   0  0.4892667E-02  0.9118800E+02  0.7818609E-02  0.1379984E+01
      -11   -1    0    0    0    0  0.00000000000E+00  0.00000000000E+00  0.35740347158E-01  0.35744000000E-01  0.51099999109E-03 0. -1.
       11   -1    0    0    0    0 -0.00000000000E+00 -0.00000000000E+00 -0.35740347158E-01  0.35744000000E-01  0.51099999109E-03 0.  1.
       22    1    1    2    0    0 -0.52344890505E-02  0.82116270627E-03 -0.35342034478E-01  0.35737005818E-01  0.00000000000E+00 0.  1.
  9000001    1    1    2    0    0  0.52344890505E-02 -0.82116270627E-03  0.35342034478E-01  0.35750994182E-01  0.10000000475E-02 0. -1.
</event>
<event>
 4   0  0.4892667E-02  0.9118800E+02  0.7818609E-02  0.1379984E+01
      -11   -1    0    0    0    0  0.00000000000E+00  0.00000000000E+00  0.35740347158E-01  0.35744000000E-01  0.51099999109E-03 0.  1.
       11   -1    0    0    0    0 -0.00000000000E+00 -0.00000000000E+00 -0.35740347158E-01  0.35744000000E-01  0.51099999109E-03 0. -1.
       22    1    1    2    0    0 -0.12907152627E-01 -0.17814607430E-01  0.28163429444E-01  0.35737005818E-01  0.00000000000E+00 0.  1.
  9000001    1    1    2    0    0  0.12907152627E-01  0.17814607430E-01 -0.28163429444E-01  0.35750994182E-01  0.10000000475E-02 0. -1.
</event>
<event>
 4   0  0.4892667E-02  0.9118800E+02  0.7818609E-02  0.1379984E+01
      -11   -1    0    0    0    0  0.00000000000E+00  0.00000000000E+00  0.35740347158E-01  0.35744000000E-01  0.51099999109E-03 0. -1.
       11   -1    0    0    0    0 -0.00000000000E+00 -0.00000000000E+00 -0.35740347158E-01  0.35744000000E-01  0.51099999109E-03 0.  1.
       22    1    1    2    0    0 -0.32030806055E-02 -0.13012094208E-02  0.35569378875E-01  0.35737005818E-01  0.00000000000E+00 0. -1.
  9000001    1    1    2    0    0  0.32030806055E-02  0.13012094208E-02 -0.35569378875E-01  0.35750994182E-01  0.10000000475E-02 0.  1.
</event>
<event>
 4   0  0.4892667E-02  0.9118800E+02  0.7818609E-02  0.1379984E+01
      -11   -1    0    0    0    0  0.00000000000E+00  0.00000000000E+00  0.35740347158E-01  0.35744000000E-01  0.51099999109E-03 0.  1.
       11   -1    0    0    0    0 -0.00000000000E+00 -0.00000000000E+00 -0.35740347158E-01  0.35744000000E-01  0.51099999109E-03 0. -1.
       22    1    1    2    0    0  0.20451296860E-02  0.33020399080E-02 -0.35525308751E-01  0.35737005818E-01  0.00000000000E+00 0. -1.
  9000001    1    1    2    0    0 -0.20451296860E-02 -0.33020399080E-02  0.35525308751E-01  0.35750994182E-01  0.10000000475E-02 0.  1.
</event>
<event>
 4   0  0.4892667E-02  0.9118800E+02  0.7818609E-02  0.1379984E+01
      -11   -1    0    0    0    0  0.00000000000E+00  0.00000000000E+00  0.35740347158E-01  0.35744000000E-01  0.51099999109E-03 0.  1.
       11   -1    0    0    0    0 -0.00000000000E+00 -0.00000000000E+00 -0.35740347158E-01  0.35744000000E-01  0.51099999109E-03 0. -1.
       22    1    1    2    0    0 -0.97118421264E-02 -0.82622570381E-02 -0.33384859083E-01  0.35737005818E-01  0.00000000000E+00 0. -1.
  9000001    1    1    2    0    0  0.97118421264E-02  0.82622570381E-02  0.33384859083E-01  0.35750994182E-01  0.10000000475E-02 0.  1.
</event>
<event>
 4   0  0.4892667E-02  0.9118800E+02  0.7818609E-02  0.1379984E+01
      -11   -1    0    0    0    0  0.00000000000E+00  0.00000000000E+00  0.35740347158E-01  0.35744000000E-01  0.51099999109E-03 0. -1.
       11   -1    0    0    0    0 -0.00000000000E+00 -0.00000000000E+00 -0.35740347158E-01  0.35744000000E-01  0.51099999109E-03 0.  1.
       22    1    1    2    0    0  0.10797083448E-01 -0.24548065381E-01 -0.23620945365E-01  0.35737005818E-01  0.00000000000E+00 0.  1.
  9000001    1    1    2    0    0 -0.10797083448E-01  0.24548065381E-01  0.23620945365E-01  0.35750994182E-01  0.10000000475E-02 0. -1.
</event>
<event>
 4   0  0.4892667E-02  0.9118800E+02  0.7818609E-02  0.1379984E+01
      -11   -1    0    0    0    0  0.00000000000E+00  0.00000000000E+00  0.35740347158E-01  0.35744000000E-01  0.51099999109E-03 0. -1.
       11   -1    0    0    0    0 -0.00000000000E+00 -0.00000000000E+00 -0.35740347158E-01  0.35744000000E-01  0.51099999109E-03 0.  1.
       22    1    1    2    0    0  0.18136347540E-02  0.50291529018E-02 -0.35334854393E-01  0.35737005818E-01  0.00000000000E+00 0.  1.
  9000001    1    1    2    0    0 -0.18136347540E-02 -0.50291529018E-02  0.35334854393E-01  0.35750994182E-01  0.10000000475E-02 0. -1.
</event>
<event>
 4   0  0.4892667E-02  0.9118800E+02  0.7818609E-02  0.1379984E+01
      -11   -1    0    0    0    0  0.00000000000E+00  0.00000000000E+00  0.35740347158E-01  0.35744000000E-01  0.51099999109E-03 0. -1.
       11   -1    0    0    0    0 -0.00000000000E+00 -0.00000000000E+00 -0.35740347158E-01  0.35744000000E-01  0.51099999109E-03 0.  1.
       22    1    1    2    0    0 -0.15985829684E-02 -0.42852505413E-02 -0.35443119857E-01  0.35737005818E-01  0.00000000000E+00 0.  1.
  9000001    1    1    2    0    0  0.15985829684E-02  0.42852505413E-02  0.35443119857E-01  0.35750994182E-01  0.10000000475E-02 0. -1.
</event>
<event>
 4   0  0.4892667E-02  0.9118800E+02  0.7818609E-02  0.1379984E+01
      -11   -1    0    0    0    0  0.00000000000E+00  0.00000000000E+00  0.35740347158E-01  0.35744000000E-01  0.51099999109E-03 0. -1.
       11   -1    0    0    0    0 -0.00000000000E+00 -0.00000000000E+00 -0.35740347158E-01  0.35744000000E-01  0.51099999109E-03 0.  1.
       22    1    1    2    0    0 -0.29785272978E-02  0.22420827428E-02 -0.35542017739E-01  0.35737005818E-01  0.00000000000E+00 0.  1.
  9000001    1    1    2    0    0  0.29785272978E-02 -0.22420827428E-02  0.35542017739E-01  0.35750994182E-01  0.10000000475E-02 0. -1.
</event>
<event>
 4   0  0.4892667E-02  0.9118800E+02  0.7818609E-02  0.1379984E+01
      -11   -1    0    0    0    0  0.00000000000E+00  0.00000000000E+00  0.35740347158E-01  0.35744000000E-01  0.51099999109E-03 0.  1.
       11   -1    0    0    0    0 -0.00000000000E+00 -0.00000000000E+00 -0.35740347158E-01  0.35744000000E-01  0.51099999109E-03 0. -1.
       22    1    1    2    0    0 -0.16532331227E-01  0.27083641391E-01 -0.16440558934E-01  0.35737005818E-01  0.00000000000E+00 0. -1.
  9000001    1    1    2    0    0  0.16532331227E-01 -0.27083641391E-01  0.16440558934E-01  0.35750994182E-01  0.10000000475E-02 0.  1.
</event>
<event>
 4   0  0.4892667E-02  0.9118800E+02  0.7818609E-02  0.1379984E+01
      -11   -1    0    0    0    0  0.00000000000E+00  0.00000000000E+00  0.35740347158E-01  0.35744000000E-01  0.51099999109E-03 0. -1.
       11   -1    0    0    0    0 -0.00000000000E+00 -0.00000000000E+00 -0.35740347158E-01  0.35744000000E-01  0.51099999109E-03 0.  1.
       22    1    1    2    0    0  0.15269275095E-01 -0.25436320495E-02  0.32210444873E-01  0.35737005818E-01  0.00000000000E+00 0. -1.
  9000001    1    1    2    0    0 -0.15269275095E-01  0.25436320495E-02 -0.32210444873E-01  0.35750994182E-01  0.10000000475E-02 0.  1.
</event>
<event>
 4   0  0.4892667E-02  0.9118800E+02  0.7818609E-02  0.1379984E+01
      -11   -1    0    0    0    0  0.00000000000E+00  0.00000000000E+00  0.35740347158E-01  0.35744000000E-01  0.51099999109E-03 0.  1.
       11   -1    0    0    0    0 -0.00000000000E+00 -0.00000000000E+00 -0.35740347158E-01  0.35744000000E-01  0.51099999109E-03 0. -1.
       22    1    1    2    0    0  0.13796955052E-01 -0.29168943055E-02  0.32837011797E-01  0.35737005818E-01  0.00000000000E+00 0.  1.
  9000001    1    1    2    0    0 -0.13796955052E-01  0.29168943055E-02 -0.32837011797E-01  0.35750994182E-01  0.10000000475E-02 0. -1.
</event>
<event>
 4   0  0.4892667E-02  0.9118800E+02  0.7818609E-02  0.1379984E+01
      -11   -1    0    0    0    0  0.00000000000E+00  0.00000000000E+00  0.35740347158E-01  0.35744000000E-01  0.51099999109E-03 0.  1.
       11   -1    0    0    0    0 -0.00000000000E+00 -0.00000000000E+00 -0.35740347158E-01  0.35744000000E-01  0.51099999109E-03 0. -1.
       22    1    1    2    0    0 -0.71961511544E-02 -0.43341182882E-02  0.34735636054E-01  0.35737005818E-01  0.00000000000E+00 0.  1.
  9000001    1    1    2    0    0  0.71961511544E-02  0.43341182882E-02 -0.34735636054E-01  0.35750994182E-01  0.10000000475E-02 0. -1.
</event>
<event>
 4   0  0.4892667E-02  0.9118800E+02  0.7818609E-02  0.1379984E+01
      -11   -1    0    0    0    0  0.00000000000E+00  0.00000000000E+00  0.35740347158E-01  0.35744000000E-01  0.51099999109E-03 0. -1.
       11   -1    0    0    0    0 -0.00000000000E+00 -0.00000000000E+00 -0.35740347158E-01  0.35744000000E-01  0.51099999109E-03 0.  1.
       22    1    1    2    0    0 -0.19454863932E-01 -0.58722019410E-02  0.29396583111E-01  0.35737005818E-01  0.00000000000E+00 0. -1.
  9000001    1    1    2    0    0  0.19454863932E-01  0.58722019410E-02 -0.29396583111E-01  0.35750994182E-01  0.10000000475E-02 0.  1.
</event>
<event>
 4   0  0.4892667E-02  0.9118800E+02  0.7818609E-02  0.1379984E+01
      -11   -1    0    0    0    0  0.00000000000E+00  0.00000000000E+00  0.35740347158E-01  0.35744000000E-01  0.51099999109E-03 0.  1.
       11   -1    0    0    0    0 -0.00000000000E+00 -0.00000000000E+00 -0.35740347158E-01  0.35744000000E-01  0.51099999109E-03 0. -1.
       22    1    1    2    0    0  0.18146082994E-01 -0.25677026843E-01  0.16986569675E-01  0.35737005818E-01  0.00000000000E+00 0. -1.
  9000001    1    1    2    0    0 -0.18146082994E-01  0.25677026843E-01 -0.16986569675E-01  0.35750994182E-01  0.10000000475E-02 0.  1.
</event>
<event>
 4   0  0.4892667E-02  0.9118800E+02  0.7818609E-02  0.1379984E+01
      -11   -1    0    0    0    0  0.00000000000E+00  0.00000000000E+00  0.35740347158E-01  0.35744000000E-01  0.51099999109E-03 0. -1.
       11   -1    0    0    0    0 -0.00000000000E+00 -0.00000000000E+00 -0.35740347158E-01  0.35744000000E-01  0.51099999109E-03 0.  1.
       22    1    1    2    0    0 -0.13234678023E-02 -0.26518575221E-01 -0.23919598369E-01  0.35737005818E-01  0.00000000000E+00 0.  1.
  9000001    1    1    2    0    0  0.13234678023E-02  0.26518575221E-01  0.23919598369E-01  0.35750994182E-01  0.10000000475E-02 0. -1.
</event>
<event>
 4   0  0.4892667E-02  0.9118800E+02  0.7818609E-02  0.1379984E+01
      -11   -1    0    0    0    0  0.00000000000E+00  0.00000000000E+00  0.35740347158E-01  0.35744000000E-01  0.51099999109E-03 0. -1.
       11   -1    0    0    0    0 -0.00000000000E+00 -0.00000000000E+00 -0.35740347158E-01  0.35744000000E-01  0.51099999109E-03 0.  1.
       22    1    1    2    0    0 -0.50923210597E-02  0.66816936864E-03  0.35366020426E-01  0.35737005818E-01  0.00000000000E+00 0. -1.
  9000001    1    1    2    0    0  0.50923210597E-02 -0.66816936864E-03 -0.35366020426E-01  0.35750994182E-01  0.10000000475E-02 0.  1.
</event>
<event>
 4   0  0.4892667E-02  0.9118800E+02  0.7818609E-02  0.1379984E+01
      -11   -1    0    0    0    0  0.00000000000E+00  0.00000000000E+00  0.35740347158E-01  0.35744000000E-01  0.51099999109E-03 0.  1.
       11   -1    0    0    0    0 -0.00000000000E+00 -0.00000000000E+00 -0.35740347158E-01  0.35744000000E-01  0.51099999109E-03 0. -1.
       22    1    1    2    0    0  0.79519177281E-02 -0.83597574129E-02 -0.33823291462E-01  0.35737005818E-01  0.00000000000E+00 0. -1.
  9000001    1    1    2    0    0 -0.79519177281E-02  0.83597574129E-02  0.33823291462E-01  0.35750994182E-01  0.10000000475E-02 0.  1.
</event>
<event>
 4   0  0.4892667E-02  0.9118800E+02  0.7818609E-02  0.1379984E+01
      -11   -1    0    0    0    0  0.00000000000E+00  0.00000000000E+00  0.35740347158E-01  0.35744000000E-01  0.51099999109E-03 0. -1.
       11   -1    0    0    0    0 -0.00000000000E+00 -0.00000000000E+00 -0.35740347158E-01  0.35744000000E-01  0.51099999109E-03 0.  1.
       22    1    1    2    0    0 -0.29476035063E-01 -0.18693482684E-01  0.76714175332E-02  0.35737005818E-01  0.00000000000E+00 0. -1.
  9000001    1    1    2    0    0  0.29476035063E-01  0.18693482684E-01 -0.76714175332E-02  0.35750994182E-01  0.10000000475E-02 0.  1.
</event>
<event>
 4   0  0.4892667E-02  0.9118800E+02  0.7818609E-02  0.1379984E+01
      -11   -1    0    0    0    0  0.00000000000E+00  0.00000000000E+00  0.35740347158E-01  0.35744000000E-01  0.51099999109E-03 0.  1.
       11   -1    0    0    0    0 -0.00000000000E+00 -0.00000000000E+00 -0.35740347158E-01  0.35744000000E-01  0.51099999109E-03 0. -1.
       22    1    1    2    0    0  0.16185049807E-01 -0.12066175535E-01 -0.29488729297E-01  0.35737005818E-01  0.00000000000E+00 0. -1.
  9000001    1    1    2    0    0 -0.16185049807E-01  0.12066175535E-01  0.29488729297E-01  0.35750994182E-01  0.10000000475E-02 0.  1.
</event>
<event>
 4   0  0.4892667E-02  0.9118800E+02  0.7818609E-02  0.1379984E+01
      -11   -1    0    0    0    0  0.00000000000E+00  0.00000000000E+00  0.35740347158E-01  0.35744000000E-01  0.51099999109E-03 0. -1.
       11   -1    0    0    0    0 -0.00000000000E+00 -0.00000000000E+00 -0.35740347158E-01  0.35744000000E-01  0.51099999109E-03 0.  1.
       22    1    1    2    0    0 -0.76046388379E-03  0.39717513414E-02 -0.35507470634E-01  0.35737005818E-01  0.00000000000E+00 0.  1.
  9000001    1    1    2    0    0  0.76046388379E-03 -0.39717513414E-02  0.35507470634E-01  0.35750994182E-01  0.10000000475E-02 0. -1.
</event>
<event>
 4   0  0.4892667E-02  0.9118800E+02  0.7818609E-02  0.1379984E+01
      -11   -1    0    0    0    0  0.00000000000E+00  0.00000000000E+00  0.35740347158E-01  0.35744000000E-01  0.51099999109E-03 0. -1.
       11   -1    0    0    0    0 -0.00000000000E+00 -0.00000000000E+00 -0.35740347158E-01  0.35744000000E-01  0.51099999109E-03 0.  1.
       22    1    1    2    0    0  0.52295618054E-02  0.49230606777E-03  0.35348874140E-01  0.35737005818E-01  0.00000000000E+00 0. -1.
  9000001    1    1    2    0    0 -0.52295618054E-02 -0.49230606777E-03 -0.35348874140E-01  0.35750994182E-01  0.10000000475E-02 0.  1.
</event>
<event>
 4   0  0.4892667E-02  0.9118800E+02  0.7818609E-02  0.1379984E+01
      -11   -1    0    0    0    0  0.00000000000E+00  0.00000000000E+00  0.35740347158E-01  0.35744000000E-01  0.51099999109E-03 0. -1.
       11   -1    0    0    0    0 -0.00000000000E+00 -0.00000000000E+00 -0.35740347158E-01  0.35744000000E-01  0.51099999109E-03 0.  1.
       22    1    1    2    0    0  0.36305282824E-03  0.31592267149E-02 -0.35595239346E-01  0.35737005818E-01  0.00000000000E+00 0.  1.
  9000001    1    1    2    0    0 -0.36305282824E-03 -0.31592267149E-02  0.35595239346E-01  0.35750994182E-01  0.10000000475E-02 0. -1.
</event>
<event>
 4   0  0.4892667E-02  0.9118800E+02  0.7818609E-02  0.1379984E+01
      -11   -1    0    0    0    0  0.00000000000E+00  0.00000000000E+00  0.35740347158E-01  0.35744000000E-01  0.51099999109E-03 0.  1.
       11   -1    0    0    0    0 -0.00000000000E+00 -0.00000000000E+00 -0.35740347158E-01  0.35744000000E-01  0.51099999109E-03 0. -1.
       22    1    1    2    0    0 -0.27477044285E-03 -0.32154264760E-02 -0.35590997719E-01  0.35737005818E-01  0.00000000000E+00 0. -1.
  9000001    1    1    2    0    0  0.27477044285E-03  0.32154264760E-02  0.35590997719E-01  0.35750994182E-01  0.10000000475E-02 0.  1.
</event>
<event>
 4   0  0.4892667E-02  0.9118800E+02  0.7818609E-02  0.1379984E+01
      -11   -1    0    0    0    0  0.00000000000E+00  0.00000000000E+00  0.35740347158E-01  0.35744000000E-01  0.51099999109E-03 0.  1.
       11   -1    0    0    0    0 -0.00000000000E+00 -0.00000000000E+00 -0.35740347158E-01  0.35744000000E-01  0.51099999109E-03 0. -1.
       22    1    1    2    0    0 -0.27016928151E-01 -0.76961304859E-02  0.22090467484E-01  0.35737005818E-01  0.00000000000E+00 0. -1.
  9000001    1    1    2    0    0  0.27016928151E-01  0.76961304859E-02 -0.22090467484E-01  0.35750994182E-01  0.10000000475E-02 0.  1.
</event>
<event>
 4   0  0.4892667E-02  0.9118800E+02  0.7818609E-02  0.1379984E+01
      -11   -1    0    0    0    0  0.00000000000E+00  0.00000000000E+00  0.35740347158E-01  0.35744000000E-01  0.51099999109E-03 0.  1.
       11   -1    0    0    0    0 -0.00000000000E+00 -0.00000000000E+00 -0.35740347158E-01  0.35744000000E-01  0.51099999109E-03 0. -1.
       22    1    1    2    0    0 -0.12186356009E-01 -0.12362459396E-01  0.31237732148E-01  0.35737005818E-01  0.00000000000E+00 0.  1.
  9000001    1    1    2    0    0  0.12186356009E-01  0.12362459396E-01 -0.31237732148E-01  0.35750994182E-01  0.10000000475E-02 0. -1.
</event>
<event>
 4   0  0.4892667E-02  0.9118800E+02  0.7818609E-02  0.1379984E+01
      -11   -1    0    0    0    0  0.00000000000E+00  0.00000000000E+00  0.35740347158E-01  0.35744000000E-01  0.51099999109E-03 0. -1.
       11   -1    0    0    0    0 -0.00000000000E+00 -0.00000000000E+00 -0.35740347158E-01  0.35744000000E-01  0.51099999109E-03 0.  1.
       22    1    1    2    0    0  0.58499912727E-02 -0.18409508955E-02  0.35206847158E-01  0.35737005818E-01  0.00000000000E+00 0. -1.
  9000001    1    1    2    0    0 -0.58499912727E-02  0.18409508955E-02 -0.35206847158E-01  0.35750994182E-01  0.10000000475E-02 0.  1.
</event>
<event>
 4   0  0.4892667E-02  0.9118800E+02  0.7818609E-02  0.1379984E+01
      -11   -1    0    0    0    0  0.00000000000E+00  0.00000000000E+00  0.35740347158E-01  0.35744000000E-01  0.51099999109E-03 0.  1.
       11   -1    0    0    0    0 -0.00000000000E+00 -0.00000000000E+00 -0.35740347158E-01  0.35744000000E-01  0.51099999109E-03 0. -1.
       22    1    1    2    0    0 -0.20958698178E-01 -0.10832441617E-02  0.28925648440E-01  0.35737005818E-01  0.00000000000E+00 0.  1.
  9000001    1    1    2    0    0  0.20958698178E-01  0.10832441617E-02 -0.28925648440E-01  0.35750994182E-01  0.10000000475E-02 0. -1.
</event>
<event>
 4   0  0.4892667E-02  0.9118800E+02  0.7818609E-02  0.1379984E+01
      -11   -1    0    0    0    0  0.00000000000E+00  0.00000000000E+00  0.35740347158E-01  0.35744000000E-01  0.51099999109E-03 0.  1.
       11   -1    0    0    0    0 -0.00000000000E+00 -0.00000000000E+00 -0.35740347158E-01  0.35744000000E-01  0.51099999109E-03 0. -1.
       22    1    1    2    0    0 -0.61200435841E-02 -0.71030840647E-02  0.34485139527E-01  0.35737005818E-01  0.00000000000E+00 0.  1.
  9000001    1    1    2    0    0  0.61200435841E-02  0.71030840647E-02 -0.34485139527E-01  0.35750994182E-01  0.10000000475E-02 0. -1.
</event>
<event>
 4   0  0.4892667E-02  0.9118800E+02  0.7818609E-02  0.1379984E+01
      -11   -1    0    0    0    0  0.00000000000E+00  0.00000000000E+00  0.35740347158E-01  0.35744000000E-01  0.51099999109E-03 0.  1.
       11   -1    0    0    0    0 -0.00000000000E+00 -0.00000000000E+00 -0.35740347158E-01  0.35744000000E-01  0.51099999109E-03 0. -1.
       22    1    1    2    0    0  0.83228903073E-02 -0.23507186045E-01  0.25598345377E-01  0.35737005818E-01  0.00000000000E+00 0.  1.
  9000001    1    1    2    0    0 -0.83228903073E-02  0.23507186045E-01 -0.25598345377E-01  0.35750994182E-01  0.10000000475E-02 0. -1.
</event>
<event>
 4   0  0.4892667E-02  0.9118800E+02  0.7818609E-02  0.1379984E+01
      -11   -1    0    0    0    0  0.00000000000E+00  0.00000000000E+00  0.35740347158E-01  0.35744000000E-01  0.51099999109E-03 0. -1.
       11   -1    0    0    0    0 -0.00000000000E+00 -0.00000000000E+00 -0.35740347158E-01  0.35744000000E-01  0.51099999109E-03 0.  1.
       22    1    1    2    0    0  0.34063483466E-01  0.98305033807E-02  0.44915345150E-02  0.35737005818E-01  0.00000000000E+00 0. -1.
  9000001    1    1    2    0    0 -0.34063483466E-01 -0.98305033807E-02 -0.44915345150E-02  0.35750994182E-01  0.10000000475E-02 0.  1.
</event>
<event>
 4   0  0.4892667E-02  0.9118800E+02  0.7818609E-02  0.1379984E+01
      -11   -1    0    0    0    0  0.00000000000E+00  0.00000000000E+00  0.35740347158E-01  0.35744000000E-01  0.51099999109E-03 0.  1.
       11   -1    0    0    0    0 -0.00000000000E+00 -0.00000000000E+00 -0.35740347158E-01  0.35744000000E-01  0.51099999109E-03 0. -1.
       22    1    1    2    0    0  0.47914445144E-02  0.37158909011E-02  0.35218855733E-01  0.35737005818E-01  0.00000000000E+00 0.  1.
  9000001    1    1    2    0    0 -0.47914445144E-02 -0.37158909011E-02 -0.35218855733E-01  0.35750994182E-01  0.10000000475E-02 0. -1.
</event>
<event>
 4   0  0.4892667E-02  0.9118800E+02  0.7818609E-02  0.1379984E+01
      -11   -1    0    0    0    0  0.00000000000E+00  0.00000000000E+00  0.35740347158E-01  0.35744000000E-01  0.51099999109E-03 0.  1.
       11   -1    0    0    0    0 -0.00000000000E+00 -0.00000000000E+00 -0.35740347158E-01  0.35744000000E-01  0.51099999109E-03 0. -1.
       22    1    1    2    0    0  0.29223025942E-01 -0.20385881178E-01  0.27503069393E-02  0.35737005818E-01  0.00000000000E+00 0. -1.
  9000001    1    1    2    0    0 -0.29223025942E-01  0.20385881178E-01 -0.27503069393E-02  0.35750994182E-01  0.10000000475E-02 0.  1.
</event>
<event>
 4   0  0.4892667E-02  0.9118800E+02  0.7818609E-02  0.1379984E+01
      -11   -1    0    0    0    0  0.00000000000E+00  0.00000000000E+00  0.35740347158E-01  0.35744000000E-01  0.51099999109E-03 0.  1.
       11   -1    0    0    0    0 -0.00000000000E+00 -0.00000000000E+00 -0.35740347158E-01  0.35744000000E-01  0.51099999109E-03 0. -1.
       22    1    1    2    0    0 -0.11039078192E-01  0.10517937824E-01  0.32320973399E-01  0.35737005818E-01  0.00000000000E+00 0.  1.
  9000001    1    1    2    0    0  0.11039078192E-01 -0.10517937824E-01 -0.32320973399E-01  0.35750994182E-01  0.10000000475E-02 0. -1.
</event>
<event>
 4   0  0.4892667E-02  0.9118800E+02  0.7818609E-02  0.1379984E+01
      -11   -1    0    0    0    0  0.00000000000E+00  0.00000000000E+00  0.35740347158E-01  0.35744000000E-01  0.51099999109E-03 0. -1.
       11   -1    0    0    0    0 -0.00000000000E+00 -0.00000000000E+00 -0.35740347158E-01  0.35744000000E-01  0.51099999109E-03 0.  1.
       22    1    1    2    0    0 -0.97407897036E-02  0.13217502327E-01 -0.31741900275E-01  0.35737005818E-01  0.00000000000E+00 0.  1.
  9000001    1    1    2    0    0  0.97407897036E-02 -0.13217502327E-01  0.31741900275E-01  0.35750994182E-01  0.10000000475E-02 0. -1.
</event>
<event>
 4   0  0.4892667E-02  0.9118800E+02  0.7818609E-02  0.1379984E+01
      -11   -1    0    0    0    0  0.00000000000E+00  0.00000000000E+00  0.35740347158E-01  0.35744000000E-01  0.51099999109E-03 0.  1.
       11   -1    0    0    0    0 -0.00000000000E+00 -0.00000000000E+00 -0.35740347158E-01  0.35744000000E-01  0.51099999109E-03 0. -1.
       22    1    1    2    0    0 -0.17821237515E-01 -0.10146644057E-01  0.29267433995E-01  0.35737005818E-01  0.00000000000E+00 0.  1.
  9000001    1    1    2    0    0  0.17821237515E-01  0.10146644057E-01 -0.29267433995E-01  0.35750994182E-01  0.10000000475E-02 0. -1.
</event>
<event>
 4   0  0.4892667E-02  0.9118800E+02  0.7818609E-02  0.1379984E+01
      -11   -1    0    0    0    0  0.00000000000E+00  0.00000000000E+00  0.35740347158E-01  0.35744000000E-01  0.51099999109E-03 0.  1.
       11   -1    0    0    0    0 -0.00000000000E+00 -0.00000000000E+00 -0.35740347158E-01  0.35744000000E-01  0.51099999109E-03 0. -1.
       22    1    1    2    0    0  0.51522835556E-02 -0.32775108706E-01 -0.13280806012E-01  0.35737005818E-01  0.00000000000E+00 0. -1.
  9000001    1    1    2    0    0 -0.51522835556E-02  0.32775108706E-01  0.13280806012E-01  0.35750994182E-01  0.10000000475E-02 0.  1.
</event>
<event>
 4   0  0.4892667E-02  0.9118800E+02  0.7818609E-02  0.1379984E+01
      -11   -1    0    0    0    0  0.00000000000E+00  0.00000000000E+00  0.35740347158E-01  0.35744000000E-01  0.51099999109E-03 0. -1.
       11   -1    0    0    0    0 -0.00000000000E+00 -0.00000000000E+00 -0.35740347158E-01  0.35744000000E-01  0.51099999109E-03 0.  1.
       22    1    1    2    0    0  0.86526961014E-02  0.15668460042E-01 -0.30931598649E-01  0.35737005818E-01  0.00000000000E+00 0.  1.
  9000001    1    1    2    0    0 -0.86526961014E-02 -0.15668460042E-01  0.30931598649E-01  0.35750994182E-01  0.10000000475E-02 0. -1.
</event>
<event>
 4   0  0.4892667E-02  0.9118800E+02  0.7818609E-02  0.1379984E+01
      -11   -1    0    0    0    0  0.00000000000E+00  0.00000000000E+00  0.35740347158E-01  0.35744000000E-01  0.51099999109E-03 0. -1.
       11   -1    0    0    0    0 -0.00000000000E+00 -0.00000000000E+00 -0.35740347158E-01  0.35744000000E-01  0.51099999109E-03 0.  1.
       22    1    1    2    0    0 -0.11585968395E-02  0.11376728809E-01 -0.33857957408E-01  0.35737005818E-01  0.00000000000E+00 0.  1.
  9000001    1    1    2    0    0  0.11585968395E-02 -0.11376728809E-01  0.33857957408E-01  0.35750994182E-01  0.10000000475E-02 0. -1.
</event>
<event>
 4   0  0.4892667E-02  0.9118800E+02  0.7818609E-02  0.1379984E+01
      -11   -1    0    0    0    0  0.00000000000E+00  0.00000000000E+00  0.35740347158E-01  0.35744000000E-01  0.51099999109E-03 0. -1.
       11   -1    0    0    0    0 -0.00000000000E+00 -0.00000000000E+00 -0.35740347158E-01  0.35744000000E-01  0.51099999109E-03 0.  1.
       22    1    1    2    0    0 -0.31453112008E-01  0.77840265423E-02  0.15074623069E-01  0.35737005818E-01  0.00000000000E+00 0. -1.
  9000001    1    1    2    0    0  0.31453112008E-01 -0.77840265423E-02 -0.15074623069E-01  0.35750994182E-01  0.10000000475E-02 0.  1.
</event>
<event>
 4   0  0.4892667E-02  0.9118800E+02  0.7818609E-02  0.1379984E+01
      -11   -1    0    0    0    0  0.00000000000E+00  0.00000000000E+00  0.35740347158E-01  0.35744000000E-01  0.51099999109E-03 0.  1.
       11   -1    0    0    0    0 -0.00000000000E+00 -0.00000000000E+00 -0.35740347158E-01  0.35744000000E-01  0.51099999109E-03 0. -1.
       22    1    1    2    0    0  0.18099878357E-02  0.13109193356E-01  0.33196484429E-01  0.35737005818E-01  0.00000000000E+00 0.  1.
  9000001    1    1    2    0    0 -0.18099878357E-02 -0.13109193356E-01 -0.33196484429E-01  0.35750994182E-01  0.10000000475E-02 0. -1.
</event>
<event>
 4   0  0.4892667E-02  0.9118800E+02  0.7818609E-02  0.1379984E+01
      -11   -1    0    0    0    0  0.00000000000E+00  0.00000000000E+00  0.35740347158E-01  0.35744000000E-01  0.51099999109E-03 0.  1.
       11   -1    0    0    0    0 -0.00000000000E+00 -0.00000000000E+00 -0.35740347158E-01  0.35744000000E-01  0.51099999109E-03 0. -1.
       22    1    1    2    0    0  0.67676093801E-02  0.25380211997E-01  0.24231753695E-01  0.35737005818E-01  0.00000000000E+00 0.  1.
  9000001    1    1    2    0    0 -0.67676093801E-02 -0.25380211997E-01 -0.24231753695E-01  0.35750994182E-01  0.10000000475E-02 0. -1.
</event>
<event>
 4   0  0.4892667E-02  0.9118800E+02  0.7818609E-02  0.1379984E+01
      -11   -1    0    0    0    0  0.00000000000E+00  0.00000000000E+00  0.35740347158E-01  0.35744000000E-01  0.51099999109E-03 0. -1.
       11   -1    0    0    0    0 -0.00000000000E+00 -0.00000000000E+00 -0.35740347158E-01  0.35744000000E-01  0.51099999109E-03 0.  1.
       22    1    1    2    0    0  0.49330139253E-02  0.36151285925E-02 -0.35209796985E-01  0.35737005818E-01  0.00000000000E+00 0.  1.
  9000001    1    1    2    0    0 -0.49330139253E-02 -0.36151285925E-02  0.35209796985E-01  0.35750994182E-01  0.10000000475E-02 0. -1.
</event>
<event>
 4   0  0.4892667E-02  0.9118800E+02  0.7818609E-02  0.1379984E+01
      -11   -1    0    0    0    0  0.00000000000E+00  0.00000000000E+00  0.35740347158E-01  0.35744000000E-01  0.51099999109E-03 0.  1.
       11   -1    0    0    0    0 -0.00000000000E+00 -0.00000000000E+00 -0.35740347158E-01  0.35744000000E-01  0.51099999109E-03 0. -1.
       22    1    1    2    0    0  0.20911298833E-01 -0.12607811318E-01 -0.26093950635E-01  0.35737005818E-01  0.00000000000E+00 0. -1.
  9000001    1    1    2    0    0 -0.20911298833E-01  0.12607811318E-01  0.26093950635E-01  0.35750994182E-01  0.10000000475E-02 0.  1.
</event>
<event>
 4   0  0.4892667E-02  0.9118800E+02  0.7818609E-02  0.1379984E+01
      -11   -1    0    0    0    0  0.00000000000E+00  0.00000000000E+00  0.35740347158E-01  0.35744000000E-01  0.51099999109E-03 0. -1.
       11   -1    0    0    0    0 -0.00000000000E+00 -0.00000000000E+00 -0.35740347158E-01  0.35744000000E-01  0.51099999109E-03 0.  1.
       22    1    1    2    0    0  0.60194600131E-02 -0.59500536240E-02  0.34720261345E-01  0.35737005818E-01  0.00000000000E+00 0. -1.
  9000001    1    1    2    0    0 -0.60194600131E-02  0.59500536240E-02 -0.34720261345E-01  0.35750994182E-01  0.10000000475E-02 0.  1.
</event>
<event>
 4   0  0.4892667E-02  0.9118800E+02  0.7818609E-02  0.1379984E+01
      -11   -1    0    0    0    0  0.00000000000E+00  0.00000000000E+00  0.35740347158E-01  0.35744000000E-01  0.51099999109E-03 0. -1.
       11   -1    0    0    0    0 -0.00000000000E+00 -0.00000000000E+00 -0.35740347158E-01  0.35744000000E-01  0.51099999109E-03 0.  1.
       22    1    1    2    0    0 -0.33889680239E-02  0.14405892728E-01  0.32528737069E-01  0.35737005818E-01  0.00000000000E+00 0. -1.
  9000001    1    1    2    0    0  0.33889680239E-02 -0.14405892728E-01 -0.32528737069E-01  0.35750994182E-01  0.10000000475E-02 0.  1.
</event>
<event>
 4   0  0.4892667E-02  0.9118800E+02  0.7818609E-02  0.1379984E+01
      -11   -1    0    0    0    0  0.00000000000E+00  0.00000000000E+00  0.35740347158E-01  0.35744000000E-01  0.51099999109E-03 0.  1.
       11   -1    0    0    0    0 -0.00000000000E+00 -0.00000000000E+00 -0.35740347158E-01  0.35744000000E-01  0.51099999109E-03 0. -1.
       22    1    1    2    0    0 -0.76323224665E-02 -0.14049868083E-01 -0.31960639003E-01  0.35737005818E-01  0.00000000000E+00 0. -1.
  9000001    1    1    2    0    0  0.76323224665E-02  0.14049868083E-01  0.31960639003E-01  0.35750994182E-01  0.10000000475E-02 0.  1.
</event>
<event>
 4   0  0.4892667E-02  0.9118800E+02  0.7818609E-02  0.1379984E+01
      -11   -1    0    0    0    0  0.00000000000E+00  0.00000000000E+00  0.35740347158E-01  0.35744000000E-01  0.51099999109E-03 0.  1.
       11   -1    0    0    0    0 -0.00000000000E+00 -0.00000000000E+00 -0.35740347158E-01  0.35744000000E-01  0.51099999109E-03 0. -1.
       22    1    1    2    0    0  0.11055449877E-01 -0.23615197555E-01 -0.24438352181E-01  0.35737005818E-01  0.00000000000E+00 0. -1.
  9000001    1    1    2    0    0 -0.11055449877E-01  0.23615197555E-01  0.24438352181E-01  0.35750994182E-01  0.10000000475E-02 0.  1.
</event>
<event>
 4   0  0.4892667E-02  0.9118800E+02  0.7818609E-02  0.1379984E+01
      -11   -1    0    0    0    0  0.00000000000E+00  0.00000000000E+00  0.35740347158E-01  0.35744000000E-01  0.51099999109E-03 0. -1.
       11   -1    0    0    0    0 -0.00000000000E+00 -0.00000000000E+00 -0.35740347158E-01  0.35744000000E-01  0.51099999109E-03 0.  1.
       22    1    1    2    0    0 -0.18636769480E-02 -0.63002432033E-02 -0.35127869686E-01  0.35737005818E-01  0.00000000000E+00 0.  1.
  9000001    1    1    2    0    0  0.18636769480E-02  0.63002432033E-02  0.35127869686E-01  0.35750994182E-01  0.10000000475E-02 0. -1.
</event>
<event>
 4   0  0.4892667E-02  0.9118800E+02  0.7818609E-02  0.1379984E+01
      -11   -1    0    0    0    0  0.00000000000E+00  0.00000000000E+00  0.35740347158E-01  0.35744000000E-01  0.51099999109E-03 0. -1.
       11   -1    0    0    0    0 -0.00000000000E+00 -0.00000000000E+00 -0.35740347158E-01  0.35744000000E-01  0.51099999109E-03 0.  1.
       22    1    1    2    0    0  0.15918873460E-01  0.66982381299E-02  0.31286685005E-01  0.35737005818E-01  0.00000000000E+00 0. -1.
  9000001    1    1    2    0    0 -0.15918873460E-01 -0.66982381299E-02 -0.31286685005E-01  0.35750994182E-01  0.10000000475E-02 0.  1.
</event>
<event>
 4   0  0.4892667E-02  0.9118800E+02  0.7818609E-02  0.1379984E+01
      -11   -1    0    0    0    0  0.00000000000E+00  0.00000000000E+00  0.35740347158E-01  0.35744000000E-01  0.51099999109E-03 0. -1.
       11   -1    0    0    0    0 -0.00000000000E+00 -0.00000000000E+00 -0.35740347158E-01  0.35744000000E-01  0.51099999109E-03 0.  1.
       22    1    1    2    0    0 -0.47965685719E-02  0.16823872914E-01  0.31162217748E-01  0.35737005818E-01  0.00000000000E+00 0. -1.
  9000001    1    1    2    0    0  0.47965685719E-02 -0.16823872914E-01 -0.31162217748E-01  0.35750994182E-01  0.10000000475E-02 0.  1.
</event>
<event>
 4   0  0.4892667E-02  0.9118800E+02  0.7818609E-02  0.1379984E+01
      -11   -1    0    0    0    0  0.00000000000E+00  0.00000000000E+00  0.35740347158E-01  0.35744000000E-01  0.51099999109E-03 0. -1.
       11   -1    0    0    0    0 -0.00000000000E+00 -0.00000000000E+00 -0.35740347158E-01  0.35744000000E-01  0.51099999109E-03 0.  1.
       22    1    1    2    0    0  0.16765036362E-01  0.14076838874E-01 -0.28247296295E-01  0.35737005818E-01  0.00000000000E+00 0.  1.
  9000001    1    1    2    0    0 -0.16765036362E-01 -0.14076838874E-01  0.28247296295E-01  0.35750994182E-01  0.10000000475E-02 0. -1.
</event>
<event>
 4   0  0.4892667E-02  0.9118800E+02  0.7818609E-02  0.1379984E+01
      -11   -1    0    0    0    0  0.00000000000E+00  0.00000000000E+00  0.35740347158E-01  0.35744000000E-01  0.51099999109E-03 0. -1.
       11   -1    0    0    0    0 -0.00000000000E+00 -0.00000000000E+00 -0.35740347158E-01  0.35744000000E-01  0.51099999109E-03 0.  1.
       22    1    1    2    0    0  0.13778954880E-01  0.40674606307E-02  0.32722007140E-01  0.35737005818E-01  0.00000000000E+00 0. -1.
  9000001    1    1    2    0    0 -0.13778954880E-01 -0.40674606307E-02 -0.32722007140E-01  0.35750994182E-01  0.10000000475E-02 0.  1.
</event>
<event>
 4   0  0.4892667E-02  0.9118800E+02  0.7818609E-02  0.1379984E+01
      -11   -1    0    0    0    0  0.00000000000E+00  0.00000000000E+00  0.35740347158E-01  0.35744000000E-01  0.51099999109E-03 0.  1.
       11   -1    0    0    0    0 -0.00000000000E+00 -0.00000000000E+00 -0.35740347158E-01  0.35744000000E-01  0.51099999109E-03 0. -1.
       22    1    1    2    0    0  0.16990527082E-01  0.15542333455E-02 -0.31401272794E-01  0.35737005818E-01  0.00000000000E+00 0. -1.
  9000001    1    1    2    0    0 -0.16990527082E-01 -0.15542333455E-02  0.31401272794E-01  0.35750994182E-01  0.10000000475E-02 0.  1.
</event>
<event>
 4   0  0.4892667E-02  0.9118800E+02  0.7818609E-02  0.1379984E+01
      -11   -1    0    0    0    0  0.00000000000E+00  0.00000000000E+00  0.35740347158E-01  0.35744000000E-01  0.51099999109E-03 0. -1.
       11   -1    0    0    0    0 -0.00000000000E+00 -0.00000000000E+00 -0.35740347158E-01  0.35744000000E-01  0.51099999109E-03 0.  1.
       22    1    1    2    0    0 -0.38100278388E-03 -0.16098032207E-01  0.31903632721E-01  0.35737005818E-01  0.00000000000E+00 0. -1.
  9000001    1    1    2    0    0  0.38100278388E-03  0.16098032207E-01 -0.31903632721E-01  0.35750994182E-01  0.10000000475E-02 0.  1.
</event>
<event>
 4   0  0.4892667E-02  0.9118800E+02  0.7818609E-02  0.1379984E+01
      -11   -1    0    0    0    0  0.00000000000E+00  0.00000000000E+00  0.35740347158E-01  0.35744000000E-01  0.51099999109E-03 0. -1.
       11   -1    0    0    0    0 -0.00000000000E+00 -0.00000000000E+00 -0.35740347158E-01  0.35744000000E-01  0.51099999109E-03 0.  1.
       22    1    1    2    0    0 -0.70605563951E-02  0.16245199268E-02  0.34994900532E-01  0.35737005818E-01  0.00000000000E+00 0. -1.
  9000001    1    1    2    0    0  0.70605563951E-02 -0.16245199268E-02 -0.34994900532E-01  0.35750994182E-01  0.10000000475E-02 0.  1.
</event>
<event>
 4   0  0.4892667E-02  0.9118800E+02  0.7818609E-02  0.1379984E+01
      -11   -1    0    0    0    0  0.00000000000E+00  0.00000000000E+00  0.35740347158E-01  0.35744000000E-01  0.51099999109E-03 0.  1.
       11   -1    0    0    0    0 -0.00000000000E+00 -0.00000000000E+00 -0.35740347158E-01  0.35744000000E-01  0.51099999109E-03 0. -1.
       22    1    1    2    0    0  0.82357780616E-03 -0.29297573671E-02 -0.35607187845E-01  0.35737005818E-01  0.00000000000E+00 0. -1.
  9000001    1    1    2    0    0 -0.82357780616E-03  0.29297573671E-02  0.35607187845E-01  0.35750994182E-01  0.10000000475E-02 0.  1.
</event>
<event>
 4   0  0.4892667E-02  0.9118800E+02  0.7818609E-02  0.1379984E+01
      -11   -1    0    0    0    0  0.00000000000E+00  0.00000000000E+00  0.35740347158E-01  0.35744000000E-01  0.51099999109E-03 0.  1.
       11   -1    0    0    0    0 -0.00000000000E+00 -0.00000000000E+00 -0.35740347158E-01  0.35744000000E-01  0.51099999109E-03 0. -1.
       22    1    1    2    0    0 -0.11272916558E-01 -0.16339731992E-01 -0.29716461693E-01  0.35737005818E-01  0.00000000000E+00 0. -1.
  9000001    1    1    2    0    0  0.11272916558E-01  0.16339731992E-01  0.29716461693E-01  0.35750994182E-01  0.10000000475E-02 0.  1.
</event>
<event>
 4   0  0.4892667E-02  0.9118800E+02  0.7818609E-02  0.1379984E+01
      -11   -1    0    0    0    0  0.00000000000E+00  0.00000000000E+00  0.35740347158E-01  0.35744000000E-01  0.51099999109E-03 0.  1.
       11   -1    0    0    0    0 -0.00000000000E+00 -0.00000000000E+00 -0.35740347158E-01  0.35744000000E-01  0.51099999109E-03 0. -1.
       22    1    1    2    0    0 -0.24220558675E-02  0.27283183763E-01 -0.22954196000E-01  0.35737005818E-01  0.00000000000E+00 0. -1.
  9000001    1    1    2    0    0  0.24220558675E-02 -0.27283183763E-01  0.22954196000E-01  0.35750994182E-01  0.10000000475E-02 0.  1.
</event>
<event>
 4   0  0.4892667E-02  0.9118800E+02  0.7818609E-02  0.1379984E+01
      -11   -1    0    0    0    0  0.00000000000E+00  0.00000000000E+00  0.35740347158E-01  0.35744000000E-01  0.51099999109E-03 0. -1.
       11   -1    0    0    0    0 -0.00000000000E+00 -0.00000000000E+00 -0.35740347158E-01  0.35744000000E-01  0.51099999109E-03 0.  1.
       22    1    1    2    0    0 -0.11141405348E-01 -0.15269556184E-01  0.30328918967E-01  0.35737005818E-01  0.00000000000E+00 0. -1.
  9000001    1    1    2    0    0  0.11141405348E-01  0.15269556184E-01 -0.30328918967E-01  0.35750994182E-01  0.10000000475E-02 0.  1.
</event>
<event>
 4   0  0.4892667E-02  0.9118800E+02  0.7818609E-02  0.1379984E+01
      -11   -1    0    0    0    0  0.00000000000E+00  0.00000000000E+00  0.35740347158E-01  0.35744000000E-01  0.51099999109E-03 0. -1.
       11   -1    0    0    0    0 -0.00000000000E+00 -0.00000000000E+00 -0.35740347158E-01  0.35744000000E-01  0.51099999109E-03 0.  1.
       22    1    1    2    0    0 -0.37791626881E-02 -0.72011002010E-02 -0.34799363071E-01  0.35737005818E-01  0.00000000000E+00 0.  1.
  9000001    1    1    2    0    0  0.37791626881E-02  0.72011002010E-02  0.34799363071E-01  0.35750994182E-01  0.10000000475E-02 0. -1.
</event>
<event>
 4   0  0.4892667E-02  0.9118800E+02  0.7818609E-02  0.1379984E+01
      -11   -1    0    0    0    0  0.00000000000E+00  0.00000000000E+00  0.35740347158E-01  0.35744000000E-01  0.51099999109E-03 0.  1.
       11   -1    0    0    0    0 -0.00000000000E+00 -0.00000000000E+00 -0.35740347158E-01  0.35744000000E-01  0.51099999109E-03 0. -1.
       22    1    1    2    0    0  0.62647993950E-02  0.25442469418E-01  0.24301576561E-01  0.35737005818E-01  0.00000000000E+00 0.  1.
  9000001    1    1    2    0    0 -0.62647993950E-02 -0.25442469418E-01 -0.24301576561E-01  0.35750994182E-01  0.10000000475E-02 0. -1.
</event>
<event>
 4   0  0.4892667E-02  0.9118800E+02  0.7818609E-02  0.1379984E+01
      -11   -1    0    0    0    0  0.00000000000E+00  0.00000000000E+00  0.35740347158E-01  0.35744000000E-01  0.51099999109E-03 0. -1.
       11   -1    0    0    0    0 -0.00000000000E+00 -0.00000000000E+00 -0.35740347158E-01  0.35744000000E-01  0.51099999109E-03 0.  1.
       22    1    1    2    0    0 -0.21303383488E-02  0.82940643695E-02  0.34695874966E-01  0.35737005818E-01  0.00000000000E+00 0. -1.
  9000001    1    1    2    0    0  0.21303383488E-02 -0.82940643695E-02 -0.34695874966E-01  0.35750994182E-01  0.10000000475E-02 0.  1.
</event>
<event>
 4   0  0.4892667E-02  0.9118800E+02  0.7818609E-02  0.1379984E+01
      -11   -1    0    0    0    0  0.00000000000E+00  0.00000000000E+00  0.35740347158E-01  0.35744000000E-01  0.51099999109E-03 0.  1.
       11   -1    0    0    0    0 -0.00000000000E+00 -0.00000000000E+00 -0.35740347158E-01  0.35744000000E-01  0.51099999109E-03 0. -1.
       22    1    1    2    0    0  0.55003684110E-02 -0.79736705465E-02 -0.34399129498E-01  0.35737005818E-01  0.00000000000E+00 0. -1.
  9000001    1    1    2    0    0 -0.55003684110E-02  0.79736705465E-02  0.34399129498E-01  0.35750994182E-01  0.10000000475E-02 0.  1.
</event>
<event>
 4   0  0.4892667E-02  0.9118800E+02  0.7818609E-02  0.1379984E+01
      -11   -1    0    0    0    0  0.00000000000E+00  0.00000000000E+00  0.35740347158E-01  0.35744000000E-01  0.51099999109E-03 0. -1.
       11   -1    0    0    0    0 -0.00000000000E+00 -0.00000000000E+00 -0.35740347158E-01  0.35744000000E-01  0.51099999109E-03 0.  1.
       22    1    1    2    0    0  0.31605961900E-02 -0.65125482635E-02 -0.34996155956E-01  0.35737005818E-01  0.00000000000E+00 0.  1.
  9000001    1    1    2    0    0 -0.31605961900E-02  0.65125482635E-02  0.34996155956E-01  0.35750994182E-01  0.10000000475E-02 0. -1.
</event>
<event>
 4   0  0.4892667E-02  0.9118800E+02  0.7818609E-02  0.1379984E+01
      -11   -1    0    0    0    0  0.00000000000E+00  0.00000000000E+00  0.35740347158E-01  0.35744000000E-01  0.51099999109E-03 0. -1.
       11   -1    0    0    0    0 -0.00000000000E+00 -0.00000000000E+00 -0.35740347158E-01  0.35744000000E-01  0.51099999109E-03 0. -1.
       22    1    1    2    0    0 -0.31126414038E-02  0.27140850265E-02 -0.35497588521E-01  0.35737005818E-01  0.00000000000E+00 0. -1.
  9000001    1    1    2    0    0  0.31126414038E-02 -0.27140850265E-02  0.35497588521E-01  0.35750994182E-01  0.10000000475E-02 0. -1.
</event>
<event>
 4   0  0.4892667E-02  0.9118800E+02  0.7818609E-02  0.1379984E+01
      -11   -1    0    0    0    0  0.00000000000E+00  0.00000000000E+00  0.35740347158E-01  0.35744000000E-01  0.51099999109E-03 0. -1.
       11   -1    0    0    0    0 -0.00000000000E+00 -0.00000000000E+00 -0.35740347158E-01  0.35744000000E-01  0.51099999109E-03 0.  1.
       22    1    1    2    0    0 -0.37829173698E-02  0.69246822041E-02 -0.34855012515E-01  0.35737005818E-01  0.00000000000E+00 0.  1.
  9000001    1    1    2    0    0  0.37829173698E-02 -0.69246822041E-02  0.34855012515E-01  0.35750994182E-01  0.10000000475E-02 0. -1.
</event>
<event>
 4   0  0.4892667E-02  0.9118800E+02  0.7818609E-02  0.1379984E+01
      -11   -1    0    0    0    0  0.00000000000E+00  0.00000000000E+00  0.35740347158E-01  0.35744000000E-01  0.51099999109E-03 0.  1.
       11   -1    0    0    0    0 -0.00000000000E+00 -0.00000000000E+00 -0.35740347158E-01  0.35744000000E-01  0.51099999109E-03 0. -1.
       22    1    1    2    0    0  0.37002805120E-02  0.39631076642E-02  0.35323296656E-01  0.35737005818E-01  0.00000000000E+00 0.  1.
  9000001    1    1    2    0    0 -0.37002805120E-02 -0.39631076642E-02 -0.35323296656E-01  0.35750994182E-01  0.10000000475E-02 0. -1.
</event>
<event>
 4   0  0.4892667E-02  0.9118800E+02  0.7818609E-02  0.1379984E+01
      -11   -1    0    0    0    0  0.00000000000E+00  0.00000000000E+00  0.35740347158E-01  0.35744000000E-01  0.51099999109E-03 0. -1.
       11   -1    0    0    0    0 -0.00000000000E+00 -0.00000000000E+00 -0.35740347158E-01  0.35744000000E-01  0.51099999109E-03 0.  1.
       22    1    1    2    0    0 -0.35455378594E-02  0.22424641107E-02  0.35489915481E-01  0.35737005818E-01  0.00000000000E+00 0. -1.
  9000001    1    1    2    0    0  0.35455378594E-02 -0.22424641107E-02 -0.35489915481E-01  0.35750994182E-01  0.10000000475E-02 0.  1.
</event>
<event>
 4   0  0.4892667E-02  0.9118800E+02  0.7818609E-02  0.1379984E+01
      -11   -1    0    0    0    0  0.00000000000E+00  0.00000000000E+00  0.35740347158E-01  0.35744000000E-01  0.51099999109E-03 0. -1.
       11   -1    0    0    0    0 -0.00000000000E+00 -0.00000000000E+00 -0.35740347158E-01  0.35744000000E-01  0.51099999109E-03 0.  1.
       22    1    1    2    0    0  0.47443132255E-02 -0.60954069499E-02  0.34892278387E-01  0.35737005818E-01  0.00000000000E+00 0. -1.
  9000001    1    1    2    0    0 -0.47443132255E-02  0.60954069499E-02 -0.34892278387E-01  0.35750994182E-01  0.10000000475E-02 0.  1.
</event>
<event>
 4   0  0.4892667E-02  0.9118800E+02  0.7818609E-02  0.1379984E+01
      -11   -1    0    0    0    0  0.00000000000E+00  0.00000000000E+00  0.35740347158E-01  0.35744000000E-01  0.51099999109E-03 0.  1.
       11   -1    0    0    0    0 -0.00000000000E+00 -0.00000000000E+00 -0.35740347158E-01  0.35744000000E-01  0.51099999109E-03 0. -1.
       22    1    1    2    0    0 -0.23672311949E-02  0.44839240324E-02  0.35375474931E-01  0.35737005818E-01  0.00000000000E+00 0.  1.
  9000001    1    1    2    0    0  0.23672311949E-02 -0.44839240324E-02 -0.35375474931E-01  0.35750994182E-01  0.10000000475E-02 0. -1.
</event>
<event>
 4   0  0.4892667E-02  0.9118800E+02  0.7818609E-02  0.1379984E+01
      -11   -1    0    0    0    0  0.00000000000E+00  0.00000000000E+00  0.35740347158E-01  0.35744000000E-01  0.51099999109E-03 0. -1.
       11   -1    0    0    0    0 -0.00000000000E+00 -0.00000000000E+00 -0.35740347158E-01  0.35744000000E-01  0.51099999109E-03 0.  1.
       22    1    1    2    0    0  0.69347387363E-02  0.42220330278E-02  0.34802549054E-01  0.35737005818E-01  0.00000000000E+00 0. -1.
  9000001    1    1    2    0    0 -0.69347387363E-02 -0.42220330278E-02 -0.34802549054E-01  0.35750994182E-01  0.10000000475E-02 0.  1.
</event>
<event>
 4   0  0.4892667E-02  0.9118800E+02  0.7818609E-02  0.1379984E+01
      -11   -1    0    0    0    0  0.00000000000E+00  0.00000000000E+00  0.35740347158E-01  0.35744000000E-01  0.51099999109E-03 0.  1.
       11   -1    0    0    0    0 -0.00000000000E+00 -0.00000000000E+00 -0.35740347158E-01  0.35744000000E-01  0.51099999109E-03 0. -1.
       22    1    1    2    0    0 -0.86147502425E-02  0.67016735956E-02  0.34029505347E-01  0.35737005818E-01  0.00000000000E+00 0.  1.
  9000001    1    1    2    0    0  0.86147502425E-02 -0.67016735956E-02 -0.34029505347E-01  0.35750994182E-01  0.10000000475E-02 0. -1.
</event>
<event>
 4   0  0.4892667E-02  0.9118800E+02  0.7818609E-02  0.1379984E+01
      -11   -1    0    0    0    0  0.00000000000E+00  0.00000000000E+00  0.35740347158E-01  0.35744000000E-01  0.51099999109E-03 0. -1.
       11   -1    0    0    0    0 -0.00000000000E+00 -0.00000000000E+00 -0.35740347158E-01  0.35744000000E-01  0.51099999109E-03 0.  1.
       22    1    1    2    0    0 -0.15695197347E-01 -0.60667716964E-02 -0.31527585481E-01  0.35737005818E-01  0.00000000000E+00 0.  1.
  9000001    1    1    2    0    0  0.15695197347E-01  0.60667716964E-02  0.31527585481E-01  0.35750994182E-01  0.10000000475E-02 0. -1.
</event>
<event>
 4   0  0.4892667E-02  0.9118800E+02  0.7818609E-02  0.1379984E+01
      -11   -1    0    0    0    0  0.00000000000E+00  0.00000000000E+00  0.35740347158E-01  0.35744000000E-01  0.51099999109E-03 0. -1.
       11   -1    0    0    0    0 -0.00000000000E+00 -0.00000000000E+00 -0.35740347158E-01  0.35744000000E-01  0.51099999109E-03 0.  1.
       22    1    1    2    0    0 -0.46395296545E-03  0.10838245730E-01  0.34050708686E-01  0.35737005818E-01  0.00000000000E+00 0. -1.
  9000001    1    1    2    0    0  0.46395296545E-03 -0.10838245730E-01 -0.34050708686E-01  0.35750994182E-01  0.10000000475E-02 0.  1.
</event>
<event>
 4   0  0.4892667E-02  0.9118800E+02  0.7818609E-02  0.1379984E+01
      -11   -1    0    0    0    0  0.00000000000E+00  0.00000000000E+00  0.35740347158E-01  0.35744000000E-01  0.51099999109E-03 0. -1.
       11   -1    0    0    0    0 -0.00000000000E+00 -0.00000000000E+00 -0.35740347158E-01  0.35744000000E-01  0.51099999109E-03 0.  1.
       22    1    1    2    0    0 -0.15812465953E-01  0.16024382230E-01 -0.27754615463E-01  0.35737005818E-01  0.00000000000E+00 0.  1.
  9000001    1    1    2    0    0  0.15812465953E-01 -0.16024382230E-01  0.27754615463E-01  0.35750994182E-01  0.10000000475E-02 0. -1.
</event>
<event>
 4   0  0.4892667E-02  0.9118800E+02  0.7818609E-02  0.1379984E+01
      -11   -1    0    0    0    0  0.00000000000E+00  0.00000000000E+00  0.35740347158E-01  0.35744000000E-01  0.51099999109E-03 0.  1.
       11   -1    0    0    0    0 -0.00000000000E+00 -0.00000000000E+00 -0.35740347158E-01  0.35744000000E-01  0.51099999109E-03 0. -1.
       22    1    1    2    0    0 -0.78160756358E-02  0.29388337627E-01  0.18771471920E-01  0.35737005818E-01  0.00000000000E+00 0.  1.
  9000001    1    1    2    0    0  0.78160756358E-02 -0.29388337627E-01 -0.18771471920E-01  0.35750994182E-01  0.10000000475E-02 0. -1.
</event>
<event>
 4   0  0.4892667E-02  0.9118800E+02  0.7818609E-02  0.1379984E+01
      -11   -1    0    0    0    0  0.00000000000E+00  0.00000000000E+00  0.35740347158E-01  0.35744000000E-01  0.51099999109E-03 0. -1.
       11   -1    0    0    0    0 -0.00000000000E+00 -0.00000000000E+00 -0.35740347158E-01  0.35744000000E-01  0.51099999109E-03 0.  1.
       22    1    1    2    0    0  0.60438373802E-02  0.25444654058E-03  0.35221312746E-01  0.35737005818E-01  0.00000000000E+00 0. -1.
  9000001    1    1    2    0    0 -0.60438373802E-02 -0.25444654058E-03 -0.35221312746E-01  0.35750994182E-01  0.10000000475E-02 0.  1.
</event>
<event>
 4   0  0.4892667E-02  0.9118800E+02  0.7818609E-02  0.1379984E+01
      -11   -1    0    0    0    0  0.00000000000E+00  0.00000000000E+00  0.35740347158E-01  0.35744000000E-01  0.51099999109E-03 0. -1.
       11   -1    0    0    0    0 -0.00000000000E+00 -0.00000000000E+00 -0.35740347158E-01  0.35744000000E-01  0.51099999109E-03 0.  1.
       22    1    1    2    0    0  0.12319956708E-01  0.32593936567E-01 -0.79364696589E-02  0.35737005818E-01  0.00000000000E+00 0. -1.
  9000001    1    1    2    0    0 -0.12319956708E-01 -0.32593936567E-01  0.79364696589E-02  0.35750994182E-01  0.10000000475E-02 0.  1.
</event>
<event>
 4   0  0.4892667E-02  0.9118800E+02  0.7818609E-02  0.1379984E+01
      -11   -1    0    0    0    0  0.00000000000E+00  0.00000000000E+00  0.35740347158E-01  0.35744000000E-01  0.51099999109E-03 0. -1.
       11   -1    0    0    0    0 -0.00000000000E+00 -0.00000000000E+00 -0.35740347158E-01  0.35744000000E-01  0.51099999109E-03 0.  1.
       22    1    1    2    0    0 -0.30151551874E-02 -0.43906128669E-02 -0.35337868395E-01  0.35737005818E-01  0.00000000000E+00 0.  1.
  9000001    1    1    2    0    0  0.30151551874E-02  0.43906128669E-02  0.35337868395E-01  0.35750994182E-01  0.10000000475E-02 0. -1.
</event>
<event>
 4   0  0.4892667E-02  0.9118800E+02  0.7818609E-02  0.1379984E+01
      -11   -1    0    0    0    0  0.00000000000E+00  0.00000000000E+00  0.35740347158E-01  0.35744000000E-01  0.51099999109E-03 0.  1.
       11   -1    0    0    0    0 -0.00000000000E+00 -0.00000000000E+00 -0.35740347158E-01  0.35744000000E-01  0.51099999109E-03 0. -1.
       22    1    1    2    0    0 -0.82329686074E-02 -0.26637482866E-02  0.34673567135E-01  0.35737005818E-01  0.00000000000E+00 0.  1.
  9000001    1    1    2    0    0  0.82329686074E-02  0.26637482866E-02 -0.34673567135E-01  0.35750994182E-01  0.10000000475E-02 0. -1.
</event>
<event>
 4   0  0.4892667E-02  0.9118800E+02  0.7818609E-02  0.1379984E+01
      -11   -1    0    0    0    0  0.00000000000E+00  0.00000000000E+00  0.35740347158E-01  0.35744000000E-01  0.51099999109E-03 0.  1.
       11   -1    0    0    0    0 -0.00000000000E+00 -0.00000000000E+00 -0.35740347158E-01  0.35744000000E-01  0.51099999109E-03 0. -1.
       22    1    1    2    0    0 -0.43180889212E-02 -0.60167119549E-02 -0.34961219518E-01  0.35737005818E-01  0.00000000000E+00 0. -1.
  9000001    1    1    2    0    0  0.43180889212E-02  0.60167119549E-02  0.34961219518E-01  0.35750994182E-01  0.10000000475E-02 0.  1.
</event>
<event>
 4   0  0.4892667E-02  0.9118800E+02  0.7818609E-02  0.1379984E+01
      -11   -1    0    0    0    0  0.00000000000E+00  0.00000000000E+00  0.35740347158E-01  0.35744000000E-01  0.51099999109E-03 0. -1.
       11   -1    0    0    0    0 -0.00000000000E+00 -0.00000000000E+00 -0.35740347158E-01  0.35744000000E-01  0.51099999109E-03 0.  1.
       22    1    1    2    0    0 -0.31839474327E-02  0.14399046109E-02 -0.35565752323E-01  0.35737005818E-01  0.00000000000E+00 0.  1.
  9000001    1    1    2    0    0  0.31839474327E-02 -0.14399046109E-02  0.35565752323E-01  0.35750994182E-01  0.10000000475E-02 0. -1.
</event>
<event>
 4   0  0.4892667E-02  0.9118800E+02  0.7818609E-02  0.1379984E+01
      -11   -1    0    0    0    0  0.00000000000E+00  0.00000000000E+00  0.35740347158E-01  0.35744000000E-01  0.51099999109E-03 0. -1.
       11   -1    0    0    0    0 -0.00000000000E+00 -0.00000000000E+00 -0.35740347158E-01  0.35744000000E-01  0.51099999109E-03 0.  1.
       22    1    1    2    0    0  0.65591638810E-02  0.10841212612E-02 -0.35113183210E-01  0.35737005818E-01  0.00000000000E+00 0.  1.
  9000001    1    1    2    0    0 -0.65591638810E-02 -0.10841212612E-02  0.35113183210E-01  0.35750994182E-01  0.10000000475E-02 0. -1.
</event>
<event>
 4   0  0.4892667E-02  0.9118800E+02  0.7818609E-02  0.1379984E+01
      -11   -1    0    0    0    0  0.00000000000E+00  0.00000000000E+00  0.35740347158E-01  0.35744000000E-01  0.51099999109E-03 0. -1.
       11   -1    0    0    0    0 -0.00000000000E+00 -0.00000000000E+00 -0.35740347158E-01  0.35744000000E-01  0.51099999109E-03 0.  1.
       22    1    1    2    0    0  0.26833199466E-01  0.18385095394E-01  0.14802069404E-01  0.35737005818E-01  0.00000000000E+00 0. -1.
  9000001    1    1    2    0    0 -0.26833199466E-01 -0.18385095394E-01 -0.14802069404E-01  0.35750994182E-01  0.10000000475E-02 0.  1.
</event>
<event>
 4   0  0.4892667E-02  0.9118800E+02  0.7818609E-02  0.1379984E+01
      -11   -1    0    0    0    0  0.00000000000E+00  0.00000000000E+00  0.35740347158E-01  0.35744000000E-01  0.51099999109E-03 0.  1.
       11   -1    0    0    0    0 -0.00000000000E+00 -0.00000000000E+00 -0.35740347158E-01  0.35744000000E-01  0.51099999109E-03 0. -1.
       22    1    1    2    0    0  0.57152934260E-03  0.32905390503E-02  0.35580602747E-01  0.35737005818E-01  0.00000000000E+00 0.  1.
  9000001    1    1    2    0    0 -0.57152934260E-03 -0.32905390503E-02 -0.35580602747E-01  0.35750994182E-01  0.10000000475E-02 0. -1.
</event>
<event>
 4   0  0.4892667E-02  0.9118800E+02  0.7818609E-02  0.1379984E+01
      -11   -1    0    0    0    0  0.00000000000E+00  0.00000000000E+00  0.35740347158E-01  0.35744000000E-01  0.51099999109E-03 0. -1.
       11   -1    0    0    0    0 -0.00000000000E+00 -0.00000000000E+00 -0.35740347158E-01  0.35744000000E-01  0.51099999109E-03 0.  1.
       22    1    1    2    0    0  0.96672150700E-02 -0.26244185861E-02 -0.34304386961E-01  0.35737005818E-01  0.00000000000E+00 0.  1.
  9000001    1    1    2    0    0 -0.96672150700E-02  0.26244185861E-02  0.34304386961E-01  0.35750994182E-01  0.10000000475E-02 0. -1.
</event>
<event>
 4   0  0.4892667E-02  0.9118800E+02  0.7818609E-02  0.1379984E+01
      -11   -1    0    0    0    0  0.00000000000E+00  0.00000000000E+00  0.35740347158E-01  0.35744000000E-01  0.51099999109E-03 0.  1.
       11   -1    0    0    0    0 -0.00000000000E+00 -0.00000000000E+00 -0.35740347158E-01  0.35744000000E-01  0.51099999109E-03 0. -1.
       22    1    1    2    0    0  0.13038567918E-01  0.24734024735E-02  0.33181495019E-01  0.35737005818E-01  0.00000000000E+00 0.  1.
  9000001    1    1    2    0    0 -0.13038567918E-01 -0.24734024735E-02 -0.33181495019E-01  0.35750994182E-01  0.10000000475E-02 0. -1.
</event>
<event>
 4   0  0.4892667E-02  0.9118800E+02  0.7818609E-02  0.1379984E+01
      -11   -1    0    0    0    0  0.00000000000E+00  0.00000000000E+00  0.35740347158E-01  0.35744000000E-01  0.51099999109E-03 0. -1.
       11   -1    0    0    0    0 -0.00000000000E+00 -0.00000000000E+00 -0.35740347158E-01  0.35744000000E-01  0.51099999109E-03 0.  1.
       22    1    1    2    0    0 -0.35687579680E-01 -0.35514986784E-03  0.18450230430E-02  0.35737005818E-01  0.00000000000E+00 0.  1.
  9000001    1    1    2    0    0  0.35687579680E-01  0.35514986784E-03 -0.18450230430E-02  0.35750994182E-01  0.10000000475E-02 0. -1.
</event>
<event>
 4   0  0.4892667E-02  0.9118800E+02  0.7818609E-02  0.1379984E+01
      -11   -1    0    0    0    0  0.00000000000E+00  0.00000000000E+00  0.35740347158E-01  0.35744000000E-01  0.51099999109E-03 0.  1.
       11   -1    0    0    0    0 -0.00000000000E+00 -0.00000000000E+00 -0.35740347158E-01  0.35744000000E-01  0.51099999109E-03 0. -1.
       22    1    1    2    0    0 -0.54551617089E-03  0.15698273537E-01 -0.32099847428E-01  0.35737005818E-01  0.00000000000E+00 0. -1.
  9000001    1    1    2    0    0  0.54551617089E-03 -0.15698273537E-01  0.32099847428E-01  0.35750994182E-01  0.10000000475E-02 0.  1.
</event>
<event>
 4   0  0.4892667E-02  0.9118800E+02  0.7818609E-02  0.1379984E+01
      -11   -1    0    0    0    0  0.00000000000E+00  0.00000000000E+00  0.35740347158E-01  0.35744000000E-01  0.51099999109E-03 0. -1.
       11   -1    0    0    0    0 -0.00000000000E+00 -0.00000000000E+00 -0.35740347158E-01  0.35744000000E-01  0.51099999109E-03 0.  1.
       22    1    1    2    0    0  0.72555531063E-02  0.29247568859E-01  0.19211201155E-01  0.35737005818E-01  0.00000000000E+00 0. -1.
  9000001    1    1    2    0    0 -0.72555531063E-02 -0.29247568859E-01 -0.19211201155E-01  0.35750994182E-01  0.10000000475E-02 0.  1.
</event>
<event>
 4   0  0.4892667E-02  0.9118800E+02  0.7818609E-02  0.1379984E+01
      -11   -1    0    0    0    0  0.00000000000E+00  0.00000000000E+00  0.35740347158E-01  0.35744000000E-01  0.51099999109E-03 0.  1.
       11   -1    0    0    0    0 -0.00000000000E+00 -0.00000000000E+00 -0.35740347158E-01  0.35744000000E-01  0.51099999109E-03 0. -1.
       22    1    1    2    0    0  0.58853252965E-02 -0.63718853794E-02 -0.34668366096E-01  0.35737005818E-01  0.00000000000E+00 0. -1.
  9000001    1    1    2    0    0 -0.58853252965E-02  0.63718853794E-02  0.34668366096E-01  0.35750994182E-01  0.10000000475E-02 0.  1.
</event>
<event>
 4   0  0.4892667E-02  0.9118800E+02  0.7818609E-02  0.1379984E+01
      -11   -1    0    0    0    0  0.00000000000E+00  0.00000000000E+00  0.35740347158E-01  0.35744000000E-01  0.51099999109E-03 0. -1.
       11   -1    0    0    0    0 -0.00000000000E+00 -0.00000000000E+00 -0.35740347158E-01  0.35744000000E-01  0.51099999109E-03 0.  1.
       22    1    1    2    0    0 -0.38282581251E-02  0.14365732458E-01 -0.32497750007E-01  0.35737005818E-01  0.00000000000E+00 0.  1.
  9000001    1    1    2    0    0  0.38282581251E-02 -0.14365732458E-01  0.32497750007E-01  0.35750994182E-01  0.10000000475E-02 0. -1.
</event>
<event>
 4   0  0.4892667E-02  0.9118800E+02  0.7818609E-02  0.1379984E+01
      -11   -1    0    0    0    0  0.00000000000E+00  0.00000000000E+00  0.35740347158E-01  0.35744000000E-01  0.51099999109E-03 0. -1.
       11   -1    0    0    0    0 -0.00000000000E+00 -0.00000000000E+00 -0.35740347158E-01  0.35744000000E-01  0.51099999109E-03 0.  1.
       22    1    1    2    0    0  0.92061394210E-02 -0.26450112698E-01 -0.22198471120E-01  0.35737005818E-01  0.00000000000E+00 0.  1.
  9000001    1    1    2    0    0 -0.92061394210E-02  0.26450112698E-01  0.22198471120E-01  0.35750994182E-01  0.10000000475E-02 0. -1.
</event>
<event>
 4   0  0.4892667E-02  0.9118800E+02  0.7818609E-02  0.1379984E+01
      -11   -1    0    0    0    0  0.00000000000E+00  0.00000000000E+00  0.35740347158E-01  0.35744000000E-01  0.51099999109E-03 0.  1.
       11   -1    0    0    0    0 -0.00000000000E+00 -0.00000000000E+00 -0.35740347158E-01  0.35744000000E-01  0.51099999109E-03 0. -1.
       22    1    1    2    0    0 -0.22187716772E-01  0.30058060415E-02  0.27853257249E-01  0.35737005818E-01  0.00000000000E+00 0.  1.
  9000001    1    1    2    0    0  0.22187716772E-01 -0.30058060415E-02 -0.27853257249E-01  0.35750994182E-01  0.10000000475E-02 0. -1.
</event>
<event>
 4   0  0.4892667E-02  0.9118800E+02  0.7818609E-02  0.1379984E+01
      -11   -1    0    0    0    0  0.00000000000E+00  0.00000000000E+00  0.35740347158E-01  0.35744000000E-01  0.51099999109E-03 0. -1.
       11   -1    0    0    0    0 -0.00000000000E+00 -0.00000000000E+00 -0.35740347158E-01  0.35744000000E-01  0.51099999109E-03 0.  1.
       22    1    1    2    0    0  0.15230948191E-01  0.22827209913E-01  0.22892581542E-01  0.35737005818E-01  0.00000000000E+00 0. -1.
  9000001    1    1    2    0    0 -0.15230948191E-01 -0.22827209913E-01 -0.22892581542E-01  0.35750994182E-01  0.10000000475E-02 0.  1.
</event>
<event>
 4   0  0.4892667E-02  0.9118800E+02  0.7818609E-02  0.1379984E+01
      -11   -1    0    0    0    0  0.00000000000E+00  0.00000000000E+00  0.35740347158E-01  0.35744000000E-01  0.51099999109E-03 0. -1.
       11   -1    0    0    0    0 -0.00000000000E+00 -0.00000000000E+00 -0.35740347158E-01  0.35744000000E-01  0.51099999109E-03 0.  1.
       22    1    1    2    0    0  0.96878644164E-02  0.77119698434E-02 -0.33523191809E-01  0.35737005818E-01  0.00000000000E+00 0.  1.
  9000001    1    1    2    0    0 -0.96878644164E-02 -0.77119698434E-02  0.33523191809E-01  0.35750994182E-01  0.10000000475E-02 0. -1.
</event>
<event>
 4   0  0.4892667E-02  0.9118800E+02  0.7818609E-02  0.1379984E+01
      -11   -1    0    0    0    0  0.00000000000E+00  0.00000000000E+00  0.35740347158E-01  0.35744000000E-01  0.51099999109E-03 0.  1.
       11   -1    0    0    0    0 -0.00000000000E+00 -0.00000000000E+00 -0.35740347158E-01  0.35744000000E-01  0.51099999109E-03 0. -1.
       22    1    1    2    0    0  0.61158668183E-02 -0.89344440307E-02 -0.34057384923E-01  0.35737005818E-01  0.00000000000E+00 0. -1.
  9000001    1    1    2    0    0 -0.61158668183E-02  0.89344440307E-02  0.34057384923E-01  0.35750994182E-01  0.10000000475E-02 0.  1.
</event>
<event>
 4   0  0.4892667E-02  0.9118800E+02  0.7818609E-02  0.1379984E+01
      -11   -1    0    0    0    0  0.00000000000E+00  0.00000000000E+00  0.35740347158E-01  0.35744000000E-01  0.51099999109E-03 0. -1.
       11   -1    0    0    0    0 -0.00000000000E+00 -0.00000000000E+00 -0.35740347158E-01  0.35744000000E-01  0.51099999109E-03 0.  1.
       22    1    1    2    0    0 -0.12328034811E-01 -0.17858436932E-01  0.28394178504E-01  0.35737005818E-01  0.00000000000E+00 0. -1.
  9000001    1    1    2    0    0  0.12328034811E-01  0.17858436932E-01 -0.28394178504E-01  0.35750994182E-01  0.10000000475E-02 0.  1.
</event>
<event>
 4   0  0.4892667E-02  0.9118800E+02  0.7818609E-02  0.1379984E+01
      -11   -1    0    0    0    0  0.00000000000E+00  0.00000000000E+00  0.35740347158E-01  0.35744000000E-01  0.51099999109E-03 0.  1.
       11   -1    0    0    0    0 -0.00000000000E+00 -0.00000000000E+00 -0.35740347158E-01  0.35744000000E-01  0.51099999109E-03 0. -1.
       22    1    1    2    0    0  0.61595931996E-02  0.14412983743E-01  0.32116333790E-01  0.35737005818E-01  0.00000000000E+00 0.  1.
  9000001    1    1    2    0    0 -0.61595931996E-02 -0.14412983743E-01 -0.32116333790E-01  0.35750994182E-01  0.10000000475E-02 0. -1.
</event>
<event>
 4   0  0.4892667E-02  0.9118800E+02  0.7818609E-02  0.1379984E+01
      -11   -1    0    0    0    0  0.00000000000E+00  0.00000000000E+00  0.35740347158E-01  0.35744000000E-01  0.51099999109E-03 0.  1.
       11   -1    0    0    0    0 -0.00000000000E+00 -0.00000000000E+00 -0.35740347158E-01  0.35744000000E-01  0.51099999109E-03 0. -1.
       22    1    1    2    0    0 -0.30210218624E-01  0.18078751532E-01  0.61347386764E-02  0.35737005818E-01  0.00000000000E+00 0.  1.
  9000001    1    1    2    0    0  0.30210218624E-01 -0.18078751532E-01 -0.61347386764E-02  0.35750994182E-01  0.10000000475E-02 0. -1.
</event>
<event>
 4   0  0.4892667E-02  0.9118800E+02  0.7818609E-02  0.1379984E+01
      -11   -1    0    0    0    0  0.00000000000E+00  0.00000000000E+00  0.35740347158E-01  0.35744000000E-01  0.51099999109E-03 0. -1.
       11   -1    0    0    0    0 -0.00000000000E+00 -0.00000000000E+00 -0.35740347158E-01  0.35744000000E-01  0.51099999109E-03 0.  1.
       22    1    1    2    0    0  0.64205769846E-03  0.31809314228E-02 -0.35589366699E-01  0.35737005818E-01  0.00000000000E+00 0.  1.
  9000001    1    1    2    0    0 -0.64205769846E-03 -0.31809314228E-02  0.35589366699E-01  0.35750994182E-01  0.10000000475E-02 0. -1.
</event>
<event>
 4   0  0.4892667E-02  0.9118800E+02  0.7818609E-02  0.1379984E+01
      -11   -1    0    0    0    0  0.00000000000E+00  0.00000000000E+00  0.35740347158E-01  0.35744000000E-01  0.51099999109E-03 0. -1.
       11   -1    0    0    0    0 -0.00000000000E+00 -0.00000000000E+00 -0.35740347158E-01  0.35744000000E-01  0.51099999109E-03 0.  1.
       22    1    1    2    0    0 -0.31228937104E-02 -0.34938580033E-02 -0.35428435980E-01  0.35737005818E-01  0.00000000000E+00 0.  1.
  9000001    1    1    2    0    0  0.31228937104E-02  0.34938580033E-02  0.35428435980E-01  0.35750994182E-01  0.10000000475E-02 0. -1.
</event>
<event>
 4   0  0.4892667E-02  0.9118800E+02  0.7818609E-02  0.1379984E+01
      -11   -1    0    0    0    0  0.00000000000E+00  0.00000000000E+00  0.35740347158E-01  0.35744000000E-01  0.51099999109E-03 0.  1.
       11   -1    0    0    0    0 -0.00000000000E+00 -0.00000000000E+00 -0.35740347158E-01  0.35744000000E-01  0.51099999109E-03 0. -1.
       22    1    1    2    0    0  0.38312014459E-03 -0.49182358408E-02  0.35394883247E-01  0.35737005818E-01  0.00000000000E+00 0.  1.
  9000001    1    1    2    0    0 -0.38312014459E-03  0.49182358408E-02 -0.35394883247E-01  0.35750994182E-01  0.10000000475E-02 0. -1.
</event>
<event>
 4   0  0.4892667E-02  0.9118800E+02  0.7818609E-02  0.1379984E+01
      -11   -1    0    0    0    0  0.00000000000E+00  0.00000000000E+00  0.35740347158E-01  0.35744000000E-01  0.51099999109E-03 0. -1.
       11   -1    0    0    0    0 -0.00000000000E+00 -0.00000000000E+00 -0.35740347158E-01  0.35744000000E-01  0.51099999109E-03 0.  1.
       22    1    1    2    0    0  0.12404544422E-01  0.33283047893E-01 -0.39369512951E-02  0.35737005818E-01  0.00000000000E+00 0. -1.
  9000001    1    1    2    0    0 -0.12404544422E-01 -0.33283047893E-01  0.39369512951E-02  0.35750994182E-01  0.10000000475E-02 0.  1.
</event>
<event>
 4   0  0.4892667E-02  0.9118800E+02  0.7818609E-02  0.1379984E+01
      -11   -1    0    0    0    0  0.00000000000E+00  0.00000000000E+00  0.35740347158E-01  0.35744000000E-01  0.51099999109E-03 0.  1.
       11   -1    0    0    0    0 -0.00000000000E+00 -0.00000000000E+00 -0.35740347158E-01  0.35744000000E-01  0.51099999109E-03 0. -1.
       22    1    1    2    0    0  0.27126271097E-02 -0.46360619543E-02  0.35331036902E-01  0.35737005818E-01  0.00000000000E+00 0.  1.
  9000001    1    1    2    0    0 -0.27126271097E-02  0.46360619543E-02 -0.35331036902E-01  0.35750994182E-01  0.10000000475E-02 0. -1.
</event>
<event>
 4   0  0.4892667E-02  0.9118800E+02  0.7818609E-02  0.1379984E+01
      -11   -1    0    0    0    0  0.00000000000E+00  0.00000000000E+00  0.35740347158E-01  0.35744000000E-01  0.51099999109E-03 0.  1.
       11   -1    0    0    0    0 -0.00000000000E+00 -0.00000000000E+00 -0.35740347158E-01  0.35744000000E-01  0.51099999109E-03 0. -1.
       22    1    1    2    0    0 -0.12646972508E-02 -0.63435982998E-02 -0.35146733651E-01  0.35737005818E-01  0.00000000000E+00 0. -1.
  9000001    1    1    2    0    0  0.12646972508E-02  0.63435982998E-02  0.35146733651E-01  0.35750994182E-01  0.10000000475E-02 0.  1.
</event>
<event>
 4   0  0.4892667E-02  0.9118800E+02  0.7818609E-02  0.1379984E+01
      -11   -1    0    0    0    0  0.00000000000E+00  0.00000000000E+00  0.35740347158E-01  0.35744000000E-01  0.51099999109E-03 0. -1.
       11   -1    0    0    0    0 -0.00000000000E+00 -0.00000000000E+00 -0.35740347158E-01  0.35744000000E-01  0.51099999109E-03 0.  1.
       22    1    1    2    0    0 -0.19409117065E-01 -0.18748016473E-01 -0.23429290171E-01  0.35737005818E-01  0.00000000000E+00 0.  1.
  9000001    1    1    2    0    0  0.19409117065E-01  0.18748016473E-01  0.23429290171E-01  0.35750994182E-01  0.10000000475E-02 0. -1.
</event>
<event>
 4   0  0.4892667E-02  0.9118800E+02  0.7818609E-02  0.1379984E+01
      -11   -1    0    0    0    0  0.00000000000E+00  0.00000000000E+00  0.35740347158E-01  0.35744000000E-01  0.51099999109E-03 0. -1.
       11   -1    0    0    0    0 -0.00000000000E+00 -0.00000000000E+00 -0.35740347158E-01  0.35744000000E-01  0.51099999109E-03 0.  1.
       22    1    1    2    0    0  0.51077731778E-02  0.66704111754E-02  0.34735426481E-01  0.35737005818E-01  0.00000000000E+00 0. -1.
  9000001    1    1    2    0    0 -0.51077731778E-02 -0.66704111754E-02 -0.34735426481E-01  0.35750994182E-01  0.10000000475E-02 0.  1.
</event>
<event>
 4   0  0.4892667E-02  0.9118800E+02  0.7818609E-02  0.1379984E+01
      -11   -1    0    0    0    0  0.00000000000E+00  0.00000000000E+00  0.35740347158E-01  0.35744000000E-01  0.51099999109E-03 0.  1.
       11   -1    0    0    0    0 -0.00000000000E+00 -0.00000000000E+00 -0.35740347158E-01  0.35744000000E-01  0.51099999109E-03 0. -1.
       22    1    1    2    0    0  0.15166532594E-01  0.11803312903E-01  0.30129581452E-01  0.35737005818E-01  0.00000000000E+00 0.  1.
  9000001    1    1    2    0    0 -0.15166532594E-01 -0.11803312903E-01 -0.30129581452E-01  0.35750994182E-01  0.10000000475E-02 0. -1.
</event>
<event>
 4   0  0.4892667E-02  0.9118800E+02  0.7818609E-02  0.1379984E+01
      -11   -1    0    0    0    0  0.00000000000E+00  0.00000000000E+00  0.35740347158E-01  0.35744000000E-01  0.51099999109E-03 0.  1.
       11   -1    0    0    0    0 -0.00000000000E+00 -0.00000000000E+00 -0.35740347158E-01  0.35744000000E-01  0.51099999109E-03 0. -1.
       22    1    1    2    0    0  0.62182641286E-02  0.40432054032E-02 -0.34958822437E-01  0.35737005818E-01  0.00000000000E+00 0. -1.
  9000001    1    1    2    0    0 -0.62182641286E-02 -0.40432054032E-02  0.34958822437E-01  0.35750994182E-01  0.10000000475E-02 0.  1.
</event>
<event>
 4   0  0.4892667E-02  0.9118800E+02  0.7818609E-02  0.1379984E+01
      -11   -1    0    0    0    0  0.00000000000E+00  0.00000000000E+00  0.35740347158E-01  0.35744000000E-01  0.51099999109E-03 0. -1.
       11   -1    0    0    0    0 -0.00000000000E+00 -0.00000000000E+00 -0.35740347158E-01  0.35744000000E-01  0.51099999109E-03 0.  1.
       22    1    1    2    0    0 -0.25312665455E-01 -0.18927663861E-01 -0.16677712469E-01  0.35737005818E-01  0.00000000000E+00 0.  1.
  9000001    1    1    2    0    0  0.25312665455E-01  0.18927663861E-01  0.16677712469E-01  0.35750994182E-01  0.10000000475E-02 0. -1.
</event>
<event>
 4   0  0.4892667E-02  0.9118800E+02  0.7818609E-02  0.1379984E+01
      -11   -1    0    0    0    0  0.00000000000E+00  0.00000000000E+00  0.35740347158E-01  0.35744000000E-01  0.51099999109E-03 0.  1.
       11   -1    0    0    0    0 -0.00000000000E+00 -0.00000000000E+00 -0.35740347158E-01  0.35744000000E-01  0.51099999109E-03 0. -1.
       22    1    1    2    0    0  0.70088648017E-02 -0.42039877176E-02  0.34789881953E-01  0.35737005818E-01  0.00000000000E+00 0.  1.
  9000001    1    1    2    0    0 -0.70088648017E-02  0.42039877176E-02 -0.34789881953E-01  0.35750994182E-01  0.10000000475E-02 0. -1.
</event>
<event>
 4   0  0.4892667E-02  0.9118800E+02  0.7818609E-02  0.1379984E+01
      -11   -1    0    0    0    0  0.00000000000E+00  0.00000000000E+00  0.35740347158E-01  0.35744000000E-01  0.51099999109E-03 0. -1.
       11   -1    0    0    0    0 -0.00000000000E+00 -0.00000000000E+00 -0.35740347158E-01  0.35744000000E-01  0.51099999109E-03 0.  1.
       22    1    1    2    0    0  0.42329460174E-02  0.16267371056E-02  0.35448123776E-01  0.35737005818E-01  0.00000000000E+00 0. -1.
  9000001    1    1    2    0    0 -0.42329460174E-02 -0.16267371056E-02 -0.35448123776E-01  0.35750994182E-01  0.10000000475E-02 0.  1.
</event>
<event>
 4   0  0.4892667E-02  0.9118800E+02  0.7818609E-02  0.1379984E+01
      -11   -1    0    0    0    0  0.00000000000E+00  0.00000000000E+00  0.35740347158E-01  0.35744000000E-01  0.51099999109E-03 0.  1.
       11   -1    0    0    0    0 -0.00000000000E+00 -0.00000000000E+00 -0.35740347158E-01  0.35744000000E-01  0.51099999109E-03 0. -1.
       22    1    1    2    0    0 -0.11545386547E-02 -0.61688636756E-02 -0.35181610911E-01  0.35737005818E-01  0.00000000000E+00 0. -1.
  9000001    1    1    2    0    0  0.11545386547E-02  0.61688636756E-02  0.35181610911E-01  0.35750994182E-01  0.10000000475E-02 0.  1.
</event>
<event>
 4   0  0.4892667E-02  0.9118800E+02  0.7818609E-02  0.1379984E+01
      -11   -1    0    0    0    0  0.00000000000E+00  0.00000000000E+00  0.35740347158E-01  0.35744000000E-01  0.51099999109E-03 0. -1.
       11   -1    0    0    0    0 -0.00000000000E+00 -0.00000000000E+00 -0.35740347158E-01  0.35744000000E-01  0.51099999109E-03 0. -1.
       22    1    1    2    0    0 -0.20549216929E-02 -0.84079773693E-02  0.34672998115E-01  0.35737005818E-01  0.00000000000E+00 0. -1.
  9000001    1    1    2    0    0  0.20549216929E-02  0.84079773693E-02 -0.34672998115E-01  0.35750994182E-01  0.10000000475E-02 0. -1.
</event>
<event>
 4   0  0.4892667E-02  0.9118800E+02  0.7818609E-02  0.1379984E+01
      -11   -1    0    0    0    0  0.00000000000E+00  0.00000000000E+00  0.35740347158E-01  0.35744000000E-01  0.51099999109E-03 0.  1.
       11   -1    0    0    0    0 -0.00000000000E+00 -0.00000000000E+00 -0.35740347158E-01  0.35744000000E-01  0.51099999109E-03 0. -1.
       22    1    1    2    0    0 -0.25644224556E-01 -0.24883781979E-01 -0.55202012232E-03  0.35737005818E-01  0.00000000000E+00 0. -1.
  9000001    1    1    2    0    0  0.25644224556E-01  0.24883781979E-01  0.55202012232E-03  0.35750994182E-01  0.10000000475E-02 0.  1.
</event>
<event>
 4   0  0.4892667E-02  0.9118800E+02  0.7818609E-02  0.1379984E+01
      -11   -1    0    0    0    0  0.00000000000E+00  0.00000000000E+00  0.35740347158E-01  0.35744000000E-01  0.51099999109E-03 0. -1.
       11   -1    0    0    0    0 -0.00000000000E+00 -0.00000000000E+00 -0.35740347158E-01  0.35744000000E-01  0.51099999109E-03 0.  1.
       22    1    1    2    0    0 -0.78722871373E-02 -0.93751460065E-02 -0.33574801823E-01  0.35737005818E-01  0.00000000000E+00 0.  1.
  9000001    1    1    2    0    0  0.78722871373E-02  0.93751460065E-02  0.33574801823E-01  0.35750994182E-01  0.10000000475E-02 0. -1.
</event>
<event>
 4   0  0.4892667E-02  0.9118800E+02  0.7818609E-02  0.1379984E+01
      -11   -1    0    0    0    0  0.00000000000E+00  0.00000000000E+00  0.35740347158E-01  0.35744000000E-01  0.51099999109E-03 0. -1.
       11   -1    0    0    0    0 -0.00000000000E+00 -0.00000000000E+00 -0.35740347158E-01  0.35744000000E-01  0.51099999109E-03 0.  1.
       22    1    1    2    0    0 -0.31699141198E-02  0.40917574895E-02 -0.35360185944E-01  0.35737005818E-01  0.00000000000E+00 0.  1.
  9000001    1    1    2    0    0  0.31699141198E-02 -0.40917574895E-02  0.35360185944E-01  0.35750994182E-01  0.10000000475E-02 0. -1.
</event>
<event>
 4   0  0.4892667E-02  0.9118800E+02  0.7818609E-02  0.1379984E+01
      -11   -1    0    0    0    0  0.00000000000E+00  0.00000000000E+00  0.35740347158E-01  0.35744000000E-01  0.51099999109E-03 0.  1.
       11   -1    0    0    0    0 -0.00000000000E+00 -0.00000000000E+00 -0.35740347158E-01  0.35744000000E-01  0.51099999109E-03 0. -1.
       22    1    1    2    0    0  0.11010780545E-02 -0.33366311930E-02  0.35563859524E-01  0.35737005818E-01  0.00000000000E+00 0.  1.
  9000001    1    1    2    0    0 -0.11010780545E-02  0.33366311930E-02 -0.35563859524E-01  0.35750994182E-01  0.10000000475E-02 0. -1.
</event>
<event>
 4   0  0.4892667E-02  0.9118800E+02  0.7818609E-02  0.1379984E+01
      -11   -1    0    0    0    0  0.00000000000E+00  0.00000000000E+00  0.35740347158E-01  0.35744000000E-01  0.51099999109E-03 0. -1.
       11   -1    0    0    0    0 -0.00000000000E+00 -0.00000000000E+00 -0.35740347158E-01  0.35744000000E-01  0.51099999109E-03 0.  1.
       22    1    1    2    0    0  0.29557825458E-01  0.20034081943E-01  0.14505515381E-02  0.35737005818E-01  0.00000000000E+00 0.  1.
  9000001    1    1    2    0    0 -0.29557825458E-01 -0.20034081943E-01 -0.14505515381E-02  0.35750994182E-01  0.10000000475E-02 0. -1.
</event>
<event>
 4   0  0.4892667E-02  0.9118800E+02  0.7818609E-02  0.1379984E+01
      -11   -1    0    0    0    0  0.00000000000E+00  0.00000000000E+00  0.35740347158E-01  0.35744000000E-01  0.51099999109E-03 0.  1.
       11   -1    0    0    0    0 -0.00000000000E+00 -0.00000000000E+00 -0.35740347158E-01  0.35744000000E-01  0.51099999109E-03 0. -1.
       22    1    1    2    0    0 -0.32891419905E-02  0.35546766011E-02  0.35407335456E-01  0.35737005818E-01  0.00000000000E+00 0.  1.
  9000001    1    1    2    0    0  0.32891419905E-02 -0.35546766011E-02 -0.35407335456E-01  0.35750994182E-01  0.10000000475E-02 0. -1.
</event>
<event>
 4   0  0.4892667E-02  0.9118800E+02  0.7818609E-02  0.1379984E+01
      -11   -1    0    0    0    0  0.00000000000E+00  0.00000000000E+00  0.35740347158E-01  0.35744000000E-01  0.51099999109E-03 0.  1.
       11   -1    0    0    0    0 -0.00000000000E+00 -0.00000000000E+00 -0.35740347158E-01  0.35744000000E-01  0.51099999109E-03 0. -1.
       22    1    1    2    0    0  0.22979480192E-01 -0.16998240784E-01 -0.21450801506E-01  0.35737005818E-01  0.00000000000E+00 0. -1.
  9000001    1    1    2    0    0 -0.22979480192E-01  0.16998240784E-01  0.21450801506E-01  0.35750994182E-01  0.10000000475E-02 0.  1.
</event>
<event>
 4   0  0.4892667E-02  0.9118800E+02  0.7818609E-02  0.1379984E+01
      -11   -1    0    0    0    0  0.00000000000E+00  0.00000000000E+00  0.35740347158E-01  0.35744000000E-01  0.51099999109E-03 0.  1.
       11   -1    0    0    0    0 -0.00000000000E+00 -0.00000000000E+00 -0.35740347158E-01  0.35744000000E-01  0.51099999109E-03 0. -1.
       22    1    1    2    0    0  0.19026969141E-02 -0.25598884487E-02  0.35594385800E-01  0.35737005818E-01  0.00000000000E+00 0.  1.
  9000001    1    1    2    0    0 -0.19026969141E-02  0.25598884487E-02 -0.35594385800E-01  0.35750994182E-01  0.10000000475E-02 0. -1.
</event>
<event>
 4   0  0.4892667E-02  0.9118800E+02  0.7818609E-02  0.1379984E+01
      -11   -1    0    0    0    0  0.00000000000E+00  0.00000000000E+00  0.35740347158E-01  0.35744000000E-01  0.51099999109E-03 0.  1.
       11   -1    0    0    0    0 -0.00000000000E+00 -0.00000000000E+00 -0.35740347158E-01  0.35744000000E-01  0.51099999109E-03 0. -1.
       22    1    1    2    0    0 -0.13640503090E-02 -0.51129892816E-02  0.35343037394E-01  0.35737005818E-01  0.00000000000E+00 0.  1.
  9000001    1    1    2    0    0  0.13640503090E-02  0.51129892816E-02 -0.35343037394E-01  0.35750994182E-01  0.10000000475E-02 0. -1.
</event>
<event>
 4   0  0.4892667E-02  0.9118800E+02  0.7818609E-02  0.1379984E+01
      -11   -1    0    0    0    0  0.00000000000E+00  0.00000000000E+00  0.35740347158E-01  0.35744000000E-01  0.51099999109E-03 0. -1.
       11   -1    0    0    0    0 -0.00000000000E+00 -0.00000000000E+00 -0.35740347158E-01  0.35744000000E-01  0.51099999109E-03 0.  1.
       22    1    1    2    0    0 -0.30966205217E-02  0.29423397219E-02  0.35480799923E-01  0.35737005818E-01  0.00000000000E+00 0. -1.
  9000001    1    1    2    0    0  0.30966205217E-02 -0.29423397219E-02 -0.35480799923E-01  0.35750994182E-01  0.10000000475E-02 0.  1.
</event>
<event>
 4   0  0.4892667E-02  0.9118800E+02  0.7818609E-02  0.1379984E+01
      -11   -1    0    0    0    0  0.00000000000E+00  0.00000000000E+00  0.35740347158E-01  0.35744000000E-01  0.51099999109E-03 0.  1.
       11   -1    0    0    0    0 -0.00000000000E+00 -0.00000000000E+00 -0.35740347158E-01  0.35744000000E-01  0.51099999109E-03 0. -1.
       22    1    1    2    0    0  0.39745830950E-02 -0.12895044726E-01 -0.33091601587E-01  0.35737005818E-01  0.00000000000E+00 0. -1.
  9000001    1    1    2    0    0 -0.39745830950E-02  0.12895044726E-01  0.33091601587E-01  0.35750994182E-01  0.10000000475E-02 0.  1.
</event>
<event>
 4   0  0.4892667E-02  0.9118800E+02  0.7818609E-02  0.1379984E+01
      -11   -1    0    0    0    0  0.00000000000E+00  0.00000000000E+00  0.35740347158E-01  0.35744000000E-01  0.51099999109E-03 0.  1.
       11   -1    0    0    0    0 -0.00000000000E+00 -0.00000000000E+00 -0.35740347158E-01  0.35744000000E-01  0.51099999109E-03 0. -1.
       22    1    1    2    0    0  0.45684166641E-02 -0.66240929129E-02  0.34819312847E-01  0.35737005818E-01  0.00000000000E+00 0.  1.
  9000001    1    1    2    0    0 -0.45684166641E-02  0.66240929129E-02 -0.34819312847E-01  0.35750994182E-01  0.10000000475E-02 0. -1.
</event>
<event>
 4   0  0.4892667E-02  0.9118800E+02  0.7818609E-02  0.1379984E+01
      -11   -1    0    0    0    0  0.00000000000E+00  0.00000000000E+00  0.35740347158E-01  0.35744000000E-01  0.51099999109E-03 0. -1.
       11   -1    0    0    0    0 -0.00000000000E+00 -0.00000000000E+00 -0.35740347158E-01  0.35744000000E-01  0.51099999109E-03 0.  1.
       22    1    1    2    0    0 -0.13051911034E-02 -0.11672501794E-01 -0.33751781626E-01  0.35737005818E-01  0.00000000000E+00 0.  1.
  9000001    1    1    2    0    0  0.13051911034E-02  0.11672501794E-01  0.33751781626E-01  0.35750994182E-01  0.10000000475E-02 0. -1.
</event>
<event>
 4   0  0.4892667E-02  0.9118800E+02  0.7818609E-02  0.1379984E+01
      -11   -1    0    0    0    0  0.00000000000E+00  0.00000000000E+00  0.35740347158E-01  0.35744000000E-01  0.51099999109E-03 0. -1.
       11   -1    0    0    0    0 -0.00000000000E+00 -0.00000000000E+00 -0.35740347158E-01  0.35744000000E-01  0.51099999109E-03 0.  1.
       22    1    1    2    0    0  0.50229462406E-02  0.13752522844E-02  0.35355512683E-01  0.35737005818E-01  0.00000000000E+00 0. -1.
  9000001    1    1    2    0    0 -0.50229462406E-02 -0.13752522844E-02 -0.35355512683E-01  0.35750994182E-01  0.10000000475E-02 0.  1.
</event>
<event>
 4   0  0.4892667E-02  0.9118800E+02  0.7818609E-02  0.1379984E+01
      -11   -1    0    0    0    0  0.00000000000E+00  0.00000000000E+00  0.35740347158E-01  0.35744000000E-01  0.51099999109E-03 0. -1.
       11   -1    0    0    0    0 -0.00000000000E+00 -0.00000000000E+00 -0.35740347158E-01  0.35744000000E-01  0.51099999109E-03 0.  1.
       22    1    1    2    0    0 -0.12903200433E-02  0.80052591417E-02  0.34804949147E-01  0.35737005818E-01  0.00000000000E+00 0. -1.
  9000001    1    1    2    0    0  0.12903200433E-02 -0.80052591417E-02 -0.34804949147E-01  0.35750994182E-01  0.10000000475E-02 0.  1.
</event>
<event>
 4   0  0.4892667E-02  0.9118800E+02  0.7818609E-02  0.1379984E+01
      -11   -1    0    0    0    0  0.00000000000E+00  0.00000000000E+00  0.35740347158E-01  0.35744000000E-01  0.51099999109E-03 0. -1.
       11   -1    0    0    0    0 -0.00000000000E+00 -0.00000000000E+00 -0.35740347158E-01  0.35744000000E-01  0.51099999109E-03 0.  1.
       22    1    1    2    0    0  0.11607202932E-01 -0.41065552194E-02 -0.33549107726E-01  0.35737005818E-01  0.00000000000E+00 0.  1.
  9000001    1    1    2    0    0 -0.11607202932E-01  0.41065552194E-02  0.33549107726E-01  0.35750994182E-01  0.10000000475E-02 0. -1.
</event>
<event>
 4   0  0.4892667E-02  0.9118800E+02  0.7818609E-02  0.1379984E+01
      -11   -1    0    0    0    0  0.00000000000E+00  0.00000000000E+00  0.35740347158E-01  0.35744000000E-01  0.51099999109E-03 0.  1.
       11   -1    0    0    0    0 -0.00000000000E+00 -0.00000000000E+00 -0.35740347158E-01  0.35744000000E-01  0.51099999109E-03 0. -1.
       22    1    1    2    0    0 -0.14137083825E-02 -0.36020242516E-02 -0.35526897342E-01  0.35737005818E-01  0.00000000000E+00 0. -1.
  9000001    1    1    2    0    0  0.14137083825E-02  0.36020242516E-02  0.35526897342E-01  0.35750994182E-01  0.10000000475E-02 0.  1.
</event>
<event>
 4   0  0.4892667E-02  0.9118800E+02  0.7818609E-02  0.1379984E+01
      -11   -1    0    0    0    0  0.00000000000E+00  0.00000000000E+00  0.35740347158E-01  0.35744000000E-01  0.51099999109E-03 0. -1.
       11   -1    0    0    0    0 -0.00000000000E+00 -0.00000000000E+00 -0.35740347158E-01  0.35744000000E-01  0.51099999109E-03 0.  1.
       22    1    1    2    0    0  0.33496976175E-02  0.66756077558E-03  0.35573409639E-01  0.35737005818E-01  0.00000000000E+00 0. -1.
  9000001    1    1    2    0    0 -0.33496976175E-02 -0.66756077558E-03 -0.35573409639E-01  0.35750994182E-01  0.10000000475E-02 0.  1.
</event>
<event>
 4   0  0.4892667E-02  0.9118800E+02  0.7818609E-02  0.1379984E+01
      -11   -1    0    0    0    0  0.00000000000E+00  0.00000000000E+00  0.35740347158E-01  0.35744000000E-01  0.51099999109E-03 0.  1.
       11   -1    0    0    0    0 -0.00000000000E+00 -0.00000000000E+00 -0.35740347158E-01  0.35744000000E-01  0.51099999109E-03 0. -1.
       22    1    1    2    0    0 -0.28911701240E-02  0.20055587854E-01  0.29437189336E-01  0.35737005818E-01  0.00000000000E+00 0.  1.
  9000001    1    1    2    0    0  0.28911701240E-02 -0.20055587854E-01 -0.29437189336E-01  0.35750994182E-01  0.10000000475E-02 0. -1.
</event>
<event>
 4   0  0.4892667E-02  0.9118800E+02  0.7818609E-02  0.1379984E+01
      -11   -1    0    0    0    0  0.00000000000E+00  0.00000000000E+00  0.35740347158E-01  0.35744000000E-01  0.51099999109E-03 0. -1.
       11   -1    0    0    0    0 -0.00000000000E+00 -0.00000000000E+00 -0.35740347158E-01  0.35744000000E-01  0.51099999109E-03 0.  1.
       22    1    1    2    0    0 -0.43200553027E-02 -0.11938331434E-02  0.35454837039E-01  0.35737005818E-01  0.00000000000E+00 0. -1.
  9000001    1    1    2    0    0  0.43200553027E-02  0.11938331434E-02 -0.35454837039E-01  0.35750994182E-01  0.10000000475E-02 0.  1.
</event>
<event>
 4   0  0.4892667E-02  0.9118800E+02  0.7818609E-02  0.1379984E+01
      -11   -1    0    0    0    0  0.00000000000E+00  0.00000000000E+00  0.35740347158E-01  0.35744000000E-01  0.51099999109E-03 0. -1.
       11   -1    0    0    0    0 -0.00000000000E+00 -0.00000000000E+00 -0.35740347158E-01  0.35744000000E-01  0.51099999109E-03 0.  1.
       22    1    1    2    0    0  0.14698380635E-01 -0.44149798253E-03  0.32571402658E-01  0.35737005818E-01  0.00000000000E+00 0. -1.
  9000001    1    1    2    0    0 -0.14698380635E-01  0.44149798253E-03 -0.32571402658E-01  0.35750994182E-01  0.10000000475E-02 0.  1.
</event>
<event>
 4   0  0.4892667E-02  0.9118800E+02  0.7818609E-02  0.1379984E+01
      -11   -1    0    0    0    0  0.00000000000E+00  0.00000000000E+00  0.35740347158E-01  0.35744000000E-01  0.51099999109E-03 0.  1.
       11   -1    0    0    0    0 -0.00000000000E+00 -0.00000000000E+00 -0.35740347158E-01  0.35744000000E-01  0.51099999109E-03 0. -1.
       22    1    1    2    0    0  0.63058730828E-02  0.83587876574E-02  0.34168702323E-01  0.35737005818E-01  0.00000000000E+00 0.  1.
  9000001    1    1    2    0    0 -0.63058730828E-02 -0.83587876574E-02 -0.34168702323E-01  0.35750994182E-01  0.10000000475E-02 0. -1.
</event>
<event>
 4   0  0.4892667E-02  0.9118800E+02  0.7818609E-02  0.1379984E+01
      -11   -1    0    0    0    0  0.00000000000E+00  0.00000000000E+00  0.35740347158E-01  0.35744000000E-01  0.51099999109E-03 0.  1.
       11   -1    0    0    0    0 -0.00000000000E+00 -0.00000000000E+00 -0.35740347158E-01  0.35744000000E-01  0.51099999109E-03 0. -1.
       22    1    1    2    0    0 -0.13115078059E-01  0.25783703233E-01  0.20984016774E-01  0.35737005818E-01  0.00000000000E+00 0.  1.
  9000001    1    1    2    0    0  0.13115078059E-01 -0.25783703233E-01 -0.20984016774E-01  0.35750994182E-01  0.10000000475E-02 0. -1.
</event>
<event>
 4   0  0.4892667E-02  0.9118800E+02  0.7818609E-02  0.1379984E+01
      -11   -1    0    0    0    0  0.00000000000E+00  0.00000000000E+00  0.35740347158E-01  0.35744000000E-01  0.51099999109E-03 0.  1.
       11   -1    0    0    0    0 -0.00000000000E+00 -0.00000000000E+00 -0.35740347158E-01  0.35744000000E-01  0.51099999109E-03 0. -1.
       22    1    1    2    0    0  0.22215912214E-01  0.27992437610E-01 -0.10132133928E-03  0.35737005818E-01  0.00000000000E+00 0.  1.
  9000001    1    1    2    0    0 -0.22215912214E-01 -0.27992437610E-01  0.10132133928E-03  0.35750994182E-01  0.10000000475E-02 0. -1.
</event>
<event>
 4   0  0.4892667E-02  0.9118800E+02  0.7818609E-02  0.1379984E+01
      -11   -1    0    0    0    0  0.00000000000E+00  0.00000000000E+00  0.35740347158E-01  0.35744000000E-01  0.51099999109E-03 0.  1.
       11   -1    0    0    0    0 -0.00000000000E+00 -0.00000000000E+00 -0.35740347158E-01  0.35744000000E-01  0.51099999109E-03 0. -1.
       22    1    1    2    0    0  0.18892027613E-01  0.23442692230E-01 -0.19252663674E-01  0.35737005818E-01  0.00000000000E+00 0.  1.
  9000001    1    1    2    0    0 -0.18892027613E-01 -0.23442692230E-01  0.19252663674E-01  0.35750994182E-01  0.10000000475E-02 0. -1.
</event>
<event>
 4   0  0.4892667E-02  0.9118800E+02  0.7818609E-02  0.1379984E+01
      -11   -1    0    0    0    0  0.00000000000E+00  0.00000000000E+00  0.35740347158E-01  0.35744000000E-01  0.51099999109E-03 0. -1.
       11   -1    0    0    0    0 -0.00000000000E+00 -0.00000000000E+00 -0.35740347158E-01  0.35744000000E-01  0.51099999109E-03 0.  1.
       22    1    1    2    0    0  0.44216450917E-03  0.43514639827E-02  0.35468335690E-01  0.35737005818E-01  0.00000000000E+00 0. -1.
  9000001    1    1    2    0    0 -0.44216450917E-03 -0.43514639827E-02 -0.35468335690E-01  0.35750994182E-01  0.10000000475E-02 0.  1.
</event>
<event>
 4   0  0.4892667E-02  0.9118800E+02  0.7818609E-02  0.1379984E+01
      -11   -1    0    0    0    0  0.00000000000E+00  0.00000000000E+00  0.35740347158E-01  0.35744000000E-01  0.51099999109E-03 0.  1.
       11   -1    0    0    0    0 -0.00000000000E+00 -0.00000000000E+00 -0.35740347158E-01  0.35744000000E-01  0.51099999109E-03 0. -1.
       22    1    1    2    0    0 -0.33894964549E-01  0.82199717051E-02 -0.77908297554E-02  0.35737005818E-01  0.00000000000E+00 0.  1.
  9000001    1    1    2    0    0  0.33894964549E-01 -0.82199717051E-02  0.77908297554E-02  0.35750994182E-01  0.10000000475E-02 0. -1.
</event>
<event>
 4   0  0.4892667E-02  0.9118800E+02  0.7818609E-02  0.1379984E+01
      -11   -1    0    0    0    0  0.00000000000E+00  0.00000000000E+00  0.35740347158E-01  0.35744000000E-01  0.51099999109E-03 0. -1.
       11   -1    0    0    0    0 -0.00000000000E+00 -0.00000000000E+00 -0.35740347158E-01  0.35744000000E-01  0.51099999109E-03 0.  1.
       22    1    1    2    0    0 -0.18841498180E-01  0.10187204333E-01  0.28606859301E-01  0.35737005818E-01  0.00000000000E+00 0. -1.
  9000001    1    1    2    0    0  0.18841498180E-01 -0.10187204333E-01 -0.28606859301E-01  0.35750994182E-01  0.10000000475E-02 0.  1.
</event>
<event>
 4   0  0.4892667E-02  0.9118800E+02  0.7818609E-02  0.1379984E+01
      -11   -1    0    0    0    0  0.00000000000E+00  0.00000000000E+00  0.35740347158E-01  0.35744000000E-01  0.51099999109E-03 0.  1.
       11   -1    0    0    0    0 -0.00000000000E+00 -0.00000000000E+00 -0.35740347158E-01  0.35744000000E-01  0.51099999109E-03 0. -1.
       22    1    1    2    0    0  0.83314104981E-03 -0.46012614356E-02  0.35429759441E-01  0.35737005818E-01  0.00000000000E+00 0.  1.
  9000001    1    1    2    0    0 -0.83314104981E-03  0.46012614356E-02 -0.35429759441E-01  0.35750994182E-01  0.10000000475E-02 0. -1.
</event>
<event>
 4   0  0.4892667E-02  0.9118800E+02  0.7818609E-02  0.1379984E+01
      -11   -1    0    0    0    0  0.00000000000E+00  0.00000000000E+00  0.35740347158E-01  0.35744000000E-01  0.51099999109E-03 0.  1.
       11   -1    0    0    0    0 -0.00000000000E+00 -0.00000000000E+00 -0.35740347158E-01  0.35744000000E-01  0.51099999109E-03 0. -1.
       22    1    1    2    0    0  0.75975524497E-02 -0.10843449680E-01  0.33193830461E-01  0.35737005818E-01  0.00000000000E+00 0.  1.
  9000001    1    1    2    0    0 -0.75975524497E-02  0.10843449680E-01 -0.33193830461E-01  0.35750994182E-01  0.10000000475E-02 0. -1.
</event>
<event>
 4   0  0.4892667E-02  0.9118800E+02  0.7818609E-02  0.1379984E+01
      -11   -1    0    0    0    0  0.00000000000E+00  0.00000000000E+00  0.35740347158E-01  0.35744000000E-01  0.51099999109E-03 0.  1.
       11   -1    0    0    0    0 -0.00000000000E+00 -0.00000000000E+00 -0.35740347158E-01  0.35744000000E-01  0.51099999109E-03 0. -1.
       22    1    1    2    0    0  0.22419107714E-01 -0.24713747511E-01  0.12796400984E-01  0.35737005818E-01  0.00000000000E+00 0.  1.
  9000001    1    1    2    0    0 -0.22419107714E-01  0.24713747511E-01 -0.12796400984E-01  0.35750994182E-01  0.10000000475E-02 0. -1.
</event>
<event>
 4   0  0.4892667E-02  0.9118800E+02  0.7818609E-02  0.1379984E+01
      -11   -1    0    0    0    0  0.00000000000E+00  0.00000000000E+00  0.35740347158E-01  0.35744000000E-01  0.51099999109E-03 0. -1.
       11   -1    0    0    0    0 -0.00000000000E+00 -0.00000000000E+00 -0.35740347158E-01  0.35744000000E-01  0.51099999109E-03 0.  1.
       22    1    1    2    0    0  0.10607501870E-01 -0.23312920819E-02  0.34046726218E-01  0.35737005818E-01  0.00000000000E+00 0. -1.
  9000001    1    1    2    0    0 -0.10607501870E-01  0.23312920819E-02 -0.34046726218E-01  0.35750994182E-01  0.10000000475E-02 0.  1.
</event>
<event>
 4   0  0.4892667E-02  0.9118800E+02  0.7818609E-02  0.1379984E+01
      -11   -1    0    0    0    0  0.00000000000E+00  0.00000000000E+00  0.35740347158E-01  0.35744000000E-01  0.51099999109E-03 0. -1.
       11   -1    0    0    0    0 -0.00000000000E+00 -0.00000000000E+00 -0.35740347158E-01  0.35744000000E-01  0.51099999109E-03 0.  1.
       22    1    1    2    0    0 -0.15080897603E-02  0.27807326159E-02 -0.35596724235E-01  0.35737005818E-01  0.00000000000E+00 0.  1.
  9000001    1    1    2    0    0  0.15080897603E-02 -0.27807326159E-02  0.35596724235E-01  0.35750994182E-01  0.10000000475E-02 0. -1.
</event>
<event>
 4   0  0.4892667E-02  0.9118800E+02  0.7818609E-02  0.1379984E+01
      -11   -1    0    0    0    0  0.00000000000E+00  0.00000000000E+00  0.35740347158E-01  0.35744000000E-01  0.51099999109E-03 0.  1.
       11   -1    0    0    0    0 -0.00000000000E+00 -0.00000000000E+00 -0.35740347158E-01  0.35744000000E-01  0.51099999109E-03 0. -1.
       22    1    1    2    0    0 -0.12372109564E-02  0.81110894124E-02 -0.34782367982E-01  0.35737005818E-01  0.00000000000E+00 0. -1.
  9000001    1    1    2    0    0  0.12372109564E-02 -0.81110894124E-02  0.34782367982E-01  0.35750994182E-01  0.10000000475E-02 0.  1.
</event>
<event>
 4   0  0.4892667E-02  0.9118800E+02  0.7818609E-02  0.1379984E+01
      -11   -1    0    0    0    0  0.00000000000E+00  0.00000000000E+00  0.35740347158E-01  0.35744000000E-01  0.51099999109E-03 0. -1.
       11   -1    0    0    0    0 -0.00000000000E+00 -0.00000000000E+00 -0.35740347158E-01  0.35744000000E-01  0.51099999109E-03 0.  1.
       22    1    1    2    0    0  0.11463319420E-01 -0.18295055227E-02  0.33799094696E-01  0.35737005818E-01  0.00000000000E+00 0. -1.
  9000001    1    1    2    0    0 -0.11463319420E-01  0.18295055227E-02 -0.33799094696E-01  0.35750994182E-01  0.10000000475E-02 0.  1.
</event>
<event>
 4   0  0.4892667E-02  0.9118800E+02  0.7818609E-02  0.1379984E+01
      -11   -1    0    0    0    0  0.00000000000E+00  0.00000000000E+00  0.35740347158E-01  0.35744000000E-01  0.51099999109E-03 0. -1.
       11   -1    0    0    0    0 -0.00000000000E+00 -0.00000000000E+00 -0.35740347158E-01  0.35744000000E-01  0.51099999109E-03 0.  1.
       22    1    1    2    0    0 -0.16587060801E-01  0.11426913645E-01  0.29519970248E-01  0.35737005818E-01  0.00000000000E+00 0. -1.
  9000001    1    1    2    0    0  0.16587060801E-01 -0.11426913645E-01 -0.29519970248E-01  0.35750994182E-01  0.10000000475E-02 0.  1.
</event>
<event>
 4   0  0.4892667E-02  0.9118800E+02  0.7818609E-02  0.1379984E+01
      -11   -1    0    0    0    0  0.00000000000E+00  0.00000000000E+00  0.35740347158E-01  0.35744000000E-01  0.51099999109E-03 0. -1.
       11   -1    0    0    0    0 -0.00000000000E+00 -0.00000000000E+00 -0.35740347158E-01  0.35744000000E-01  0.51099999109E-03 0.  1.
       22    1    1    2    0    0  0.94754084370E-02 -0.10730772231E-03 -0.34457781485E-01  0.35737005818E-01  0.00000000000E+00 0.  1.
  9000001    1    1    2    0    0 -0.94754084370E-02  0.10730772231E-03  0.34457781485E-01  0.35750994182E-01  0.10000000475E-02 0. -1.
</event>
<event>
 4   0  0.4892667E-02  0.9118800E+02  0.7818609E-02  0.1379984E+01
      -11   -1    0    0    0    0  0.00000000000E+00  0.00000000000E+00  0.35740347158E-01  0.35744000000E-01  0.51099999109E-03 0. -1.
       11   -1    0    0    0    0 -0.00000000000E+00 -0.00000000000E+00 -0.35740347158E-01  0.35744000000E-01  0.51099999109E-03 0.  1.
       22    1    1    2    0    0  0.27437515954E-02  0.16465383274E-01  0.31598996277E-01  0.35737005818E-01  0.00000000000E+00 0. -1.
  9000001    1    1    2    0    0 -0.27437515954E-02 -0.16465383274E-01 -0.31598996277E-01  0.35750994182E-01  0.10000000475E-02 0.  1.
</event>
<event>
 4   0  0.4892667E-02  0.9118800E+02  0.7818609E-02  0.1379984E+01
      -11   -1    0    0    0    0  0.00000000000E+00  0.00000000000E+00  0.35740347158E-01  0.35744000000E-01  0.51099999109E-03 0.  1.
       11   -1    0    0    0    0 -0.00000000000E+00 -0.00000000000E+00 -0.35740347158E-01  0.35744000000E-01  0.51099999109E-03 0. -1.
       22    1    1    2    0    0  0.22041529602E-01 -0.10252751919E-01  0.26195145271E-01  0.35737005818E-01  0.00000000000E+00 0.  1.
  9000001    1    1    2    0    0 -0.22041529602E-01  0.10252751919E-01 -0.26195145271E-01  0.35750994182E-01  0.10000000475E-02 0. -1.
</event>
<event>
 4   0  0.4892667E-02  0.9118800E+02  0.7818609E-02  0.1379984E+01
      -11   -1    0    0    0    0  0.00000000000E+00  0.00000000000E+00  0.35740347158E-01  0.35744000000E-01  0.51099999109E-03 0. -1.
       11   -1    0    0    0    0 -0.00000000000E+00 -0.00000000000E+00 -0.35740347158E-01  0.35744000000E-01  0.51099999109E-03 0.  1.
       22    1    1    2    0    0  0.74336223869E-04  0.32376623827E-02  0.35589964896E-01  0.35737005818E-01  0.00000000000E+00 0. -1.
  9000001    1    1    2    0    0 -0.74336223869E-04 -0.32376623827E-02 -0.35589964896E-01  0.35750994182E-01  0.10000000475E-02 0.  1.
</event>
<event>
 4   0  0.4892667E-02  0.9118800E+02  0.7818609E-02  0.1379984E+01
      -11   -1    0    0    0    0  0.00000000000E+00  0.00000000000E+00  0.35740347158E-01  0.35744000000E-01  0.51099999109E-03 0.  1.
       11   -1    0    0    0    0 -0.00000000000E+00 -0.00000000000E+00 -0.35740347158E-01  0.35744000000E-01  0.51099999109E-03 0. -1.
       22    1    1    2    0    0  0.17733201581E-01 -0.35505692775E-02 -0.30823053132E-01  0.35737005818E-01  0.00000000000E+00 0. -1.
  9000001    1    1    2    0    0 -0.17733201581E-01  0.35505692775E-02  0.30823053132E-01  0.35750994182E-01  0.10000000475E-02 0.  1.
</event>
<event>
 4   0  0.4892667E-02  0.9118800E+02  0.7818609E-02  0.1379984E+01
      -11   -1    0    0    0    0  0.00000000000E+00  0.00000000000E+00  0.35740347158E-01  0.35744000000E-01  0.51099999109E-03 0.  1.
       11   -1    0    0    0    0 -0.00000000000E+00 -0.00000000000E+00 -0.35740347158E-01  0.35744000000E-01  0.51099999109E-03 0. -1.
       22    1    1    2    0    0  0.14453890882E-01  0.10250225687E-01  0.31034682157E-01  0.35737005818E-01  0.00000000000E+00 0.  1.
  9000001    1    1    2    0    0 -0.14453890882E-01 -0.10250225687E-01 -0.31034682157E-01  0.35750994182E-01  0.10000000475E-02 0. -1.
</event>
<event>
 4   0  0.4892667E-02  0.9118800E+02  0.7818609E-02  0.1379984E+01
      -11   -1    0    0    0    0  0.00000000000E+00  0.00000000000E+00  0.35740347158E-01  0.35744000000E-01  0.51099999109E-03 0.  1.
       11   -1    0    0    0    0 -0.00000000000E+00 -0.00000000000E+00 -0.35740347158E-01  0.35744000000E-01  0.51099999109E-03 0. -1.
       22    1    1    2    0    0  0.29062856555E-02  0.32148144814E-02 -0.35473258328E-01  0.35737005818E-01  0.00000000000E+00 0. -1.
  9000001    1    1    2    0    0 -0.29062856555E-02 -0.32148144814E-02  0.35473258328E-01  0.35750994182E-01  0.10000000475E-02 0.  1.
</event>
<event>
 4   0  0.4892667E-02  0.9118800E+02  0.7818609E-02  0.1379984E+01
      -11   -1    0    0    0    0  0.00000000000E+00  0.00000000000E+00  0.35740347158E-01  0.35744000000E-01  0.51099999109E-03 0. -1.
       11   -1    0    0    0    0 -0.00000000000E+00 -0.00000000000E+00 -0.35740347158E-01  0.35744000000E-01  0.51099999109E-03 0.  1.
       22    1    1    2    0    0  0.48277227315E-02 -0.64450914707E-02 -0.34817918864E-01  0.35737005818E-01  0.00000000000E+00 0.  1.
  9000001    1    1    2    0    0 -0.48277227315E-02  0.64450914707E-02  0.34817918864E-01  0.35750994182E-01  0.10000000475E-02 0. -1.
</event>
<event>
 4   0  0.4892667E-02  0.9118800E+02  0.7818609E-02  0.1379984E+01
      -11   -1    0    0    0    0  0.00000000000E+00  0.00000000000E+00  0.35740347158E-01  0.35744000000E-01  0.51099999109E-03 0.  1.
       11   -1    0    0    0    0 -0.00000000000E+00 -0.00000000000E+00 -0.35740347158E-01  0.35744000000E-01  0.51099999109E-03 0. -1.
       22    1    1    2    0    0 -0.13339410293E-01  0.18868748985E-01 -0.27261035007E-01  0.35737005818E-01  0.00000000000E+00 0. -1.
  9000001    1    1    2    0    0  0.13339410293E-01 -0.18868748985E-01  0.27261035007E-01  0.35750994182E-01  0.10000000475E-02 0.  1.
</event>
<event>
 4   0  0.4892667E-02  0.9118800E+02  0.7818609E-02  0.1379984E+01
      -11   -1    0    0    0    0  0.00000000000E+00  0.00000000000E+00  0.35740347158E-01  0.35744000000E-01  0.51099999109E-03 0. -1.
       11   -1    0    0    0    0 -0.00000000000E+00 -0.00000000000E+00 -0.35740347158E-01  0.35744000000E-01  0.51099999109E-03 0.  1.
       22    1    1    2    0    0 -0.50865487997E-02  0.16757259226E-03 -0.35372765309E-01  0.35737005818E-01  0.00000000000E+00 0.  1.
  9000001    1    1    2    0    0  0.50865487997E-02 -0.16757259226E-03  0.35372765309E-01  0.35750994182E-01  0.10000000475E-02 0. -1.
</event>
<event>
 4   0  0.4892667E-02  0.9118800E+02  0.7818609E-02  0.1379984E+01
      -11   -1    0    0    0    0  0.00000000000E+00  0.00000000000E+00  0.35740347158E-01  0.35744000000E-01  0.51099999109E-03 0. -1.
       11   -1    0    0    0    0 -0.00000000000E+00 -0.00000000000E+00 -0.35740347158E-01  0.35744000000E-01  0.51099999109E-03 0.  1.
       22    1    1    2    0    0 -0.14158998477E-01 -0.74435441917E-02  0.31957002314E-01  0.35737005818E-01  0.00000000000E+00 0. -1.
  9000001    1    1    2    0    0  0.14158998477E-01  0.74435441917E-02 -0.31957002314E-01  0.35750994182E-01  0.10000000475E-02 0.  1.
</event>
<event>
 4   0  0.4892667E-02  0.9118800E+02  0.7818609E-02  0.1379984E+01
      -11   -1    0    0    0    0  0.00000000000E+00  0.00000000000E+00  0.35740347158E-01  0.35744000000E-01  0.51099999109E-03 0.  1.
       11   -1    0    0    0    0 -0.00000000000E+00 -0.00000000000E+00 -0.35740347158E-01  0.35744000000E-01  0.51099999109E-03 0. -1.
       22    1    1    2    0    0 -0.56434061028E-02 -0.35160067998E-02 -0.35113006830E-01  0.35737005818E-01  0.00000000000E+00 0. -1.
  9000001    1    1    2    0    0  0.56434061028E-02  0.35160067998E-02  0.35113006830E-01  0.35750994182E-01  0.10000000475E-02 0.  1.
</event>
<event>
 4   0  0.4892667E-02  0.9118800E+02  0.7818609E-02  0.1379984E+01
      -11   -1    0    0    0    0  0.00000000000E+00  0.00000000000E+00  0.35740347158E-01  0.35744000000E-01  0.51099999109E-03 0.  1.
       11   -1    0    0    0    0 -0.00000000000E+00 -0.00000000000E+00 -0.35740347158E-01  0.35744000000E-01  0.51099999109E-03 0. -1.
       22    1    1    2    0    0  0.22947158857E-02 -0.42489681208E-02  0.35409237972E-01  0.35737005818E-01  0.00000000000E+00 0.  1.
  9000001    1    1    2    0    0 -0.22947158857E-02  0.42489681208E-02 -0.35409237972E-01  0.35750994182E-01  0.10000000475E-02 0. -1.
</event>
<event>
 4   0  0.4892667E-02  0.9118800E+02  0.7818609E-02  0.1379984E+01
      -11   -1    0    0    0    0  0.00000000000E+00  0.00000000000E+00  0.35740347158E-01  0.35744000000E-01  0.51099999109E-03 0.  1.
       11   -1    0    0    0    0 -0.00000000000E+00 -0.00000000000E+00 -0.35740347158E-01  0.35744000000E-01  0.51099999109E-03 0. -1.
       22    1    1    2    0    0  0.29344744881E-01 -0.19028584369E-01  0.73438756574E-02  0.35737005818E-01  0.00000000000E+00 0.  1.
  9000001    1    1    2    0    0 -0.29344744881E-01  0.19028584369E-01 -0.73438756574E-02  0.35750994182E-01  0.10000000475E-02 0. -1.
</event>
<event>
 4   0  0.4892667E-02  0.9118800E+02  0.7818609E-02  0.1379984E+01
      -11   -1    0    0    0    0  0.00000000000E+00  0.00000000000E+00  0.35740347158E-01  0.35744000000E-01  0.51099999109E-03 0. -1.
       11   -1    0    0    0    0 -0.00000000000E+00 -0.00000000000E+00 -0.35740347158E-01  0.35744000000E-01  0.51099999109E-03 0.  1.
       22    1    1    2    0    0 -0.99890836127E-03 -0.66387147924E-02 -0.35100758295E-01  0.35737005818E-01  0.00000000000E+00 0.  1.
  9000001    1    1    2    0    0  0.99890836127E-03  0.66387147924E-02  0.35100758295E-01  0.35750994182E-01  0.10000000475E-02 0. -1.
</event>
<event>
 4   0  0.4892667E-02  0.9118800E+02  0.7818609E-02  0.1379984E+01
      -11   -1    0    0    0    0  0.00000000000E+00  0.00000000000E+00  0.35740347158E-01  0.35744000000E-01  0.51099999109E-03 0. -1.
       11   -1    0    0    0    0 -0.00000000000E+00 -0.00000000000E+00 -0.35740347158E-01  0.35744000000E-01  0.51099999109E-03 0.  1.
       22    1    1    2    0    0  0.66162193372E-02 -0.16604929490E-02 -0.35079937140E-01  0.35737005818E-01  0.00000000000E+00 0.  1.
  9000001    1    1    2    0    0 -0.66162193372E-02  0.16604929490E-02  0.35079937140E-01  0.35750994182E-01  0.10000000475E-02 0. -1.
</event>
<event>
 4   0  0.4892667E-02  0.9118800E+02  0.7818609E-02  0.1379984E+01
      -11   -1    0    0    0    0  0.00000000000E+00  0.00000000000E+00  0.35740347158E-01  0.35744000000E-01  0.51099999109E-03 0. -1.
       11   -1    0    0    0    0 -0.00000000000E+00 -0.00000000000E+00 -0.35740347158E-01  0.35744000000E-01  0.51099999109E-03 0.  1.
       22    1    1    2    0    0 -0.97860596734E-02 -0.20541548256E-01  0.27557420347E-01  0.35737005818E-01  0.00000000000E+00 0. -1.
  9000001    1    1    2    0    0  0.97860596734E-02  0.20541548256E-01 -0.27557420347E-01  0.35750994182E-01  0.10000000475E-02 0.  1.
</event>
<event>
 4   0  0.4892667E-02  0.9118800E+02  0.7818609E-02  0.1379984E+01
      -11   -1    0    0    0    0  0.00000000000E+00  0.00000000000E+00  0.35740347158E-01  0.35744000000E-01  0.51099999109E-03 0.  1.
       11   -1    0    0    0    0 -0.00000000000E+00 -0.00000000000E+00 -0.35740347158E-01  0.35744000000E-01  0.51099999109E-03 0. -1.
       22    1    1    2    0    0 -0.32799120386E-02  0.19467108301E-02 -0.35532887285E-01  0.35737005818E-01  0.00000000000E+00 0. -1.
  9000001    1    1    2    0    0  0.32799120386E-02 -0.19467108301E-02  0.35532887285E-01  0.35750994182E-01  0.10000000475E-02 0.  1.
</event>
<event>
 4   0  0.4892667E-02  0.9118800E+02  0.7818609E-02  0.1379984E+01
      -11   -1    0    0    0    0  0.00000000000E+00  0.00000000000E+00  0.35740347158E-01  0.35744000000E-01  0.51099999109E-03 0. -1.
       11   -1    0    0    0    0 -0.00000000000E+00 -0.00000000000E+00 -0.35740347158E-01  0.35744000000E-01  0.51099999109E-03 0.  1.
       22    1    1    2    0    0  0.35515193693E-01 -0.20901397066E-02 -0.33817033937E-02  0.35737005818E-01  0.00000000000E+00 0.  1.
  9000001    1    1    2    0    0 -0.35515193693E-01  0.20901397066E-02  0.33817033937E-02  0.35750994182E-01  0.10000000475E-02 0. -1.
</event>
<event>
 4   0  0.4892667E-02  0.9118800E+02  0.7818609E-02  0.1379984E+01
      -11   -1    0    0    0    0  0.00000000000E+00  0.00000000000E+00  0.35740347158E-01  0.35744000000E-01  0.51099999109E-03 0.  1.
       11   -1    0    0    0    0 -0.00000000000E+00 -0.00000000000E+00 -0.35740347158E-01  0.35744000000E-01  0.51099999109E-03 0. -1.
       22    1    1    2    0    0 -0.51681663891E-02 -0.11425972091E-01  0.33464470754E-01  0.35737005818E-01  0.00000000000E+00 0.  1.
  9000001    1    1    2    0    0  0.51681663891E-02  0.11425972091E-01 -0.33464470754E-01  0.35750994182E-01  0.10000000475E-02 0. -1.
</event>
<event>
 4   0  0.4892667E-02  0.9118800E+02  0.7818609E-02  0.1379984E+01
      -11   -1    0    0    0    0  0.00000000000E+00  0.00000000000E+00  0.35740347158E-01  0.35744000000E-01  0.51099999109E-03 0. -1.
       11   -1    0    0    0    0 -0.00000000000E+00 -0.00000000000E+00 -0.35740347158E-01  0.35744000000E-01  0.51099999109E-03 0.  1.
       22    1    1    2    0    0  0.14638959320E-01  0.10183367425E-02  0.32585233545E-01  0.35737005818E-01  0.00000000000E+00 0. -1.
  9000001    1    1    2    0    0 -0.14638959320E-01 -0.10183367425E-02 -0.32585233545E-01  0.35750994182E-01  0.10000000475E-02 0.  1.
</event>
<event>
 4   0  0.4892667E-02  0.9118800E+02  0.7818609E-02  0.1379984E+01
      -11   -1    0    0    0    0  0.00000000000E+00  0.00000000000E+00  0.35740347158E-01  0.35744000000E-01  0.51099999109E-03 0.  1.
       11   -1    0    0    0    0 -0.00000000000E+00 -0.00000000000E+00 -0.35740347158E-01  0.35744000000E-01  0.51099999109E-03 0. -1.
       22    1    1    2    0    0 -0.40739949476E-03 -0.46221687284E-02  0.35434491202E-01  0.35737005818E-01  0.00000000000E+00 0.  1.
  9000001    1    1    2    0    0  0.40739949476E-03  0.46221687284E-02 -0.35434491202E-01  0.35750994182E-01  0.10000000475E-02 0. -1.
</event>
<event>
 4   0  0.4892667E-02  0.9118800E+02  0.7818609E-02  0.1379984E+01
      -11   -1    0    0    0    0  0.00000000000E+00  0.00000000000E+00  0.35740347158E-01  0.35744000000E-01  0.51099999109E-03 0. -1.
       11   -1    0    0    0    0 -0.00000000000E+00 -0.00000000000E+00 -0.35740347158E-01  0.35744000000E-01  0.51099999109E-03 0.  1.
       22    1    1    2    0    0  0.10663520305E-02 -0.89070415808E-02  0.34592789545E-01  0.35737005818E-01  0.00000000000E+00 0. -1.
  9000001    1    1    2    0    0 -0.10663520305E-02  0.89070415808E-02 -0.34592789545E-01  0.35750994182E-01  0.10000000475E-02 0.  1.
</event>
<event>
 4   0  0.4892667E-02  0.9118800E+02  0.7818609E-02  0.1379984E+01
      -11   -1    0    0    0    0  0.00000000000E+00  0.00000000000E+00  0.35740347158E-01  0.35744000000E-01  0.51099999109E-03 0.  1.
       11   -1    0    0    0    0 -0.00000000000E+00 -0.00000000000E+00 -0.35740347158E-01  0.35744000000E-01  0.51099999109E-03 0. -1.
       22    1    1    2    0    0 -0.83360858535E-02 -0.12119705749E-01 -0.32569249148E-01  0.35737005818E-01  0.00000000000E+00 0. -1.
  9000001    1    1    2    0    0  0.83360858535E-02  0.12119705749E-01  0.32569249148E-01  0.35750994182E-01  0.10000000475E-02 0.  1.
</event>
<event>
 4   0  0.4892667E-02  0.9118800E+02  0.7818609E-02  0.1379984E+01
      -11   -1    0    0    0    0  0.00000000000E+00  0.00000000000E+00  0.35740347158E-01  0.35744000000E-01  0.51099999109E-03 0. -1.
       11   -1    0    0    0    0 -0.00000000000E+00 -0.00000000000E+00 -0.35740347158E-01  0.35744000000E-01  0.51099999109E-03 0.  1.
       22    1    1    2    0    0  0.24589716446E-02 -0.79945000928E-02 -0.34744424180E-01  0.35737005818E-01  0.00000000000E+00 0.  1.
  9000001    1    1    2    0    0 -0.24589716446E-02  0.79945000928E-02  0.34744424180E-01  0.35750994182E-01  0.10000000475E-02 0. -1.
</event>
<event>
 4   0  0.4892667E-02  0.9118800E+02  0.7818609E-02  0.1379984E+01
      -11   -1    0    0    0    0  0.00000000000E+00  0.00000000000E+00  0.35740347158E-01  0.35744000000E-01  0.51099999109E-03 0. -1.
       11   -1    0    0    0    0 -0.00000000000E+00 -0.00000000000E+00 -0.35740347158E-01  0.35744000000E-01  0.51099999109E-03 0.  1.
       22    1    1    2    0    0  0.50385013781E-02  0.41031567908E-02  0.35141303235E-01  0.35737005818E-01  0.00000000000E+00 0. -1.
  9000001    1    1    2    0    0 -0.50385013781E-02 -0.41031567908E-02 -0.35141303235E-01  0.35750994182E-01  0.10000000475E-02 0.  1.
</event>
<event>
 4   0  0.4892667E-02  0.9118800E+02  0.7818609E-02  0.1379984E+01
      -11   -1    0    0    0    0  0.00000000000E+00  0.00000000000E+00  0.35740347158E-01  0.35744000000E-01  0.51099999109E-03 0.  1.
       11   -1    0    0    0    0 -0.00000000000E+00 -0.00000000000E+00 -0.35740347158E-01  0.35744000000E-01  0.51099999109E-03 0. -1.
       22    1    1    2    0    0  0.56331797112E-02  0.25624424990E-02 -0.35197084533E-01  0.35737005818E-01  0.00000000000E+00 0. -1.
  9000001    1    1    2    0    0 -0.56331797112E-02 -0.25624424990E-02  0.35197084533E-01  0.35750994182E-01  0.10000000475E-02 0.  1.
</event>
<event>
 4   0  0.4892667E-02  0.9118800E+02  0.7818609E-02  0.1379984E+01
      -11   -1    0    0    0    0  0.00000000000E+00  0.00000000000E+00  0.35740347158E-01  0.35744000000E-01  0.51099999109E-03 0. -1.
       11   -1    0    0    0    0 -0.00000000000E+00 -0.00000000000E+00 -0.35740347158E-01  0.35744000000E-01  0.51099999109E-03 0.  1.
       22    1    1    2    0    0  0.13681036844E-01 -0.24398450575E-01  0.22241367433E-01  0.35737005818E-01  0.00000000000E+00 0. -1.
  9000001    1    1    2    0    0 -0.13681036844E-01  0.24398450575E-01 -0.22241367433E-01  0.35750994182E-01  0.10000000475E-02 0.  1.
</event>
<event>
 4   0  0.4892667E-02  0.9118800E+02  0.7818609E-02  0.1379984E+01
      -11   -1    0    0    0    0  0.00000000000E+00  0.00000000000E+00  0.35740347158E-01  0.35744000000E-01  0.51099999109E-03 0.  1.
       11   -1    0    0    0    0 -0.00000000000E+00 -0.00000000000E+00 -0.35740347158E-01  0.35744000000E-01  0.51099999109E-03 0. -1.
       22    1    1    2    0    0  0.32107233744E-02 -0.95399391120E-03 -0.35579695557E-01  0.35737005818E-01  0.00000000000E+00 0. -1.
  9000001    1    1    2    0    0 -0.32107233744E-02  0.95399391120E-03  0.35579695557E-01  0.35750994182E-01  0.10000000475E-02 0.  1.
</event>
<event>
 4   0  0.4892667E-02  0.9118800E+02  0.7818609E-02  0.1379984E+01
      -11   -1    0    0    0    0  0.00000000000E+00  0.00000000000E+00  0.35740347158E-01  0.35744000000E-01  0.51099999109E-03 0.  1.
       11   -1    0    0    0    0 -0.00000000000E+00 -0.00000000000E+00 -0.35740347158E-01  0.35744000000E-01  0.51099999109E-03 0. -1.
       22    1    1    2    0    0 -0.38167189968E-02  0.12869970992E-01  0.33119934898E-01  0.35737005818E-01  0.00000000000E+00 0.  1.
  9000001    1    1    2    0    0  0.38167189968E-02 -0.12869970992E-01 -0.33119934898E-01  0.35750994182E-01  0.10000000475E-02 0. -1.
</event>
<event>
 4   0  0.4892667E-02  0.9118800E+02  0.7818609E-02  0.1379984E+01
      -11   -1    0    0    0    0  0.00000000000E+00  0.00000000000E+00  0.35740347158E-01  0.35744000000E-01  0.51099999109E-03 0.  1.
       11   -1    0    0    0    0 -0.00000000000E+00 -0.00000000000E+00 -0.35740347158E-01  0.35744000000E-01  0.51099999109E-03 0. -1.
       22    1    1    2    0    0 -0.30116484666E-01 -0.73399356454E-02  0.17783595839E-01  0.35737005818E-01  0.00000000000E+00 0.  1.
  9000001    1    1    2    0    0  0.30116484666E-01  0.73399356454E-02 -0.17783595839E-01  0.35750994182E-01  0.10000000475E-02 0. -1.
</event>
<event>
 4   0  0.4892667E-02  0.9118800E+02  0.7818609E-02  0.1379984E+01
      -11   -1    0    0    0    0  0.00000000000E+00  0.00000000000E+00  0.35740347158E-01  0.35744000000E-01  0.51099999109E-03 0. -1.
       11   -1    0    0    0    0 -0.00000000000E+00 -0.00000000000E+00 -0.35740347158E-01  0.35744000000E-01  0.51099999109E-03 0.  1.
       22    1    1    2    0    0 -0.14190793287E-01  0.40531763012E-02  0.32547299929E-01  0.35737005818E-01  0.00000000000E+00 0. -1.
  9000001    1    1    2    0    0  0.14190793287E-01 -0.40531763012E-02 -0.32547299929E-01  0.35750994182E-01  0.10000000475E-02 0.  1.
</event>
<event>
 4   0  0.4892667E-02  0.9118800E+02  0.7818609E-02  0.1379984E+01
      -11   -1    0    0    0    0  0.00000000000E+00  0.00000000000E+00  0.35740347158E-01  0.35744000000E-01  0.51099999109E-03 0.  1.
       11   -1    0    0    0    0 -0.00000000000E+00 -0.00000000000E+00 -0.35740347158E-01  0.35744000000E-01  0.51099999109E-03 0. -1.
       22    1    1    2    0    0 -0.20918985533E-02  0.40406000629E-02 -0.35446171817E-01  0.35737005818E-01  0.00000000000E+00 0. -1.
  9000001    1    1    2    0    0  0.20918985533E-02 -0.40406000629E-02  0.35446171817E-01  0.35750994182E-01  0.10000000475E-02 0.  1.
</event>
<event>
 4   0  0.4892667E-02  0.9118800E+02  0.7818609E-02  0.1379984E+01
      -11   -1    0    0    0    0  0.00000000000E+00  0.00000000000E+00  0.35740347158E-01  0.35744000000E-01  0.51099999109E-03 0.  1.
       11   -1    0    0    0    0 -0.00000000000E+00 -0.00000000000E+00 -0.35740347158E-01  0.35744000000E-01  0.51099999109E-03 0. -1.
       22    1    1    2    0    0  0.94481212590E-02  0.30464743503E-01  0.16117257610E-01  0.35737005818E-01  0.00000000000E+00 0.  1.
  9000001    1    1    2    0    0 -0.94481212590E-02 -0.30464743503E-01 -0.16117257610E-01  0.35750994182E-01  0.10000000475E-02 0. -1.
</event>
<event>
 4   0  0.4892667E-02  0.9118800E+02  0.7818609E-02  0.1379984E+01
      -11   -1    0    0    0    0  0.00000000000E+00  0.00000000000E+00  0.35740347158E-01  0.35744000000E-01  0.51099999109E-03 0.  1.
       11   -1    0    0    0    0 -0.00000000000E+00 -0.00000000000E+00 -0.35740347158E-01  0.35744000000E-01  0.51099999109E-03 0. -1.
       22    1    1    2    0    0 -0.45202511539E-02 -0.10666769677E-02  0.35433926040E-01  0.35737005818E-01  0.00000000000E+00 0.  1.
  9000001    1    1    2    0    0  0.45202511539E-02  0.10666769677E-02 -0.35433926040E-01  0.35750994182E-01  0.10000000475E-02 0. -1.
</event>
<event>
 4   0  0.4892667E-02  0.9118800E+02  0.7818609E-02  0.1379984E+01
      -11   -1    0    0    0    0  0.00000000000E+00  0.00000000000E+00  0.35740347158E-01  0.35744000000E-01  0.51099999109E-03 0. -1.
       11   -1    0    0    0    0 -0.00000000000E+00 -0.00000000000E+00 -0.35740347158E-01  0.35744000000E-01  0.51099999109E-03 0.  1.
       22    1    1    2    0    0 -0.28671010932E-03  0.11040822467E-01 -0.33987521555E-01  0.35737005818E-01  0.00000000000E+00 0.  1.
  9000001    1    1    2    0    0  0.28671010932E-03 -0.11040822467E-01  0.33987521555E-01  0.35750994182E-01  0.10000000475E-02 0. -1.
</event>
<event>
 4   0  0.4892667E-02  0.9118800E+02  0.7818609E-02  0.1379984E+01
      -11   -1    0    0    0    0  0.00000000000E+00  0.00000000000E+00  0.35740347158E-01  0.35744000000E-01  0.51099999109E-03 0.  1.
       11   -1    0    0    0    0 -0.00000000000E+00 -0.00000000000E+00 -0.35740347158E-01  0.35744000000E-01  0.51099999109E-03 0. -1.
       22    1    1    2    0    0 -0.90078310432E-04 -0.77394081439E-02 -0.34888780895E-01  0.35737005818E-01  0.00000000000E+00 0. -1.
  9000001    1    1    2    0    0  0.90078310432E-04  0.77394081439E-02  0.34888780895E-01  0.35750994182E-01  0.10000000475E-02 0.  1.
</event>
<event>
 4   0  0.4892667E-02  0.9118800E+02  0.7818609E-02  0.1379984E+01
      -11   -1    0    0    0    0  0.00000000000E+00  0.00000000000E+00  0.35740347158E-01  0.35744000000E-01  0.51099999109E-03 0. -1.
       11   -1    0    0    0    0 -0.00000000000E+00 -0.00000000000E+00 -0.35740347158E-01  0.35744000000E-01  0.51099999109E-03 0.  1.
       22    1    1    2    0    0  0.29699501957E-02  0.97594912665E-02  0.34250041035E-01  0.35737005818E-01  0.00000000000E+00 0. -1.
  9000001    1    1    2    0    0 -0.29699501957E-02 -0.97594912665E-02 -0.34250041035E-01  0.35750994182E-01  0.10000000475E-02 0.  1.
</event>
<event>
 4   0  0.4892667E-02  0.9118800E+02  0.7818609E-02  0.1379984E+01
      -11   -1    0    0    0    0  0.00000000000E+00  0.00000000000E+00  0.35740347158E-01  0.35744000000E-01  0.51099999109E-03 0. -1.
       11   -1    0    0    0    0 -0.00000000000E+00 -0.00000000000E+00 -0.35740347158E-01  0.35744000000E-01  0.51099999109E-03 0.  1.
       22    1    1    2    0    0 -0.13882622018E-01  0.90728871879E-02  0.31655791079E-01  0.35737005818E-01  0.00000000000E+00 0. -1.
  9000001    1    1    2    0    0  0.13882622018E-01 -0.90728871879E-02 -0.31655791079E-01  0.35750994182E-01  0.10000000475E-02 0.  1.
</event>
<event>
 4   0  0.4892667E-02  0.9118800E+02  0.7818609E-02  0.1379984E+01
      -11   -1    0    0    0    0  0.00000000000E+00  0.00000000000E+00  0.35740347158E-01  0.35744000000E-01  0.51099999109E-03 0.  1.
       11   -1    0    0    0    0 -0.00000000000E+00 -0.00000000000E+00 -0.35740347158E-01  0.35744000000E-01  0.51099999109E-03 0.  1.
       22    1    1    2    0    0  0.17824775857E-02 -0.34019302257E-02 -0.35530032779E-01  0.35737005818E-01  0.00000000000E+00 0.  1.
  9000001    1    1    2    0    0 -0.17824775857E-02  0.34019302257E-02  0.35530032779E-01  0.35750994182E-01  0.10000000475E-02 0.  1.
</event>
<event>
 4   0  0.4892667E-02  0.9118800E+02  0.7818609E-02  0.1379984E+01
      -11   -1    0    0    0    0  0.00000000000E+00  0.00000000000E+00  0.35740347158E-01  0.35744000000E-01  0.51099999109E-03 0.  1.
       11   -1    0    0    0    0 -0.00000000000E+00 -0.00000000000E+00 -0.35740347158E-01  0.35744000000E-01  0.51099999109E-03 0. -1.
       22    1    1    2    0    0 -0.31229002874E-02 -0.28331557520E-03  0.35599168683E-01  0.35737005818E-01  0.00000000000E+00 0.  1.
  9000001    1    1    2    0    0  0.31229002874E-02  0.28331557520E-03 -0.35599168683E-01  0.35750994182E-01  0.10000000475E-02 0. -1.
</event>
<event>
 4   0  0.4892667E-02  0.9118800E+02  0.7818609E-02  0.1379984E+01
      -11   -1    0    0    0    0  0.00000000000E+00  0.00000000000E+00  0.35740347158E-01  0.35744000000E-01  0.51099999109E-03 0.  1.
       11   -1    0    0    0    0 -0.00000000000E+00 -0.00000000000E+00 -0.35740347158E-01  0.35744000000E-01  0.51099999109E-03 0. -1.
       22    1    1    2    0    0  0.93229355818E-02 -0.10243596630E-01 -0.32943666843E-01  0.35737005818E-01  0.00000000000E+00 0. -1.
  9000001    1    1    2    0    0 -0.93229355818E-02  0.10243596630E-01  0.32943666843E-01  0.35750994182E-01  0.10000000475E-02 0.  1.
</event>
<event>
 4   0  0.4892667E-02  0.9118800E+02  0.7818609E-02  0.1379984E+01
      -11   -1    0    0    0    0  0.00000000000E+00  0.00000000000E+00  0.35740347158E-01  0.35744000000E-01  0.51099999109E-03 0. -1.
       11   -1    0    0    0    0 -0.00000000000E+00 -0.00000000000E+00 -0.35740347158E-01  0.35744000000E-01  0.51099999109E-03 0.  1.
       22    1    1    2    0    0 -0.19618523430E-01  0.10471011288E-01 -0.27975079015E-01  0.35737005818E-01  0.00000000000E+00 0.  1.
  9000001    1    1    2    0    0  0.19618523430E-01 -0.10471011288E-01  0.27975079015E-01  0.35750994182E-01  0.10000000475E-02 0. -1.
</event>
<event>
 4   0  0.4892667E-02  0.9118800E+02  0.7818609E-02  0.1379984E+01
      -11   -1    0    0    0    0  0.00000000000E+00  0.00000000000E+00  0.35740347158E-01  0.35744000000E-01  0.51099999109E-03 0. -1.
       11   -1    0    0    0    0 -0.00000000000E+00 -0.00000000000E+00 -0.35740347158E-01  0.35744000000E-01  0.51099999109E-03 0.  1.
       22    1    1    2    0    0  0.10869142447E-01  0.21921682526E-01 -0.26046787951E-01  0.35737005818E-01  0.00000000000E+00 0.  1.
  9000001    1    1    2    0    0 -0.10869142447E-01 -0.21921682526E-01  0.26046787951E-01  0.35750994182E-01  0.10000000475E-02 0. -1.
</event>
<event>
 4   0  0.4892667E-02  0.9118800E+02  0.7818609E-02  0.1379984E+01
      -11   -1    0    0    0    0  0.00000000000E+00  0.00000000000E+00  0.35740347158E-01  0.35744000000E-01  0.51099999109E-03 0.  1.
       11   -1    0    0    0    0 -0.00000000000E+00 -0.00000000000E+00 -0.35740347158E-01  0.35744000000E-01  0.51099999109E-03 0. -1.
       22    1    1    2    0    0 -0.59615214297E-02 -0.12309176728E-02 -0.35214751011E-01  0.35737005818E-01  0.00000000000E+00 0. -1.
  9000001    1    1    2    0    0  0.59615214297E-02  0.12309176728E-02  0.35214751011E-01  0.35750994182E-01  0.10000000475E-02 0.  1.
</event>
<event>
 4   0  0.4892667E-02  0.9118800E+02  0.7818609E-02  0.1379984E+01
      -11   -1    0    0    0    0  0.00000000000E+00  0.00000000000E+00  0.35740347158E-01  0.35744000000E-01  0.51099999109E-03 0.  1.
       11   -1    0    0    0    0 -0.00000000000E+00 -0.00000000000E+00 -0.35740347158E-01  0.35744000000E-01  0.51099999109E-03 0. -1.
       22    1    1    2    0    0 -0.64600189671E-02 -0.43814080191E-02 -0.34874130865E-01  0.35737005818E-01  0.00000000000E+00 0. -1.
  9000001    1    1    2    0    0  0.64600189671E-02  0.43814080191E-02  0.34874130865E-01  0.35750994182E-01  0.10000000475E-02 0.  1.
</event>
<event>
 4   0  0.4892667E-02  0.9118800E+02  0.7818609E-02  0.1379984E+01
      -11   -1    0    0    0    0  0.00000000000E+00  0.00000000000E+00  0.35740347158E-01  0.35744000000E-01  0.51099999109E-03 0. -1.
       11   -1    0    0    0    0 -0.00000000000E+00 -0.00000000000E+00 -0.35740347158E-01  0.35744000000E-01  0.51099999109E-03 0.  1.
       22    1    1    2    0    0 -0.72987993607E-02  0.14491573066E-01  0.31841096445E-01  0.35737005818E-01  0.00000000000E+00 0. -1.
  9000001    1    1    2    0    0  0.72987993607E-02 -0.14491573066E-01 -0.31841096445E-01  0.35750994182E-01  0.10000000475E-02 0.  1.
</event>
<event>
 4   0  0.4892667E-02  0.9118800E+02  0.7818609E-02  0.1379984E+01
      -11   -1    0    0    0    0  0.00000000000E+00  0.00000000000E+00  0.35740347158E-01  0.35744000000E-01  0.51099999109E-03 0. -1.
       11   -1    0    0    0    0 -0.00000000000E+00 -0.00000000000E+00 -0.35740347158E-01  0.35744000000E-01  0.51099999109E-03 0.  1.
       22    1    1    2    0    0 -0.44164586185E-03  0.18902245864E-01  0.30325626706E-01  0.35737005818E-01  0.00000000000E+00 0. -1.
  9000001    1    1    2    0    0  0.44164586185E-03 -0.18902245864E-01 -0.30325626706E-01  0.35750994182E-01  0.10000000475E-02 0.  1.
</event>
<event>
 4   0  0.4892667E-02  0.9118800E+02  0.7818609E-02  0.1379984E+01
      -11   -1    0    0    0    0  0.00000000000E+00  0.00000000000E+00  0.35740347158E-01  0.35744000000E-01  0.51099999109E-03 0. -1.
       11   -1    0    0    0    0 -0.00000000000E+00 -0.00000000000E+00 -0.35740347158E-01  0.35744000000E-01  0.51099999109E-03 0.  1.
       22    1    1    2    0    0  0.14132398797E-01  0.58767969338E-02  0.32293531038E-01  0.35737005818E-01  0.00000000000E+00 0. -1.
  9000001    1    1    2    0    0 -0.14132398797E-01 -0.58767969338E-02 -0.32293531038E-01  0.35750994182E-01  0.10000000475E-02 0.  1.
</event>
<event>
 4   0  0.4892667E-02  0.9118800E+02  0.7818609E-02  0.1379984E+01
      -11   -1    0    0    0    0  0.00000000000E+00  0.00000000000E+00  0.35740347158E-01  0.35744000000E-01  0.51099999109E-03 0. -1.
       11   -1    0    0    0    0 -0.00000000000E+00 -0.00000000000E+00 -0.35740347158E-01  0.35744000000E-01  0.51099999109E-03 0.  1.
       22    1    1    2    0    0  0.13583866380E-01 -0.25773340623E-01  0.20696547349E-01  0.35737005818E-01  0.00000000000E+00 0. -1.
  9000001    1    1    2    0    0 -0.13583866380E-01  0.25773340623E-01 -0.20696547349E-01  0.35750994182E-01  0.10000000475E-02 0.  1.
</event>
<event>
 4   0  0.4892667E-02  0.9118800E+02  0.7818609E-02  0.1379984E+01
      -11   -1    0    0    0    0  0.00000000000E+00  0.00000000000E+00  0.35740347158E-01  0.35744000000E-01  0.51099999109E-03 0. -1.
       11   -1    0    0    0    0 -0.00000000000E+00 -0.00000000000E+00 -0.35740347158E-01  0.35744000000E-01  0.51099999109E-03 0.  1.
       22    1    1    2    0    0  0.17066206006E-01  0.66638979262E-02  0.30683393910E-01  0.35737005818E-01  0.00000000000E+00 0. -1.
  9000001    1    1    2    0    0 -0.17066206006E-01 -0.66638979262E-02 -0.30683393910E-01  0.35750994182E-01  0.10000000475E-02 0.  1.
</event>
<event>
 4   0  0.4892667E-02  0.9118800E+02  0.7818609E-02  0.1379984E+01
      -11   -1    0    0    0    0  0.00000000000E+00  0.00000000000E+00  0.35740347158E-01  0.35744000000E-01  0.51099999109E-03 0.  1.
       11   -1    0    0    0    0 -0.00000000000E+00 -0.00000000000E+00 -0.35740347158E-01  0.35744000000E-01  0.51099999109E-03 0. -1.
       22    1    1    2    0    0 -0.25927624892E-02  0.50382991136E-02 -0.35284936015E-01  0.35737005818E-01  0.00000000000E+00 0. -1.
  9000001    1    1    2    0    0  0.25927624892E-02 -0.50382991136E-02  0.35284936015E-01  0.35750994182E-01  0.10000000475E-02 0.  1.
</event>
<event>
 4   0  0.4892667E-02  0.9118800E+02  0.7818609E-02  0.1379984E+01
      -11   -1    0    0    0    0  0.00000000000E+00  0.00000000000E+00  0.35740347158E-01  0.35744000000E-01  0.51099999109E-03 0.  1.
       11   -1    0    0    0    0 -0.00000000000E+00 -0.00000000000E+00 -0.35740347158E-01  0.35744000000E-01  0.51099999109E-03 0. -1.
       22    1    1    2    0    0  0.29329837880E-01  0.14643466210E-01  0.14228952603E-01  0.35737005818E-01  0.00000000000E+00 0.  1.
  9000001    1    1    2    0    0 -0.29329837880E-01 -0.14643466210E-01 -0.14228952603E-01  0.35750994182E-01  0.10000000475E-02 0. -1.
</event>
<event>
 4   0  0.4892667E-02  0.9118800E+02  0.7818609E-02  0.1379984E+01
      -11   -1    0    0    0    0  0.00000000000E+00  0.00000000000E+00  0.35740347158E-01  0.35744000000E-01  0.51099999109E-03 0. -1.
       11   -1    0    0    0    0 -0.00000000000E+00 -0.00000000000E+00 -0.35740347158E-01  0.35744000000E-01  0.51099999109E-03 0.  1.
       22    1    1    2    0    0 -0.14936198952E-01 -0.79142322793E-02  0.31486639598E-01  0.35737005818E-01  0.00000000000E+00 0. -1.
  9000001    1    1    2    0    0  0.14936198952E-01  0.79142322793E-02 -0.31486639598E-01  0.35750994182E-01  0.10000000475E-02 0.  1.
</event>
<event>
 4   0  0.4892667E-02  0.9118800E+02  0.7818609E-02  0.1379984E+01
      -11   -1    0    0    0    0  0.00000000000E+00  0.00000000000E+00  0.35740347158E-01  0.35744000000E-01  0.51099999109E-03 0.  1.
       11   -1    0    0    0    0 -0.00000000000E+00 -0.00000000000E+00 -0.35740347158E-01  0.35744000000E-01  0.51099999109E-03 0. -1.
       22    1    1    2    0    0  0.14294295627E-01 -0.14668607190E-02 -0.32720865163E-01  0.35737005818E-01  0.00000000000E+00 0. -1.
  9000001    1    1    2    0    0 -0.14294295627E-01  0.14668607190E-02  0.32720865163E-01  0.35750994182E-01  0.10000000475E-02 0.  1.
</event>
<event>
 4   0  0.4892667E-02  0.9118800E+02  0.7818609E-02  0.1379984E+01
      -11   -1    0    0    0    0  0.00000000000E+00  0.00000000000E+00  0.35740347158E-01  0.35744000000E-01  0.51099999109E-03 0.  1.
       11   -1    0    0    0    0 -0.00000000000E+00 -0.00000000000E+00 -0.35740347158E-01  0.35744000000E-01  0.51099999109E-03 0. -1.
       22    1    1    2    0    0  0.34667098581E-01 -0.83259509335E-02  0.24503881171E-02  0.35737005818E-01  0.00000000000E+00 0. -1.
  9000001    1    1    2    0    0 -0.34667098581E-01  0.83259509335E-02 -0.24503881171E-02  0.35750994182E-01  0.10000000475E-02 0.  1.
</event>
<event>
 4   0  0.4892667E-02  0.9118800E+02  0.7818609E-02  0.1379984E+01
      -11   -1    0    0    0    0  0.00000000000E+00  0.00000000000E+00  0.35740347158E-01  0.35744000000E-01  0.51099999109E-03 0.  1.
       11   -1    0    0    0    0 -0.00000000000E+00 -0.00000000000E+00 -0.35740347158E-01  0.35744000000E-01  0.51099999109E-03 0. -1.
       22    1    1    2    0    0  0.19945902639E-01 -0.26294462306E-01 -0.13707509066E-01  0.35737005818E-01  0.00000000000E+00 0.  1.
  9000001    1    1    2    0    0 -0.19945902639E-01  0.26294462306E-01  0.13707509066E-01  0.35750994182E-01  0.10000000475E-02 0. -1.
</event>
<event>
 4   0  0.4892667E-02  0.9118800E+02  0.7818609E-02  0.1379984E+01
      -11   -1    0    0    0    0  0.00000000000E+00  0.00000000000E+00  0.35740347158E-01  0.35744000000E-01  0.51099999109E-03 0. -1.
       11   -1    0    0    0    0 -0.00000000000E+00 -0.00000000000E+00 -0.35740347158E-01  0.35744000000E-01  0.51099999109E-03 0.  1.
       22    1    1    2    0    0 -0.18214866908E-01 -0.63064190869E-02  0.30092877674E-01  0.35737005818E-01  0.00000000000E+00 0. -1.
  9000001    1    1    2    0    0  0.18214866908E-01  0.63064190869E-02 -0.30092877674E-01  0.35750994182E-01  0.10000000475E-02 0.  1.
</event>
<event>
 4   0  0.4892667E-02  0.9118800E+02  0.7818609E-02  0.1379984E+01
      -11   -1    0    0    0    0  0.00000000000E+00  0.00000000000E+00  0.35740347158E-01  0.35744000000E-01  0.51099999109E-03 0.  1.
       11   -1    0    0    0    0 -0.00000000000E+00 -0.00000000000E+00 -0.35740347158E-01  0.35744000000E-01  0.51099999109E-03 0. -1.
       22    1    1    2    0    0  0.83001258962E-02  0.31639521854E-01  0.14393823392E-01  0.35737005818E-01  0.00000000000E+00 0.  1.
  9000001    1    1    2    0    0 -0.83001258962E-02 -0.31639521854E-01 -0.14393823392E-01  0.35750994182E-01  0.10000000475E-02 0. -1.
</event>
<event>
 4   0  0.4892667E-02  0.9118800E+02  0.7818609E-02  0.1379984E+01
      -11   -1    0    0    0    0  0.00000000000E+00  0.00000000000E+00  0.35740347158E-01  0.35744000000E-01  0.51099999109E-03 0.  1.
       11   -1    0    0    0    0 -0.00000000000E+00 -0.00000000000E+00 -0.35740347158E-01  0.35744000000E-01  0.51099999109E-03 0. -1.
       22    1    1    2    0    0 -0.11677269181E-02 -0.39343318939E-02 -0.35500577900E-01  0.35737005818E-01  0.00000000000E+00 0. -1.
  9000001    1    1    2    0    0  0.11677269181E-02  0.39343318939E-02  0.35500577900E-01  0.35750994182E-01  0.10000000475E-02 0.  1.
</event>
<event>
 4   0  0.4892667E-02  0.9118800E+02  0.7818609E-02  0.1379984E+01
      -11   -1    0    0    0    0  0.00000000000E+00  0.00000000000E+00  0.35740347158E-01  0.35744000000E-01  0.51099999109E-03 0. -1.
       11   -1    0    0    0    0 -0.00000000000E+00 -0.00000000000E+00 -0.35740347158E-01  0.35744000000E-01  0.51099999109E-03 0.  1.
       22    1    1    2    0    0 -0.77857353388E-02  0.69896629038E-02  0.34171048017E-01  0.35737005818E-01  0.00000000000E+00 0. -1.
  9000001    1    1    2    0    0  0.77857353388E-02 -0.69896629038E-02 -0.34171048017E-01  0.35750994182E-01  0.10000000475E-02 0.  1.
</event>
<event>
 4   0  0.4892667E-02  0.9118800E+02  0.7818609E-02  0.1379984E+01
      -11   -1    0    0    0    0  0.00000000000E+00  0.00000000000E+00  0.35740347158E-01  0.35744000000E-01  0.51099999109E-03 0. -1.
       11   -1    0    0    0    0 -0.00000000000E+00 -0.00000000000E+00 -0.35740347158E-01  0.35744000000E-01  0.51099999109E-03 0.  1.
       22    1    1    2    0    0 -0.30857700423E-02  0.97697989533E-03 -0.35590126698E-01  0.35737005818E-01  0.00000000000E+00 0.  1.
  9000001    1    1    2    0    0  0.30857700423E-02 -0.97697989533E-03  0.35590126698E-01  0.35750994182E-01  0.10000000475E-02 0. -1.
</event>
<event>
 4   0  0.4892667E-02  0.9118800E+02  0.7818609E-02  0.1379984E+01
      -11   -1    0    0    0    0  0.00000000000E+00  0.00000000000E+00  0.35740347158E-01  0.35744000000E-01  0.51099999109E-03 0. -1.
       11   -1    0    0    0    0 -0.00000000000E+00 -0.00000000000E+00 -0.35740347158E-01  0.35744000000E-01  0.51099999109E-03 0.  1.
       22    1    1    2    0    0  0.49155413016E-03  0.10038250987E-01  0.34294685835E-01  0.35737005818E-01  0.00000000000E+00 0. -1.
  9000001    1    1    2    0    0 -0.49155413016E-03 -0.10038250987E-01 -0.34294685835E-01  0.35750994182E-01  0.10000000475E-02 0.  1.
</event>
<event>
 4   0  0.4892667E-02  0.9118800E+02  0.7818609E-02  0.1379984E+01
      -11   -1    0    0    0    0  0.00000000000E+00  0.00000000000E+00  0.35740347158E-01  0.35744000000E-01  0.51099999109E-03 0.  1.
       11   -1    0    0    0    0 -0.00000000000E+00 -0.00000000000E+00 -0.35740347158E-01  0.35744000000E-01  0.51099999109E-03 0. -1.
       22    1    1    2    0    0  0.17733520689E-01  0.30877475894E-01 -0.30392945294E-02  0.35737005818E-01  0.00000000000E+00 0.  1.
  9000001    1    1    2    0    0 -0.17733520689E-01 -0.30877475894E-01  0.30392945294E-02  0.35750994182E-01  0.10000000475E-02 0. -1.
</event>
<event>
 4   0  0.4892667E-02  0.9118800E+02  0.7818609E-02  0.1379984E+01
      -11   -1    0    0    0    0  0.00000000000E+00  0.00000000000E+00  0.35740347158E-01  0.35744000000E-01  0.51099999109E-03 0. -1.
       11   -1    0    0    0    0 -0.00000000000E+00 -0.00000000000E+00 -0.35740347158E-01  0.35744000000E-01  0.51099999109E-03 0.  1.
       22    1    1    2    0    0  0.25518397550E-02  0.16616088259E-01  0.31536127056E-01  0.35737005818E-01  0.00000000000E+00 0. -1.
  9000001    1    1    2    0    0 -0.25518397550E-02 -0.16616088259E-01 -0.31536127056E-01  0.35750994182E-01  0.10000000475E-02 0.  1.
</event>
<event>
 4   0  0.4892667E-02  0.9118800E+02  0.7818609E-02  0.1379984E+01
      -11   -1    0    0    0    0  0.00000000000E+00  0.00000000000E+00  0.35740347158E-01  0.35744000000E-01  0.51099999109E-03 0. -1.
       11   -1    0    0    0    0 -0.00000000000E+00 -0.00000000000E+00 -0.35740347158E-01  0.35744000000E-01  0.51099999109E-03 0.  1.
       22    1    1    2    0    0  0.64759971953E-02  0.71356768990E-02  0.34413328238E-01  0.35737005818E-01  0.00000000000E+00 0. -1.
  9000001    1    1    2    0    0 -0.64759971953E-02 -0.71356768990E-02 -0.34413328238E-01  0.35750994182E-01  0.10000000475E-02 0.  1.
</event>
<event>
 4   0  0.4892667E-02  0.9118800E+02  0.7818609E-02  0.1379984E+01
      -11   -1    0    0    0    0  0.00000000000E+00  0.00000000000E+00  0.35740347158E-01  0.35744000000E-01  0.51099999109E-03 0.  1.
       11   -1    0    0    0    0 -0.00000000000E+00 -0.00000000000E+00 -0.35740347158E-01  0.35744000000E-01  0.51099999109E-03 0. -1.
       22    1    1    2    0    0 -0.20984380643E-02 -0.37472524202E-02  0.35477996587E-01  0.35737005818E-01  0.00000000000E+00 0.  1.
  9000001    1    1    2    0    0  0.20984380643E-02  0.37472524202E-02 -0.35477996587E-01  0.35750994182E-01  0.10000000475E-02 0. -1.
</event>
<event>
 4   0  0.4892667E-02  0.9118800E+02  0.7818609E-02  0.1379984E+01
      -11   -1    0    0    0    0  0.00000000000E+00  0.00000000000E+00  0.35740347158E-01  0.35744000000E-01  0.51099999109E-03 0. -1.
       11   -1    0    0    0    0 -0.00000000000E+00 -0.00000000000E+00 -0.35740347158E-01  0.35744000000E-01  0.51099999109E-03 0.  1.
       22    1    1    2    0    0  0.90669084910E-02 -0.58613483401E-02 -0.34067130066E-01  0.35737005818E-01  0.00000000000E+00 0.  1.
  9000001    1    1    2    0    0 -0.90669084910E-02  0.58613483401E-02  0.34067130066E-01  0.35750994182E-01  0.10000000475E-02 0. -1.
</event>
<event>
 4   0  0.4892667E-02  0.9118800E+02  0.7818609E-02  0.1379984E+01
      -11   -1    0    0    0    0  0.00000000000E+00  0.00000000000E+00  0.35740347158E-01  0.35744000000E-01  0.51099999109E-03 0.  1.
       11   -1    0    0    0    0 -0.00000000000E+00 -0.00000000000E+00 -0.35740347158E-01  0.35744000000E-01  0.51099999109E-03 0. -1.
       22    1    1    2    0    0  0.50599521083E-02  0.19062700228E-01  0.29801743733E-01  0.35737005818E-01  0.00000000000E+00 0.  1.
  9000001    1    1    2    0    0 -0.50599521083E-02 -0.19062700228E-01 -0.29801743733E-01  0.35750994182E-01  0.10000000475E-02 0. -1.
</event>
<event>
 4   0  0.4892667E-02  0.9118800E+02  0.7818609E-02  0.1379984E+01
      -11   -1    0    0    0    0  0.00000000000E+00  0.00000000000E+00  0.35740347158E-01  0.35744000000E-01  0.51099999109E-03 0.  1.
       11   -1    0    0    0    0 -0.00000000000E+00 -0.00000000000E+00 -0.35740347158E-01  0.35744000000E-01  0.51099999109E-03 0. -1.
       22    1    1    2    0    0 -0.50253246520E-02 -0.79334956380E-02  0.34480999753E-01  0.35737005818E-01  0.00000000000E+00 0.  1.
  9000001    1    1    2    0    0  0.50253246520E-02  0.79334956380E-02 -0.34480999753E-01  0.35750994182E-01  0.10000000475E-02 0. -1.
</event>
<event>
 4   0  0.4892667E-02  0.9118800E+02  0.7818609E-02  0.1379984E+01
      -11   -1    0    0    0    0  0.00000000000E+00  0.00000000000E+00  0.35740347158E-01  0.35744000000E-01  0.51099999109E-03 0. -1.
       11   -1    0    0    0    0 -0.00000000000E+00 -0.00000000000E+00 -0.35740347158E-01  0.35744000000E-01  0.51099999109E-03 0.  1.
       22    1    1    2    0    0  0.49717935299E-02  0.31925940689E-02 -0.35245172678E-01  0.35737005818E-01  0.00000000000E+00 0.  1.
  9000001    1    1    2    0    0 -0.49717935299E-02 -0.31925940689E-02  0.35245172678E-01  0.35750994182E-01  0.10000000475E-02 0. -1.
</event>
<event>
 4   0  0.4892667E-02  0.9118800E+02  0.7818609E-02  0.1379984E+01
      -11   -1    0    0    0    0  0.00000000000E+00  0.00000000000E+00  0.35740347158E-01  0.35744000000E-01  0.51099999109E-03 0.  1.
       11   -1    0    0    0    0 -0.00000000000E+00 -0.00000000000E+00 -0.35740347158E-01  0.35744000000E-01  0.51099999109E-03 0. -1.
       22    1    1    2    0    0  0.43050329187E-02  0.28218623003E-01  0.21501385821E-01  0.35737005818E-01  0.00000000000E+00 0.  1.
  9000001    1    1    2    0    0 -0.43050329187E-02 -0.28218623003E-01 -0.21501385821E-01  0.35750994182E-01  0.10000000475E-02 0. -1.
</event>
<event>
 4   0  0.4892667E-02  0.9118800E+02  0.7818609E-02  0.1379984E+01
      -11   -1    0    0    0    0  0.00000000000E+00  0.00000000000E+00  0.35740347158E-01  0.35744000000E-01  0.51099999109E-03 0.  1.
       11   -1    0    0    0    0 -0.00000000000E+00 -0.00000000000E+00 -0.35740347158E-01  0.35744000000E-01  0.51099999109E-03 0. -1.
       22    1    1    2    0    0 -0.42998961854E-02 -0.11613424795E-01 -0.33522721283E-01  0.35737005818E-01  0.00000000000E+00 0. -1.
  9000001    1    1    2    0    0  0.42998961854E-02  0.11613424795E-01  0.33522721283E-01  0.35750994182E-01  0.10000000475E-02 0.  1.
</event>
<event>
 4   0  0.4892667E-02  0.9118800E+02  0.7818609E-02  0.1379984E+01
      -11   -1    0    0    0    0  0.00000000000E+00  0.00000000000E+00  0.35740347158E-01  0.35744000000E-01  0.51099999109E-03 0. -1.
       11   -1    0    0    0    0 -0.00000000000E+00 -0.00000000000E+00 -0.35740347158E-01  0.35744000000E-01  0.51099999109E-03 0.  1.
       22    1    1    2    0    0 -0.11573987748E-01  0.30128855980E-02 -0.33676385092E-01  0.35737005818E-01  0.00000000000E+00 0.  1.
  9000001    1    1    2    0    0  0.11573987748E-01 -0.30128855980E-02  0.33676385092E-01  0.35750994182E-01  0.10000000475E-02 0. -1.
</event>
<event>
 4   0  0.4892667E-02  0.9118800E+02  0.7818609E-02  0.1379984E+01
      -11   -1    0    0    0    0  0.00000000000E+00  0.00000000000E+00  0.35740347158E-01  0.35744000000E-01  0.51099999109E-03 0. -1.
       11   -1    0    0    0    0 -0.00000000000E+00 -0.00000000000E+00 -0.35740347158E-01  0.35744000000E-01  0.51099999109E-03 0.  1.
       22    1    1    2    0    0  0.29326124928E-02 -0.26292495424E-01 -0.24025778930E-01  0.35737005818E-01  0.00000000000E+00 0.  1.
  9000001    1    1    2    0    0 -0.29326124928E-02  0.26292495424E-01  0.24025778930E-01  0.35750994182E-01  0.10000000475E-02 0. -1.
</event>
<event>
 4   0  0.4892667E-02  0.9118800E+02  0.7818609E-02  0.1379984E+01
      -11   -1    0    0    0    0  0.00000000000E+00  0.00000000000E+00  0.35740347158E-01  0.35744000000E-01  0.51099999109E-03 0.  1.
       11   -1    0    0    0    0 -0.00000000000E+00 -0.00000000000E+00 -0.35740347158E-01  0.35744000000E-01  0.51099999109E-03 0. -1.
       22    1    1    2    0    0  0.39516014021E-02  0.27878637563E-02  0.35408279355E-01  0.35737005818E-01  0.00000000000E+00 0.  1.
  9000001    1    1    2    0    0 -0.39516014021E-02 -0.27878637563E-02 -0.35408279355E-01  0.35750994182E-01  0.10000000475E-02 0. -1.
</event>
<event>
 4   0  0.4892667E-02  0.9118800E+02  0.7818609E-02  0.1379984E+01
      -11   -1    0    0    0    0  0.00000000000E+00  0.00000000000E+00  0.35740347158E-01  0.35744000000E-01  0.51099999109E-03 0.  1.
       11   -1    0    0    0    0 -0.00000000000E+00 -0.00000000000E+00 -0.35740347158E-01  0.35744000000E-01  0.51099999109E-03 0. -1.
       22    1    1    2    0    0 -0.42092935496E-03 -0.34062751701E-02 -0.35571810367E-01  0.35737005818E-01  0.00000000000E+00 0. -1.
  9000001    1    1    2    0    0  0.42092935496E-03  0.34062751701E-02  0.35571810367E-01  0.35750994182E-01  0.10000000475E-02 0.  1.
</event>
<event>
 4   0  0.4892667E-02  0.9118800E+02  0.7818609E-02  0.1379984E+01
      -11   -1    0    0    0    0  0.00000000000E+00  0.00000000000E+00  0.35740347158E-01  0.35744000000E-01  0.51099999109E-03 0.  1.
       11   -1    0    0    0    0 -0.00000000000E+00 -0.00000000000E+00 -0.35740347158E-01  0.35744000000E-01  0.51099999109E-03 0. -1.
       22    1    1    2    0    0 -0.18720191619E-01 -0.49737617147E-02  0.30032477504E-01  0.35737005818E-01  0.00000000000E+00 0.  1.
  9000001    1    1    2    0    0  0.18720191619E-01  0.49737617147E-02 -0.30032477504E-01  0.35750994182E-01  0.10000000475E-02 0. -1.
</event>
<event>
 4   0  0.4892667E-02  0.9118800E+02  0.7818609E-02  0.1379984E+01
      -11   -1    0    0    0    0  0.00000000000E+00  0.00000000000E+00  0.35740347158E-01  0.35744000000E-01  0.51099999109E-03 0. -1.
       11   -1    0    0    0    0 -0.00000000000E+00 -0.00000000000E+00 -0.35740347158E-01  0.35744000000E-01  0.51099999109E-03 0.  1.
       22    1    1    2    0    0  0.53292271037E-02  0.11828229995E-01 -0.33299037501E-01  0.35737005818E-01  0.00000000000E+00 0.  1.
  9000001    1    1    2    0    0 -0.53292271037E-02 -0.11828229995E-01  0.33299037501E-01  0.35750994182E-01  0.10000000475E-02 0. -1.
</event>
<event>
 4   0  0.4892667E-02  0.9118800E+02  0.7818609E-02  0.1379984E+01
      -11   -1    0    0    0    0  0.00000000000E+00  0.00000000000E+00  0.35740347158E-01  0.35744000000E-01  0.51099999109E-03 0.  1.
       11   -1    0    0    0    0 -0.00000000000E+00 -0.00000000000E+00 -0.35740347158E-01  0.35744000000E-01  0.51099999109E-03 0. -1.
       22    1    1    2    0    0  0.12448230253E-02 -0.45726141329E-02 -0.35421394672E-01  0.35737005818E-01  0.00000000000E+00 0. -1.
  9000001    1    1    2    0    0 -0.12448230253E-02  0.45726141329E-02  0.35421394672E-01  0.35750994182E-01  0.10000000475E-02 0.  1.
</event>
<event>
 4   0  0.4892667E-02  0.9118800E+02  0.7818609E-02  0.1379984E+01
      -11   -1    0    0    0    0  0.00000000000E+00  0.00000000000E+00  0.35740347158E-01  0.35744000000E-01  0.51099999109E-03 0. -1.
       11   -1    0    0    0    0 -0.00000000000E+00 -0.00000000000E+00 -0.35740347158E-01  0.35744000000E-01  0.51099999109E-03 0.  1.
       22    1    1    2    0    0  0.11170303711E-01 -0.87727821273E-03 -0.33935059788E-01  0.35737005818E-01  0.00000000000E+00 0.  1.
  9000001    1    1    2    0    0 -0.11170303711E-01  0.87727821273E-03  0.33935059788E-01  0.35750994182E-01  0.10000000475E-02 0. -1.
</event>
<event>
 4   0  0.4892667E-02  0.9118800E+02  0.7818609E-02  0.1379984E+01
      -11   -1    0    0    0    0  0.00000000000E+00  0.00000000000E+00  0.35740347158E-01  0.35744000000E-01  0.51099999109E-03 0. -1.
       11   -1    0    0    0    0 -0.00000000000E+00 -0.00000000000E+00 -0.35740347158E-01  0.35744000000E-01  0.51099999109E-03 0.  1.
       22    1    1    2    0    0 -0.30879481525E-01 -0.10112895185E-01  0.14876846325E-01  0.35737005818E-01  0.00000000000E+00 0. -1.
  9000001    1    1    2    0    0  0.30879481525E-01  0.10112895185E-01 -0.14876846325E-01  0.35750994182E-01  0.10000000475E-02 0.  1.
</event>
<event>
 4   0  0.4892667E-02  0.9118800E+02  0.7818609E-02  0.1379984E+01
      -11   -1    0    0    0    0  0.00000000000E+00  0.00000000000E+00  0.35740347158E-01  0.35744000000E-01  0.51099999109E-03 0. -1.
       11   -1    0    0    0    0 -0.00000000000E+00 -0.00000000000E+00 -0.35740347158E-01  0.35744000000E-01  0.51099999109E-03 0.  1.
       22    1    1    2    0    0 -0.76829401370E-02  0.59318805090E-02 -0.34393586747E-01  0.35737005818E-01  0.00000000000E+00 0.  1.
  9000001    1    1    2    0    0  0.76829401370E-02 -0.59318805090E-02  0.34393586747E-01  0.35750994182E-01  0.10000000475E-02 0. -1.
</event>
<event>
 4   0  0.4892667E-02  0.9118800E+02  0.7818609E-02  0.1379984E+01
      -11   -1    0    0    0    0  0.00000000000E+00  0.00000000000E+00  0.35740347158E-01  0.35744000000E-01  0.51099999109E-03 0. -1.
       11   -1    0    0    0    0 -0.00000000000E+00 -0.00000000000E+00 -0.35740347158E-01  0.35744000000E-01  0.51099999109E-03 0.  1.
       22    1    1    2    0    0  0.59432184987E-03  0.23582334954E-01  0.26844996639E-01  0.35737005818E-01  0.00000000000E+00 0. -1.
  9000001    1    1    2    0    0 -0.59432184987E-03 -0.23582334954E-01 -0.26844996639E-01  0.35750994182E-01  0.10000000475E-02 0.  1.
</event>
<event>
 4   0  0.4892667E-02  0.9118800E+02  0.7818609E-02  0.1379984E+01
      -11   -1    0    0    0    0  0.00000000000E+00  0.00000000000E+00  0.35740347158E-01  0.35744000000E-01  0.51099999109E-03 0.  1.
       11   -1    0    0    0    0 -0.00000000000E+00 -0.00000000000E+00 -0.35740347158E-01  0.35744000000E-01  0.51099999109E-03 0. -1.
       22    1    1    2    0    0 -0.38317048822E-02  0.24975312160E-02 -0.35443108786E-01  0.35737005818E-01  0.00000000000E+00 0. -1.
  9000001    1    1    2    0    0  0.38317048822E-02 -0.24975312160E-02  0.35443108786E-01  0.35750994182E-01  0.10000000475E-02 0.  1.
</event>
<event>
 4   0  0.4892667E-02  0.9118800E+02  0.7818609E-02  0.1379984E+01
      -11   -1    0    0    0    0  0.00000000000E+00  0.00000000000E+00  0.35740347158E-01  0.35744000000E-01  0.51099999109E-03 0.  1.
       11   -1    0    0    0    0 -0.00000000000E+00 -0.00000000000E+00 -0.35740347158E-01  0.35744000000E-01  0.51099999109E-03 0. -1.
       22    1    1    2    0    0 -0.29023472641E-02  0.97546636437E-03 -0.35605595496E-01  0.35737005818E-01  0.00000000000E+00 0. -1.
  9000001    1    1    2    0    0  0.29023472641E-02 -0.97546636437E-03  0.35605595496E-01  0.35750994182E-01  0.10000000475E-02 0.  1.
</event>
<event>
 4   0  0.4892667E-02  0.9118800E+02  0.7818609E-02  0.1379984E+01
      -11   -1    0    0    0    0  0.00000000000E+00  0.00000000000E+00  0.35740347158E-01  0.35744000000E-01  0.51099999109E-03 0.  1.
       11   -1    0    0    0    0 -0.00000000000E+00 -0.00000000000E+00 -0.35740347158E-01  0.35744000000E-01  0.51099999109E-03 0. -1.
       22    1    1    2    0    0  0.48958694854E-03  0.67486615448E-02  0.35090589292E-01  0.35737005818E-01  0.00000000000E+00 0.  1.
  9000001    1    1    2    0    0 -0.48958694854E-03 -0.67486615448E-02 -0.35090589292E-01  0.35750994182E-01  0.10000000475E-02 0. -1.
</event>
<event>
 4   0  0.4892667E-02  0.9118800E+02  0.7818609E-02  0.1379984E+01
      -11   -1    0    0    0    0  0.00000000000E+00  0.00000000000E+00  0.35740347158E-01  0.35744000000E-01  0.51099999109E-03 0.  1.
       11   -1    0    0    0    0 -0.00000000000E+00 -0.00000000000E+00 -0.35740347158E-01  0.35744000000E-01  0.51099999109E-03 0. -1.
       22    1    1    2    0    0  0.21437743774E-01  0.16544701503E-01  0.23320153922E-01  0.35737005818E-01  0.00000000000E+00 0. -1.
  9000001    1    1    2    0    0 -0.21437743774E-01 -0.16544701503E-01 -0.23320153922E-01  0.35750994182E-01  0.10000000475E-02 0.  1.
</event>
<event>
 4   0  0.4892667E-02  0.9118800E+02  0.7818609E-02  0.1379984E+01
      -11   -1    0    0    0    0  0.00000000000E+00  0.00000000000E+00  0.35740347158E-01  0.35744000000E-01  0.51099999109E-03 0.  1.
       11   -1    0    0    0    0 -0.00000000000E+00 -0.00000000000E+00 -0.35740347158E-01  0.35744000000E-01  0.51099999109E-03 0. -1.
       22    1    1    2    0    0  0.27739773725E-01  0.16580842548E-01 -0.15254972926E-01  0.35737005818E-01  0.00000000000E+00 0. -1.
  9000001    1    1    2    0    0 -0.27739773725E-01 -0.16580842548E-01  0.15254972926E-01  0.35750994182E-01  0.10000000475E-02 0.  1.
</event>
<event>
 4   0  0.4892667E-02  0.9118800E+02  0.7818609E-02  0.1379984E+01
      -11   -1    0    0    0    0  0.00000000000E+00  0.00000000000E+00  0.35740347158E-01  0.35744000000E-01  0.51099999109E-03 0. -1.
       11   -1    0    0    0    0 -0.00000000000E+00 -0.00000000000E+00 -0.35740347158E-01  0.35744000000E-01  0.51099999109E-03 0.  1.
       22    1    1    2    0    0 -0.32771888124E-01 -0.11647016987E-01  0.82148602511E-02  0.35737005818E-01  0.00000000000E+00 0. -1.
  9000001    1    1    2    0    0  0.32771888124E-01  0.11647016987E-01 -0.82148602511E-02  0.35750994182E-01  0.10000000475E-02 0.  1.
</event>
<event>
 4   0  0.4892667E-02  0.9118800E+02  0.7818609E-02  0.1379984E+01
      -11   -1    0    0    0    0  0.00000000000E+00  0.00000000000E+00  0.35740347158E-01  0.35744000000E-01  0.51099999109E-03 0.  1.
       11   -1    0    0    0    0 -0.00000000000E+00 -0.00000000000E+00 -0.35740347158E-01  0.35744000000E-01  0.51099999109E-03 0. -1.
       22    1    1    2    0    0  0.93757034718E-03  0.71887914717E-02 -0.34993939817E-01  0.35737005818E-01  0.00000000000E+00 0. -1.
  9000001    1    1    2    0    0 -0.93757034718E-03 -0.71887914717E-02  0.34993939817E-01  0.35750994182E-01  0.10000000475E-02 0.  1.
</event>
<event>
 4   0  0.4892667E-02  0.9118800E+02  0.7818609E-02  0.1379984E+01
      -11   -1    0    0    0    0  0.00000000000E+00  0.00000000000E+00  0.35740347158E-01  0.35744000000E-01  0.51099999109E-03 0.  1.
       11   -1    0    0    0    0 -0.00000000000E+00 -0.00000000000E+00 -0.35740347158E-01  0.35744000000E-01  0.51099999109E-03 0. -1.
       22    1    1    2    0    0  0.17708984856E-01  0.64397229706E-02 -0.30365365275E-01  0.35737005818E-01  0.00000000000E+00 0. -1.
  9000001    1    1    2    0    0 -0.17708984856E-01 -0.64397229706E-02  0.30365365275E-01  0.35750994182E-01  0.10000000475E-02 0.  1.
</event>
<event>
 4   0  0.4892667E-02  0.9118800E+02  0.7818609E-02  0.1379984E+01
      -11   -1    0    0    0    0  0.00000000000E+00  0.00000000000E+00  0.35740347158E-01  0.35744000000E-01  0.51099999109E-03 0.  1.
       11   -1    0    0    0    0 -0.00000000000E+00 -0.00000000000E+00 -0.35740347158E-01  0.35744000000E-01  0.51099999109E-03 0. -1.
       22    1    1    2    0    0 -0.82327986185E-02  0.13275863736E-02  0.34750426274E-01  0.35737005818E-01  0.00000000000E+00 0.  1.
  9000001    1    1    2    0    0  0.82327986185E-02 -0.13275863736E-02 -0.34750426274E-01  0.35750994182E-01  0.10000000475E-02 0. -1.
</event>
<event>
 4   0  0.4892667E-02  0.9118800E+02  0.7818609E-02  0.1379984E+01
      -11   -1    0    0    0    0  0.00000000000E+00  0.00000000000E+00  0.35740347158E-01  0.35744000000E-01  0.51099999109E-03 0. -1.
       11   -1    0    0    0    0 -0.00000000000E+00 -0.00000000000E+00 -0.35740347158E-01  0.35744000000E-01  0.51099999109E-03 0.  1.
       22    1    1    2    0    0  0.15449330846E-01  0.24464833470E-02  0.32132016440E-01  0.35737005818E-01  0.00000000000E+00 0. -1.
  9000001    1    1    2    0    0 -0.15449330846E-01 -0.24464833470E-02 -0.32132016440E-01  0.35750994182E-01  0.10000000475E-02 0.  1.
</event>
<event>
 4   0  0.4892667E-02  0.9118800E+02  0.7818609E-02  0.1379984E+01
      -11   -1    0    0    0    0  0.00000000000E+00  0.00000000000E+00  0.35740347158E-01  0.35744000000E-01  0.51099999109E-03 0. -1.
       11   -1    0    0    0    0 -0.00000000000E+00 -0.00000000000E+00 -0.35740347158E-01  0.35744000000E-01  0.51099999109E-03 0.  1.
       22    1    1    2    0    0 -0.29946667475E-02 -0.30597871944E-03 -0.35609997655E-01  0.35737005818E-01  0.00000000000E+00 0.  1.
  9000001    1    1    2    0    0  0.29946667475E-02  0.30597871944E-03  0.35609997655E-01  0.35750994182E-01  0.10000000475E-02 0. -1.
</event>
<event>
 4   0  0.4892667E-02  0.9118800E+02  0.7818609E-02  0.1379984E+01
      -11   -1    0    0    0    0  0.00000000000E+00  0.00000000000E+00  0.35740347158E-01  0.35744000000E-01  0.51099999109E-03 0. -1.
       11   -1    0    0    0    0 -0.00000000000E+00 -0.00000000000E+00 -0.35740347158E-01  0.35744000000E-01  0.51099999109E-03 0.  1.
       22    1    1    2    0    0  0.27225309550E-01  0.22901145693E-01 -0.33843213081E-02  0.35737005818E-01  0.00000000000E+00 0. -1.
  9000001    1    1    2    0    0 -0.27225309550E-01 -0.22901145693E-01  0.33843213081E-02  0.35750994182E-01  0.10000000475E-02 0.  1.
</event>
<event>
 4   0  0.4892667E-02  0.9118800E+02  0.7818609E-02  0.1379984E+01
      -11   -1    0    0    0    0  0.00000000000E+00  0.00000000000E+00  0.35740347158E-01  0.35744000000E-01  0.51099999109E-03 0. -1.
       11   -1    0    0    0    0 -0.00000000000E+00 -0.00000000000E+00 -0.35740347158E-01  0.35744000000E-01  0.51099999109E-03 0.  1.
       22    1    1    2    0    0  0.18824488120E-02  0.26215390939E-02 -0.35590975038E-01  0.35737005818E-01  0.00000000000E+00 0.  1.
  9000001    1    1    2    0    0 -0.18824488120E-02 -0.26215390939E-02  0.35590975038E-01  0.35750994182E-01  0.10000000475E-02 0. -1.
</event>
<event>
 4   0  0.4892667E-02  0.9118800E+02  0.7818609E-02  0.1379984E+01
      -11   -1    0    0    0    0  0.00000000000E+00  0.00000000000E+00  0.35740347158E-01  0.35744000000E-01  0.51099999109E-03 0.  1.
       11   -1    0    0    0    0 -0.00000000000E+00 -0.00000000000E+00 -0.35740347158E-01  0.35744000000E-01  0.51099999109E-03 0. -1.
       22    1    1    2    0    0  0.26336495637E-02 -0.21340874880E-02 -0.35575878702E-01  0.35737005818E-01  0.00000000000E+00 0. -1.
  9000001    1    1    2    0    0 -0.26336495637E-02  0.21340874880E-02  0.35575878702E-01  0.35750994182E-01  0.10000000475E-02 0.  1.
</event>
<event>
 4   0  0.4892667E-02  0.9118800E+02  0.7818609E-02  0.1379984E+01
      -11   -1    0    0    0    0  0.00000000000E+00  0.00000000000E+00  0.35740347158E-01  0.35744000000E-01  0.51099999109E-03 0.  1.
       11   -1    0    0    0    0 -0.00000000000E+00 -0.00000000000E+00 -0.35740347158E-01  0.35744000000E-01  0.51099999109E-03 0. -1.
       22    1    1    2    0    0  0.30664397653E-02  0.18625247586E-02 -0.35556455582E-01  0.35737005818E-01  0.00000000000E+00 0. -1.
  9000001    1    1    2    0    0 -0.30664397653E-02 -0.18625247586E-02  0.35556455582E-01  0.35750994182E-01  0.10000000475E-02 0.  1.
</event>
<event>
 4   0  0.4892667E-02  0.9118800E+02  0.7818609E-02  0.1379984E+01
      -11   -1    0    0    0    0  0.00000000000E+00  0.00000000000E+00  0.35740347158E-01  0.35744000000E-01  0.51099999109E-03 0. -1.
       11   -1    0    0    0    0 -0.00000000000E+00 -0.00000000000E+00 -0.35740347158E-01  0.35744000000E-01  0.51099999109E-03 0.  1.
       22    1    1    2    0    0  0.42185794773E-02 -0.30954163823E-02 -0.35351882121E-01  0.35737005818E-01  0.00000000000E+00 0.  1.
  9000001    1    1    2    0    0 -0.42185794773E-02  0.30954163823E-02  0.35351882121E-01  0.35750994182E-01  0.10000000475E-02 0. -1.
</event>
<event>
 4   0  0.4892667E-02  0.9118800E+02  0.7818609E-02  0.1379984E+01
      -11   -1    0    0    0    0  0.00000000000E+00  0.00000000000E+00  0.35740347158E-01  0.35744000000E-01  0.51099999109E-03 0. -1.
       11   -1    0    0    0    0 -0.00000000000E+00 -0.00000000000E+00 -0.35740347158E-01  0.35744000000E-01  0.51099999109E-03 0.  1.
       22    1    1    2    0    0  0.29640007949E-02  0.30946018001E-01  0.17626464593E-01  0.35737005818E-01  0.00000000000E+00 0. -1.
  9000001    1    1    2    0    0 -0.29640007949E-02 -0.30946018001E-01 -0.17626464593E-01  0.35750994182E-01  0.10000000475E-02 0.  1.
</event>
<event>
 4   0  0.4892667E-02  0.9118800E+02  0.7818609E-02  0.1379984E+01
      -11   -1    0    0    0    0  0.00000000000E+00  0.00000000000E+00  0.35740347158E-01  0.35744000000E-01  0.51099999109E-03 0.  1.
       11   -1    0    0    0    0 -0.00000000000E+00 -0.00000000000E+00 -0.35740347158E-01  0.35744000000E-01  0.51099999109E-03 0. -1.
       22    1    1    2    0    0 -0.21357305442E-01  0.28809461536E-02  0.28507880286E-01  0.35737005818E-01  0.00000000000E+00 0.  1.
  9000001    1    1    2    0    0  0.21357305442E-01 -0.28809461536E-02 -0.28507880286E-01  0.35750994182E-01  0.10000000475E-02 0. -1.
</event>
<event>
 4   0  0.4892667E-02  0.9118800E+02  0.7818609E-02  0.1379984E+01
      -11   -1    0    0    0    0  0.00000000000E+00  0.00000000000E+00  0.35740347158E-01  0.35744000000E-01  0.51099999109E-03 0. -1.
       11   -1    0    0    0    0 -0.00000000000E+00 -0.00000000000E+00 -0.35740347158E-01  0.35744000000E-01  0.51099999109E-03 0.  1.
       22    1    1    2    0    0 -0.10562592845E-02  0.44187859926E-02  0.35447034171E-01  0.35737005818E-01  0.00000000000E+00 0. -1.
  9000001    1    1    2    0    0  0.10562592845E-02 -0.44187859926E-02 -0.35447034171E-01  0.35750994182E-01  0.10000000475E-02 0.  1.
</event>
<event>
 4   0  0.4892667E-02  0.9118800E+02  0.7818609E-02  0.1379984E+01
      -11   -1    0    0    0    0  0.00000000000E+00  0.00000000000E+00  0.35740347158E-01  0.35744000000E-01  0.51099999109E-03 0. -1.
       11   -1    0    0    0    0 -0.00000000000E+00 -0.00000000000E+00 -0.35740347158E-01  0.35744000000E-01  0.51099999109E-03 0.  1.
       22    1    1    2    0    0  0.50156423324E-03 -0.21976585686E-01 -0.28176438735E-01  0.35737005818E-01  0.00000000000E+00 0.  1.
  9000001    1    1    2    0    0 -0.50156423324E-03  0.21976585686E-01  0.28176438735E-01  0.35750994182E-01  0.10000000475E-02 0. -1.
</event>
<event>
 4   0  0.4892667E-02  0.9118800E+02  0.7818609E-02  0.1379984E+01
      -11   -1    0    0    0    0  0.00000000000E+00  0.00000000000E+00  0.35740347158E-01  0.35744000000E-01  0.51099999109E-03 0. -1.
       11   -1    0    0    0    0 -0.00000000000E+00 -0.00000000000E+00 -0.35740347158E-01  0.35744000000E-01  0.51099999109E-03 0.  1.
       22    1    1    2    0    0  0.28742253058E-02 -0.29028644482E-02  0.35502757523E-01  0.35737005818E-01  0.00000000000E+00 0. -1.
  9000001    1    1    2    0    0 -0.28742253058E-02  0.29028644482E-02 -0.35502757523E-01  0.35750994182E-01  0.10000000475E-02 0.  1.
</event>
<event>
 4   0  0.4892667E-02  0.9118800E+02  0.7818609E-02  0.1379984E+01
      -11   -1    0    0    0    0  0.00000000000E+00  0.00000000000E+00  0.35740347158E-01  0.35744000000E-01  0.51099999109E-03 0.  1.
       11   -1    0    0    0    0 -0.00000000000E+00 -0.00000000000E+00 -0.35740347158E-01  0.35744000000E-01  0.51099999109E-03 0. -1.
       22    1    1    2    0    0 -0.32105985561E-02 -0.67906828921E-02  0.34938692987E-01  0.35737005818E-01  0.00000000000E+00 0.  1.
  9000001    1    1    2    0    0  0.32105985561E-02  0.67906828921E-02 -0.34938692987E-01  0.35750994182E-01  0.10000000475E-02 0. -1.
</event>
<event>
 4   0  0.4892667E-02  0.9118800E+02  0.7818609E-02  0.1379984E+01
      -11   -1    0    0    0    0  0.00000000000E+00  0.00000000000E+00  0.35740347158E-01  0.35744000000E-01  0.51099999109E-03 0.  1.
       11   -1    0    0    0    0 -0.00000000000E+00 -0.00000000000E+00 -0.35740347158E-01  0.35744000000E-01  0.51099999109E-03 0. -1.
       22    1    1    2    0    0 -0.76884783406E-02 -0.15243849215E-01  0.31394998755E-01  0.35737005818E-01  0.00000000000E+00 0.  1.
  9000001    1    1    2    0    0  0.76884783406E-02  0.15243849215E-01 -0.31394998755E-01  0.35750994182E-01  0.10000000475E-02 0. -1.
</event>
<event>
 4   0  0.4892667E-02  0.9118800E+02  0.7818609E-02  0.1379984E+01
      -11   -1    0    0    0    0  0.00000000000E+00  0.00000000000E+00  0.35740347158E-01  0.35744000000E-01  0.51099999109E-03 0.  1.
       11   -1    0    0    0    0 -0.00000000000E+00 -0.00000000000E+00 -0.35740347158E-01  0.35744000000E-01  0.51099999109E-03 0. -1.
       22    1    1    2    0    0 -0.23784783861E-03 -0.26387325876E-01 -0.24099503032E-01  0.35737005818E-01  0.00000000000E+00 0. -1.
  9000001    1    1    2    0    0  0.23784783861E-03  0.26387325876E-01  0.24099503032E-01  0.35750994182E-01  0.10000000475E-02 0.  1.
</event>
<event>
 4   0  0.4892667E-02  0.9118800E+02  0.7818609E-02  0.1379984E+01
      -11   -1    0    0    0    0  0.00000000000E+00  0.00000000000E+00  0.35740347158E-01  0.35744000000E-01  0.51099999109E-03 0. -1.
       11   -1    0    0    0    0 -0.00000000000E+00 -0.00000000000E+00 -0.35740347158E-01  0.35744000000E-01  0.51099999109E-03 0.  1.
       22    1    1    2    0    0  0.19289201633E-01 -0.57104393638E-02  0.29537284363E-01  0.35737005818E-01  0.00000000000E+00 0. -1.
  9000001    1    1    2    0    0 -0.19289201633E-01  0.57104393638E-02 -0.29537284363E-01  0.35750994182E-01  0.10000000475E-02 0.  1.
</event>
<event>
 4   0  0.4892667E-02  0.9118800E+02  0.7818609E-02  0.1379984E+01
      -11   -1    0    0    0    0  0.00000000000E+00  0.00000000000E+00  0.35740347158E-01  0.35744000000E-01  0.51099999109E-03 0.  1.
       11   -1    0    0    0    0 -0.00000000000E+00 -0.00000000000E+00 -0.35740347158E-01  0.35744000000E-01  0.51099999109E-03 0. -1.
       22    1    1    2    0    0 -0.30168720021E-01  0.18584703016E-01  0.46465827205E-02  0.35737005818E-01  0.00000000000E+00 0.  1.
  9000001    1    1    2    0    0  0.30168720021E-01 -0.18584703016E-01 -0.46465827205E-02  0.35750994182E-01  0.10000000475E-02 0. -1.
</event>
<event>
 4   0  0.4892667E-02  0.9118800E+02  0.7818609E-02  0.1379984E+01
      -11   -1    0    0    0    0  0.00000000000E+00  0.00000000000E+00  0.35740347158E-01  0.35744000000E-01  0.51099999109E-03 0.  1.
       11   -1    0    0    0    0 -0.00000000000E+00 -0.00000000000E+00 -0.35740347158E-01  0.35744000000E-01  0.51099999109E-03 0. -1.
       22    1    1    2    0    0  0.96793675026E-02  0.23294200510E-02  0.34322255635E-01  0.35737005818E-01  0.00000000000E+00 0.  1.
  9000001    1    1    2    0    0 -0.96793675026E-02 -0.23294200510E-02 -0.34322255635E-01  0.35750994182E-01  0.10000000475E-02 0. -1.
</event>
<event>
 4   0  0.4892667E-02  0.9118800E+02  0.7818609E-02  0.1379984E+01
      -11   -1    0    0    0    0  0.00000000000E+00  0.00000000000E+00  0.35740347158E-01  0.35744000000E-01  0.51099999109E-03 0. -1.
       11   -1    0    0    0    0 -0.00000000000E+00 -0.00000000000E+00 -0.35740347158E-01  0.35744000000E-01  0.51099999109E-03 0.  1.
       22    1    1    2    0    0 -0.53108324954E-03 -0.36835651804E-02 -0.35542690993E-01  0.35737005818E-01  0.00000000000E+00 0.  1.
  9000001    1    1    2    0    0  0.53108324954E-03  0.36835651804E-02  0.35542690993E-01  0.35750994182E-01  0.10000000475E-02 0. -1.
</event>
<event>
 4   0  0.4892667E-02  0.9118800E+02  0.7818609E-02  0.1379984E+01
      -11   -1    0    0    0    0  0.00000000000E+00  0.00000000000E+00  0.35740347158E-01  0.35744000000E-01  0.51099999109E-03 0.  1.
       11   -1    0    0    0    0 -0.00000000000E+00 -0.00000000000E+00 -0.35740347158E-01  0.35744000000E-01  0.51099999109E-03 0. -1.
       22    1    1    2    0    0  0.83625388050E-03 -0.15370751088E-01  0.32251732904E-01  0.35737005818E-01  0.00000000000E+00 0.  1.
  9000001    1    1    2    0    0 -0.83625388050E-03  0.15370751088E-01 -0.32251732904E-01  0.35750994182E-01  0.10000000475E-02 0. -1.
</event>
<event>
 4   0  0.4892667E-02  0.9118800E+02  0.7818609E-02  0.1379984E+01
      -11   -1    0    0    0    0  0.00000000000E+00  0.00000000000E+00  0.35740347158E-01  0.35744000000E-01  0.51099999109E-03 0. -1.
       11   -1    0    0    0    0 -0.00000000000E+00 -0.00000000000E+00 -0.35740347158E-01  0.35744000000E-01  0.51099999109E-03 0.  1.
       22    1    1    2    0    0  0.15200810084E-01  0.15881092972E-02  0.32303976017E-01  0.35737005818E-01  0.00000000000E+00 0. -1.
  9000001    1    1    2    0    0 -0.15200810084E-01 -0.15881092972E-02 -0.32303976017E-01  0.35750994182E-01  0.10000000475E-02 0.  1.
</event>
<event>
 4   0  0.4892667E-02  0.9118800E+02  0.7818609E-02  0.1379984E+01
      -11   -1    0    0    0    0  0.00000000000E+00  0.00000000000E+00  0.35740347158E-01  0.35744000000E-01  0.51099999109E-03 0.  1.
       11   -1    0    0    0    0 -0.00000000000E+00 -0.00000000000E+00 -0.35740347158E-01  0.35744000000E-01  0.51099999109E-03 0. -1.
       22    1    1    2    0    0 -0.10817843622E-01  0.10702895673E-01  0.32335056339E-01  0.35737005818E-01  0.00000000000E+00 0.  1.
  9000001    1    1    2    0    0  0.10817843622E-01 -0.10702895673E-01 -0.32335056339E-01  0.35750994182E-01  0.10000000475E-02 0. -1.
</event>
<event>
 4   0  0.4892667E-02  0.9118800E+02  0.7818609E-02  0.1379984E+01
      -11   -1    0    0    0    0  0.00000000000E+00  0.00000000000E+00  0.35740347158E-01  0.35744000000E-01  0.51099999109E-03 0. -1.
       11   -1    0    0    0    0 -0.00000000000E+00 -0.00000000000E+00 -0.35740347158E-01  0.35744000000E-01  0.51099999109E-03 0. -1.
       22    1    1    2    0    0 -0.29549818482E-02  0.29143933345E-02  0.35495182471E-01  0.35737005818E-01  0.00000000000E+00 0. -1.
  9000001    1    1    2    0    0  0.29549818482E-02 -0.29143933345E-02 -0.35495182471E-01  0.35750994182E-01  0.10000000475E-02 0. -1.
</event>
<event>
 4   0  0.4892667E-02  0.9118800E+02  0.7818609E-02  0.1379984E+01
      -11   -1    0    0    0    0  0.00000000000E+00  0.00000000000E+00  0.35740347158E-01  0.35744000000E-01  0.51099999109E-03 0. -1.
       11   -1    0    0    0    0 -0.00000000000E+00 -0.00000000000E+00 -0.35740347158E-01  0.35744000000E-01  0.51099999109E-03 0.  1.
       22    1    1    2    0    0  0.19917213347E-01 -0.85526155722E-02 -0.28412866174E-01  0.35737005818E-01  0.00000000000E+00 0.  1.
  9000001    1    1    2    0    0 -0.19917213347E-01  0.85526155722E-02  0.28412866174E-01  0.35750994182E-01  0.10000000475E-02 0. -1.
</event>
<event>
 4   0  0.4892667E-02  0.9118800E+02  0.7818609E-02  0.1379984E+01
      -11   -1    0    0    0    0  0.00000000000E+00  0.00000000000E+00  0.35740347158E-01  0.35744000000E-01  0.51099999109E-03 0. -1.
       11   -1    0    0    0    0 -0.00000000000E+00 -0.00000000000E+00 -0.35740347158E-01  0.35744000000E-01  0.51099999109E-03 0.  1.
       22    1    1    2    0    0 -0.22038902443E-01 -0.12316918522E-01  0.25292565747E-01  0.35737005818E-01  0.00000000000E+00 0.  1.
  9000001    1    1    2    0    0  0.22038902443E-01  0.12316918522E-01 -0.25292565747E-01  0.35750994182E-01  0.10000000475E-02 0. -1.
</event>
<event>
 4   0  0.4892667E-02  0.9118800E+02  0.7818609E-02  0.1379984E+01
      -11   -1    0    0    0    0  0.00000000000E+00  0.00000000000E+00  0.35740347158E-01  0.35744000000E-01  0.51099999109E-03 0. -1.
       11   -1    0    0    0    0 -0.00000000000E+00 -0.00000000000E+00 -0.35740347158E-01  0.35744000000E-01  0.51099999109E-03 0.  1.
       22    1    1    2    0    0  0.31540800893E-02 -0.11290276625E-01 -0.33759665540E-01  0.35737005818E-01  0.00000000000E+00 0.  1.
  9000001    1    1    2    0    0 -0.31540800893E-02  0.11290276625E-01  0.33759665540E-01  0.35750994182E-01  0.10000000475E-02 0. -1.
</event>
<event>
 4   0  0.4892667E-02  0.9118800E+02  0.7818609E-02  0.1379984E+01
      -11   -1    0    0    0    0  0.00000000000E+00  0.00000000000E+00  0.35740347158E-01  0.35744000000E-01  0.51099999109E-03 0.  1.
       11   -1    0    0    0    0 -0.00000000000E+00 -0.00000000000E+00 -0.35740347158E-01  0.35744000000E-01  0.51099999109E-03 0. -1.
       22    1    1    2    0    0  0.35020308959E-02  0.18105423203E-01 -0.30611485020E-01  0.35737005818E-01  0.00000000000E+00 0. -1.
  9000001    1    1    2    0    0 -0.35020308959E-02 -0.18105423203E-01  0.30611485020E-01  0.35750994182E-01  0.10000000475E-02 0.  1.
</event>
<event>
 4   0  0.4892667E-02  0.9118800E+02  0.7818609E-02  0.1379984E+01
      -11   -1    0    0    0    0  0.00000000000E+00  0.00000000000E+00  0.35740347158E-01  0.35744000000E-01  0.51099999109E-03 0. -1.
       11   -1    0    0    0    0 -0.00000000000E+00 -0.00000000000E+00 -0.35740347158E-01  0.35744000000E-01  0.51099999109E-03 0.  1.
       22    1    1    2    0    0  0.18912226926E-02  0.11384994613E-01  0.33822163728E-01  0.35737005818E-01  0.00000000000E+00 0. -1.
  9000001    1    1    2    0    0 -0.18912226926E-02 -0.11384994613E-01 -0.33822163728E-01  0.35750994182E-01  0.10000000475E-02 0.  1.
</event>
<event>
 4   0  0.4892667E-02  0.9118800E+02  0.7818609E-02  0.1379984E+01
      -11   -1    0    0    0    0  0.00000000000E+00  0.00000000000E+00  0.35740347158E-01  0.35744000000E-01  0.51099999109E-03 0.  1.
       11   -1    0    0    0    0 -0.00000000000E+00 -0.00000000000E+00 -0.35740347158E-01  0.35744000000E-01  0.51099999109E-03 0. -1.
       22    1    1    2    0    0 -0.38952801100E-03  0.72478843734E-02  0.34992142331E-01  0.35737005818E-01  0.00000000000E+00 0.  1.
  9000001    1    1    2    0    0  0.38952801100E-03 -0.72478843734E-02 -0.34992142331E-01  0.35750994182E-01  0.10000000475E-02 0. -1.
</event>
<event>
 4   0  0.4892667E-02  0.9118800E+02  0.7818609E-02  0.1379984E+01
      -11   -1    0    0    0    0  0.00000000000E+00  0.00000000000E+00  0.35740347158E-01  0.35744000000E-01  0.51099999109E-03 0. -1.
       11   -1    0    0    0    0 -0.00000000000E+00 -0.00000000000E+00 -0.35740347158E-01  0.35744000000E-01  0.51099999109E-03 0.  1.
       22    1    1    2    0    0 -0.63226474850E-02 -0.10054498555E-01 -0.33705559964E-01  0.35737005818E-01  0.00000000000E+00 0.  1.
  9000001    1    1    2    0    0  0.63226474850E-02  0.10054498555E-01  0.33705559964E-01  0.35750994182E-01  0.10000000475E-02 0. -1.
</event>
<event>
 4   0  0.4892667E-02  0.9118800E+02  0.7818609E-02  0.1379984E+01
      -11   -1    0    0    0    0  0.00000000000E+00  0.00000000000E+00  0.35740347158E-01  0.35744000000E-01  0.51099999109E-03 0. -1.
       11   -1    0    0    0    0 -0.00000000000E+00 -0.00000000000E+00 -0.35740347158E-01  0.35744000000E-01  0.51099999109E-03 0.  1.
       22    1    1    2    0    0  0.21082423397E-01 -0.83423110977E-02  0.27623737150E-01  0.35737005818E-01  0.00000000000E+00 0. -1.
  9000001    1    1    2    0    0 -0.21082423397E-01  0.83423110977E-02 -0.27623737150E-01  0.35750994182E-01  0.10000000475E-02 0.  1.
</event>
<event>
 4   0  0.4892667E-02  0.9118800E+02  0.7818609E-02  0.1379984E+01
      -11   -1    0    0    0    0  0.00000000000E+00  0.00000000000E+00  0.35740347158E-01  0.35744000000E-01  0.51099999109E-03 0. -1.
       11   -1    0    0    0    0 -0.00000000000E+00 -0.00000000000E+00 -0.35740347158E-01  0.35744000000E-01  0.51099999109E-03 0.  1.
       22    1    1    2    0    0 -0.18696737312E-01 -0.30435958205E-01 -0.11036516249E-02  0.35737005818E-01  0.00000000000E+00 0.  1.
  9000001    1    1    2    0    0  0.18696737312E-01  0.30435958205E-01  0.11036516249E-02  0.35750994182E-01  0.10000000475E-02 0. -1.
</event>
<event>
 4   0  0.4892667E-02  0.9118800E+02  0.7818609E-02  0.1379984E+01
      -11   -1    0    0    0    0  0.00000000000E+00  0.00000000000E+00  0.35740347158E-01  0.35744000000E-01  0.51099999109E-03 0.  1.
       11   -1    0    0    0    0 -0.00000000000E+00 -0.00000000000E+00 -0.35740347158E-01  0.35744000000E-01  0.51099999109E-03 0. -1.
       22    1    1    2    0    0  0.17063762628E-01 -0.23568335201E-01  0.20748377424E-01  0.35737005818E-01  0.00000000000E+00 0.  1.
  9000001    1    1    2    0    0 -0.17063762628E-01  0.23568335201E-01 -0.20748377424E-01  0.35750994182E-01  0.10000000475E-02 0. -1.
</event>
<event>
 4   0  0.4892667E-02  0.9118800E+02  0.7818609E-02  0.1379984E+01
      -11   -1    0    0    0    0  0.00000000000E+00  0.00000000000E+00  0.35740347158E-01  0.35744000000E-01  0.51099999109E-03 0. -1.
       11   -1    0    0    0    0 -0.00000000000E+00 -0.00000000000E+00 -0.35740347158E-01  0.35744000000E-01  0.51099999109E-03 0.  1.
       22    1    1    2    0    0 -0.61453482380E-03 -0.47644162782E-02  0.35412656909E-01  0.35737005818E-01  0.00000000000E+00 0. -1.
  9000001    1    1    2    0    0  0.61453482380E-03  0.47644162782E-02 -0.35412656909E-01  0.35750994182E-01  0.10000000475E-02 0.  1.
</event>
<event>
 4   0  0.4892667E-02  0.9118800E+02  0.7818609E-02  0.1379984E+01
      -11   -1    0    0    0    0  0.00000000000E+00  0.00000000000E+00  0.35740347158E-01  0.35744000000E-01  0.51099999109E-03 0. -1.
       11   -1    0    0    0    0 -0.00000000000E+00 -0.00000000000E+00 -0.35740347158E-01  0.35744000000E-01  0.51099999109E-03 0.  1.
       22    1    1    2    0    0 -0.51119009578E-02 -0.10225701720E-01 -0.33859076742E-01  0.35737005818E-01  0.00000000000E+00 0.  1.
  9000001    1    1    2    0    0  0.51119009578E-02  0.10225701720E-01  0.33859076742E-01  0.35750994182E-01  0.10000000475E-02 0. -1.
</event>
<event>
 4   0  0.4892667E-02  0.9118800E+02  0.7818609E-02  0.1379984E+01
      -11   -1    0    0    0    0  0.00000000000E+00  0.00000000000E+00  0.35740347158E-01  0.35744000000E-01  0.51099999109E-03 0.  1.
       11   -1    0    0    0    0 -0.00000000000E+00 -0.00000000000E+00 -0.35740347158E-01  0.35744000000E-01  0.51099999109E-03 0. -1.
       22    1    1    2    0    0 -0.96954599890E-03  0.88070828882E-02  0.34621219742E-01  0.35737005818E-01  0.00000000000E+00 0.  1.
  9000001    1    1    2    0    0  0.96954599890E-03 -0.88070828882E-02 -0.34621219742E-01  0.35750994182E-01  0.10000000475E-02 0. -1.
</event>
<event>
 4   0  0.4892667E-02  0.9118800E+02  0.7818609E-02  0.1379984E+01
      -11   -1    0    0    0    0  0.00000000000E+00  0.00000000000E+00  0.35740347158E-01  0.35744000000E-01  0.51099999109E-03 0. -1.
       11   -1    0    0    0    0 -0.00000000000E+00 -0.00000000000E+00 -0.35740347158E-01  0.35744000000E-01  0.51099999109E-03 0.  1.
       22    1    1    2    0    0  0.55960362735E-03 -0.83588673745E-02 -0.34741182548E-01  0.35737005818E-01  0.00000000000E+00 0.  1.
  9000001    1    1    2    0    0 -0.55960362735E-03  0.83588673745E-02  0.34741182548E-01  0.35750994182E-01  0.10000000475E-02 0. -1.
</event>
<event>
 4   0  0.4892667E-02  0.9118800E+02  0.7818609E-02  0.1379984E+01
      -11   -1    0    0    0    0  0.00000000000E+00  0.00000000000E+00  0.35740347158E-01  0.35744000000E-01  0.51099999109E-03 0.  1.
       11   -1    0    0    0    0 -0.00000000000E+00 -0.00000000000E+00 -0.35740347158E-01  0.35744000000E-01  0.51099999109E-03 0. -1.
       22    1    1    2    0    0  0.25812949853E-02 -0.11359169388E-01  0.33785200486E-01  0.35737005818E-01  0.00000000000E+00 0.  1.
  9000001    1    1    2    0    0 -0.25812949853E-02  0.11359169388E-01 -0.33785200486E-01  0.35750994182E-01  0.10000000475E-02 0. -1.
</event>
<event>
 4   0  0.4892667E-02  0.9118800E+02  0.7818609E-02  0.1379984E+01
      -11   -1    0    0    0    0  0.00000000000E+00  0.00000000000E+00  0.35740347158E-01  0.35744000000E-01  0.51099999109E-03 0. -1.
       11   -1    0    0    0    0 -0.00000000000E+00 -0.00000000000E+00 -0.35740347158E-01  0.35744000000E-01  0.51099999109E-03 0.  1.
       22    1    1    2    0    0 -0.20712387414E-01  0.18290134556E-02 -0.29065190559E-01  0.35737005818E-01  0.00000000000E+00 0.  1.
  9000001    1    1    2    0    0  0.20712387414E-01 -0.18290134556E-02  0.29065190559E-01  0.35750994182E-01  0.10000000475E-02 0. -1.
</event>
<event>
 4   0  0.4892667E-02  0.9118800E+02  0.7818609E-02  0.1379984E+01
      -11   -1    0    0    0    0  0.00000000000E+00  0.00000000000E+00  0.35740347158E-01  0.35744000000E-01  0.51099999109E-03 0.  1.
       11   -1    0    0    0    0 -0.00000000000E+00 -0.00000000000E+00 -0.35740347158E-01  0.35744000000E-01  0.51099999109E-03 0. -1.
       22    1    1    2    0    0 -0.23544435185E-02  0.35558837701E-02 -0.35481627234E-01  0.35737005818E-01  0.00000000000E+00 0. -1.
  9000001    1    1    2    0    0  0.23544435185E-02 -0.35558837701E-02  0.35481627234E-01  0.35750994182E-01  0.10000000475E-02 0.  1.
</event>
<event>
 4   0  0.4892667E-02  0.9118800E+02  0.7818609E-02  0.1379984E+01
      -11   -1    0    0    0    0  0.00000000000E+00  0.00000000000E+00  0.35740347158E-01  0.35744000000E-01  0.51099999109E-03 0. -1.
       11   -1    0    0    0    0 -0.00000000000E+00 -0.00000000000E+00 -0.35740347158E-01  0.35744000000E-01  0.51099999109E-03 0.  1.
       22    1    1    2    0    0  0.10207856860E-02 -0.80187679528E-02  0.34810787724E-01  0.35737005818E-01  0.00000000000E+00 0. -1.
  9000001    1    1    2    0    0 -0.10207856860E-02  0.80187679528E-02 -0.34810787724E-01  0.35750994182E-01  0.10000000475E-02 0.  1.
</event>
<event>
 4   0  0.4892667E-02  0.9118800E+02  0.7818609E-02  0.1379984E+01
      -11   -1    0    0    0    0  0.00000000000E+00  0.00000000000E+00  0.35740347158E-01  0.35744000000E-01  0.51099999109E-03 0.  1.
       11   -1    0    0    0    0 -0.00000000000E+00 -0.00000000000E+00 -0.35740347158E-01  0.35744000000E-01  0.51099999109E-03 0. -1.
       22    1    1    2    0    0  0.18103549991E-01 -0.22759332552E-02  0.30728084718E-01  0.35737005818E-01  0.00000000000E+00 0.  1.
  9000001    1    1    2    0    0 -0.18103549991E-01  0.22759332552E-02 -0.30728084718E-01  0.35750994182E-01  0.10000000475E-02 0. -1.
</event>
<event>
 4   0  0.4892667E-02  0.9118800E+02  0.7818609E-02  0.1379984E+01
      -11   -1    0    0    0    0  0.00000000000E+00  0.00000000000E+00  0.35740347158E-01  0.35744000000E-01  0.51099999109E-03 0. -1.
       11   -1    0    0    0    0 -0.00000000000E+00 -0.00000000000E+00 -0.35740347158E-01  0.35744000000E-01  0.51099999109E-03 0.  1.
       22    1    1    2    0    0 -0.25515389926E-01 -0.58727872530E-02 -0.24323010333E-01  0.35737005818E-01  0.00000000000E+00 0.  1.
  9000001    1    1    2    0    0  0.25515389926E-01  0.58727872530E-02  0.24323010333E-01  0.35750994182E-01  0.10000000475E-02 0. -1.
</event>
<event>
 4   0  0.4892667E-02  0.9118800E+02  0.7818609E-02  0.1379984E+01
      -11   -1    0    0    0    0  0.00000000000E+00  0.00000000000E+00  0.35740347158E-01  0.35744000000E-01  0.51099999109E-03 0.  1.
       11   -1    0    0    0    0 -0.00000000000E+00 -0.00000000000E+00 -0.35740347158E-01  0.35744000000E-01  0.51099999109E-03 0. -1.
       22    1    1    2    0    0 -0.65587234558E-02  0.34467727773E-01 -0.67891438078E-02  0.35737005818E-01  0.00000000000E+00 0.  1.
  9000001    1    1    2    0    0  0.65587234558E-02 -0.34467727773E-01  0.67891438078E-02  0.35750994182E-01  0.10000000475E-02 0. -1.
</event>
<event>
 4   0  0.4892667E-02  0.9118800E+02  0.7818609E-02  0.1379984E+01
      -11   -1    0    0    0    0  0.00000000000E+00  0.00000000000E+00  0.35740347158E-01  0.35744000000E-01  0.51099999109E-03 0.  1.
       11   -1    0    0    0    0 -0.00000000000E+00 -0.00000000000E+00 -0.35740347158E-01  0.35744000000E-01  0.51099999109E-03 0. -1.
       22    1    1    2    0    0 -0.24435411666E-02 -0.37898117967E-02 -0.35451375403E-01  0.35737005818E-01  0.00000000000E+00 0. -1.
  9000001    1    1    2    0    0  0.24435411666E-02  0.37898117967E-02  0.35451375403E-01  0.35750994182E-01  0.10000000475E-02 0.  1.
</event>
<event>
 4   0  0.4892667E-02  0.9118800E+02  0.7818609E-02  0.1379984E+01
      -11   -1    0    0    0    0  0.00000000000E+00  0.00000000000E+00  0.35740347158E-01  0.35744000000E-01  0.51099999109E-03 0.  1.
       11   -1    0    0    0    0 -0.00000000000E+00 -0.00000000000E+00 -0.35740347158E-01  0.35744000000E-01  0.51099999109E-03 0. -1.
       22    1    1    2    0    0  0.71223036678E-03  0.10323250387E-01 -0.34206093233E-01  0.35737005818E-01  0.00000000000E+00 0. -1.
  9000001    1    1    2    0    0 -0.71223036678E-03 -0.10323250387E-01  0.34206093233E-01  0.35750994182E-01  0.10000000475E-02 0.  1.
</event>
<event>
 4   0  0.4892667E-02  0.9118800E+02  0.7818609E-02  0.1379984E+01
      -11   -1    0    0    0    0  0.00000000000E+00  0.00000000000E+00  0.35740347158E-01  0.35744000000E-01  0.51099999109E-03 0.  1.
       11   -1    0    0    0    0 -0.00000000000E+00 -0.00000000000E+00 -0.35740347158E-01  0.35744000000E-01  0.51099999109E-03 0. -1.
       22    1    1    2    0    0  0.46842058472E-02 -0.53966320063E-02  0.35015256153E-01  0.35737005818E-01  0.00000000000E+00 0.  1.
  9000001    1    1    2    0    0 -0.46842058472E-02  0.53966320063E-02 -0.35015256153E-01  0.35750994182E-01  0.10000000475E-02 0. -1.
</event>
<event>
 4   0  0.4892667E-02  0.9118800E+02  0.7818609E-02  0.1379984E+01
      -11   -1    0    0    0    0  0.00000000000E+00  0.00000000000E+00  0.35740347158E-01  0.35744000000E-01  0.51099999109E-03 0. -1.
       11   -1    0    0    0    0 -0.00000000000E+00 -0.00000000000E+00 -0.35740347158E-01  0.35744000000E-01  0.51099999109E-03 0.  1.
       22    1    1    2    0    0 -0.26147014939E-02  0.34337393938E-02 -0.35475433116E-01  0.35737005818E-01  0.00000000000E+00 0.  1.
  9000001    1    1    2    0    0  0.26147014939E-02 -0.34337393938E-02  0.35475433116E-01  0.35750994182E-01  0.10000000475E-02 0. -1.
</event>
<event>
 4   0  0.4892667E-02  0.9118800E+02  0.7818609E-02  0.1379984E+01
      -11   -1    0    0    0    0  0.00000000000E+00  0.00000000000E+00  0.35740347158E-01  0.35744000000E-01  0.51099999109E-03 0.  1.
       11   -1    0    0    0    0 -0.00000000000E+00 -0.00000000000E+00 -0.35740347158E-01  0.35744000000E-01  0.51099999109E-03 0. -1.
       22    1    1    2    0    0 -0.30389152126E-01  0.15548288009E-01 -0.10577511896E-01  0.35737005818E-01  0.00000000000E+00 0. -1.
  9000001    1    1    2    0    0  0.30389152126E-01 -0.15548288009E-01  0.10577511896E-01  0.35750994182E-01  0.10000000475E-02 0.  1.
</event>
<event>
 4   0  0.4892667E-02  0.9118800E+02  0.7818609E-02  0.1379984E+01
      -11   -1    0    0    0    0  0.00000000000E+00  0.00000000000E+00  0.35740347158E-01  0.35744000000E-01  0.51099999109E-03 0.  1.
       11   -1    0    0    0    0 -0.00000000000E+00 -0.00000000000E+00 -0.35740347158E-01  0.35744000000E-01  0.51099999109E-03 0. -1.
       22    1    1    2    0    0 -0.22326994060E-01  0.17739725106E-01 -0.21539291406E-01  0.35737005818E-01  0.00000000000E+00 0.  1.
  9000001    1    1    2    0    0  0.22326994060E-01 -0.17739725106E-01  0.21539291406E-01  0.35750994182E-01  0.10000000475E-02 0. -1.
</event>
<event>
 4   0  0.4892667E-02  0.9118800E+02  0.7818609E-02  0.1379984E+01
      -11   -1    0    0    0    0  0.00000000000E+00  0.00000000000E+00  0.35740347158E-01  0.35744000000E-01  0.51099999109E-03 0.  1.
       11   -1    0    0    0    0 -0.00000000000E+00 -0.00000000000E+00 -0.35740347158E-01  0.35744000000E-01  0.51099999109E-03 0. -1.
       22    1    1    2    0    0  0.61116534337E-03 -0.12539137137E-01  0.33459379875E-01  0.35737005818E-01  0.00000000000E+00 0.  1.
  9000001    1    1    2    0    0 -0.61116534337E-03  0.12539137137E-01 -0.33459379875E-01  0.35750994182E-01  0.10000000475E-02 0. -1.
</event>
<event>
 4   0  0.4892667E-02  0.9118800E+02  0.7818609E-02  0.1379984E+01
      -11   -1    0    0    0    0  0.00000000000E+00  0.00000000000E+00  0.35740347158E-01  0.35744000000E-01  0.51099999109E-03 0.  1.
       11   -1    0    0    0    0 -0.00000000000E+00 -0.00000000000E+00 -0.35740347158E-01  0.35744000000E-01  0.51099999109E-03 0. -1.
       22    1    1    2    0    0  0.13855122269E-02  0.11442717417E-01  0.33827180770E-01  0.35737005818E-01  0.00000000000E+00 0.  1.
  9000001    1    1    2    0    0 -0.13855122269E-02 -0.11442717417E-01 -0.33827180770E-01  0.35750994182E-01  0.10000000475E-02 0. -1.
</event>
<event>
 4   0  0.4892667E-02  0.9118800E+02  0.7818609E-02  0.1379984E+01
      -11   -1    0    0    0    0  0.00000000000E+00  0.00000000000E+00  0.35740347158E-01  0.35744000000E-01  0.51099999109E-03 0. -1.
       11   -1    0    0    0    0 -0.00000000000E+00 -0.00000000000E+00 -0.35740347158E-01  0.35744000000E-01  0.51099999109E-03 0.  1.
       22    1    1    2    0    0 -0.97732595409E-02 -0.12384578572E-01 -0.32066169033E-01  0.35737005818E-01  0.00000000000E+00 0.  1.
  9000001    1    1    2    0    0  0.97732595409E-02  0.12384578572E-01  0.32066169033E-01  0.35750994182E-01  0.10000000475E-02 0. -1.
</event>
<event>
 4   0  0.4892667E-02  0.9118800E+02  0.7818609E-02  0.1379984E+01
      -11   -1    0    0    0    0  0.00000000000E+00  0.00000000000E+00  0.35740347158E-01  0.35744000000E-01  0.51099999109E-03 0.  1.
       11   -1    0    0    0    0 -0.00000000000E+00 -0.00000000000E+00 -0.35740347158E-01  0.35744000000E-01  0.51099999109E-03 0. -1.
       22    1    1    2    0    0  0.72784089724E-02  0.21196765984E-01  0.27836225670E-01  0.35737005818E-01  0.00000000000E+00 0.  1.
  9000001    1    1    2    0    0 -0.72784089724E-02 -0.21196765984E-01 -0.27836225670E-01  0.35750994182E-01  0.10000000475E-02 0. -1.
</event>
<event>
 4   0  0.4892667E-02  0.9118800E+02  0.7818609E-02  0.1379984E+01
      -11   -1    0    0    0    0  0.00000000000E+00  0.00000000000E+00  0.35740347158E-01  0.35744000000E-01  0.51099999109E-03 0. -1.
       11   -1    0    0    0    0 -0.00000000000E+00 -0.00000000000E+00 -0.35740347158E-01  0.35744000000E-01  0.51099999109E-03 0.  1.
       22    1    1    2    0    0  0.51253460801E-02  0.16489096809E-01 -0.31288561790E-01  0.35737005818E-01  0.00000000000E+00 0.  1.
  9000001    1    1    2    0    0 -0.51253460801E-02 -0.16489096809E-01  0.31288561790E-01  0.35750994182E-01  0.10000000475E-02 0. -1.
</event>
<event>
 4   0  0.4892667E-02  0.9118800E+02  0.7818609E-02  0.1379984E+01
      -11   -1    0    0    0    0  0.00000000000E+00  0.00000000000E+00  0.35740347158E-01  0.35744000000E-01  0.51099999109E-03 0. -1.
       11   -1    0    0    0    0 -0.00000000000E+00 -0.00000000000E+00 -0.35740347158E-01  0.35744000000E-01  0.51099999109E-03 0.  1.
       22    1    1    2    0    0 -0.43324318405E-02 -0.28044573499E-02  0.35362390165E-01  0.35737005818E-01  0.00000000000E+00 0. -1.
  9000001    1    1    2    0    0  0.43324318405E-02  0.28044573499E-02 -0.35362390165E-01  0.35750994182E-01  0.10000000475E-02 0.  1.
</event>
<event>
 4   0  0.4892667E-02  0.9118800E+02  0.7818609E-02  0.1379984E+01
      -11   -1    0    0    0    0  0.00000000000E+00  0.00000000000E+00  0.35740347158E-01  0.35744000000E-01  0.51099999109E-03 0.  1.
       11   -1    0    0    0    0 -0.00000000000E+00 -0.00000000000E+00 -0.35740347158E-01  0.35744000000E-01  0.51099999109E-03 0. -1.
       22    1    1    2    0    0  0.24501370161E-02 -0.11878199968E-01  0.33616049426E-01  0.35737005818E-01  0.00000000000E+00 0.  1.
  9000001    1    1    2    0    0 -0.24501370161E-02  0.11878199968E-01 -0.33616049426E-01  0.35750994182E-01  0.10000000475E-02 0. -1.
</event>
<event>
 4   0  0.4892667E-02  0.9118800E+02  0.7818609E-02  0.1379984E+01
      -11   -1    0    0    0    0  0.00000000000E+00  0.00000000000E+00  0.35740347158E-01  0.35744000000E-01  0.51099999109E-03 0.  1.
       11   -1    0    0    0    0 -0.00000000000E+00 -0.00000000000E+00 -0.35740347158E-01  0.35744000000E-01  0.51099999109E-03 0. -1.
       22    1    1    2    0    0 -0.10083152482E-01 -0.30474174600E-02 -0.34149331878E-01  0.35737005818E-01  0.00000000000E+00 0. -1.
  9000001    1    1    2    0    0  0.10083152482E-01  0.30474174600E-02  0.34149331878E-01  0.35750994182E-01  0.10000000475E-02 0.  1.
</event>
<event>
 4   0  0.4892667E-02  0.9118800E+02  0.7818609E-02  0.1379984E+01
      -11   -1    0    0    0    0  0.00000000000E+00  0.00000000000E+00  0.35740347158E-01  0.35744000000E-01  0.51099999109E-03 0. -1.
       11   -1    0    0    0    0 -0.00000000000E+00 -0.00000000000E+00 -0.35740347158E-01  0.35744000000E-01  0.51099999109E-03 0.  1.
       22    1    1    2    0    0  0.11801198110E-02  0.15570650629E-01  0.32144917811E-01  0.35737005818E-01  0.00000000000E+00 0. -1.
  9000001    1    1    2    0    0 -0.11801198110E-02 -0.15570650629E-01 -0.32144917811E-01  0.35750994182E-01  0.10000000475E-02 0.  1.
</event>
<event>
 4   0  0.4892667E-02  0.9118800E+02  0.7818609E-02  0.1379984E+01
      -11   -1    0    0    0    0  0.00000000000E+00  0.00000000000E+00  0.35740347158E-01  0.35744000000E-01  0.51099999109E-03 0. -1.
       11   -1    0    0    0    0 -0.00000000000E+00 -0.00000000000E+00 -0.35740347158E-01  0.35744000000E-01  0.51099999109E-03 0.  1.
       22    1    1    2    0    0  0.92773294808E-02 -0.10888179905E-01 -0.32749233288E-01  0.35737005818E-01  0.00000000000E+00 0.  1.
  9000001    1    1    2    0    0 -0.92773294808E-02  0.10888179905E-01  0.32749233288E-01  0.35750994182E-01  0.10000000475E-02 0. -1.
</event>
<event>
 4   0  0.4892667E-02  0.9118800E+02  0.7818609E-02  0.1379984E+01
      -11   -1    0    0    0    0  0.00000000000E+00  0.00000000000E+00  0.35740347158E-01  0.35744000000E-01  0.51099999109E-03 0.  1.
       11   -1    0    0    0    0 -0.00000000000E+00 -0.00000000000E+00 -0.35740347158E-01  0.35744000000E-01  0.51099999109E-03 0. -1.
       22    1    1    2    0    0 -0.35929648493E-02 -0.27729398847E-02 -0.35447637338E-01  0.35737005818E-01  0.00000000000E+00 0. -1.
  9000001    1    1    2    0    0  0.35929648493E-02  0.27729398847E-02  0.35447637338E-01  0.35750994182E-01  0.10000000475E-02 0.  1.
</event>
<event>
 4   0  0.4892667E-02  0.9118800E+02  0.7818609E-02  0.1379984E+01
      -11   -1    0    0    0    0  0.00000000000E+00  0.00000000000E+00  0.35740347158E-01  0.35744000000E-01  0.51099999109E-03 0. -1.
       11   -1    0    0    0    0 -0.00000000000E+00 -0.00000000000E+00 -0.35740347158E-01  0.35744000000E-01  0.51099999109E-03 0.  1.
       22    1    1    2    0    0  0.32801215022E-02  0.13333117401E-01  0.32993974725E-01  0.35737005818E-01  0.00000000000E+00 0. -1.
  9000001    1    1    2    0    0 -0.32801215022E-02 -0.13333117401E-01 -0.32993974725E-01  0.35750994182E-01  0.10000000475E-02 0.  1.
</event>
<event>
 4   0  0.4892667E-02  0.9118800E+02  0.7818609E-02  0.1379984E+01
      -11   -1    0    0    0    0  0.00000000000E+00  0.00000000000E+00  0.35740347158E-01  0.35744000000E-01  0.51099999109E-03 0. -1.
       11   -1    0    0    0    0 -0.00000000000E+00 -0.00000000000E+00 -0.35740347158E-01  0.35744000000E-01  0.51099999109E-03 0.  1.
       22    1    1    2    0    0 -0.41838380172E-02  0.50351885980E-02  0.35132263806E-01  0.35737005818E-01  0.00000000000E+00 0. -1.
  9000001    1    1    2    0    0  0.41838380172E-02 -0.50351885980E-02 -0.35132263806E-01  0.35750994182E-01  0.10000000475E-02 0.  1.
</event>
<event>
 4   0  0.4892667E-02  0.9118800E+02  0.7818609E-02  0.1379984E+01
      -11   -1    0    0    0    0  0.00000000000E+00  0.00000000000E+00  0.35740347158E-01  0.35744000000E-01  0.51099999109E-03 0.  1.
       11   -1    0    0    0    0 -0.00000000000E+00 -0.00000000000E+00 -0.35740347158E-01  0.35744000000E-01  0.51099999109E-03 0. -1.
       22    1    1    2    0    0  0.10676997044E-02 -0.12210958470E-01 -0.33569124139E-01  0.35737005818E-01  0.00000000000E+00 0. -1.
  9000001    1    1    2    0    0 -0.10676997044E-02  0.12210958470E-01  0.33569124139E-01  0.35750994182E-01  0.10000000475E-02 0.  1.
</event>
<event>
 4   0  0.4892667E-02  0.9118800E+02  0.7818609E-02  0.1379984E+01
      -11   -1    0    0    0    0  0.00000000000E+00  0.00000000000E+00  0.35740347158E-01  0.35744000000E-01  0.51099999109E-03 0. -1.
       11   -1    0    0    0    0 -0.00000000000E+00 -0.00000000000E+00 -0.35740347158E-01  0.35744000000E-01  0.51099999109E-03 0.  1.
       22    1    1    2    0    0 -0.13715689925E-01  0.25185312068E-01 -0.21324012070E-01  0.35737005818E-01  0.00000000000E+00 0.  1.
  9000001    1    1    2    0    0  0.13715689925E-01 -0.25185312068E-01  0.21324012070E-01  0.35750994182E-01  0.10000000475E-02 0. -1.
</event>
<event>
 4   0  0.4892667E-02  0.9118800E+02  0.7818609E-02  0.1379984E+01
      -11   -1    0    0    0    0  0.00000000000E+00  0.00000000000E+00  0.35740347158E-01  0.35744000000E-01  0.51099999109E-03 0. -1.
       11   -1    0    0    0    0 -0.00000000000E+00 -0.00000000000E+00 -0.35740347158E-01  0.35744000000E-01  0.51099999109E-03 0.  1.
       22    1    1    2    0    0 -0.14160775185E-02 -0.26927801856E-02  0.35607263925E-01  0.35737005818E-01  0.00000000000E+00 0. -1.
  9000001    1    1    2    0    0  0.14160775185E-02  0.26927801856E-02 -0.35607263925E-01  0.35750994182E-01  0.10000000475E-02 0.  1.
</event>
<event>
 4   0  0.4892667E-02  0.9118800E+02  0.7818609E-02  0.1379984E+01
      -11   -1    0    0    0    0  0.00000000000E+00  0.00000000000E+00  0.35740347158E-01  0.35744000000E-01  0.51099999109E-03 0.  1.
       11   -1    0    0    0    0 -0.00000000000E+00 -0.00000000000E+00 -0.35740347158E-01  0.35744000000E-01  0.51099999109E-03 0. -1.
       22    1    1    2    0    0  0.78051545520E-02 -0.81709939392E-03 -0.34864674039E-01  0.35737005818E-01  0.00000000000E+00 0. -1.
  9000001    1    1    2    0    0 -0.78051545520E-02  0.81709939392E-03  0.34864674039E-01  0.35750994182E-01  0.10000000475E-02 0.  1.
</event>
<event>
 4   0  0.4892667E-02  0.9118800E+02  0.7818609E-02  0.1379984E+01
      -11   -1    0    0    0    0  0.00000000000E+00  0.00000000000E+00  0.35740347158E-01  0.35744000000E-01  0.51099999109E-03 0. -1.
       11   -1    0    0    0    0 -0.00000000000E+00 -0.00000000000E+00 -0.35740347158E-01  0.35744000000E-01  0.51099999109E-03 0.  1.
       22    1    1    2    0    0 -0.10011142115E-01  0.24137483146E-02  0.34221110991E-01  0.35737005818E-01  0.00000000000E+00 0. -1.
  9000001    1    1    2    0    0  0.10011142115E-01 -0.24137483146E-02 -0.34221110991E-01  0.35750994182E-01  0.10000000475E-02 0.  1.
</event>
<event>
 4   0  0.4892667E-02  0.9118800E+02  0.7818609E-02  0.1379984E+01
      -11   -1    0    0    0    0  0.00000000000E+00  0.00000000000E+00  0.35740347158E-01  0.35744000000E-01  0.51099999109E-03 0.  1.
       11   -1    0    0    0    0 -0.00000000000E+00 -0.00000000000E+00 -0.35740347158E-01  0.35744000000E-01  0.51099999109E-03 0. -1.
       22    1    1    2    0    0  0.15171612654E-01 -0.38528483119E-02 -0.32126489292E-01  0.35737005818E-01  0.00000000000E+00 0. -1.
  9000001    1    1    2    0    0 -0.15171612654E-01  0.38528483119E-02  0.32126489292E-01  0.35750994182E-01  0.10000000475E-02 0.  1.
</event>
<event>
 4   0  0.4892667E-02  0.9118800E+02  0.7818609E-02  0.1379984E+01
      -11   -1    0    0    0    0  0.00000000000E+00  0.00000000000E+00  0.35740347158E-01  0.35744000000E-01  0.51099999109E-03 0.  1.
       11   -1    0    0    0    0 -0.00000000000E+00 -0.00000000000E+00 -0.35740347158E-01  0.35744000000E-01  0.51099999109E-03 0. -1.
       22    1    1    2    0    0 -0.28745268391E-01 -0.22291195997E-02 -0.21115732424E-01  0.35737005818E-01  0.00000000000E+00 0. -1.
  9000001    1    1    2    0    0  0.28745268391E-01  0.22291195997E-02  0.21115732424E-01  0.35750994182E-01  0.10000000475E-02 0.  1.
</event>
<event>
 4   0  0.4892667E-02  0.9118800E+02  0.7818609E-02  0.1379984E+01
      -11   -1    0    0    0    0  0.00000000000E+00  0.00000000000E+00  0.35740347158E-01  0.35744000000E-01  0.51099999109E-03 0. -1.
       11   -1    0    0    0    0 -0.00000000000E+00 -0.00000000000E+00 -0.35740347158E-01  0.35744000000E-01  0.51099999109E-03 0.  1.
       22    1    1    2    0    0  0.18162083863E-02 -0.10636595799E-01 -0.34069015274E-01  0.35737005818E-01  0.00000000000E+00 0.  1.
  9000001    1    1    2    0    0 -0.18162083863E-02  0.10636595799E-01  0.34069015274E-01  0.35750994182E-01  0.10000000475E-02 0. -1.
</event>
<event>
 4   0  0.4892667E-02  0.9118800E+02  0.7818609E-02  0.1379984E+01
      -11   -1    0    0    0    0  0.00000000000E+00  0.00000000000E+00  0.35740347158E-01  0.35744000000E-01  0.51099999109E-03 0.  1.
       11   -1    0    0    0    0 -0.00000000000E+00 -0.00000000000E+00 -0.35740347158E-01  0.35744000000E-01  0.51099999109E-03 0. -1.
       22    1    1    2    0    0 -0.53199220579E-02 -0.11383600324E-01 -0.33455129021E-01  0.35737005818E-01  0.00000000000E+00 0. -1.
  9000001    1    1    2    0    0  0.53199220579E-02  0.11383600324E-01  0.33455129021E-01  0.35750994182E-01  0.10000000475E-02 0.  1.
</event>
<event>
 4   0  0.4892667E-02  0.9118800E+02  0.7818609E-02  0.1379984E+01
      -11   -1    0    0    0    0  0.00000000000E+00  0.00000000000E+00  0.35740347158E-01  0.35744000000E-01  0.51099999109E-03 0. -1.
       11   -1    0    0    0    0 -0.00000000000E+00 -0.00000000000E+00 -0.35740347158E-01  0.35744000000E-01  0.51099999109E-03 0.  1.
       22    1    1    2    0    0 -0.24045756630E-01  0.12793153300E-01 -0.23135911514E-01  0.35737005818E-01  0.00000000000E+00 0.  1.
  9000001    1    1    2    0    0  0.24045756630E-01 -0.12793153300E-01  0.23135911514E-01  0.35750994182E-01  0.10000000475E-02 0. -1.
</event>
<event>
 4   0  0.4892667E-02  0.9118800E+02  0.7818609E-02  0.1379984E+01
      -11   -1    0    0    0    0  0.00000000000E+00  0.00000000000E+00  0.35740347158E-01  0.35744000000E-01  0.51099999109E-03 0. -1.
       11   -1    0    0    0    0 -0.00000000000E+00 -0.00000000000E+00 -0.35740347158E-01  0.35744000000E-01  0.51099999109E-03 0.  1.
       22    1    1    2    0    0 -0.36709025786E-02 -0.43918728346E-03 -0.35545255290E-01  0.35737005818E-01  0.00000000000E+00 0.  1.
  9000001    1    1    2    0    0  0.36709025786E-02  0.43918728346E-03  0.35545255290E-01  0.35750994182E-01  0.10000000475E-02 0. -1.
</event>
<event>
 4   0  0.4892667E-02  0.9118800E+02  0.7818609E-02  0.1379984E+01
      -11   -1    0    0    0    0  0.00000000000E+00  0.00000000000E+00  0.35740347158E-01  0.35744000000E-01  0.51099999109E-03 0.  1.
       11   -1    0    0    0    0 -0.00000000000E+00 -0.00000000000E+00 -0.35740347158E-01  0.35744000000E-01  0.51099999109E-03 0. -1.
       22    1    1    2    0    0 -0.14736401275E-02  0.37092334655E-02  0.35513427837E-01  0.35737005818E-01  0.00000000000E+00 0.  1.
  9000001    1    1    2    0    0  0.14736401275E-02 -0.37092334655E-02 -0.35513427837E-01  0.35750994182E-01  0.10000000475E-02 0. -1.
</event>
<event>
 4   0  0.4892667E-02  0.9118800E+02  0.7818609E-02  0.1379984E+01
      -11   -1    0    0    0    0  0.00000000000E+00  0.00000000000E+00  0.35740347158E-01  0.35744000000E-01  0.51099999109E-03 0. -1.
       11   -1    0    0    0    0 -0.00000000000E+00 -0.00000000000E+00 -0.35740347158E-01  0.35744000000E-01  0.51099999109E-03 0.  1.
       22    1    1    2    0    0 -0.58273712752E-02 -0.19502122667E-01 -0.29374181527E-01  0.35737005818E-01  0.00000000000E+00 0.  1.
  9000001    1    1    2    0    0  0.58273712752E-02  0.19502122667E-01  0.29374181527E-01  0.35750994182E-01  0.10000000475E-02 0. -1.
</event>
<event>
 4   0  0.4892667E-02  0.9118800E+02  0.7818609E-02  0.1379984E+01
      -11   -1    0    0    0    0  0.00000000000E+00  0.00000000000E+00  0.35740347158E-01  0.35744000000E-01  0.51099999109E-03 0.  1.
       11   -1    0    0    0    0 -0.00000000000E+00 -0.00000000000E+00 -0.35740347158E-01  0.35744000000E-01  0.51099999109E-03 0. -1.
       22    1    1    2    0    0 -0.41559170686E-02 -0.37549776341E-02 -0.35295354952E-01  0.35737005818E-01  0.00000000000E+00 0. -1.
  9000001    1    1    2    0    0  0.41559170686E-02  0.37549776341E-02  0.35295354952E-01  0.35750994182E-01  0.10000000475E-02 0.  1.
</event>
<event>
 4   0  0.4892667E-02  0.9118800E+02  0.7818609E-02  0.1379984E+01
      -11   -1    0    0    0    0  0.00000000000E+00  0.00000000000E+00  0.35740347158E-01  0.35744000000E-01  0.51099999109E-03 0. -1.
       11   -1    0    0    0    0 -0.00000000000E+00 -0.00000000000E+00 -0.35740347158E-01  0.35744000000E-01  0.51099999109E-03 0.  1.
       22    1    1    2    0    0  0.54038474691E-02  0.32570211228E-02 -0.35175614150E-01  0.35737005818E-01  0.00000000000E+00 0.  1.
  9000001    1    1    2    0    0 -0.54038474691E-02 -0.32570211228E-02  0.35175614150E-01  0.35750994182E-01  0.10000000475E-02 0. -1.
</event>
<event>
 4   0  0.4892667E-02  0.9118800E+02  0.7818609E-02  0.1379984E+01
      -11   -1    0    0    0    0  0.00000000000E+00  0.00000000000E+00  0.35740347158E-01  0.35744000000E-01  0.51099999109E-03 0. -1.
       11   -1    0    0    0    0 -0.00000000000E+00 -0.00000000000E+00 -0.35740347158E-01  0.35744000000E-01  0.51099999109E-03 0.  1.
       22    1    1    2    0    0  0.70923850938E-03  0.48231812948E-02 -0.35402930497E-01  0.35737005818E-01  0.00000000000E+00 0.  1.
  9000001    1    1    2    0    0 -0.70923850938E-03 -0.48231812948E-02  0.35402930497E-01  0.35750994182E-01  0.10000000475E-02 0. -1.
</event>
<event>
 4   0  0.4892667E-02  0.9118800E+02  0.7818609E-02  0.1379984E+01
      -11   -1    0    0    0    0  0.00000000000E+00  0.00000000000E+00  0.35740347158E-01  0.35744000000E-01  0.51099999109E-03 0.  1.
       11   -1    0    0    0    0 -0.00000000000E+00 -0.00000000000E+00 -0.35740347158E-01  0.35744000000E-01  0.51099999109E-03 0. -1.
       22    1    1    2    0    0 -0.55375920544E-02 -0.64482230429E-02 -0.34711512193E-01  0.35737005818E-01  0.00000000000E+00 0. -1.
  9000001    1    1    2    0    0  0.55375920544E-02  0.64482230429E-02  0.34711512193E-01  0.35750994182E-01  0.10000000475E-02 0.  1.
</event>
<event>
 4   0  0.4892667E-02  0.9118800E+02  0.7818609E-02  0.1379984E+01
      -11   -1    0    0    0    0  0.00000000000E+00  0.00000000000E+00  0.35740347158E-01  0.35744000000E-01  0.51099999109E-03 0. -1.
       11   -1    0    0    0    0 -0.00000000000E+00 -0.00000000000E+00 -0.35740347158E-01  0.35744000000E-01  0.51099999109E-03 0.  1.
       22    1    1    2    0    0 -0.14265200195E-01 -0.92603760422E-02 -0.31430607436E-01  0.35737005818E-01  0.00000000000E+00 0.  1.
  9000001    1    1    2    0    0  0.14265200195E-01  0.92603760422E-02  0.31430607436E-01  0.35750994182E-01  0.10000000475E-02 0. -1.
</event>
<event>
 4   0  0.4892667E-02  0.9118800E+02  0.7818609E-02  0.1379984E+01
      -11   -1    0    0    0    0  0.00000000000E+00  0.00000000000E+00  0.35740347158E-01  0.35744000000E-01  0.51099999109E-03 0. -1.
       11   -1    0    0    0    0 -0.00000000000E+00 -0.00000000000E+00 -0.35740347158E-01  0.35744000000E-01  0.51099999109E-03 0.  1.
       22    1    1    2    0    0  0.22709454574E-01 -0.84355817122E-02  0.26272708635E-01  0.35737005818E-01  0.00000000000E+00 0. -1.
  9000001    1    1    2    0    0 -0.22709454574E-01  0.84355817122E-02 -0.26272708635E-01  0.35750994182E-01  0.10000000475E-02 0.  1.
</event>
<event>
 4   0  0.4892667E-02  0.9118800E+02  0.7818609E-02  0.1379984E+01
      -11   -1    0    0    0    0  0.00000000000E+00  0.00000000000E+00  0.35740347158E-01  0.35744000000E-01  0.51099999109E-03 0. -1.
       11   -1    0    0    0    0 -0.00000000000E+00 -0.00000000000E+00 -0.35740347158E-01  0.35744000000E-01  0.51099999109E-03 0.  1.
       22    1    1    2    0    0 -0.64452050045E-03  0.53927644449E-02  0.35321895049E-01  0.35737005818E-01  0.00000000000E+00 0. -1.
  9000001    1    1    2    0    0  0.64452050045E-03 -0.53927644449E-02 -0.35321895049E-01  0.35750994182E-01  0.10000000475E-02 0.  1.
</event>
<event>
 4   0  0.4892667E-02  0.9118800E+02  0.7818609E-02  0.1379984E+01
      -11   -1    0    0    0    0  0.00000000000E+00  0.00000000000E+00  0.35740347158E-01  0.35744000000E-01  0.51099999109E-03 0. -1.
       11   -1    0    0    0    0 -0.00000000000E+00 -0.00000000000E+00 -0.35740347158E-01  0.35744000000E-01  0.51099999109E-03 0.  1.
       22    1    1    2    0    0 -0.31625953997E-02  0.50701982352E-03  0.35593180612E-01  0.35737005818E-01  0.00000000000E+00 0. -1.
  9000001    1    1    2    0    0  0.31625953997E-02 -0.50701982352E-03 -0.35593180612E-01  0.35750994182E-01  0.10000000475E-02 0.  1.
</event>
<event>
 4   0  0.4892667E-02  0.9118800E+02  0.7818609E-02  0.1379984E+01
      -11   -1    0    0    0    0  0.00000000000E+00  0.00000000000E+00  0.35740347158E-01  0.35744000000E-01  0.51099999109E-03 0. -1.
       11   -1    0    0    0    0 -0.00000000000E+00 -0.00000000000E+00 -0.35740347158E-01  0.35744000000E-01  0.51099999109E-03 0.  1.
       22    1    1    2    0    0  0.25504106811E-02 -0.93529615254E-02 -0.34396963542E-01  0.35737005818E-01  0.00000000000E+00 0.  1.
  9000001    1    1    2    0    0 -0.25504106811E-02  0.93529615254E-02  0.34396963542E-01  0.35750994182E-01  0.10000000475E-02 0. -1.
</event>
<event>
 4   0  0.4892667E-02  0.9118800E+02  0.7818609E-02  0.1379984E+01
      -11   -1    0    0    0    0  0.00000000000E+00  0.00000000000E+00  0.35740347158E-01  0.35744000000E-01  0.51099999109E-03 0. -1.
       11   -1    0    0    0    0 -0.00000000000E+00 -0.00000000000E+00 -0.35740347158E-01  0.35744000000E-01  0.51099999109E-03 0.  1.
       22    1    1    2    0    0  0.30833334452E-01  0.90236525350E-02  0.15652883644E-01  0.35737005818E-01  0.00000000000E+00 0. -1.
  9000001    1    1    2    0    0 -0.30833334452E-01 -0.90236525350E-02 -0.15652883644E-01  0.35750994182E-01  0.10000000475E-02 0.  1.
</event>
<event>
 4   0  0.4892667E-02  0.9118800E+02  0.7818609E-02  0.1379984E+01
      -11   -1    0    0    0    0  0.00000000000E+00  0.00000000000E+00  0.35740347158E-01  0.35744000000E-01  0.51099999109E-03 0.  1.
       11   -1    0    0    0    0 -0.00000000000E+00 -0.00000000000E+00 -0.35740347158E-01  0.35744000000E-01  0.51099999109E-03 0. -1.
       22    1    1    2    0    0 -0.10669362327E-01 -0.10154629369E-01  0.32560432964E-01  0.35737005818E-01  0.00000000000E+00 0.  1.
  9000001    1    1    2    0    0  0.10669362327E-01  0.10154629369E-01 -0.32560432964E-01  0.35750994182E-01  0.10000000475E-02 0. -1.
</event>
<event>
 4   0  0.4892667E-02  0.9118800E+02  0.7818609E-02  0.1379984E+01
      -11   -1    0    0    0    0  0.00000000000E+00  0.00000000000E+00  0.35740347158E-01  0.35744000000E-01  0.51099999109E-03 0.  1.
       11   -1    0    0    0    0 -0.00000000000E+00 -0.00000000000E+00 -0.35740347158E-01  0.35744000000E-01  0.51099999109E-03 0. -1.
       22    1    1    2    0    0  0.90891237470E-02 -0.28267688439E-01 -0.19886156107E-01  0.35737005818E-01  0.00000000000E+00 0.  1.
  9000001    1    1    2    0    0 -0.90891237470E-02  0.28267688439E-01  0.19886156107E-01  0.35750994182E-01  0.10000000475E-02 0. -1.
</event>
<event>
 4   0  0.4892667E-02  0.9118800E+02  0.7818609E-02  0.1379984E+01
      -11   -1    0    0    0    0  0.00000000000E+00  0.00000000000E+00  0.35740347158E-01  0.35744000000E-01  0.51099999109E-03 0. -1.
       11   -1    0    0    0    0 -0.00000000000E+00 -0.00000000000E+00 -0.35740347158E-01  0.35744000000E-01  0.51099999109E-03 0.  1.
       22    1    1    2    0    0 -0.73581279861E-02  0.43598819571E-02 -0.34698457700E-01  0.35737005818E-01  0.00000000000E+00 0.  1.
  9000001    1    1    2    0    0  0.73581279861E-02 -0.43598819571E-02  0.34698457700E-01  0.35750994182E-01  0.10000000475E-02 0. -1.
</event>
<event>
 4   0  0.4892667E-02  0.9118800E+02  0.7818609E-02  0.1379984E+01
      -11   -1    0    0    0    0  0.00000000000E+00  0.00000000000E+00  0.35740347158E-01  0.35744000000E-01  0.51099999109E-03 0. -1.
       11   -1    0    0    0    0 -0.00000000000E+00 -0.00000000000E+00 -0.35740347158E-01  0.35744000000E-01  0.51099999109E-03 0.  1.
       22    1    1    2    0    0  0.21889347482E-01 -0.18269855194E-01 -0.21545357804E-01  0.35737005818E-01  0.00000000000E+00 0.  1.
  9000001    1    1    2    0    0 -0.21889347482E-01  0.18269855194E-01  0.21545357804E-01  0.35750994182E-01  0.10000000475E-02 0. -1.
</event>
<event>
 4   0  0.4892667E-02  0.9118800E+02  0.7818609E-02  0.1379984E+01
      -11   -1    0    0    0    0  0.00000000000E+00  0.00000000000E+00  0.35740347158E-01  0.35744000000E-01  0.51099999109E-03 0. -1.
       11   -1    0    0    0    0 -0.00000000000E+00 -0.00000000000E+00 -0.35740347158E-01  0.35744000000E-01  0.51099999109E-03 0.  1.
       22    1    1    2    0    0 -0.45444447381E-02  0.34945988206E-02  0.35274202840E-01  0.35737005818E-01  0.00000000000E+00 0. -1.
  9000001    1    1    2    0    0  0.45444447381E-02 -0.34945988206E-02 -0.35274202840E-01  0.35750994182E-01  0.10000000475E-02 0.  1.
</event>
<event>
 4   0  0.4892667E-02  0.9118800E+02  0.7818609E-02  0.1379984E+01
      -11   -1    0    0    0    0  0.00000000000E+00  0.00000000000E+00  0.35740347158E-01  0.35744000000E-01  0.51099999109E-03 0. -1.
       11   -1    0    0    0    0 -0.00000000000E+00 -0.00000000000E+00 -0.35740347158E-01  0.35744000000E-01  0.51099999109E-03 0.  1.
       22    1    1    2    0    0 -0.16973976670E-01 -0.11503358899E-02  0.31427606148E-01  0.35737005818E-01  0.00000000000E+00 0. -1.
  9000001    1    1    2    0    0  0.16973976670E-01  0.11503358899E-02 -0.31427606148E-01  0.35750994182E-01  0.10000000475E-02 0.  1.
</event>
<event>
 4   0  0.4892667E-02  0.9118800E+02  0.7818609E-02  0.1379984E+01
      -11   -1    0    0    0    0  0.00000000000E+00  0.00000000000E+00  0.35740347158E-01  0.35744000000E-01  0.51099999109E-03 0.  1.
       11   -1    0    0    0    0 -0.00000000000E+00 -0.00000000000E+00 -0.35740347158E-01  0.35744000000E-01  0.51099999109E-03 0. -1.
       22    1    1    2    0    0  0.17212685383E-01 -0.12640816197E-03 -0.31318382266E-01  0.35737005818E-01  0.00000000000E+00 0. -1.
  9000001    1    1    2    0    0 -0.17212685383E-01  0.12640816197E-03  0.31318382266E-01  0.35750994182E-01  0.10000000475E-02 0.  1.
</event>
<event>
 4   0  0.4892667E-02  0.9118800E+02  0.7818609E-02  0.1379984E+01
      -11   -1    0    0    0    0  0.00000000000E+00  0.00000000000E+00  0.35740347158E-01  0.35744000000E-01  0.51099999109E-03 0. -1.
       11   -1    0    0    0    0 -0.00000000000E+00 -0.00000000000E+00 -0.35740347158E-01  0.35744000000E-01  0.51099999109E-03 0.  1.
       22    1    1    2    0    0  0.19202239732E-02 -0.25154289115E-02  0.35596614195E-01  0.35737005818E-01  0.00000000000E+00 0. -1.
  9000001    1    1    2    0    0 -0.19202239732E-02  0.25154289115E-02 -0.35596614195E-01  0.35750994182E-01  0.10000000475E-02 0.  1.
</event>
<event>
 4   0  0.4892667E-02  0.9118800E+02  0.7818609E-02  0.1379984E+01
      -11   -1    0    0    0    0  0.00000000000E+00  0.00000000000E+00  0.35740347158E-01  0.35744000000E-01  0.51099999109E-03 0. -1.
       11   -1    0    0    0    0 -0.00000000000E+00 -0.00000000000E+00 -0.35740347158E-01  0.35744000000E-01  0.51099999109E-03 0.  1.
       22    1    1    2    0    0  0.65103524897E-02 -0.65238566444E-02 -0.34528078282E-01  0.35737005818E-01  0.00000000000E+00 0.  1.
  9000001    1    1    2    0    0 -0.65103524897E-02  0.65238566444E-02  0.34528078282E-01  0.35750994182E-01  0.10000000475E-02 0. -1.
</event>
<event>
 4   0  0.4892667E-02  0.9118800E+02  0.7818609E-02  0.1379984E+01
      -11   -1    0    0    0    0  0.00000000000E+00  0.00000000000E+00  0.35740347158E-01  0.35744000000E-01  0.51099999109E-03 0. -1.
       11   -1    0    0    0    0 -0.00000000000E+00 -0.00000000000E+00 -0.35740347158E-01  0.35744000000E-01  0.51099999109E-03 0.  1.
       22    1    1    2    0    0  0.11058843756E-02 -0.31994681593E-01 -0.15882410219E-01  0.35737005818E-01  0.00000000000E+00 0.  1.
  9000001    1    1    2    0    0 -0.11058843756E-02  0.31994681593E-01  0.15882410219E-01  0.35750994182E-01  0.10000000475E-02 0. -1.
</event>
<event>
 4   0  0.4892667E-02  0.9118800E+02  0.7818609E-02  0.1379984E+01
      -11   -1    0    0    0    0  0.00000000000E+00  0.00000000000E+00  0.35740347158E-01  0.35744000000E-01  0.51099999109E-03 0.  1.
       11   -1    0    0    0    0 -0.00000000000E+00 -0.00000000000E+00 -0.35740347158E-01  0.35744000000E-01  0.51099999109E-03 0. -1.
       22    1    1    2    0    0  0.13364918211E-02  0.58595160902E-02 -0.35228020746E-01  0.35737005818E-01  0.00000000000E+00 0. -1.
  9000001    1    1    2    0    0 -0.13364918211E-02 -0.58595160902E-02  0.35228020746E-01  0.35750994182E-01  0.10000000475E-02 0.  1.
</event>
<event>
 4   0  0.4892667E-02  0.9118800E+02  0.7818609E-02  0.1379984E+01
      -11   -1    0    0    0    0  0.00000000000E+00  0.00000000000E+00  0.35740347158E-01  0.35744000000E-01  0.51099999109E-03 0.  1.
       11   -1    0    0    0    0 -0.00000000000E+00 -0.00000000000E+00 -0.35740347158E-01  0.35744000000E-01  0.51099999109E-03 0. -1.
       22    1    1    2    0    0 -0.16732524568E-01 -0.12695493372E-01  0.28913330048E-01  0.35737005818E-01  0.00000000000E+00 0.  1.
  9000001    1    1    2    0    0  0.16732524568E-01  0.12695493372E-01 -0.28913330048E-01  0.35750994182E-01  0.10000000475E-02 0. -1.
</event>
<event>
 4   0  0.4892667E-02  0.9118800E+02  0.7818609E-02  0.1379984E+01
      -11   -1    0    0    0    0  0.00000000000E+00  0.00000000000E+00  0.35740347158E-01  0.35744000000E-01  0.51099999109E-03 0.  1.
       11   -1    0    0    0    0 -0.00000000000E+00 -0.00000000000E+00 -0.35740347158E-01  0.35744000000E-01  0.51099999109E-03 0. -1.
       22    1    1    2    0    0 -0.13140013279E-01 -0.32024900623E-01  0.88814061940E-02  0.35737005818E-01  0.00000000000E+00 0.  1.
  9000001    1    1    2    0    0  0.13140013279E-01  0.32024900623E-01 -0.88814061940E-02  0.35750994182E-01  0.10000000475E-02 0. -1.
</event>
<event>
 4   0  0.4892667E-02  0.9118800E+02  0.7818609E-02  0.1379984E+01
      -11   -1    0    0    0    0  0.00000000000E+00  0.00000000000E+00  0.35740347158E-01  0.35744000000E-01  0.51099999109E-03 0.  1.
       11   -1    0    0    0    0 -0.00000000000E+00 -0.00000000000E+00 -0.35740347158E-01  0.35744000000E-01  0.51099999109E-03 0. -1.
       22    1    1    2    0    0  0.50159653790E-02  0.17243057584E-02  0.35341200402E-01  0.35737005818E-01  0.00000000000E+00 0.  1.
  9000001    1    1    2    0    0 -0.50159653790E-02 -0.17243057584E-02 -0.35341200402E-01  0.35750994182E-01  0.10000000475E-02 0. -1.
</event>
<event>
 4   0  0.4892667E-02  0.9118800E+02  0.7818609E-02  0.1379984E+01
      -11   -1    0    0    0    0  0.00000000000E+00  0.00000000000E+00  0.35740347158E-01  0.35744000000E-01  0.51099999109E-03 0. -1.
       11   -1    0    0    0    0 -0.00000000000E+00 -0.00000000000E+00 -0.35740347158E-01  0.35744000000E-01  0.51099999109E-03 0.  1.
       22    1    1    2    0    0 -0.56916410388E-03 -0.53661040151E-02  0.35327249607E-01  0.35737005818E-01  0.00000000000E+00 0. -1.
  9000001    1    1    2    0    0  0.56916410388E-03  0.53661040151E-02 -0.35327249607E-01  0.35750994182E-01  0.10000000475E-02 0.  1.
</event>
<event>
 4   0  0.4892667E-02  0.9118800E+02  0.7818609E-02  0.1379984E+01
      -11   -1    0    0    0    0  0.00000000000E+00  0.00000000000E+00  0.35740347158E-01  0.35744000000E-01  0.51099999109E-03 0.  1.
       11   -1    0    0    0    0 -0.00000000000E+00 -0.00000000000E+00 -0.35740347158E-01  0.35744000000E-01  0.51099999109E-03 0. -1.
       22    1    1    2    0    0  0.42073091442E-02 -0.70150549124E-02 -0.34788232769E-01  0.35737005818E-01  0.00000000000E+00 0. -1.
  9000001    1    1    2    0    0 -0.42073091442E-02  0.70150549124E-02  0.34788232769E-01  0.35750994182E-01  0.10000000475E-02 0.  1.
</event>
<event>
 4   0  0.4892667E-02  0.9118800E+02  0.7818609E-02  0.1379984E+01
      -11   -1    0    0    0    0  0.00000000000E+00  0.00000000000E+00  0.35740347158E-01  0.35744000000E-01  0.51099999109E-03 0. -1.
       11   -1    0    0    0    0 -0.00000000000E+00 -0.00000000000E+00 -0.35740347158E-01  0.35744000000E-01  0.51099999109E-03 0.  1.
       22    1    1    2    0    0  0.59012884952E-02  0.20388533575E-01 -0.28750931770E-01  0.35737005818E-01  0.00000000000E+00 0.  1.
  9000001    1    1    2    0    0 -0.59012884952E-02 -0.20388533575E-01  0.28750931770E-01  0.35750994182E-01  0.10000000475E-02 0. -1.
</event>
<event>
 4   0  0.4892667E-02  0.9118800E+02  0.7818609E-02  0.1379984E+01
      -11   -1    0    0    0    0  0.00000000000E+00  0.00000000000E+00  0.35740347158E-01  0.35744000000E-01  0.51099999109E-03 0. -1.
       11   -1    0    0    0    0 -0.00000000000E+00 -0.00000000000E+00 -0.35740347158E-01  0.35744000000E-01  0.51099999109E-03 0.  1.
       22    1    1    2    0    0  0.60381588056E-02  0.34587292307E-02  0.35052980119E-01  0.35737005818E-01  0.00000000000E+00 0. -1.
  9000001    1    1    2    0    0 -0.60381588056E-02 -0.34587292307E-02 -0.35052980119E-01  0.35750994182E-01  0.10000000475E-02 0.  1.
</event>
<event>
 4   0  0.4892667E-02  0.9118800E+02  0.7818609E-02  0.1379984E+01
      -11   -1    0    0    0    0  0.00000000000E+00  0.00000000000E+00  0.35740347158E-01  0.35744000000E-01  0.51099999109E-03 0. -1.
       11   -1    0    0    0    0 -0.00000000000E+00 -0.00000000000E+00 -0.35740347158E-01  0.35744000000E-01  0.51099999109E-03 0.  1.
       22    1    1    2    0    0  0.10673468681E-01  0.56687366979E-02 -0.33631474476E-01  0.35737005818E-01  0.00000000000E+00 0.  1.
  9000001    1    1    2    0    0 -0.10673468681E-01 -0.56687366979E-02  0.33631474476E-01  0.35750994182E-01  0.10000000475E-02 0. -1.
</event>
<event>
 4   0  0.4892667E-02  0.9118800E+02  0.7818609E-02  0.1379984E+01
      -11   -1    0    0    0    0  0.00000000000E+00  0.00000000000E+00  0.35740347158E-01  0.35744000000E-01  0.51099999109E-03 0. -1.
       11   -1    0    0    0    0 -0.00000000000E+00 -0.00000000000E+00 -0.35740347158E-01  0.35744000000E-01  0.51099999109E-03 0.  1.
       22    1    1    2    0    0 -0.60132184151E-02 -0.43754471015E-02 -0.34954688553E-01  0.35737005818E-01  0.00000000000E+00 0.  1.
  9000001    1    1    2    0    0  0.60132184151E-02  0.43754471015E-02  0.34954688553E-01  0.35750994182E-01  0.10000000475E-02 0. -1.
</event>
<event>
 4   0  0.4892667E-02  0.9118800E+02  0.7818609E-02  0.1379984E+01
      -11   -1    0    0    0    0  0.00000000000E+00  0.00000000000E+00  0.35740347158E-01  0.35744000000E-01  0.51099999109E-03 0.  1.
       11   -1    0    0    0    0 -0.00000000000E+00 -0.00000000000E+00 -0.35740347158E-01  0.35744000000E-01  0.51099999109E-03 0. -1.
       22    1    1    2    0    0  0.20635748287E-02 -0.56767625205E-02 -0.35222856373E-01  0.35737005818E-01  0.00000000000E+00 0. -1.
  9000001    1    1    2    0    0 -0.20635748287E-02  0.56767625205E-02  0.35222856373E-01  0.35750994182E-01  0.10000000475E-02 0.  1.
</event>
<event>
 4   0  0.4892667E-02  0.9118800E+02  0.7818609E-02  0.1379984E+01
      -11   -1    0    0    0    0  0.00000000000E+00  0.00000000000E+00  0.35740347158E-01  0.35744000000E-01  0.51099999109E-03 0. -1.
       11   -1    0    0    0    0 -0.00000000000E+00 -0.00000000000E+00 -0.35740347158E-01  0.35744000000E-01  0.51099999109E-03 0.  1.
       22    1    1    2    0    0  0.80397557497E-03  0.30522354090E-02  0.35597346350E-01  0.35737005818E-01  0.00000000000E+00 0. -1.
  9000001    1    1    2    0    0 -0.80397557497E-03 -0.30522354090E-02 -0.35597346350E-01  0.35750994182E-01  0.10000000475E-02 0.  1.
</event>
<event>
 4   0  0.4892667E-02  0.9118800E+02  0.7818609E-02  0.1379984E+01
      -11   -1    0    0    0    0  0.00000000000E+00  0.00000000000E+00  0.35740347158E-01  0.35744000000E-01  0.51099999109E-03 0.  1.
       11   -1    0    0    0    0 -0.00000000000E+00 -0.00000000000E+00 -0.35740347158E-01  0.35744000000E-01  0.51099999109E-03 0. -1.
       22    1    1    2    0    0 -0.11468964436E-02 -0.32696636022E-02 -0.35568631030E-01  0.35737005818E-01  0.00000000000E+00 0. -1.
  9000001    1    1    2    0    0  0.11468964436E-02  0.32696636022E-02  0.35568631030E-01  0.35750994182E-01  0.10000000475E-02 0.  1.
</event>
<event>
 4   0  0.4892667E-02  0.9118800E+02  0.7818609E-02  0.1379984E+01
      -11   -1    0    0    0    0  0.00000000000E+00  0.00000000000E+00  0.35740347158E-01  0.35744000000E-01  0.51099999109E-03 0.  1.
       11   -1    0    0    0    0 -0.00000000000E+00 -0.00000000000E+00 -0.35740347158E-01  0.35744000000E-01  0.51099999109E-03 0. -1.
       22    1    1    2    0    0  0.44900608743E-02  0.21482264667E-02  0.35388671369E-01  0.35737005818E-01  0.00000000000E+00 0.  1.
  9000001    1    1    2    0    0 -0.44900608743E-02 -0.21482264667E-02 -0.35388671369E-01  0.35750994182E-01  0.10000000475E-02 0. -1.
</event>
<event>
 4   0  0.4892667E-02  0.9118800E+02  0.7818609E-02  0.1379984E+01
      -11   -1    0    0    0    0  0.00000000000E+00  0.00000000000E+00  0.35740347158E-01  0.35744000000E-01  0.51099999109E-03 0.  1.
       11   -1    0    0    0    0 -0.00000000000E+00 -0.00000000000E+00 -0.35740347158E-01  0.35744000000E-01  0.51099999109E-03 0. -1.
       22    1    1    2    0    0 -0.47403859090E-04  0.76306965219E-02 -0.34912802929E-01  0.35737005818E-01  0.00000000000E+00 0. -1.
  9000001    1    1    2    0    0  0.47403859090E-04 -0.76306965219E-02  0.34912802929E-01  0.35750994182E-01  0.10000000475E-02 0.  1.
</event>
<event>
 4   0  0.4892667E-02  0.9118800E+02  0.7818609E-02  0.1379984E+01
      -11   -1    0    0    0    0  0.00000000000E+00  0.00000000000E+00  0.35740347158E-01  0.35744000000E-01  0.51099999109E-03 0. -1.
       11   -1    0    0    0    0 -0.00000000000E+00 -0.00000000000E+00 -0.35740347158E-01  0.35744000000E-01  0.51099999109E-03 0.  1.
       22    1    1    2    0    0 -0.27785042473E-02  0.27372028866E-02 -0.35523530503E-01  0.35737005818E-01  0.00000000000E+00 0.  1.
  9000001    1    1    2    0    0  0.27785042473E-02 -0.27372028866E-02  0.35523530503E-01  0.35750994182E-01  0.10000000475E-02 0. -1.
</event>
<event>
 4   0  0.4892667E-02  0.9118800E+02  0.7818609E-02  0.1379984E+01
      -11   -1    0    0    0    0  0.00000000000E+00  0.00000000000E+00  0.35740347158E-01  0.35744000000E-01  0.51099999109E-03 0.  1.
       11   -1    0    0    0    0 -0.00000000000E+00 -0.00000000000E+00 -0.35740347158E-01  0.35744000000E-01  0.51099999109E-03 0. -1.
       22    1    1    2    0    0 -0.34170556054E-02  0.17747066611E-04  0.35573262444E-01  0.35737005818E-01  0.00000000000E+00 0.  1.
  9000001    1    1    2    0    0  0.34170556054E-02 -0.17747066611E-04 -0.35573262444E-01  0.35750994182E-01  0.10000000475E-02 0. -1.
</event>
<event>
 4   0  0.4892667E-02  0.9118800E+02  0.7818609E-02  0.1379984E+01
      -11   -1    0    0    0    0  0.00000000000E+00  0.00000000000E+00  0.35740347158E-01  0.35744000000E-01  0.51099999109E-03 0. -1.
       11   -1    0    0    0    0 -0.00000000000E+00 -0.00000000000E+00 -0.35740347158E-01  0.35744000000E-01  0.51099999109E-03 0.  1.
       22    1    1    2    0    0 -0.62792711964E-03 -0.10733149199E-01  0.34081355617E-01  0.35737005818E-01  0.00000000000E+00 0. -1.
  9000001    1    1    2    0    0  0.62792711964E-03  0.10733149199E-01 -0.34081355617E-01  0.35750994182E-01  0.10000000475E-02 0.  1.
</event>
<event>
 4   0  0.4892667E-02  0.9118800E+02  0.7818609E-02  0.1379984E+01
      -11   -1    0    0    0    0  0.00000000000E+00  0.00000000000E+00  0.35740347158E-01  0.35744000000E-01  0.51099999109E-03 0.  1.
       11   -1    0    0    0    0 -0.00000000000E+00 -0.00000000000E+00 -0.35740347158E-01  0.35744000000E-01  0.51099999109E-03 0. -1.
       22    1    1    2    0    0  0.30017686216E-01  0.16541534569E-01 -0.10121745560E-01  0.35737005818E-01  0.00000000000E+00 0. -1.
  9000001    1    1    2    0    0 -0.30017686216E-01 -0.16541534569E-01  0.10121745560E-01  0.35750994182E-01  0.10000000475E-02 0.  1.
</event>
<event>
 4   0  0.4892667E-02  0.9118800E+02  0.7818609E-02  0.1379984E+01
      -11   -1    0    0    0    0  0.00000000000E+00  0.00000000000E+00  0.35740347158E-01  0.35744000000E-01  0.51099999109E-03 0. -1.
       11   -1    0    0    0    0 -0.00000000000E+00 -0.00000000000E+00 -0.35740347158E-01  0.35744000000E-01  0.51099999109E-03 0.  1.
       22    1    1    2    0    0  0.12264858742E-02 -0.56872548231E-02  0.35260238936E-01  0.35737005818E-01  0.00000000000E+00 0. -1.
  9000001    1    1    2    0    0 -0.12264858742E-02  0.56872548231E-02 -0.35260238936E-01  0.35750994182E-01  0.10000000475E-02 0.  1.
</event>
<event>
 4   0  0.4892667E-02  0.9118800E+02  0.7818609E-02  0.1379984E+01
      -11   -1    0    0    0    0  0.00000000000E+00  0.00000000000E+00  0.35740347158E-01  0.35744000000E-01  0.51099999109E-03 0. -1.
       11   -1    0    0    0    0 -0.00000000000E+00 -0.00000000000E+00 -0.35740347158E-01  0.35744000000E-01  0.51099999109E-03 0.  1.
       22    1    1    2    0    0 -0.15826476324E-01 -0.71978072715E-02  0.31222552787E-01  0.35737005818E-01  0.00000000000E+00 0. -1.
  9000001    1    1    2    0    0  0.15826476324E-01  0.71978072715E-02 -0.31222552787E-01  0.35750994182E-01  0.10000000475E-02 0.  1.
</event>
<event>
 4   0  0.4892667E-02  0.9118800E+02  0.7818609E-02  0.1379984E+01
      -11   -1    0    0    0    0  0.00000000000E+00  0.00000000000E+00  0.35740347158E-01  0.35744000000E-01  0.51099999109E-03 0.  1.
       11   -1    0    0    0    0 -0.00000000000E+00 -0.00000000000E+00 -0.35740347158E-01  0.35744000000E-01  0.51099999109E-03 0. -1.
       22    1    1    2    0    0 -0.25054137224E-02 -0.47109781264E-02 -0.35336428400E-01  0.35737005818E-01  0.00000000000E+00 0. -1.
  9000001    1    1    2    0    0  0.25054137224E-02  0.47109781264E-02  0.35336428400E-01  0.35750994182E-01  0.10000000475E-02 0.  1.
</event>
<event>
 4   0  0.4892667E-02  0.9118800E+02  0.7818609E-02  0.1379984E+01
      -11   -1    0    0    0    0  0.00000000000E+00  0.00000000000E+00  0.35740347158E-01  0.35744000000E-01  0.51099999109E-03 0.  1.
       11   -1    0    0    0    0 -0.00000000000E+00 -0.00000000000E+00 -0.35740347158E-01  0.35744000000E-01  0.51099999109E-03 0. -1.
       22    1    1    2    0    0 -0.12654267549E-02  0.68460658601E-02 -0.35052298958E-01  0.35737005818E-01  0.00000000000E+00 0. -1.
  9000001    1    1    2    0    0  0.12654267549E-02 -0.68460658601E-02  0.35052298958E-01  0.35750994182E-01  0.10000000475E-02 0.  1.
</event>
<event>
 4   0  0.4892667E-02  0.9118800E+02  0.7818609E-02  0.1379984E+01
      -11   -1    0    0    0    0  0.00000000000E+00  0.00000000000E+00  0.35740347158E-01  0.35744000000E-01  0.51099999109E-03 0.  1.
       11   -1    0    0    0    0 -0.00000000000E+00 -0.00000000000E+00 -0.35740347158E-01  0.35744000000E-01  0.51099999109E-03 0. -1.
       22    1    1    2    0    0  0.23475917548E-01  0.80933935462E-02  0.25700425309E-01  0.35737005818E-01  0.00000000000E+00 0.  1.
  9000001    1    1    2    0    0 -0.23475917548E-01 -0.80933935462E-02 -0.25700425309E-01  0.35750994182E-01  0.10000000475E-02 0. -1.
</event>
<event>
 4   0  0.4892667E-02  0.9118800E+02  0.7818609E-02  0.1379984E+01
      -11   -1    0    0    0    0  0.00000000000E+00  0.00000000000E+00  0.35740347158E-01  0.35744000000E-01  0.51099999109E-03 0.  1.
       11   -1    0    0    0    0 -0.00000000000E+00 -0.00000000000E+00 -0.35740347158E-01  0.35744000000E-01  0.51099999109E-03 0. -1.
       22    1    1    2    0    0 -0.47179134380E-02  0.94258528724E-03 -0.35411670543E-01  0.35737005818E-01  0.00000000000E+00 0. -1.
  9000001    1    1    2    0    0  0.47179134380E-02 -0.94258528724E-03  0.35411670543E-01  0.35750994182E-01  0.10000000475E-02 0.  1.
</event>
<event>
 4   0  0.4892667E-02  0.9118800E+02  0.7818609E-02  0.1379984E+01
      -11   -1    0    0    0    0  0.00000000000E+00  0.00000000000E+00  0.35740347158E-01  0.35744000000E-01  0.51099999109E-03 0.  1.
       11   -1    0    0    0    0 -0.00000000000E+00 -0.00000000000E+00 -0.35740347158E-01  0.35744000000E-01  0.51099999109E-03 0. -1.
       22    1    1    2    0    0  0.73145634081E-02 -0.11239658728E-01 -0.33125531221E-01  0.35737005818E-01  0.00000000000E+00 0. -1.
  9000001    1    1    2    0    0 -0.73145634081E-02  0.11239658728E-01  0.33125531221E-01  0.35750994182E-01  0.10000000475E-02 0.  1.
</event>
<event>
 4   0  0.4892667E-02  0.9118800E+02  0.7818609E-02  0.1379984E+01
      -11   -1    0    0    0    0  0.00000000000E+00  0.00000000000E+00  0.35740347158E-01  0.35744000000E-01  0.51099999109E-03 0.  1.
       11   -1    0    0    0    0 -0.00000000000E+00 -0.00000000000E+00 -0.35740347158E-01  0.35744000000E-01  0.51099999109E-03 0. -1.
       22    1    1    2    0    0 -0.22273978261E-01 -0.23351442966E-01 -0.15352966772E-01  0.35737005818E-01  0.00000000000E+00 0. -1.
  9000001    1    1    2    0    0  0.22273978261E-01  0.23351442966E-01  0.15352966772E-01  0.35750994182E-01  0.10000000475E-02 0.  1.
</event>
<event>
 4   0  0.4892667E-02  0.9118800E+02  0.7818609E-02  0.1379984E+01
      -11   -1    0    0    0    0  0.00000000000E+00  0.00000000000E+00  0.35740347158E-01  0.35744000000E-01  0.51099999109E-03 0. -1.
       11   -1    0    0    0    0 -0.00000000000E+00 -0.00000000000E+00 -0.35740347158E-01  0.35744000000E-01  0.51099999109E-03 0.  1.
       22    1    1    2    0    0 -0.29153259502E-01 -0.95039706602E-02 -0.18354715660E-01  0.35737005818E-01  0.00000000000E+00 0.  1.
  9000001    1    1    2    0    0  0.29153259502E-01  0.95039706602E-02  0.18354715660E-01  0.35750994182E-01  0.10000000475E-02 0. -1.
</event>
<event>
 4   0  0.4892667E-02  0.9118800E+02  0.7818609E-02  0.1379984E+01
      -11   -1    0    0    0    0  0.00000000000E+00  0.00000000000E+00  0.35740347158E-01  0.35744000000E-01  0.51099999109E-03 0.  1.
       11   -1    0    0    0    0 -0.00000000000E+00 -0.00000000000E+00 -0.35740347158E-01  0.35744000000E-01  0.51099999109E-03 0. -1.
       22    1    1    2    0    0 -0.14686601689E-01  0.17152329575E-01  0.27699005503E-01  0.35737005818E-01  0.00000000000E+00 0.  1.
  9000001    1    1    2    0    0  0.14686601689E-01 -0.17152329575E-01 -0.27699005503E-01  0.35750994182E-01  0.10000000475E-02 0. -1.
</event>
<event>
 4   0  0.4892667E-02  0.9118800E+02  0.7818609E-02  0.1379984E+01
      -11   -1    0    0    0    0  0.00000000000E+00  0.00000000000E+00  0.35740347158E-01  0.35744000000E-01  0.51099999109E-03 0.  1.
       11   -1    0    0    0    0 -0.00000000000E+00 -0.00000000000E+00 -0.35740347158E-01  0.35744000000E-01  0.51099999109E-03 0. -1.
       22    1    1    2    0    0 -0.26779126745E-01  0.17815611946E-01 -0.15576133237E-01  0.35737005818E-01  0.00000000000E+00 0. -1.
  9000001    1    1    2    0    0  0.26779126745E-01 -0.17815611946E-01  0.15576133237E-01  0.35750994182E-01  0.10000000475E-02 0.  1.
</event>
<event>
 4   0  0.4892667E-02  0.9118800E+02  0.7818609E-02  0.1379984E+01
      -11   -1    0    0    0    0  0.00000000000E+00  0.00000000000E+00  0.35740347158E-01  0.35744000000E-01  0.51099999109E-03 0. -1.
       11   -1    0    0    0    0 -0.00000000000E+00 -0.00000000000E+00 -0.35740347158E-01  0.35744000000E-01  0.51099999109E-03 0.  1.
       22    1    1    2    0    0  0.31434555325E-02 -0.36370021439E-02 -0.35412208172E-01  0.35737005818E-01  0.00000000000E+00 0.  1.
  9000001    1    1    2    0    0 -0.31434555325E-02  0.36370021439E-02  0.35412208172E-01  0.35750994182E-01  0.10000000475E-02 0. -1.
</event>
<event>
 4   0  0.4892667E-02  0.9118800E+02  0.7818609E-02  0.1379984E+01
      -11   -1    0    0    0    0  0.00000000000E+00  0.00000000000E+00  0.35740347158E-01  0.35744000000E-01  0.51099999109E-03 0. -1.
       11   -1    0    0    0    0 -0.00000000000E+00 -0.00000000000E+00 -0.35740347158E-01  0.35744000000E-01  0.51099999109E-03 0.  1.
       22    1    1    2    0    0  0.27027359555E-01  0.90464350503E-02 -0.21559625072E-01  0.35737005818E-01  0.00000000000E+00 0.  1.
  9000001    1    1    2    0    0 -0.27027359555E-01 -0.90464350503E-02  0.21559625072E-01  0.35750994182E-01  0.10000000475E-02 0. -1.
</event>
<event>
 4   0  0.4892667E-02  0.9118800E+02  0.7818609E-02  0.1379984E+01
      -11   -1    0    0    0    0  0.00000000000E+00  0.00000000000E+00  0.35740347158E-01  0.35744000000E-01  0.51099999109E-03 0. -1.
       11   -1    0    0    0    0 -0.00000000000E+00 -0.00000000000E+00 -0.35740347158E-01  0.35744000000E-01  0.51099999109E-03 0.  1.
       22    1    1    2    0    0 -0.14853819671E-02  0.38560825376E-02 -0.35497293597E-01  0.35737005818E-01  0.00000000000E+00 0.  1.
  9000001    1    1    2    0    0  0.14853819671E-02 -0.38560825376E-02  0.35497293597E-01  0.35750994182E-01  0.10000000475E-02 0. -1.
</event>
<event>
 4   0  0.4892667E-02  0.9118800E+02  0.7818609E-02  0.1379984E+01
      -11   -1    0    0    0    0  0.00000000000E+00  0.00000000000E+00  0.35740347158E-01  0.35744000000E-01  0.51099999109E-03 0.  1.
       11   -1    0    0    0    0 -0.00000000000E+00 -0.00000000000E+00 -0.35740347158E-01  0.35744000000E-01  0.51099999109E-03 0. -1.
       22    1    1    2    0    0  0.34169206220E-01  0.94670692433E-02  0.44691756635E-02  0.35737005818E-01  0.00000000000E+00 0.  1.
  9000001    1    1    2    0    0 -0.34169206220E-01 -0.94670692433E-02 -0.44691756635E-02  0.35750994182E-01  0.10000000475E-02 0. -1.
</event>
<event>
 4   0  0.4892667E-02  0.9118800E+02  0.7818609E-02  0.1379984E+01
      -11   -1    0    0    0    0  0.00000000000E+00  0.00000000000E+00  0.35740347158E-01  0.35744000000E-01  0.51099999109E-03 0. -1.
       11   -1    0    0    0    0 -0.00000000000E+00 -0.00000000000E+00 -0.35740347158E-01  0.35744000000E-01  0.51099999109E-03 0.  1.
       22    1    1    2    0    0  0.58335941979E-02  0.19732498305E-01  0.29218680228E-01  0.35737005818E-01  0.00000000000E+00 0. -1.
  9000001    1    1    2    0    0 -0.58335941979E-02 -0.19732498305E-01 -0.29218680228E-01  0.35750994182E-01  0.10000000475E-02 0.  1.
</event>
<event>
 4   0  0.4892667E-02  0.9118800E+02  0.7818609E-02  0.1379984E+01
      -11   -1    0    0    0    0  0.00000000000E+00  0.00000000000E+00  0.35740347158E-01  0.35744000000E-01  0.51099999109E-03 0. -1.
       11   -1    0    0    0    0 -0.00000000000E+00 -0.00000000000E+00 -0.35740347158E-01  0.35744000000E-01  0.51099999109E-03 0.  1.
       22    1    1    2    0    0  0.11427870389E-01 -0.32582646536E-01 -0.92145812706E-02  0.35737005818E-01  0.00000000000E+00 0. -1.
  9000001    1    1    2    0    0 -0.11427870389E-01  0.32582646536E-01  0.92145812706E-02  0.35750994182E-01  0.10000000475E-02 0.  1.
</event>
<event>
 4   0  0.4892667E-02  0.9118800E+02  0.7818609E-02  0.1379984E+01
      -11   -1    0    0    0    0  0.00000000000E+00  0.00000000000E+00  0.35740347158E-01  0.35744000000E-01  0.51099999109E-03 0. -1.
       11   -1    0    0    0    0 -0.00000000000E+00 -0.00000000000E+00 -0.35740347158E-01  0.35744000000E-01  0.51099999109E-03 0.  1.
       22    1    1    2    0    0 -0.50727775380E-03 -0.25468657979E-01  0.25064391373E-01  0.35737005818E-01  0.00000000000E+00 0. -1.
  9000001    1    1    2    0    0  0.50727775380E-03  0.25468657979E-01 -0.25064391373E-01  0.35750994182E-01  0.10000000475E-02 0.  1.
</event>
<event>
 4   0  0.4892667E-02  0.9118800E+02  0.7818609E-02  0.1379984E+01
      -11   -1    0    0    0    0  0.00000000000E+00  0.00000000000E+00  0.35740347158E-01  0.35744000000E-01  0.51099999109E-03 0. -1.
       11   -1    0    0    0    0 -0.00000000000E+00 -0.00000000000E+00 -0.35740347158E-01  0.35744000000E-01  0.51099999109E-03 0.  1.
       22    1    1    2    0    0 -0.11936605839E-01  0.51540259914E-02  0.33287941390E-01  0.35737005818E-01  0.00000000000E+00 0. -1.
  9000001    1    1    2    0    0  0.11936605839E-01 -0.51540259914E-02 -0.33287941390E-01  0.35750994182E-01  0.10000000475E-02 0.  1.
</event>
<event>
 4   0  0.4892667E-02  0.9118800E+02  0.7818609E-02  0.1379984E+01
      -11   -1    0    0    0    0  0.00000000000E+00  0.00000000000E+00  0.35740347158E-01  0.35744000000E-01  0.51099999109E-03 0.  1.
       11   -1    0    0    0    0 -0.00000000000E+00 -0.00000000000E+00 -0.35740347158E-01  0.35744000000E-01  0.51099999109E-03 0. -1.
       22    1    1    2    0    0 -0.13399283574E-01 -0.21398457647E-01  0.25292267492E-01  0.35737005818E-01  0.00000000000E+00 0.  1.
  9000001    1    1    2    0    0  0.13399283574E-01  0.21398457647E-01 -0.25292267492E-01  0.35750994182E-01  0.10000000475E-02 0. -1.
</event>
<event>
 4   0  0.4892667E-02  0.9118800E+02  0.7818609E-02  0.1379984E+01
      -11   -1    0    0    0    0  0.00000000000E+00  0.00000000000E+00  0.35740347158E-01  0.35744000000E-01  0.51099999109E-03 0. -1.
       11   -1    0    0    0    0 -0.00000000000E+00 -0.00000000000E+00 -0.35740347158E-01  0.35744000000E-01  0.51099999109E-03 0.  1.
       22    1    1    2    0    0  0.10068403256E-02  0.20978755547E-01 -0.28913866451E-01  0.35737005818E-01  0.00000000000E+00 0.  1.
  9000001    1    1    2    0    0 -0.10068403256E-02 -0.20978755547E-01  0.28913866451E-01  0.35750994182E-01  0.10000000475E-02 0. -1.
</event>
<event>
 4   0  0.4892667E-02  0.9118800E+02  0.7818609E-02  0.1379984E+01
      -11   -1    0    0    0    0  0.00000000000E+00  0.00000000000E+00  0.35740347158E-01  0.35744000000E-01  0.51099999109E-03 0. -1.
       11   -1    0    0    0    0 -0.00000000000E+00 -0.00000000000E+00 -0.35740347158E-01  0.35744000000E-01  0.51099999109E-03 0.  1.
       22    1    1    2    0    0  0.11028899706E-01  0.55821661528E-02  0.33531125498E-01  0.35737005818E-01  0.00000000000E+00 0. -1.
  9000001    1    1    2    0    0 -0.11028899706E-01 -0.55821661528E-02 -0.33531125498E-01  0.35750994182E-01  0.10000000475E-02 0.  1.
</event>
<event>
 4   0  0.4892667E-02  0.9118800E+02  0.7818609E-02  0.1379984E+01
      -11   -1    0    0    0    0  0.00000000000E+00  0.00000000000E+00  0.35740347158E-01  0.35744000000E-01  0.51099999109E-03 0. -1.
       11   -1    0    0    0    0 -0.00000000000E+00 -0.00000000000E+00 -0.35740347158E-01  0.35744000000E-01  0.51099999109E-03 0.  1.
       22    1    1    2    0    0  0.12864487908E-03 -0.11143431890E-01 -0.33954984333E-01  0.35737005818E-01  0.00000000000E+00 0.  1.
  9000001    1    1    2    0    0 -0.12864487908E-03  0.11143431890E-01  0.33954984333E-01  0.35750994182E-01  0.10000000475E-02 0. -1.
</event>
<event>
 4   0  0.4892667E-02  0.9118800E+02  0.7818609E-02  0.1379984E+01
      -11   -1    0    0    0    0  0.00000000000E+00  0.00000000000E+00  0.35740347158E-01  0.35744000000E-01  0.51099999109E-03 0.  1.
       11   -1    0    0    0    0 -0.00000000000E+00 -0.00000000000E+00 -0.35740347158E-01  0.35744000000E-01  0.51099999109E-03 0. -1.
       22    1    1    2    0    0  0.45959085133E-02  0.27497916904E-03 -0.35439181653E-01  0.35737005818E-01  0.00000000000E+00 0. -1.
  9000001    1    1    2    0    0 -0.45959085133E-02 -0.27497916904E-03  0.35439181653E-01  0.35750994182E-01  0.10000000475E-02 0.  1.
</event>
<event>
 4   0  0.4892667E-02  0.9118800E+02  0.7818609E-02  0.1379984E+01
      -11   -1    0    0    0    0  0.00000000000E+00  0.00000000000E+00  0.35740347158E-01  0.35744000000E-01  0.51099999109E-03 0. -1.
       11   -1    0    0    0    0 -0.00000000000E+00 -0.00000000000E+00 -0.35740347158E-01  0.35744000000E-01  0.51099999109E-03 0.  1.
       22    1    1    2    0    0  0.21987485803E-02  0.33944885225E-02  0.35507415243E-01  0.35737005818E-01  0.00000000000E+00 0. -1.
  9000001    1    1    2    0    0 -0.21987485803E-02 -0.33944885225E-02 -0.35507415243E-01  0.35750994182E-01  0.10000000475E-02 0.  1.
</event>
<event>
 4   0  0.4892667E-02  0.9118800E+02  0.7818609E-02  0.1379984E+01
      -11   -1    0    0    0    0  0.00000000000E+00  0.00000000000E+00  0.35740347158E-01  0.35744000000E-01  0.51099999109E-03 0. -1.
       11   -1    0    0    0    0 -0.00000000000E+00 -0.00000000000E+00 -0.35740347158E-01  0.35744000000E-01  0.51099999109E-03 0.  1.
       22    1    1    2    0    0 -0.34118214753E-02  0.16365306767E-02 -0.35536105955E-01  0.35737005818E-01  0.00000000000E+00 0.  1.
  9000001    1    1    2    0    0  0.34118214753E-02 -0.16365306767E-02  0.35536105955E-01  0.35750994182E-01  0.10000000475E-02 0. -1.
</event>
<event>
 4   0  0.4892667E-02  0.9118800E+02  0.7818609E-02  0.1379984E+01
      -11   -1    0    0    0    0  0.00000000000E+00  0.00000000000E+00  0.35740347158E-01  0.35744000000E-01  0.51099999109E-03 0. -1.
       11   -1    0    0    0    0 -0.00000000000E+00 -0.00000000000E+00 -0.35740347158E-01  0.35744000000E-01  0.51099999109E-03 0.  1.
       22    1    1    2    0    0  0.11163386852E-01 -0.22565376606E-02 -0.33873594681E-01  0.35737005818E-01  0.00000000000E+00 0.  1.
  9000001    1    1    2    0    0 -0.11163386852E-01  0.22565376606E-02  0.33873594681E-01  0.35750994182E-01  0.10000000475E-02 0. -1.
</event>
<event>
 4   0  0.4892667E-02  0.9118800E+02  0.7818609E-02  0.1379984E+01
      -11   -1    0    0    0    0  0.00000000000E+00  0.00000000000E+00  0.35740347158E-01  0.35744000000E-01  0.51099999109E-03 0.  1.
       11   -1    0    0    0    0 -0.00000000000E+00 -0.00000000000E+00 -0.35740347158E-01  0.35744000000E-01  0.51099999109E-03 0. -1.
       22    1    1    2    0    0 -0.48860784086E-02 -0.10696169306E-01  0.33746878150E-01  0.35737005818E-01  0.00000000000E+00 0.  1.
  9000001    1    1    2    0    0  0.48860784086E-02  0.10696169306E-01 -0.33746878150E-01  0.35750994182E-01  0.10000000475E-02 0. -1.
</event>
<event>
 4   0  0.4892667E-02  0.9118800E+02  0.7818609E-02  0.1379984E+01
      -11   -1    0    0    0    0  0.00000000000E+00  0.00000000000E+00  0.35740347158E-01  0.35744000000E-01  0.51099999109E-03 0.  1.
       11   -1    0    0    0    0 -0.00000000000E+00 -0.00000000000E+00 -0.35740347158E-01  0.35744000000E-01  0.51099999109E-03 0. -1.
       22    1    1    2    0    0  0.20712208656E-01  0.54338117273E-02  0.28611390871E-01  0.35737005818E-01  0.00000000000E+00 0.  1.
  9000001    1    1    2    0    0 -0.20712208656E-01 -0.54338117273E-02 -0.28611390871E-01  0.35750994182E-01  0.10000000475E-02 0. -1.
</event>
<event>
 4   0  0.4892667E-02  0.9118800E+02  0.7818609E-02  0.1379984E+01
      -11   -1    0    0    0    0  0.00000000000E+00  0.00000000000E+00  0.35740347158E-01  0.35744000000E-01  0.51099999109E-03 0. -1.
       11   -1    0    0    0    0 -0.00000000000E+00 -0.00000000000E+00 -0.35740347158E-01  0.35744000000E-01  0.51099999109E-03 0.  1.
       22    1    1    2    0    0 -0.16252211408E-01 -0.49633372688E-02  0.31438264780E-01  0.35737005818E-01  0.00000000000E+00 0. -1.
  9000001    1    1    2    0    0  0.16252211408E-01  0.49633372688E-02 -0.31438264780E-01  0.35750994182E-01  0.10000000475E-02 0.  1.
</event>
<event>
 4   0  0.4892667E-02  0.9118800E+02  0.7818609E-02  0.1379984E+01
      -11   -1    0    0    0    0  0.00000000000E+00  0.00000000000E+00  0.35740347158E-01  0.35744000000E-01  0.51099999109E-03 0. -1.
       11   -1    0    0    0    0 -0.00000000000E+00 -0.00000000000E+00 -0.35740347158E-01  0.35744000000E-01  0.51099999109E-03 0.  1.
       22    1    1    2    0    0  0.10257369900E-01  0.74834032611E-02  0.33405368180E-01  0.35737005818E-01  0.00000000000E+00 0. -1.
  9000001    1    1    2    0    0 -0.10257369900E-01 -0.74834032611E-02 -0.33405368180E-01  0.35750994182E-01  0.10000000475E-02 0.  1.
</event>
<event>
 4   0  0.4892667E-02  0.9118800E+02  0.7818609E-02  0.1379984E+01
      -11   -1    0    0    0    0  0.00000000000E+00  0.00000000000E+00  0.35740347158E-01  0.35744000000E-01  0.51099999109E-03 0.  1.
       11   -1    0    0    0    0 -0.00000000000E+00 -0.00000000000E+00 -0.35740347158E-01  0.35744000000E-01  0.51099999109E-03 0. -1.
       22    1    1    2    0    0  0.35442052900E-01 -0.39684269870E-02 -0.22904275515E-02  0.35737005818E-01  0.00000000000E+00 0.  1.
  9000001    1    1    2    0    0 -0.35442052900E-01  0.39684269870E-02  0.22904275515E-02  0.35750994182E-01  0.10000000475E-02 0. -1.
</event>
<event>
 4   0  0.4892667E-02  0.9118800E+02  0.7818609E-02  0.1379984E+01
      -11   -1    0    0    0    0  0.00000000000E+00  0.00000000000E+00  0.35740347158E-01  0.35744000000E-01  0.51099999109E-03 0. -1.
       11   -1    0    0    0    0 -0.00000000000E+00 -0.00000000000E+00 -0.35740347158E-01  0.35744000000E-01  0.51099999109E-03 0.  1.
       22    1    1    2    0    0 -0.14134715360E-01 -0.35825741644E-02 -0.32626807519E-01  0.35737005818E-01  0.00000000000E+00 0.  1.
  9000001    1    1    2    0    0  0.14134715360E-01  0.35825741644E-02  0.32626807519E-01  0.35750994182E-01  0.10000000475E-02 0. -1.
</event>
<event>
 4   0  0.4892667E-02  0.9118800E+02  0.7818609E-02  0.1379984E+01
      -11   -1    0    0    0    0  0.00000000000E+00  0.00000000000E+00  0.35740347158E-01  0.35744000000E-01  0.51099999109E-03 0.  1.
       11   -1    0    0    0    0 -0.00000000000E+00 -0.00000000000E+00 -0.35740347158E-01  0.35744000000E-01  0.51099999109E-03 0. -1.
       22    1    1    2    0    0  0.18809007360E-01  0.18346793931E-01  0.24222922604E-01  0.35737005818E-01  0.00000000000E+00 0.  1.
  9000001    1    1    2    0    0 -0.18809007360E-01 -0.18346793931E-01 -0.24222922604E-01  0.35750994182E-01  0.10000000475E-02 0. -1.
</event>
<event>
 4   0  0.4892667E-02  0.9118800E+02  0.7818609E-02  0.1379984E+01
      -11   -1    0    0    0    0  0.00000000000E+00  0.00000000000E+00  0.35740347158E-01  0.35744000000E-01  0.51099999109E-03 0.  1.
       11   -1    0    0    0    0 -0.00000000000E+00 -0.00000000000E+00 -0.35740347158E-01  0.35744000000E-01  0.51099999109E-03 0. -1.
       22    1    1    2    0    0  0.35659508057E-02  0.84157788739E-02 -0.34548404387E-01  0.35737005818E-01  0.00000000000E+00 0. -1.
  9000001    1    1    2    0    0 -0.35659508057E-02 -0.84157788739E-02  0.34548404387E-01  0.35750994182E-01  0.10000000475E-02 0.  1.
</event>
<event>
 4   0  0.4892667E-02  0.9118800E+02  0.7818609E-02  0.1379984E+01
      -11   -1    0    0    0    0  0.00000000000E+00  0.00000000000E+00  0.35740347158E-01  0.35744000000E-01  0.51099999109E-03 0.  1.
       11   -1    0    0    0    0 -0.00000000000E+00 -0.00000000000E+00 -0.35740347158E-01  0.35744000000E-01  0.51099999109E-03 0. -1.
       22    1    1    2    0    0  0.45061842556E-02  0.11507126471E-02 -0.35433088332E-01  0.35737005818E-01  0.00000000000E+00 0. -1.
  9000001    1    1    2    0    0 -0.45061842556E-02 -0.11507126471E-02  0.35433088332E-01  0.35750994182E-01  0.10000000475E-02 0.  1.
</event>
<event>
 4   0  0.4892667E-02  0.9118800E+02  0.7818609E-02  0.1379984E+01
      -11   -1    0    0    0    0  0.00000000000E+00  0.00000000000E+00  0.35740347158E-01  0.35744000000E-01  0.51099999109E-03 0.  1.
       11   -1    0    0    0    0 -0.00000000000E+00 -0.00000000000E+00 -0.35740347158E-01  0.35744000000E-01  0.51099999109E-03 0. -1.
       22    1    1    2    0    0  0.80791793553E-02 -0.69201018932E-02  0.34117043184E-01  0.35737005818E-01  0.00000000000E+00 0.  1.
  9000001    1    1    2    0    0 -0.80791793553E-02  0.69201018932E-02 -0.34117043184E-01  0.35750994182E-01  0.10000000475E-02 0. -1.
</event>
<event>
 4   0  0.4892667E-02  0.9118800E+02  0.7818609E-02  0.1379984E+01
      -11   -1    0    0    0    0  0.00000000000E+00  0.00000000000E+00  0.35740347158E-01  0.35744000000E-01  0.51099999109E-03 0.  1.
       11   -1    0    0    0    0 -0.00000000000E+00 -0.00000000000E+00 -0.35740347158E-01  0.35744000000E-01  0.51099999109E-03 0. -1.
       22    1    1    2    0    0 -0.14490840985E-02 -0.27547655933E-01  0.22719163557E-01  0.35737005818E-01  0.00000000000E+00 0.  1.
  9000001    1    1    2    0    0  0.14490840985E-02  0.27547655933E-01 -0.22719163557E-01  0.35750994182E-01  0.10000000475E-02 0. -1.
</event>
<event>
 4   0  0.4892667E-02  0.9118800E+02  0.7818609E-02  0.1379984E+01
      -11   -1    0    0    0    0  0.00000000000E+00  0.00000000000E+00  0.35740347158E-01  0.35744000000E-01  0.51099999109E-03 0.  1.
       11   -1    0    0    0    0 -0.00000000000E+00 -0.00000000000E+00 -0.35740347158E-01  0.35744000000E-01  0.51099999109E-03 0. -1.
       22    1    1    2    0    0  0.50248268361E-02 -0.16446414024E-01 -0.31327307032E-01  0.35737005818E-01  0.00000000000E+00 0. -1.
  9000001    1    1    2    0    0 -0.50248268361E-02  0.16446414024E-01  0.31327307032E-01  0.35750994182E-01  0.10000000475E-02 0.  1.
</event>
<event>
 4   0  0.4892667E-02  0.9118800E+02  0.7818609E-02  0.1379984E+01
      -11   -1    0    0    0    0  0.00000000000E+00  0.00000000000E+00  0.35740347158E-01  0.35744000000E-01  0.51099999109E-03 0. -1.
       11   -1    0    0    0    0 -0.00000000000E+00 -0.00000000000E+00 -0.35740347158E-01  0.35744000000E-01  0.51099999109E-03 0.  1.
       22    1    1    2    0    0  0.24206640158E-01  0.20230329574E-02 -0.26212201258E-01  0.35737005818E-01  0.00000000000E+00 0.  1.
  9000001    1    1    2    0    0 -0.24206640158E-01 -0.20230329574E-02  0.26212201258E-01  0.35750994182E-01  0.10000000475E-02 0. -1.
</event>
<event>
 4   0  0.4892667E-02  0.9118800E+02  0.7818609E-02  0.1379984E+01
      -11   -1    0    0    0    0  0.00000000000E+00  0.00000000000E+00  0.35740347158E-01  0.35744000000E-01  0.51099999109E-03 0.  1.
       11   -1    0    0    0    0 -0.00000000000E+00 -0.00000000000E+00 -0.35740347158E-01  0.35744000000E-01  0.51099999109E-03 0. -1.
       22    1    1    2    0    0 -0.43464085226E-02 -0.33130459126E-01  0.12673397174E-01  0.35737005818E-01  0.00000000000E+00 0.  1.
  9000001    1    1    2    0    0  0.43464085226E-02  0.33130459126E-01 -0.12673397174E-01  0.35750994182E-01  0.10000000475E-02 0. -1.
</event>
<event>
 4   0  0.4892667E-02  0.9118800E+02  0.7818609E-02  0.1379984E+01
      -11   -1    0    0    0    0  0.00000000000E+00  0.00000000000E+00  0.35740347158E-01  0.35744000000E-01  0.51099999109E-03 0. -1.
       11   -1    0    0    0    0 -0.00000000000E+00 -0.00000000000E+00 -0.35740347158E-01  0.35744000000E-01  0.51099999109E-03 0.  1.
       22    1    1    2    0    0  0.66542689710E-03 -0.54865659723E-02 -0.35307058582E-01  0.35737005818E-01  0.00000000000E+00 0.  1.
  9000001    1    1    2    0    0 -0.66542689710E-03  0.54865659723E-02  0.35307058582E-01  0.35750994182E-01  0.10000000475E-02 0. -1.
</event>
<event>
 4   0  0.4892667E-02  0.9118800E+02  0.7818609E-02  0.1379984E+01
      -11   -1    0    0    0    0  0.00000000000E+00  0.00000000000E+00  0.35740347158E-01  0.35744000000E-01  0.51099999109E-03 0.  1.
       11   -1    0    0    0    0 -0.00000000000E+00 -0.00000000000E+00 -0.35740347158E-01  0.35744000000E-01  0.51099999109E-03 0. -1.
       22    1    1    2    0    0  0.42716641619E-02  0.20310937312E-02  0.35422607589E-01  0.35737005818E-01  0.00000000000E+00 0.  1.
  9000001    1    1    2    0    0 -0.42716641619E-02 -0.20310937312E-02 -0.35422607589E-01  0.35750994182E-01  0.10000000475E-02 0. -1.
</event>
<event>
 4   0  0.4892667E-02  0.9118800E+02  0.7818609E-02  0.1379984E+01
      -11   -1    0    0    0    0  0.00000000000E+00  0.00000000000E+00  0.35740347158E-01  0.35744000000E-01  0.51099999109E-03 0.  1.
       11   -1    0    0    0    0 -0.00000000000E+00 -0.00000000000E+00 -0.35740347158E-01  0.35744000000E-01  0.51099999109E-03 0. -1.
       22    1    1    2    0    0  0.41073346745E-02 -0.46951277378E-02 -0.35188338441E-01  0.35737005818E-01  0.00000000000E+00 0. -1.
  9000001    1    1    2    0    0 -0.41073346745E-02  0.46951277378E-02  0.35188338441E-01  0.35750994182E-01  0.10000000475E-02 0.  1.
</event>
<event>
 4   0  0.4892667E-02  0.9118800E+02  0.7818609E-02  0.1379984E+01
      -11   -1    0    0    0    0  0.00000000000E+00  0.00000000000E+00  0.35740347158E-01  0.35744000000E-01  0.51099999109E-03 0.  1.
       11   -1    0    0    0    0 -0.00000000000E+00 -0.00000000000E+00 -0.35740347158E-01  0.35744000000E-01  0.51099999109E-03 0. -1.
       22    1    1    2    0    0  0.14025367061E-01  0.29644771288E-01 -0.14198950630E-01  0.35737005818E-01  0.00000000000E+00 0. -1.
  9000001    1    1    2    0    0 -0.14025367061E-01 -0.29644771288E-01  0.14198950630E-01  0.35750994182E-01  0.10000000475E-02 0.  1.
</event>
<event>
 4   0  0.4892667E-02  0.9118800E+02  0.7818609E-02  0.1379984E+01
      -11   -1    0    0    0    0  0.00000000000E+00  0.00000000000E+00  0.35740347158E-01  0.35744000000E-01  0.51099999109E-03 0. -1.
       11   -1    0    0    0    0 -0.00000000000E+00 -0.00000000000E+00 -0.35740347158E-01  0.35744000000E-01  0.51099999109E-03 0.  1.
       22    1    1    2    0    0 -0.57608332510E-02  0.11032247590E-01 -0.33499789525E-01  0.35737005818E-01  0.00000000000E+00 0.  1.
  9000001    1    1    2    0    0  0.57608332510E-02 -0.11032247590E-01  0.33499789525E-01  0.35750994182E-01  0.10000000475E-02 0. -1.
</event>
<event>
 4   0  0.4892667E-02  0.9118800E+02  0.7818609E-02  0.1379984E+01
      -11   -1    0    0    0    0  0.00000000000E+00  0.00000000000E+00  0.35740347158E-01  0.35744000000E-01  0.51099999109E-03 0.  1.
       11   -1    0    0    0    0 -0.00000000000E+00 -0.00000000000E+00 -0.35740347158E-01  0.35744000000E-01  0.51099999109E-03 0. -1.
       22    1    1    2    0    0  0.43060588881E-02  0.11333472763E-02 -0.35458524584E-01  0.35737005818E-01  0.00000000000E+00 0. -1.
  9000001    1    1    2    0    0 -0.43060588881E-02 -0.11333472763E-02  0.35458524584E-01  0.35750994182E-01  0.10000000475E-02 0.  1.
</event>
<event>
 4   0  0.4892667E-02  0.9118800E+02  0.7818609E-02  0.1379984E+01
      -11   -1    0    0    0    0  0.00000000000E+00  0.00000000000E+00  0.35740347158E-01  0.35744000000E-01  0.51099999109E-03 0. -1.
       11   -1    0    0    0    0 -0.00000000000E+00 -0.00000000000E+00 -0.35740347158E-01  0.35744000000E-01  0.51099999109E-03 0.  1.
       22    1    1    2    0    0  0.13810951045E-01 -0.51596896722E-02 -0.32554090658E-01  0.35737005818E-01  0.00000000000E+00 0.  1.
  9000001    1    1    2    0    0 -0.13810951045E-01  0.51596896722E-02  0.32554090658E-01  0.35750994182E-01  0.10000000475E-02 0. -1.
</event>
<event>
 4   0  0.4892667E-02  0.9118800E+02  0.7818609E-02  0.1379984E+01
      -11   -1    0    0    0    0  0.00000000000E+00  0.00000000000E+00  0.35740347158E-01  0.35744000000E-01  0.51099999109E-03 0.  1.
       11   -1    0    0    0    0 -0.00000000000E+00 -0.00000000000E+00 -0.35740347158E-01  0.35744000000E-01  0.51099999109E-03 0. -1.
       22    1    1    2    0    0 -0.15777790017E-02  0.38994754802E-02  0.35488565613E-01  0.35737005818E-01  0.00000000000E+00 0.  1.
  9000001    1    1    2    0    0  0.15777790017E-02 -0.38994754802E-02 -0.35488565613E-01  0.35750994182E-01  0.10000000475E-02 0. -1.
</event>
<event>
 4   0  0.4892667E-02  0.9118800E+02  0.7818609E-02  0.1379984E+01
      -11   -1    0    0    0    0  0.00000000000E+00  0.00000000000E+00  0.35740347158E-01  0.35744000000E-01  0.51099999109E-03 0.  1.
       11   -1    0    0    0    0 -0.00000000000E+00 -0.00000000000E+00 -0.35740347158E-01  0.35744000000E-01  0.51099999109E-03 0. -1.
       22    1    1    2    0    0 -0.54695213155E-02 -0.10543259622E-01 -0.33705453535E-01  0.35737005818E-01  0.00000000000E+00 0. -1.
  9000001    1    1    2    0    0  0.54695213155E-02  0.10543259622E-01  0.33705453535E-01  0.35750994182E-01  0.10000000475E-02 0.  1.
</event>
<event>
 4   0  0.4892667E-02  0.9118800E+02  0.7818609E-02  0.1379984E+01
      -11   -1    0    0    0    0  0.00000000000E+00  0.00000000000E+00  0.35740347158E-01  0.35744000000E-01  0.51099999109E-03 0. -1.
       11   -1    0    0    0    0 -0.00000000000E+00 -0.00000000000E+00 -0.35740347158E-01  0.35744000000E-01  0.51099999109E-03 0.  1.
       22    1    1    2    0    0  0.10142758428E-01 -0.47644908394E-05  0.34267448309E-01  0.35737005818E-01  0.00000000000E+00 0. -1.
  9000001    1    1    2    0    0 -0.10142758428E-01  0.47644908394E-05 -0.34267448309E-01  0.35750994182E-01  0.10000000475E-02 0.  1.
</event>
<event>
 4   0  0.4892667E-02  0.9118800E+02  0.7818609E-02  0.1379984E+01
      -11   -1    0    0    0    0  0.00000000000E+00  0.00000000000E+00  0.35740347158E-01  0.35744000000E-01  0.51099999109E-03 0.  1.
       11   -1    0    0    0    0 -0.00000000000E+00 -0.00000000000E+00 -0.35740347158E-01  0.35744000000E-01  0.51099999109E-03 0. -1.
       22    1    1    2    0    0 -0.35256080505E-01  0.44776438575E-02 -0.37540748268E-02  0.35737005818E-01  0.00000000000E+00 0. -1.
  9000001    1    1    2    0    0  0.35256080505E-01 -0.44776438575E-02  0.37540748268E-02  0.35750994182E-01  0.10000000475E-02 0.  1.
</event>
<event>
 4   0  0.4892667E-02  0.9118800E+02  0.7818609E-02  0.1379984E+01
      -11   -1    0    0    0    0  0.00000000000E+00  0.00000000000E+00  0.35740347158E-01  0.35744000000E-01  0.51099999109E-03 0. -1.
       11   -1    0    0    0    0 -0.00000000000E+00 -0.00000000000E+00 -0.35740347158E-01  0.35744000000E-01  0.51099999109E-03 0.  1.
       22    1    1    2    0    0 -0.15080956401E-02 -0.89008167609E-02  0.34577950972E-01  0.35737005818E-01  0.00000000000E+00 0. -1.
  9000001    1    1    2    0    0  0.15080956401E-02  0.89008167609E-02 -0.34577950972E-01  0.35750994182E-01  0.10000000475E-02 0.  1.
</event>
<event>
 4   0  0.4892667E-02  0.9118800E+02  0.7818609E-02  0.1379984E+01
      -11   -1    0    0    0    0  0.00000000000E+00  0.00000000000E+00  0.35740347158E-01  0.35744000000E-01  0.51099999109E-03 0. -1.
       11   -1    0    0    0    0 -0.00000000000E+00 -0.00000000000E+00 -0.35740347158E-01  0.35744000000E-01  0.51099999109E-03 0.  1.
       22    1    1    2    0    0 -0.50656927460E-02 -0.30204361023E-02 -0.35246975865E-01  0.35737005818E-01  0.00000000000E+00 0.  1.
  9000001    1    1    2    0    0  0.50656927460E-02  0.30204361023E-02  0.35246975865E-01  0.35750994182E-01  0.10000000475E-02 0. -1.
</event>
<event>
 4   0  0.4892667E-02  0.9118800E+02  0.7818609E-02  0.1379984E+01
      -11   -1    0    0    0    0  0.00000000000E+00  0.00000000000E+00  0.35740347158E-01  0.35744000000E-01  0.51099999109E-03 0.  1.
       11   -1    0    0    0    0 -0.00000000000E+00 -0.00000000000E+00 -0.35740347158E-01  0.35744000000E-01  0.51099999109E-03 0. -1.
       22    1    1    2    0    0  0.61676808480E-02 -0.14169414334E-03  0.35200471880E-01  0.35737005818E-01  0.00000000000E+00 0.  1.
  9000001    1    1    2    0    0 -0.61676808480E-02  0.14169414334E-03 -0.35200471880E-01  0.35750994182E-01  0.10000000475E-02 0. -1.
</event>
<event>
 4   0  0.4892667E-02  0.9118800E+02  0.7818609E-02  0.1379984E+01
      -11   -1    0    0    0    0  0.00000000000E+00  0.00000000000E+00  0.35740347158E-01  0.35744000000E-01  0.51099999109E-03 0.  1.
       11   -1    0    0    0    0 -0.00000000000E+00 -0.00000000000E+00 -0.35740347158E-01  0.35744000000E-01  0.51099999109E-03 0. -1.
       22    1    1    2    0    0 -0.74330753293E-02  0.23946920884E-02  0.34873319685E-01  0.35737005818E-01  0.00000000000E+00 0.  1.
  9000001    1    1    2    0    0  0.74330753293E-02 -0.23946920884E-02 -0.34873319685E-01  0.35750994182E-01  0.10000000475E-02 0. -1.
</event>
<event>
 4   0  0.4892667E-02  0.9118800E+02  0.7818609E-02  0.1379984E+01
      -11   -1    0    0    0    0  0.00000000000E+00  0.00000000000E+00  0.35740347158E-01  0.35744000000E-01  0.51099999109E-03 0.  1.
       11   -1    0    0    0    0 -0.00000000000E+00 -0.00000000000E+00 -0.35740347158E-01  0.35744000000E-01  0.51099999109E-03 0. -1.
       22    1    1    2    0    0  0.40827862575E-02  0.26586957469E-02 -0.35403330044E-01  0.35737005818E-01  0.00000000000E+00 0. -1.
  9000001    1    1    2    0    0 -0.40827862575E-02 -0.26586957469E-02  0.35403330044E-01  0.35750994182E-01  0.10000000475E-02 0.  1.
</event>
<event>
 4   0  0.4892667E-02  0.9118800E+02  0.7818609E-02  0.1379984E+01
      -11   -1    0    0    0    0  0.00000000000E+00  0.00000000000E+00  0.35740347158E-01  0.35744000000E-01  0.51099999109E-03 0. -1.
       11   -1    0    0    0    0 -0.00000000000E+00 -0.00000000000E+00 -0.35740347158E-01  0.35744000000E-01  0.51099999109E-03 0.  1.
       22    1    1    2    0    0 -0.32407799684E-02 -0.26215284633E-02 -0.35493077051E-01  0.35737005818E-01  0.00000000000E+00 0.  1.
  9000001    1    1    2    0    0  0.32407799684E-02  0.26215284633E-02  0.35493077051E-01  0.35750994182E-01  0.10000000475E-02 0. -1.
</event>
<event>
 4   0  0.4892667E-02  0.9118800E+02  0.7818609E-02  0.1379984E+01
      -11   -1    0    0    0    0  0.00000000000E+00  0.00000000000E+00  0.35740347158E-01  0.35744000000E-01  0.51099999109E-03 0.  1.
       11   -1    0    0    0    0 -0.00000000000E+00 -0.00000000000E+00 -0.35740347158E-01  0.35744000000E-01  0.51099999109E-03 0. -1.
       22    1    1    2    0    0 -0.96909370180E-02 -0.23259199594E-02 -0.34319228152E-01  0.35737005818E-01  0.00000000000E+00 0. -1.
  9000001    1    1    2    0    0  0.96909370180E-02  0.23259199594E-02  0.34319228152E-01  0.35750994182E-01  0.10000000475E-02 0.  1.
</event>
<event>
 4   0  0.4892667E-02  0.9118800E+02  0.7818609E-02  0.1379984E+01
      -11   -1    0    0    0    0  0.00000000000E+00  0.00000000000E+00  0.35740347158E-01  0.35744000000E-01  0.51099999109E-03 0. -1.
       11   -1    0    0    0    0 -0.00000000000E+00 -0.00000000000E+00 -0.35740347158E-01  0.35744000000E-01  0.51099999109E-03 0.  1.
       22    1    1    2    0    0  0.47002886411E-02 -0.11128767512E-03  0.35426381224E-01  0.35737005818E-01  0.00000000000E+00 0. -1.
  9000001    1    1    2    0    0 -0.47002886411E-02  0.11128767512E-03 -0.35426381224E-01  0.35750994182E-01  0.10000000475E-02 0.  1.
</event>
<event>
 4   0  0.4892667E-02  0.9118800E+02  0.7818609E-02  0.1379984E+01
      -11   -1    0    0    0    0  0.00000000000E+00  0.00000000000E+00  0.35740347158E-01  0.35744000000E-01  0.51099999109E-03 0.  1.
       11   -1    0    0    0    0 -0.00000000000E+00 -0.00000000000E+00 -0.35740347158E-01  0.35744000000E-01  0.51099999109E-03 0. -1.
       22    1    1    2    0    0 -0.81253629513E-02 -0.16206490326E-01 -0.30797105921E-01  0.35737005818E-01  0.00000000000E+00 0. -1.
  9000001    1    1    2    0    0  0.81253629513E-02  0.16206490326E-01  0.30797105921E-01  0.35750994182E-01  0.10000000475E-02 0.  1.
</event>
<event>
 4   0  0.4892667E-02  0.9118800E+02  0.7818609E-02  0.1379984E+01
      -11   -1    0    0    0    0  0.00000000000E+00  0.00000000000E+00  0.35740347158E-01  0.35744000000E-01  0.51099999109E-03 0.  1.
       11   -1    0    0    0    0 -0.00000000000E+00 -0.00000000000E+00 -0.35740347158E-01  0.35744000000E-01  0.51099999109E-03 0. -1.
       22    1    1    2    0    0  0.43562965163E-02 -0.85883852093E-02 -0.34415053465E-01  0.35737005818E-01  0.00000000000E+00 0. -1.
  9000001    1    1    2    0    0 -0.43562965163E-02  0.85883852093E-02  0.34415053465E-01  0.35750994182E-01  0.10000000475E-02 0.  1.
</event>
<event>
 4   0  0.4892667E-02  0.9118800E+02  0.7818609E-02  0.1379984E+01
      -11   -1    0    0    0    0  0.00000000000E+00  0.00000000000E+00  0.35740347158E-01  0.35744000000E-01  0.51099999109E-03 0.  1.
       11   -1    0    0    0    0 -0.00000000000E+00 -0.00000000000E+00 -0.35740347158E-01  0.35744000000E-01  0.51099999109E-03 0. -1.
       22    1    1    2    0    0  0.28967754603E-02  0.13229737949E-01 -0.33071382048E-01  0.35737005818E-01  0.00000000000E+00 0. -1.
  9000001    1    1    2    0    0 -0.28967754603E-02 -0.13229737949E-01  0.33071382048E-01  0.35750994182E-01  0.10000000475E-02 0.  1.
</event>
<event>
 4   0  0.4892667E-02  0.9118800E+02  0.7818609E-02  0.1379984E+01
      -11   -1    0    0    0    0  0.00000000000E+00  0.00000000000E+00  0.35740347158E-01  0.35744000000E-01  0.51099999109E-03 0. -1.
       11   -1    0    0    0    0 -0.00000000000E+00 -0.00000000000E+00 -0.35740347158E-01  0.35744000000E-01  0.51099999109E-03 0.  1.
       22    1    1    2    0    0 -0.61603980321E-03 -0.82332050769E-02  0.34770223094E-01  0.35737005818E-01  0.00000000000E+00 0. -1.
  9000001    1    1    2    0    0  0.61603980321E-03  0.82332050769E-02 -0.34770223094E-01  0.35750994182E-01  0.10000000475E-02 0.  1.
</event>
<event>
 4   0  0.4892667E-02  0.9118800E+02  0.7818609E-02  0.1379984E+01
      -11   -1    0    0    0    0  0.00000000000E+00  0.00000000000E+00  0.35740347158E-01  0.35744000000E-01  0.51099999109E-03 0.  1.
       11   -1    0    0    0    0 -0.00000000000E+00 -0.00000000000E+00 -0.35740347158E-01  0.35744000000E-01  0.51099999109E-03 0. -1.
       22    1    1    2    0    0 -0.10673225170E-01 -0.22330661158E-01  0.25779011261E-01  0.35737005818E-01  0.00000000000E+00 0. -1.
  9000001    1    1    2    0    0  0.10673225170E-01  0.22330661158E-01 -0.25779011261E-01  0.35750994182E-01  0.10000000475E-02 0.  1.
</event>
<event>
 4   0  0.4892667E-02  0.9118800E+02  0.7818609E-02  0.1379984E+01
      -11   -1    0    0    0    0  0.00000000000E+00  0.00000000000E+00  0.35740347158E-01  0.35744000000E-01  0.51099999109E-03 0.  1.
       11   -1    0    0    0    0 -0.00000000000E+00 -0.00000000000E+00 -0.35740347158E-01  0.35744000000E-01  0.51099999109E-03 0. -1.
       22    1    1    2    0    0 -0.12750659728E-02  0.37087464379E-02 -0.35521162586E-01  0.35737005818E-01  0.00000000000E+00 0. -1.
  9000001    1    1    2    0    0  0.12750659728E-02 -0.37087464379E-02  0.35521162586E-01  0.35750994182E-01  0.10000000475E-02 0.  1.
</event>
<event>
 4   0  0.4892667E-02  0.9118800E+02  0.7818609E-02  0.1379984E+01
      -11   -1    0    0    0    0  0.00000000000E+00  0.00000000000E+00  0.35740347158E-01  0.35744000000E-01  0.51099999109E-03 0. -1.
       11   -1    0    0    0    0 -0.00000000000E+00 -0.00000000000E+00 -0.35740347158E-01  0.35744000000E-01  0.51099999109E-03 0.  1.
       22    1    1    2    0    0 -0.53922688554E-02 -0.57784983746E-02 -0.34852058447E-01  0.35737005818E-01  0.00000000000E+00 0.  1.
  9000001    1    1    2    0    0  0.53922688554E-02  0.57784983746E-02  0.34852058447E-01  0.35750994182E-01  0.10000000475E-02 0. -1.
</event>
<event>
 4   0  0.4892667E-02  0.9118800E+02  0.7818609E-02  0.1379984E+01
      -11   -1    0    0    0    0  0.00000000000E+00  0.00000000000E+00  0.35740347158E-01  0.35744000000E-01  0.51099999109E-03 0.  1.
       11   -1    0    0    0    0 -0.00000000000E+00 -0.00000000000E+00 -0.35740347158E-01  0.35744000000E-01  0.51099999109E-03 0. -1.
       22    1    1    2    0    0  0.46098273819E-02  0.24765316646E-02 -0.35351801472E-01  0.35737005818E-01  0.00000000000E+00 0. -1.
  9000001    1    1    2    0    0 -0.46098273819E-02 -0.24765316646E-02  0.35351801472E-01  0.35750994182E-01  0.10000000475E-02 0.  1.
</event>
<event>
 4   0  0.4892667E-02  0.9118800E+02  0.7818609E-02  0.1379984E+01
      -11   -1    0    0    0    0  0.00000000000E+00  0.00000000000E+00  0.35740347158E-01  0.35744000000E-01  0.51099999109E-03 0.  1.
       11   -1    0    0    0    0 -0.00000000000E+00 -0.00000000000E+00 -0.35740347158E-01  0.35744000000E-01  0.51099999109E-03 0. -1.
       22    1    1    2    0    0  0.12556419653E-01  0.28219753728E-01 -0.17975411258E-01  0.35737005818E-01  0.00000000000E+00 0. -1.
  9000001    1    1    2    0    0 -0.12556419653E-01 -0.28219753728E-01  0.17975411258E-01  0.35750994182E-01  0.10000000475E-02 0.  1.
</event>
<event>
 4   0  0.4892667E-02  0.9118800E+02  0.7818609E-02  0.1379984E+01
      -11   -1    0    0    0    0  0.00000000000E+00  0.00000000000E+00  0.35740347158E-01  0.35744000000E-01  0.51099999109E-03 0.  1.
       11   -1    0    0    0    0 -0.00000000000E+00 -0.00000000000E+00 -0.35740347158E-01  0.35744000000E-01  0.51099999109E-03 0. -1.
       22    1    1    2    0    0  0.20705056909E-01  0.16494364356E-01 -0.24007710173E-01  0.35737005818E-01  0.00000000000E+00 0. -1.
  9000001    1    1    2    0    0 -0.20705056909E-01 -0.16494364356E-01  0.24007710173E-01  0.35750994182E-01  0.10000000475E-02 0.  1.
</event>
<event>
 4   0  0.4892667E-02  0.9118800E+02  0.7818609E-02  0.1379984E+01
      -11   -1    0    0    0    0  0.00000000000E+00  0.00000000000E+00  0.35740347158E-01  0.35744000000E-01  0.51099999109E-03 0. -1.
       11   -1    0    0    0    0 -0.00000000000E+00 -0.00000000000E+00 -0.35740347158E-01  0.35744000000E-01  0.51099999109E-03 0.  1.
       22    1    1    2    0    0  0.18625952893E-02  0.18207370795E-01  0.30694559329E-01  0.35737005818E-01  0.00000000000E+00 0. -1.
  9000001    1    1    2    0    0 -0.18625952893E-02 -0.18207370795E-01 -0.30694559329E-01  0.35750994182E-01  0.10000000475E-02 0.  1.
</event>
<event>
 4   0  0.4892667E-02  0.9118800E+02  0.7818609E-02  0.1379984E+01
      -11   -1    0    0    0    0  0.00000000000E+00  0.00000000000E+00  0.35740347158E-01  0.35744000000E-01  0.51099999109E-03 0.  1.
       11   -1    0    0    0    0 -0.00000000000E+00 -0.00000000000E+00 -0.35740347158E-01  0.35744000000E-01  0.51099999109E-03 0. -1.
       22    1    1    2    0    0  0.38662728894E-02 -0.12919754144E-02  0.35503750764E-01  0.35737005818E-01  0.00000000000E+00 0.  1.
  9000001    1    1    2    0    0 -0.38662728894E-02  0.12919754144E-02 -0.35503750764E-01  0.35750994182E-01  0.10000000475E-02 0. -1.
</event>
<event>
 4   0  0.4892667E-02  0.9118800E+02  0.7818609E-02  0.1379984E+01
      -11   -1    0    0    0    0  0.00000000000E+00  0.00000000000E+00  0.35740347158E-01  0.35744000000E-01  0.51099999109E-03 0. -1.
       11   -1    0    0    0    0 -0.00000000000E+00 -0.00000000000E+00 -0.35740347158E-01  0.35744000000E-01  0.51099999109E-03 0.  1.
       22    1    1    2    0    0  0.10754556098E-01  0.22395739456E-02  0.34006726049E-01  0.35737005818E-01  0.00000000000E+00 0. -1.
  9000001    1    1    2    0    0 -0.10754556098E-01 -0.22395739456E-02 -0.34006726049E-01  0.35750994182E-01  0.10000000475E-02 0.  1.
</event>
<event>
 4   0  0.4892667E-02  0.9118800E+02  0.7818609E-02  0.1379984E+01
      -11   -1    0    0    0    0  0.00000000000E+00  0.00000000000E+00  0.35740347158E-01  0.35744000000E-01  0.51099999109E-03 0.  1.
       11   -1    0    0    0    0 -0.00000000000E+00 -0.00000000000E+00 -0.35740347158E-01  0.35744000000E-01  0.51099999109E-03 0. -1.
       22    1    1    2    0    0  0.99832653396E-03 -0.13604767664E-01  0.33031004009E-01  0.35737005818E-01  0.00000000000E+00 0.  1.
  9000001    1    1    2    0    0 -0.99832653396E-03  0.13604767664E-01 -0.33031004009E-01  0.35750994182E-01  0.10000000475E-02 0. -1.
</event>
<event>
 4   0  0.4892667E-02  0.9118800E+02  0.7818609E-02  0.1379984E+01
      -11   -1    0    0    0    0  0.00000000000E+00  0.00000000000E+00  0.35740347158E-01  0.35744000000E-01  0.51099999109E-03 0.  1.
       11   -1    0    0    0    0 -0.00000000000E+00 -0.00000000000E+00 -0.35740347158E-01  0.35744000000E-01  0.51099999109E-03 0. -1.
       22    1    1    2    0    0 -0.14473534641E-01  0.32882514879E-02  0.32509041543E-01  0.35737005818E-01  0.00000000000E+00 0.  1.
  9000001    1    1    2    0    0  0.14473534641E-01 -0.32882514879E-02 -0.32509041543E-01  0.35750994182E-01  0.10000000475E-02 0. -1.
</event>
<event>
 4   0  0.4892667E-02  0.9118800E+02  0.7818609E-02  0.1379984E+01
      -11   -1    0    0    0    0  0.00000000000E+00  0.00000000000E+00  0.35740347158E-01  0.35744000000E-01  0.51099999109E-03 0.  1.
       11   -1    0    0    0    0 -0.00000000000E+00 -0.00000000000E+00 -0.35740347158E-01  0.35744000000E-01  0.51099999109E-03 0. -1.
       22    1    1    2    0    0  0.13195202187E-02  0.31558994900E-01 -0.16715929294E-01  0.35737005818E-01  0.00000000000E+00 0. -1.
  9000001    1    1    2    0    0 -0.13195202187E-02 -0.31558994900E-01  0.16715929294E-01  0.35750994182E-01  0.10000000475E-02 0.  1.
</event>
<event>
 4   0  0.4892667E-02  0.9118800E+02  0.7818609E-02  0.1379984E+01
      -11   -1    0    0    0    0  0.00000000000E+00  0.00000000000E+00  0.35740347158E-01  0.35744000000E-01  0.51099999109E-03 0. -1.
       11   -1    0    0    0    0 -0.00000000000E+00 -0.00000000000E+00 -0.35740347158E-01  0.35744000000E-01  0.51099999109E-03 0.  1.
       22    1    1    2    0    0 -0.23446225343E-01  0.91048794948E-02 -0.25387187151E-01  0.35737005818E-01  0.00000000000E+00 0.  1.
  9000001    1    1    2    0    0  0.23446225343E-01 -0.91048794948E-02  0.25387187151E-01  0.35750994182E-01  0.10000000475E-02 0. -1.
</event>
<event>
 4   0  0.4892667E-02  0.9118800E+02  0.7818609E-02  0.1379984E+01
      -11   -1    0    0    0    0  0.00000000000E+00  0.00000000000E+00  0.35740347158E-01  0.35744000000E-01  0.51099999109E-03 0.  1.
       11   -1    0    0    0    0 -0.00000000000E+00 -0.00000000000E+00 -0.35740347158E-01  0.35744000000E-01  0.51099999109E-03 0. -1.
       22    1    1    2    0    0 -0.93812086079E-03 -0.74000546820E-02 -0.34949859868E-01  0.35737005818E-01  0.00000000000E+00 0. -1.
  9000001    1    1    2    0    0  0.93812086079E-03  0.74000546820E-02  0.34949859868E-01  0.35750994182E-01  0.10000000475E-02 0.  1.
</event>
<event>
 4   0  0.4892667E-02  0.9118800E+02  0.7818609E-02  0.1379984E+01
      -11   -1    0    0    0    0  0.00000000000E+00  0.00000000000E+00  0.35740347158E-01  0.35744000000E-01  0.51099999109E-03 0.  1.
       11   -1    0    0    0    0 -0.00000000000E+00 -0.00000000000E+00 -0.35740347158E-01  0.35744000000E-01  0.51099999109E-03 0. -1.
       22    1    1    2    0    0  0.96189732248E-02  0.78711023837E-02 -0.33506039549E-01  0.35737005818E-01  0.00000000000E+00 0. -1.
  9000001    1    1    2    0    0 -0.96189732248E-02 -0.78711023837E-02  0.33506039549E-01  0.35750994182E-01  0.10000000475E-02 0.  1.
</event>
<event>
 4   0  0.4892667E-02  0.9118800E+02  0.7818609E-02  0.1379984E+01
      -11   -1    0    0    0    0  0.00000000000E+00  0.00000000000E+00  0.35740347158E-01  0.35744000000E-01  0.51099999109E-03 0.  1.
       11   -1    0    0    0    0 -0.00000000000E+00 -0.00000000000E+00 -0.35740347158E-01  0.35744000000E-01  0.51099999109E-03 0. -1.
       22    1    1    2    0    0 -0.52348866114E-02  0.86007088323E-03  0.35341050142E-01  0.35737005818E-01  0.00000000000E+00 0.  1.
  9000001    1    1    2    0    0  0.52348866114E-02 -0.86007088323E-03 -0.35341050142E-01  0.35750994182E-01  0.10000000475E-02 0. -1.
</event>
<event>
 4   0  0.4892667E-02  0.9118800E+02  0.7818609E-02  0.1379984E+01
      -11   -1    0    0    0    0  0.00000000000E+00  0.00000000000E+00  0.35740347158E-01  0.35744000000E-01  0.51099999109E-03 0. -1.
       11   -1    0    0    0    0 -0.00000000000E+00 -0.00000000000E+00 -0.35740347158E-01  0.35744000000E-01  0.51099999109E-03 0.  1.
       22    1    1    2    0    0  0.19077520506E-02 -0.10573960358E-01  0.34083506705E-01  0.35737005818E-01  0.00000000000E+00 0. -1.
  9000001    1    1    2    0    0 -0.19077520506E-02  0.10573960358E-01 -0.34083506705E-01  0.35750994182E-01  0.10000000475E-02 0.  1.
</event>
<event>
 4   0  0.4892667E-02  0.9118800E+02  0.7818609E-02  0.1379984E+01
      -11   -1    0    0    0    0  0.00000000000E+00  0.00000000000E+00  0.35740347158E-01  0.35744000000E-01  0.51099999109E-03 0. -1.
       11   -1    0    0    0    0 -0.00000000000E+00 -0.00000000000E+00 -0.35740347158E-01  0.35744000000E-01  0.51099999109E-03 0.  1.
       22    1    1    2    0    0  0.30142567581E-01 -0.80466495425E-02 -0.17430164533E-01  0.35737005818E-01  0.00000000000E+00 0.  1.
  9000001    1    1    2    0    0 -0.30142567581E-01  0.80466495425E-02  0.17430164533E-01  0.35750994182E-01  0.10000000475E-02 0. -1.
</event>
<event>
 4   0  0.4892667E-02  0.9118800E+02  0.7818609E-02  0.1379984E+01
      -11   -1    0    0    0    0  0.00000000000E+00  0.00000000000E+00  0.35740347158E-01  0.35744000000E-01  0.51099999109E-03 0. -1.
       11   -1    0    0    0    0 -0.00000000000E+00 -0.00000000000E+00 -0.35740347158E-01  0.35744000000E-01  0.51099999109E-03 0.  1.
       22    1    1    2    0    0  0.17754205561E-02 -0.28907523434E-01  0.20936488618E-01  0.35737005818E-01  0.00000000000E+00 0. -1.
  9000001    1    1    2    0    0 -0.17754205561E-02  0.28907523434E-01 -0.20936488618E-01  0.35750994182E-01  0.10000000475E-02 0.  1.
</event>
<event>
 4   0  0.4892667E-02  0.9118800E+02  0.7818609E-02  0.1379984E+01
      -11   -1    0    0    0    0  0.00000000000E+00  0.00000000000E+00  0.35740347158E-01  0.35744000000E-01  0.51099999109E-03 0. -1.
       11   -1    0    0    0    0 -0.00000000000E+00 -0.00000000000E+00 -0.35740347158E-01  0.35744000000E-01  0.51099999109E-03 0.  1.
       22    1    1    2    0    0  0.90990486454E-02  0.38166614962E-02 -0.34347838267E-01  0.35737005818E-01  0.00000000000E+00 0.  1.
  9000001    1    1    2    0    0 -0.90990486454E-02 -0.38166614962E-02  0.34347838267E-01  0.35750994182E-01  0.10000000475E-02 0. -1.
</event>
<event>
 4   0  0.4892667E-02  0.9118800E+02  0.7818609E-02  0.1379984E+01
      -11   -1    0    0    0    0  0.00000000000E+00  0.00000000000E+00  0.35740347158E-01  0.35744000000E-01  0.51099999109E-03 0.  1.
       11   -1    0    0    0    0 -0.00000000000E+00 -0.00000000000E+00 -0.35740347158E-01  0.35744000000E-01  0.51099999109E-03 0. -1.
       22    1    1    2    0    0 -0.40803300111E-02  0.17427850793E-03 -0.35502874797E-01  0.35737005818E-01  0.00000000000E+00 0. -1.
  9000001    1    1    2    0    0  0.40803300111E-02 -0.17427850793E-03  0.35502874797E-01  0.35750994182E-01  0.10000000475E-02 0.  1.
</event>
<event>
 4   0  0.4892667E-02  0.9118800E+02  0.7818609E-02  0.1379984E+01
      -11   -1    0    0    0    0  0.00000000000E+00  0.00000000000E+00  0.35740347158E-01  0.35744000000E-01  0.51099999109E-03 0.  1.
       11   -1    0    0    0    0 -0.00000000000E+00 -0.00000000000E+00 -0.35740347158E-01  0.35744000000E-01  0.51099999109E-03 0. -1.
       22    1    1    2    0    0  0.14723633970E-01  0.11681256490E-01 -0.30395664730E-01  0.35737005818E-01  0.00000000000E+00 0. -1.
  9000001    1    1    2    0    0 -0.14723633970E-01 -0.11681256490E-01  0.30395664730E-01  0.35750994182E-01  0.10000000475E-02 0.  1.
</event>
<event>
 4   0  0.4892667E-02  0.9118800E+02  0.7818609E-02  0.1379984E+01
      -11   -1    0    0    0    0  0.00000000000E+00  0.00000000000E+00  0.35740347158E-01  0.35744000000E-01  0.51099999109E-03 0. -1.
       11   -1    0    0    0    0 -0.00000000000E+00 -0.00000000000E+00 -0.35740347158E-01  0.35744000000E-01  0.51099999109E-03 0.  1.
       22    1    1    2    0    0 -0.31945431375E-02 -0.30034455955E-02  0.35466995835E-01  0.35737005818E-01  0.00000000000E+00 0. -1.
  9000001    1    1    2    0    0  0.31945431375E-02  0.30034455955E-02 -0.35466995835E-01  0.35750994182E-01  0.10000000475E-02 0.  1.
</event>
<event>
 4   0  0.4892667E-02  0.9118800E+02  0.7818609E-02  0.1379984E+01
      -11   -1    0    0    0    0  0.00000000000E+00  0.00000000000E+00  0.35740347158E-01  0.35744000000E-01  0.51099999109E-03 0.  1.
       11   -1    0    0    0    0 -0.00000000000E+00 -0.00000000000E+00 -0.35740347158E-01  0.35744000000E-01  0.51099999109E-03 0. -1.
       22    1    1    2    0    0 -0.76673780412E-02  0.50501841881E-02  0.34537523630E-01  0.35737005818E-01  0.00000000000E+00 0.  1.
  9000001    1    1    2    0    0  0.76673780412E-02 -0.50501841881E-02 -0.34537523630E-01  0.35750994182E-01  0.10000000475E-02 0. -1.
</event>
<event>
 4   0  0.4892667E-02  0.9118800E+02  0.7818609E-02  0.1379984E+01
      -11   -1    0    0    0    0  0.00000000000E+00  0.00000000000E+00  0.35740347158E-01  0.35744000000E-01  0.51099999109E-03 0. -1.
       11   -1    0    0    0    0 -0.00000000000E+00 -0.00000000000E+00 -0.35740347158E-01  0.35744000000E-01  0.51099999109E-03 0.  1.
       22    1    1    2    0    0 -0.16408283131E-02  0.18572756772E-01 -0.30487603599E-01  0.35737005818E-01  0.00000000000E+00 0.  1.
  9000001    1    1    2    0    0  0.16408283131E-02 -0.18572756772E-01  0.30487603599E-01  0.35750994182E-01  0.10000000475E-02 0. -1.
</event>
<event>
 4   0  0.4892667E-02  0.9118800E+02  0.7818609E-02  0.1379984E+01
      -11   -1    0    0    0    0  0.00000000000E+00  0.00000000000E+00  0.35740347158E-01  0.35744000000E-01  0.51099999109E-03 0.  1.
       11   -1    0    0    0    0 -0.00000000000E+00 -0.00000000000E+00 -0.35740347158E-01  0.35744000000E-01  0.51099999109E-03 0. -1.
       22    1    1    2    0    0  0.22176801182E-01 -0.15750399665E-01  0.23178610498E-01  0.35737005818E-01  0.00000000000E+00 0.  1.
  9000001    1    1    2    0    0 -0.22176801182E-01  0.15750399665E-01 -0.23178610498E-01  0.35750994182E-01  0.10000000475E-02 0. -1.
</event>
<event>
 4   0  0.4892667E-02  0.9118800E+02  0.7818609E-02  0.1379984E+01
      -11   -1    0    0    0    0  0.00000000000E+00  0.00000000000E+00  0.35740347158E-01  0.35744000000E-01  0.51099999109E-03 0. -1.
       11   -1    0    0    0    0 -0.00000000000E+00 -0.00000000000E+00 -0.35740347158E-01  0.35744000000E-01  0.51099999109E-03 0.  1.
       22    1    1    2    0    0  0.11343920696E-01 -0.14783261244E-01 -0.30494331196E-01  0.35737005818E-01  0.00000000000E+00 0.  1.
  9000001    1    1    2    0    0 -0.11343920696E-01  0.14783261244E-01  0.30494331196E-01  0.35750994182E-01  0.10000000475E-02 0. -1.
</event>
<event>
 4   0  0.4892667E-02  0.9118800E+02  0.7818609E-02  0.1379984E+01
      -11   -1    0    0    0    0  0.00000000000E+00  0.00000000000E+00  0.35740347158E-01  0.35744000000E-01  0.51099999109E-03 0.  1.
       11   -1    0    0    0    0 -0.00000000000E+00 -0.00000000000E+00 -0.35740347158E-01  0.35744000000E-01  0.51099999109E-03 0. -1.
       22    1    1    2    0    0  0.11677909114E-01  0.26569114154E-02 -0.33670474385E-01  0.35737005818E-01  0.00000000000E+00 0. -1.
  9000001    1    1    2    0    0 -0.11677909114E-01 -0.26569114154E-02  0.33670474385E-01  0.35750994182E-01  0.10000000475E-02 0.  1.
</event>
<event>
 4   0  0.4892667E-02  0.9118800E+02  0.7818609E-02  0.1379984E+01
      -11   -1    0    0    0    0  0.00000000000E+00  0.00000000000E+00  0.35740347158E-01  0.35744000000E-01  0.51099999109E-03 0.  1.
       11   -1    0    0    0    0 -0.00000000000E+00 -0.00000000000E+00 -0.35740347158E-01  0.35744000000E-01  0.51099999109E-03 0. -1.
       22    1    1    2    0    0  0.13345697510E-01 -0.11056782300E-01  0.31253375946E-01  0.35737005818E-01  0.00000000000E+00 0.  1.
  9000001    1    1    2    0    0 -0.13345697510E-01  0.11056782300E-01 -0.31253375946E-01  0.35750994182E-01  0.10000000475E-02 0. -1.
</event>
<event>
 4   0  0.4892667E-02  0.9118800E+02  0.7818609E-02  0.1379984E+01
      -11   -1    0    0    0    0  0.00000000000E+00  0.00000000000E+00  0.35740347158E-01  0.35744000000E-01  0.51099999109E-03 0. -1.
       11   -1    0    0    0    0 -0.00000000000E+00 -0.00000000000E+00 -0.35740347158E-01  0.35744000000E-01  0.51099999109E-03 0.  1.
       22    1    1    2    0    0  0.19863467227E-01  0.14057245856E-01 -0.26171933316E-01  0.35737005818E-01  0.00000000000E+00 0.  1.
  9000001    1    1    2    0    0 -0.19863467227E-01 -0.14057245856E-01  0.26171933316E-01  0.35750994182E-01  0.10000000475E-02 0. -1.
</event>
<event>
 4   0  0.4892667E-02  0.9118800E+02  0.7818609E-02  0.1379984E+01
      -11   -1    0    0    0    0  0.00000000000E+00  0.00000000000E+00  0.35740347158E-01  0.35744000000E-01  0.51099999109E-03 0.  1.
       11   -1    0    0    0    0 -0.00000000000E+00 -0.00000000000E+00 -0.35740347158E-01  0.35744000000E-01  0.51099999109E-03 0. -1.
       22    1    1    2    0    0  0.33366962434E-02 -0.27684068739E-02  0.35473031537E-01  0.35737005818E-01  0.00000000000E+00 0.  1.
  9000001    1    1    2    0    0 -0.33366962434E-02  0.27684068739E-02 -0.35473031537E-01  0.35750994182E-01  0.10000000475E-02 0. -1.
</event>
<event>
 4   0  0.4892667E-02  0.9118800E+02  0.7818609E-02  0.1379984E+01
      -11   -1    0    0    0    0  0.00000000000E+00  0.00000000000E+00  0.35740347158E-01  0.35744000000E-01  0.51099999109E-03 0.  1.
       11   -1    0    0    0    0 -0.00000000000E+00 -0.00000000000E+00 -0.35740347158E-01  0.35744000000E-01  0.51099999109E-03 0. -1.
       22    1    1    2    0    0 -0.80755127950E-02  0.81212712272E-02  0.33852099368E-01  0.35737005818E-01  0.00000000000E+00 0.  1.
  9000001    1    1    2    0    0  0.80755127950E-02 -0.81212712272E-02 -0.33852099368E-01  0.35750994182E-01  0.10000000475E-02 0. -1.
</event>
<event>
 4   0  0.4892667E-02  0.9118800E+02  0.7818609E-02  0.1379984E+01
      -11   -1    0    0    0    0  0.00000000000E+00  0.00000000000E+00  0.35740347158E-01  0.35744000000E-01  0.51099999109E-03 0.  1.
       11   -1    0    0    0    0 -0.00000000000E+00 -0.00000000000E+00 -0.35740347158E-01  0.35744000000E-01  0.51099999109E-03 0. -1.
       22    1    1    2    0    0 -0.28237259888E-01 -0.10057046345E-01  0.19458842662E-01  0.35737005818E-01  0.00000000000E+00 0.  1.
  9000001    1    1    2    0    0  0.28237259888E-01  0.10057046345E-01 -0.19458842662E-01  0.35750994182E-01  0.10000000475E-02 0. -1.
</event>
<event>
 4   0  0.4892667E-02  0.9118800E+02  0.7818609E-02  0.1379984E+01
      -11   -1    0    0    0    0  0.00000000000E+00  0.00000000000E+00  0.35740347158E-01  0.35744000000E-01  0.51099999109E-03 0. -1.
       11   -1    0    0    0    0 -0.00000000000E+00 -0.00000000000E+00 -0.35740347158E-01  0.35744000000E-01  0.51099999109E-03 0.  1.
       22    1    1    2    0    0  0.84768336940E-02  0.30634590588E-02 -0.34581672805E-01  0.35737005818E-01  0.00000000000E+00 0.  1.
  9000001    1    1    2    0    0 -0.84768336940E-02 -0.30634590588E-02  0.34581672805E-01  0.35750994182E-01  0.10000000475E-02 0. -1.
</event>
<event>
 4   0  0.4892667E-02  0.9118800E+02  0.7818609E-02  0.1379984E+01
      -11   -1    0    0    0    0  0.00000000000E+00  0.00000000000E+00  0.35740347158E-01  0.35744000000E-01  0.51099999109E-03 0.  1.
       11   -1    0    0    0    0 -0.00000000000E+00 -0.00000000000E+00 -0.35740347158E-01  0.35744000000E-01  0.51099999109E-03 0. -1.
       22    1    1    2    0    0  0.68398444909E-02  0.17389129233E-01 -0.30462572063E-01  0.35737005818E-01  0.00000000000E+00 0. -1.
  9000001    1    1    2    0    0 -0.68398444909E-02 -0.17389129233E-01  0.30462572063E-01  0.35750994182E-01  0.10000000475E-02 0.  1.
</event>
<event>
 4   0  0.4892667E-02  0.9118800E+02  0.7818609E-02  0.1379984E+01
      -11   -1    0    0    0    0  0.00000000000E+00  0.00000000000E+00  0.35740347158E-01  0.35744000000E-01  0.51099999109E-03 0.  1.
       11   -1    0    0    0    0 -0.00000000000E+00 -0.00000000000E+00 -0.35740347158E-01  0.35744000000E-01  0.51099999109E-03 0. -1.
       22    1    1    2    0    0  0.14138282763E-01  0.93917119042E-02 -0.31448979203E-01  0.35737005818E-01  0.00000000000E+00 0. -1.
  9000001    1    1    2    0    0 -0.14138282763E-01 -0.93917119042E-02  0.31448979203E-01  0.35750994182E-01  0.10000000475E-02 0.  1.
</event>
<event>
 4   0  0.4892667E-02  0.9118800E+02  0.7818609E-02  0.1379984E+01
      -11   -1    0    0    0    0  0.00000000000E+00  0.00000000000E+00  0.35740347158E-01  0.35744000000E-01  0.51099999109E-03 0. -1.
       11   -1    0    0    0    0 -0.00000000000E+00 -0.00000000000E+00 -0.35740347158E-01  0.35744000000E-01  0.51099999109E-03 0.  1.
       22    1    1    2    0    0 -0.51022349116E-02 -0.11718445106E-01  0.33373325098E-01  0.35737005818E-01  0.00000000000E+00 0. -1.
  9000001    1    1    2    0    0  0.51022349116E-02  0.11718445106E-01 -0.33373325098E-01  0.35750994182E-01  0.10000000475E-02 0.  1.
</event>
<event>
 4   0  0.4892667E-02  0.9118800E+02  0.7818609E-02  0.1379984E+01
      -11   -1    0    0    0    0  0.00000000000E+00  0.00000000000E+00  0.35740347158E-01  0.35744000000E-01  0.51099999109E-03 0. -1.
       11   -1    0    0    0    0 -0.00000000000E+00 -0.00000000000E+00 -0.35740347158E-01  0.35744000000E-01  0.51099999109E-03 0.  1.
       22    1    1    2    0    0  0.34209180604E-02 -0.14903086013E-01  0.32300602654E-01  0.35737005818E-01  0.00000000000E+00 0. -1.
  9000001    1    1    2    0    0 -0.34209180604E-02  0.14903086013E-01 -0.32300602654E-01  0.35750994182E-01  0.10000000475E-02 0.  1.
</event>
<event>
 4   0  0.4892667E-02  0.9118800E+02  0.7818609E-02  0.1379984E+01
      -11   -1    0    0    0    0  0.00000000000E+00  0.00000000000E+00  0.35740347158E-01  0.35744000000E-01  0.51099999109E-03 0. -1.
       11   -1    0    0    0    0 -0.00000000000E+00 -0.00000000000E+00 -0.35740347158E-01  0.35744000000E-01  0.51099999109E-03 0.  1.
       22    1    1    2    0    0  0.24735412823E-02 -0.36960381091E-02 -0.35459194586E-01  0.35737005818E-01  0.00000000000E+00 0.  1.
  9000001    1    1    2    0    0 -0.24735412823E-02  0.36960381091E-02  0.35459194586E-01  0.35750994182E-01  0.10000000475E-02 0. -1.
</event>
<event>
 4   0  0.4892667E-02  0.9118800E+02  0.7818609E-02  0.1379984E+01
      -11   -1    0    0    0    0  0.00000000000E+00  0.00000000000E+00  0.35740347158E-01  0.35744000000E-01  0.51099999109E-03 0.  1.
       11   -1    0    0    0    0 -0.00000000000E+00 -0.00000000000E+00 -0.35740347158E-01  0.35744000000E-01  0.51099999109E-03 0. -1.
       22    1    1    2    0    0  0.52640715950E-03  0.30495480716E-02  0.35602763052E-01  0.35737005818E-01  0.00000000000E+00 0.  1.
  9000001    1    1    2    0    0 -0.52640715950E-03 -0.30495480716E-02 -0.35602763052E-01  0.35750994182E-01  0.10000000475E-02 0. -1.
</event>
<event>
 4   0  0.4892667E-02  0.9118800E+02  0.7818609E-02  0.1379984E+01
      -11   -1    0    0    0    0  0.00000000000E+00  0.00000000000E+00  0.35740347158E-01  0.35744000000E-01  0.51099999109E-03 0. -1.
       11   -1    0    0    0    0 -0.00000000000E+00 -0.00000000000E+00 -0.35740347158E-01  0.35744000000E-01  0.51099999109E-03 0.  1.
       22    1    1    2    0    0 -0.47294315762E-02  0.23434692816E-02 -0.35345073399E-01  0.35737005818E-01  0.00000000000E+00 0.  1.
  9000001    1    1    2    0    0  0.47294315762E-02 -0.23434692816E-02  0.35345073399E-01  0.35750994182E-01  0.10000000475E-02 0. -1.
</event>
<event>
 4   0  0.4892667E-02  0.9118800E+02  0.7818609E-02  0.1379984E+01
      -11   -1    0    0    0    0  0.00000000000E+00  0.00000000000E+00  0.35740347158E-01  0.35744000000E-01  0.51099999109E-03 0.  1.
       11   -1    0    0    0    0 -0.00000000000E+00 -0.00000000000E+00 -0.35740347158E-01  0.35744000000E-01  0.51099999109E-03 0. -1.
       22    1    1    2    0    0 -0.16580089269E-01 -0.11085471923E-01  0.29653777785E-01  0.35737005818E-01  0.00000000000E+00 0.  1.
  9000001    1    1    2    0    0  0.16580089269E-01  0.11085471923E-01 -0.29653777785E-01  0.35750994182E-01  0.10000000475E-02 0. -1.
</event>
<event>
 4   0  0.4892667E-02  0.9118800E+02  0.7818609E-02  0.1379984E+01
      -11   -1    0    0    0    0  0.00000000000E+00  0.00000000000E+00  0.35740347158E-01  0.35744000000E-01  0.51099999109E-03 0. -1.
       11   -1    0    0    0    0 -0.00000000000E+00 -0.00000000000E+00 -0.35740347158E-01  0.35744000000E-01  0.51099999109E-03 0.  1.
       22    1    1    2    0    0 -0.22574561138E-02 -0.21039086340E-02 -0.35603525741E-01  0.35737005818E-01  0.00000000000E+00 0.  1.
  9000001    1    1    2    0    0  0.22574561138E-02  0.21039086340E-02  0.35603525741E-01  0.35750994182E-01  0.10000000475E-02 0. -1.
</event>
<event>
 4   0  0.4892667E-02  0.9118800E+02  0.7818609E-02  0.1379984E+01
      -11   -1    0    0    0    0  0.00000000000E+00  0.00000000000E+00  0.35740347158E-01  0.35744000000E-01  0.51099999109E-03 0.  1.
       11   -1    0    0    0    0 -0.00000000000E+00 -0.00000000000E+00 -0.35740347158E-01  0.35744000000E-01  0.51099999109E-03 0. -1.
       22    1    1    2    0    0 -0.14681164633E-01 -0.74363288608E-02 -0.31722200475E-01  0.35737005818E-01  0.00000000000E+00 0. -1.
  9000001    1    1    2    0    0  0.14681164633E-01  0.74363288608E-02  0.31722200475E-01  0.35750994182E-01  0.10000000475E-02 0.  1.
</event>
<event>
 4   0  0.4892667E-02  0.9118800E+02  0.7818609E-02  0.1379984E+01
      -11   -1    0    0    0    0  0.00000000000E+00  0.00000000000E+00  0.35740347158E-01  0.35744000000E-01  0.51099999109E-03 0. -1.
       11   -1    0    0    0    0 -0.00000000000E+00 -0.00000000000E+00 -0.35740347158E-01  0.35744000000E-01  0.51099999109E-03 0.  1.
       22    1    1    2    0    0 -0.29398096328E-01  0.17250636846E-02  0.20246226128E-01  0.35737005818E-01  0.00000000000E+00 0. -1.
  9000001    1    1    2    0    0  0.29398096328E-01 -0.17250636846E-02 -0.20246226128E-01  0.35750994182E-01  0.10000000475E-02 0.  1.
</event>
<event>
 4   0  0.4892667E-02  0.9118800E+02  0.7818609E-02  0.1379984E+01
      -11   -1    0    0    0    0  0.00000000000E+00  0.00000000000E+00  0.35740347158E-01  0.35744000000E-01  0.51099999109E-03 0. -1.
       11   -1    0    0    0    0 -0.00000000000E+00 -0.00000000000E+00 -0.35740347158E-01  0.35744000000E-01  0.51099999109E-03 0.  1.
       22    1    1    2    0    0 -0.33302200739E-02  0.69691451457E-03  0.35574675393E-01  0.35737005818E-01  0.00000000000E+00 0. -1.
  9000001    1    1    2    0    0  0.33302200739E-02 -0.69691451457E-03 -0.35574675393E-01  0.35750994182E-01  0.10000000475E-02 0.  1.
</event>
<event>
 4   0  0.4892667E-02  0.9118800E+02  0.7818609E-02  0.1379984E+01
      -11   -1    0    0    0    0  0.00000000000E+00  0.00000000000E+00  0.35740347158E-01  0.35744000000E-01  0.51099999109E-03 0. -1.
       11   -1    0    0    0    0 -0.00000000000E+00 -0.00000000000E+00 -0.35740347158E-01  0.35744000000E-01  0.51099999109E-03 0.  1.
       22    1    1    2    0    0  0.89052291146E-02 -0.54405029807E-02 -0.34179400325E-01  0.35737005818E-01  0.00000000000E+00 0.  1.
  9000001    1    1    2    0    0 -0.89052291146E-02  0.54405029807E-02  0.34179400325E-01  0.35750994182E-01  0.10000000475E-02 0. -1.
</event>
<event>
 4   0  0.4892667E-02  0.9118800E+02  0.7818609E-02  0.1379984E+01
      -11   -1    0    0    0    0  0.00000000000E+00  0.00000000000E+00  0.35740347158E-01  0.35744000000E-01  0.51099999109E-03 0.  1.
       11   -1    0    0    0    0 -0.00000000000E+00 -0.00000000000E+00 -0.35740347158E-01  0.35744000000E-01  0.51099999109E-03 0. -1.
       22    1    1    2    0    0 -0.25161317402E-02  0.37260931998E-02 -0.35453051990E-01  0.35737005818E-01  0.00000000000E+00 0. -1.
  9000001    1    1    2    0    0  0.25161317402E-02 -0.37260931998E-02  0.35453051990E-01  0.35750994182E-01  0.10000000475E-02 0.  1.
</event>
<event>
 4   0  0.4892667E-02  0.9118800E+02  0.7818609E-02  0.1379984E+01
      -11   -1    0    0    0    0  0.00000000000E+00  0.00000000000E+00  0.35740347158E-01  0.35744000000E-01  0.51099999109E-03 0.  1.
       11   -1    0    0    0    0 -0.00000000000E+00 -0.00000000000E+00 -0.35740347158E-01  0.35744000000E-01  0.51099999109E-03 0. -1.
       22    1    1    2    0    0 -0.18968624262E-01  0.96074148031E-02 -0.28723204196E-01  0.35737005818E-01  0.00000000000E+00 0. -1.
  9000001    1    1    2    0    0  0.18968624262E-01 -0.96074148031E-02  0.28723204196E-01  0.35750994182E-01  0.10000000475E-02 0.  1.
</event>
<event>
 4   0  0.4892667E-02  0.9118800E+02  0.7818609E-02  0.1379984E+01
      -11   -1    0    0    0    0  0.00000000000E+00  0.00000000000E+00  0.35740347158E-01  0.35744000000E-01  0.51099999109E-03 0.  1.
       11   -1    0    0    0    0 -0.00000000000E+00 -0.00000000000E+00 -0.35740347158E-01  0.35744000000E-01  0.51099999109E-03 0. -1.
       22    1    1    2    0    0 -0.10521347300E-01 -0.10062688025E-01  0.32637051729E-01  0.35737005818E-01  0.00000000000E+00 0.  1.
  9000001    1    1    2    0    0  0.10521347300E-01  0.10062688025E-01 -0.32637051729E-01  0.35750994182E-01  0.10000000475E-02 0. -1.
</event>
<event>
 4   0  0.4892667E-02  0.9118800E+02  0.7818609E-02  0.1379984E+01
      -11   -1    0    0    0    0  0.00000000000E+00  0.00000000000E+00  0.35740347158E-01  0.35744000000E-01  0.51099999109E-03 0.  1.
       11   -1    0    0    0    0 -0.00000000000E+00 -0.00000000000E+00 -0.35740347158E-01  0.35744000000E-01  0.51099999109E-03 0. -1.
       22    1    1    2    0    0 -0.20067857481E-01 -0.22758781875E-01 -0.18879950439E-01  0.35737005818E-01  0.00000000000E+00 0.  1.
  9000001    1    1    2    0    0  0.20067857481E-01  0.22758781875E-01  0.18879950439E-01  0.35750994182E-01  0.10000000475E-02 0. -1.
</event>
<event>
 4   0  0.4892667E-02  0.9118800E+02  0.7818609E-02  0.1379984E+01
      -11   -1    0    0    0    0  0.00000000000E+00  0.00000000000E+00  0.35740347158E-01  0.35744000000E-01  0.51099999109E-03 0.  1.
       11   -1    0    0    0    0 -0.00000000000E+00 -0.00000000000E+00 -0.35740347158E-01  0.35744000000E-01  0.51099999109E-03 0. -1.
       22    1    1    2    0    0  0.17494241888E-01  0.30043140294E-01 -0.82761589480E-02  0.35737005818E-01  0.00000000000E+00 0. -1.
  9000001    1    1    2    0    0 -0.17494241888E-01 -0.30043140294E-01  0.82761589480E-02  0.35750994182E-01  0.10000000475E-02 0.  1.
</event>
<event>
 4   0  0.4892667E-02  0.9118800E+02  0.7818609E-02  0.1379984E+01
      -11   -1    0    0    0    0  0.00000000000E+00  0.00000000000E+00  0.35740347158E-01  0.35744000000E-01  0.51099999109E-03 0.  1.
       11   -1    0    0    0    0 -0.00000000000E+00 -0.00000000000E+00 -0.35740347158E-01  0.35744000000E-01  0.51099999109E-03 0. -1.
       22    1    1    2    0    0 -0.46122045090E-02 -0.24598789149E-02 -0.35352654075E-01  0.35737005818E-01  0.00000000000E+00 0. -1.
  9000001    1    1    2    0    0  0.46122045090E-02  0.24598789149E-02  0.35352654075E-01  0.35750994182E-01  0.10000000475E-02 0.  1.
</event>
<event>
 4   0  0.4892667E-02  0.9118800E+02  0.7818609E-02  0.1379984E+01
      -11   -1    0    0    0    0  0.00000000000E+00  0.00000000000E+00  0.35740347158E-01  0.35744000000E-01  0.51099999109E-03 0. -1.
       11   -1    0    0    0    0 -0.00000000000E+00 -0.00000000000E+00 -0.35740347158E-01  0.35744000000E-01  0.51099999109E-03 0.  1.
       22    1    1    2    0    0  0.31357472173E-02 -0.60277008579E-03 -0.35594063304E-01  0.35737005818E-01  0.00000000000E+00 0.  1.
  9000001    1    1    2    0    0 -0.31357472173E-02  0.60277008579E-03  0.35594063304E-01  0.35750994182E-01  0.10000000475E-02 0. -1.
</event>
<event>
 4   0  0.4892667E-02  0.9118800E+02  0.7818609E-02  0.1379984E+01
      -11   -1    0    0    0    0  0.00000000000E+00  0.00000000000E+00  0.35740347158E-01  0.35744000000E-01  0.51099999109E-03 0. -1.
       11   -1    0    0    0    0 -0.00000000000E+00 -0.00000000000E+00 -0.35740347158E-01  0.35744000000E-01  0.51099999109E-03 0.  1.
       22    1    1    2    0    0 -0.17468231767E-01  0.12700492699E-01  0.28472652652E-01  0.35737005818E-01  0.00000000000E+00 0. -1.
  9000001    1    1    2    0    0  0.17468231767E-01 -0.12700492699E-01 -0.28472652652E-01  0.35750994182E-01  0.10000000475E-02 0.  1.
</event>
<event>
 4   0  0.4892667E-02  0.9118800E+02  0.7818609E-02  0.1379984E+01
      -11   -1    0    0    0    0  0.00000000000E+00  0.00000000000E+00  0.35740347158E-01  0.35744000000E-01  0.51099999109E-03 0. -1.
       11   -1    0    0    0    0 -0.00000000000E+00 -0.00000000000E+00 -0.35740347158E-01  0.35744000000E-01  0.51099999109E-03 0.  1.
       22    1    1    2    0    0 -0.62245680969E-03 -0.83917119002E-02 -0.34732194054E-01  0.35737005818E-01  0.00000000000E+00 0.  1.
  9000001    1    1    2    0    0  0.62245680969E-03  0.83917119002E-02  0.34732194054E-01  0.35750994182E-01  0.10000000475E-02 0. -1.
</event>
<event>
 4   0  0.4892667E-02  0.9118800E+02  0.7818609E-02  0.1379984E+01
      -11   -1    0    0    0    0  0.00000000000E+00  0.00000000000E+00  0.35740347158E-01  0.35744000000E-01  0.51099999109E-03 0.  1.
       11   -1    0    0    0    0 -0.00000000000E+00 -0.00000000000E+00 -0.35740347158E-01  0.35744000000E-01  0.51099999109E-03 0. -1.
       22    1    1    2    0    0 -0.23248508649E-02 -0.16138827208E-01 -0.31800423105E-01  0.35737005818E-01  0.00000000000E+00 0. -1.
  9000001    1    1    2    0    0  0.23248508649E-02  0.16138827208E-01  0.31800423105E-01  0.35750994182E-01  0.10000000475E-02 0.  1.
</event>
<event>
 4   0  0.4892667E-02  0.9118800E+02  0.7818609E-02  0.1379984E+01
      -11   -1    0    0    0    0  0.00000000000E+00  0.00000000000E+00  0.35740347158E-01  0.35744000000E-01  0.51099999109E-03 0. -1.
       11   -1    0    0    0    0 -0.00000000000E+00 -0.00000000000E+00 -0.35740347158E-01  0.35744000000E-01  0.51099999109E-03 0.  1.
       22    1    1    2    0    0  0.89785307234E-02  0.82091143701E-03  0.34581001653E-01  0.35737005818E-01  0.00000000000E+00 0. -1.
  9000001    1    1    2    0    0 -0.89785307234E-02 -0.82091143701E-03 -0.34581001653E-01  0.35750994182E-01  0.10000000475E-02 0.  1.
</event>
<event>
 4   0  0.4892667E-02  0.9118800E+02  0.7818609E-02  0.1379984E+01
      -11   -1    0    0    0    0  0.00000000000E+00  0.00000000000E+00  0.35740347158E-01  0.35744000000E-01  0.51099999109E-03 0.  1.
       11   -1    0    0    0    0 -0.00000000000E+00 -0.00000000000E+00 -0.35740347158E-01  0.35744000000E-01  0.51099999109E-03 0. -1.
       22    1    1    2    0    0 -0.28852602447E-01  0.13690687047E-01  0.16038266899E-01  0.35737005818E-01  0.00000000000E+00 0.  1.
  9000001    1    1    2    0    0  0.28852602447E-01 -0.13690687047E-01 -0.16038266899E-01  0.35750994182E-01  0.10000000475E-02 0. -1.
</event>
<event>
 4   0  0.4892667E-02  0.9118800E+02  0.7818609E-02  0.1379984E+01
      -11   -1    0    0    0    0  0.00000000000E+00  0.00000000000E+00  0.35740347158E-01  0.35744000000E-01  0.51099999109E-03 0.  1.
       11   -1    0    0    0    0 -0.00000000000E+00 -0.00000000000E+00 -0.35740347158E-01  0.35744000000E-01  0.51099999109E-03 0. -1.
       22    1    1    2    0    0  0.20113434620E-01 -0.10241187292E-01  0.27707425277E-01  0.35737005818E-01  0.00000000000E+00 0.  1.
  9000001    1    1    2    0    0 -0.20113434620E-01  0.10241187292E-01 -0.27707425277E-01  0.35750994182E-01  0.10000000475E-02 0. -1.
</event>
<event>
 4   0  0.4892667E-02  0.9118800E+02  0.7818609E-02  0.1379984E+01
      -11   -1    0    0    0    0  0.00000000000E+00  0.00000000000E+00  0.35740347158E-01  0.35744000000E-01  0.51099999109E-03 0.  1.
       11   -1    0    0    0    0 -0.00000000000E+00 -0.00000000000E+00 -0.35740347158E-01  0.35744000000E-01  0.51099999109E-03 0. -1.
       22    1    1    2    0    0  0.12528868690E-01 -0.25258420183E-01 -0.21958443571E-01  0.35737005818E-01  0.00000000000E+00 0. -1.
  9000001    1    1    2    0    0 -0.12528868690E-01  0.25258420183E-01  0.21958443571E-01  0.35750994182E-01  0.10000000475E-02 0.  1.
</event>
<event>
 4   0  0.4892667E-02  0.9118800E+02  0.7818609E-02  0.1379984E+01
      -11   -1    0    0    0    0  0.00000000000E+00  0.00000000000E+00  0.35740347158E-01  0.35744000000E-01  0.51099999109E-03 0. -1.
       11   -1    0    0    0    0 -0.00000000000E+00 -0.00000000000E+00 -0.35740347158E-01  0.35744000000E-01  0.51099999109E-03 0.  1.
       22    1    1    2    0    0  0.14560909887E-02 -0.32434105599E-01  0.14934596677E-01  0.35737005818E-01  0.00000000000E+00 0. -1.
  9000001    1    1    2    0    0 -0.14560909887E-02  0.32434105599E-01 -0.14934596677E-01  0.35750994182E-01  0.10000000475E-02 0.  1.
</event>
<event>
 4   0  0.4892667E-02  0.9118800E+02  0.7818609E-02  0.1379984E+01
      -11   -1    0    0    0    0  0.00000000000E+00  0.00000000000E+00  0.35740347158E-01  0.35744000000E-01  0.51099999109E-03 0. -1.
       11   -1    0    0    0    0 -0.00000000000E+00 -0.00000000000E+00 -0.35740347158E-01  0.35744000000E-01  0.51099999109E-03 0.  1.
       22    1    1    2    0    0  0.29235003404E-01 -0.19835754085E-01 -0.53843310374E-02  0.35737005818E-01  0.00000000000E+00 0. -1.
  9000001    1    1    2    0    0 -0.29235003404E-01  0.19835754085E-01  0.53843310374E-02  0.35750994182E-01  0.10000000475E-02 0.  1.
</event>
<event>
 4   0  0.4892667E-02  0.9118800E+02  0.7818609E-02  0.1379984E+01
      -11   -1    0    0    0    0  0.00000000000E+00  0.00000000000E+00  0.35740347158E-01  0.35744000000E-01  0.51099999109E-03 0. -1.
       11   -1    0    0    0    0 -0.00000000000E+00 -0.00000000000E+00 -0.35740347158E-01  0.35744000000E-01  0.51099999109E-03 0.  1.
       22    1    1    2    0    0  0.22903060709E-02  0.57826571936E-02  0.35191603526E-01  0.35737005818E-01  0.00000000000E+00 0. -1.
  9000001    1    1    2    0    0 -0.22903060709E-02 -0.57826571936E-02 -0.35191603526E-01  0.35750994182E-01  0.10000000475E-02 0.  1.
</event>
<event>
 4   0  0.4892667E-02  0.9118800E+02  0.7818609E-02  0.1379984E+01
      -11   -1    0    0    0    0  0.00000000000E+00  0.00000000000E+00  0.35740347158E-01  0.35744000000E-01  0.51099999109E-03 0. -1.
       11   -1    0    0    0    0 -0.00000000000E+00 -0.00000000000E+00 -0.35740347158E-01  0.35744000000E-01  0.51099999109E-03 0.  1.
       22    1    1    2    0    0  0.18799671502E-01  0.81325529001E-02 -0.29284253783E-01  0.35737005818E-01  0.00000000000E+00 0.  1.
  9000001    1    1    2    0    0 -0.18799671502E-01 -0.81325529001E-02  0.29284253783E-01  0.35750994182E-01  0.10000000475E-02 0. -1.
</event>
<event>
 4   0  0.4892667E-02  0.9118800E+02  0.7818609E-02  0.1379984E+01
      -11   -1    0    0    0    0  0.00000000000E+00  0.00000000000E+00  0.35740347158E-01  0.35744000000E-01  0.51099999109E-03 0.  1.
       11   -1    0    0    0    0 -0.00000000000E+00 -0.00000000000E+00 -0.35740347158E-01  0.35744000000E-01  0.51099999109E-03 0. -1.
       22    1    1    2    0    0  0.39717585781E-02  0.51143832537E-02  0.35145437863E-01  0.35737005818E-01  0.00000000000E+00 0.  1.
  9000001    1    1    2    0    0 -0.39717585781E-02 -0.51143832537E-02 -0.35145437863E-01  0.35750994182E-01  0.10000000475E-02 0. -1.
</event>
<event>
 4   0  0.4892667E-02  0.9118800E+02  0.7818609E-02  0.1379984E+01
      -11   -1    0    0    0    0  0.00000000000E+00  0.00000000000E+00  0.35740347158E-01  0.35744000000E-01  0.51099999109E-03 0. -1.
       11   -1    0    0    0    0 -0.00000000000E+00 -0.00000000000E+00 -0.35740347158E-01  0.35744000000E-01  0.51099999109E-03 0.  1.
       22    1    1    2    0    0 -0.53663654873E-02  0.99332365785E-02 -0.33906732626E-01  0.35737005818E-01  0.00000000000E+00 0.  1.
  9000001    1    1    2    0    0  0.53663654873E-02 -0.99332365785E-02  0.33906732626E-01  0.35750994182E-01  0.10000000475E-02 0. -1.
</event>
<event>
 4   0  0.4892667E-02  0.9118800E+02  0.7818609E-02  0.1379984E+01
      -11   -1    0    0    0    0  0.00000000000E+00  0.00000000000E+00  0.35740347158E-01  0.35744000000E-01  0.51099999109E-03 0.  1.
       11   -1    0    0    0    0 -0.00000000000E+00 -0.00000000000E+00 -0.35740347158E-01  0.35744000000E-01  0.51099999109E-03 0. -1.
       22    1    1    2    0    0 -0.83025324709E-02  0.46413986093E-02 -0.34447916604E-01  0.35737005818E-01  0.00000000000E+00 0. -1.
  9000001    1    1    2    0    0  0.83025324709E-02 -0.46413986093E-02  0.34447916604E-01  0.35750994182E-01  0.10000000475E-02 0.  1.
</event>
<event>
 4   0  0.4892667E-02  0.9118800E+02  0.7818609E-02  0.1379984E+01
      -11   -1    0    0    0    0  0.00000000000E+00  0.00000000000E+00  0.35740347158E-01  0.35744000000E-01  0.51099999109E-03 0. -1.
       11   -1    0    0    0    0 -0.00000000000E+00 -0.00000000000E+00 -0.35740347158E-01  0.35744000000E-01  0.51099999109E-03 0.  1.
       22    1    1    2    0    0  0.20027541936E-03  0.24601674022E-01 -0.25920090855E-01  0.35737005818E-01  0.00000000000E+00 0.  1.
  9000001    1    1    2    0    0 -0.20027541936E-03 -0.24601674022E-01  0.25920090855E-01  0.35750994182E-01  0.10000000475E-02 0. -1.
</event>
<event>
 4   0  0.4892667E-02  0.9118800E+02  0.7818609E-02  0.1379984E+01
      -11   -1    0    0    0    0  0.00000000000E+00  0.00000000000E+00  0.35740347158E-01  0.35744000000E-01  0.51099999109E-03 0.  1.
       11   -1    0    0    0    0 -0.00000000000E+00 -0.00000000000E+00 -0.35740347158E-01  0.35744000000E-01  0.51099999109E-03 0. -1.
       22    1    1    2    0    0  0.57096642751E-02 -0.86379933549E-02 -0.34204069780E-01  0.35737005818E-01  0.00000000000E+00 0. -1.
  9000001    1    1    2    0    0 -0.57096642751E-02  0.86379933549E-02  0.34204069780E-01  0.35750994182E-01  0.10000000475E-02 0.  1.
</event>
<event>
 4   0  0.4892667E-02  0.9118800E+02  0.7818609E-02  0.1379984E+01
      -11   -1    0    0    0    0  0.00000000000E+00  0.00000000000E+00  0.35740347158E-01  0.35744000000E-01  0.51099999109E-03 0. -1.
       11   -1    0    0    0    0 -0.00000000000E+00 -0.00000000000E+00 -0.35740347158E-01  0.35744000000E-01  0.51099999109E-03 0.  1.
       22    1    1    2    0    0  0.19131075370E-01  0.22942582061E-02 -0.30097706214E-01  0.35737005818E-01  0.00000000000E+00 0.  1.
  9000001    1    1    2    0    0 -0.19131075370E-01 -0.22942582061E-02  0.30097706214E-01  0.35750994182E-01  0.10000000475E-02 0. -1.
</event>
<event>
 4   0  0.4892667E-02  0.9118800E+02  0.7818609E-02  0.1379984E+01
      -11   -1    0    0    0    0  0.00000000000E+00  0.00000000000E+00  0.35740347158E-01  0.35744000000E-01  0.51099999109E-03 0.  1.
       11   -1    0    0    0    0 -0.00000000000E+00 -0.00000000000E+00 -0.35740347158E-01  0.35744000000E-01  0.51099999109E-03 0. -1.
       22    1    1    2    0    0 -0.35404719348E-01 -0.39190379556E-02  0.28775986983E-02  0.35737005818E-01  0.00000000000E+00 0. -1.
  9000001    1    1    2    0    0  0.35404719348E-01  0.39190379556E-02 -0.28775986983E-02  0.35750994182E-01  0.10000000475E-02 0.  1.
</event>
<event>
 4   0  0.4892667E-02  0.9118800E+02  0.7818609E-02  0.1379984E+01
      -11   -1    0    0    0    0  0.00000000000E+00  0.00000000000E+00  0.35740347158E-01  0.35744000000E-01  0.51099999109E-03 0. -1.
       11   -1    0    0    0    0 -0.00000000000E+00 -0.00000000000E+00 -0.35740347158E-01  0.35744000000E-01  0.51099999109E-03 0.  1.
       22    1    1    2    0    0  0.15943005555E-01 -0.29122812516E-01  0.13221798286E-01  0.35737005818E-01  0.00000000000E+00 0. -1.
  9000001    1    1    2    0    0 -0.15943005555E-01  0.29122812516E-01 -0.13221798286E-01  0.35750994182E-01  0.10000000475E-02 0.  1.
</event>
<event>
 4   0  0.4892667E-02  0.9118800E+02  0.7818609E-02  0.1379984E+01
      -11   -1    0    0    0    0  0.00000000000E+00  0.00000000000E+00  0.35740347158E-01  0.35744000000E-01  0.51099999109E-03 0.  1.
       11   -1    0    0    0    0 -0.00000000000E+00 -0.00000000000E+00 -0.35740347158E-01  0.35744000000E-01  0.51099999109E-03 0. -1.
       22    1    1    2    0    0  0.10447478375E-01  0.10887065500E-01 -0.32395301901E-01  0.35737005818E-01  0.00000000000E+00 0. -1.
  9000001    1    1    2    0    0 -0.10447478375E-01 -0.10887065500E-01  0.32395301901E-01  0.35750994182E-01  0.10000000475E-02 0.  1.
</event>
<event>
 4   0  0.4892667E-02  0.9118800E+02  0.7818609E-02  0.1379984E+01
      -11   -1    0    0    0    0  0.00000000000E+00  0.00000000000E+00  0.35740347158E-01  0.35744000000E-01  0.51099999109E-03 0.  1.
       11   -1    0    0    0    0 -0.00000000000E+00 -0.00000000000E+00 -0.35740347158E-01  0.35744000000E-01  0.51099999109E-03 0. -1.
       22    1    1    2    0    0 -0.28690999430E-02 -0.28378002937E-02 -0.35508431955E-01  0.35737005818E-01  0.00000000000E+00 0. -1.
  9000001    1    1    2    0    0  0.28690999430E-02  0.28378002937E-02  0.35508431955E-01  0.35750994182E-01  0.10000000475E-02 0.  1.
</event>
<event>
 4   0  0.4892667E-02  0.9118800E+02  0.7818609E-02  0.1379984E+01
      -11   -1    0    0    0    0  0.00000000000E+00  0.00000000000E+00  0.35740347158E-01  0.35744000000E-01  0.51099999109E-03 0.  1.
       11   -1    0    0    0    0 -0.00000000000E+00 -0.00000000000E+00 -0.35740347158E-01  0.35744000000E-01  0.51099999109E-03 0. -1.
       22    1    1    2    0    0 -0.65641159124E-02  0.12682228960E-01  0.32759838763E-01  0.35737005818E-01  0.00000000000E+00 0.  1.
  9000001    1    1    2    0    0  0.65641159124E-02 -0.12682228960E-01 -0.32759838763E-01  0.35750994182E-01  0.10000000475E-02 0. -1.
</event>
<event>
 4   0  0.4892667E-02  0.9118800E+02  0.7818609E-02  0.1379984E+01
      -11   -1    0    0    0    0  0.00000000000E+00  0.00000000000E+00  0.35740347158E-01  0.35744000000E-01  0.51099999109E-03 0.  1.
       11   -1    0    0    0    0 -0.00000000000E+00 -0.00000000000E+00 -0.35740347158E-01  0.35744000000E-01  0.51099999109E-03 0. -1.
       22    1    1    2    0    0 -0.13281929084E-01 -0.12056520314E-01 -0.30908967349E-01  0.35737005818E-01  0.00000000000E+00 0. -1.
  9000001    1    1    2    0    0  0.13281929084E-01  0.12056520314E-01  0.30908967349E-01  0.35750994182E-01  0.10000000475E-02 0.  1.
</event>
<event>
 4   0  0.4892667E-02  0.9118800E+02  0.7818609E-02  0.1379984E+01
      -11   -1    0    0    0    0  0.00000000000E+00  0.00000000000E+00  0.35740347158E-01  0.35744000000E-01  0.51099999109E-03 0.  1.
       11   -1    0    0    0    0 -0.00000000000E+00 -0.00000000000E+00 -0.35740347158E-01  0.35744000000E-01  0.51099999109E-03 0. -1.
       22    1    1    2    0    0 -0.11243937775E-02  0.13667545921E-01  0.33001022893E-01  0.35737005818E-01  0.00000000000E+00 0.  1.
  9000001    1    1    2    0    0  0.11243937775E-02 -0.13667545921E-01 -0.33001022893E-01  0.35750994182E-01  0.10000000475E-02 0. -1.
</event>
<event>
 4   0  0.4892667E-02  0.9118800E+02  0.7818609E-02  0.1379984E+01
      -11   -1    0    0    0    0  0.00000000000E+00  0.00000000000E+00  0.35740347158E-01  0.35744000000E-01  0.51099999109E-03 0.  1.
       11   -1    0    0    0    0 -0.00000000000E+00 -0.00000000000E+00 -0.35740347158E-01  0.35744000000E-01  0.51099999109E-03 0. -1.
       22    1    1    2    0    0  0.10455031294E-02  0.36401075142E-02 -0.35535758404E-01  0.35737005818E-01  0.00000000000E+00 0. -1.
  9000001    1    1    2    0    0 -0.10455031294E-02 -0.36401075142E-02  0.35535758404E-01  0.35750994182E-01  0.10000000475E-02 0.  1.
</event>
<event>
 4   0  0.4892667E-02  0.9118800E+02  0.7818609E-02  0.1379984E+01
      -11   -1    0    0    0    0  0.00000000000E+00  0.00000000000E+00  0.35740347158E-01  0.35744000000E-01  0.51099999109E-03 0. -1.
       11   -1    0    0    0    0 -0.00000000000E+00 -0.00000000000E+00 -0.35740347158E-01  0.35744000000E-01  0.51099999109E-03 0.  1.
       22    1    1    2    0    0 -0.41493500528E-03  0.69346945271E-02 -0.35055262453E-01  0.35737005818E-01  0.00000000000E+00 0.  1.
  9000001    1    1    2    0    0  0.41493500528E-03 -0.69346945271E-02  0.35055262453E-01  0.35750994182E-01  0.10000000475E-02 0. -1.
</event>
<event>
 4   0  0.4892667E-02  0.9118800E+02  0.7818609E-02  0.1379984E+01
      -11   -1    0    0    0    0  0.00000000000E+00  0.00000000000E+00  0.35740347158E-01  0.35744000000E-01  0.51099999109E-03 0. -1.
       11   -1    0    0    0    0 -0.00000000000E+00 -0.00000000000E+00 -0.35740347158E-01  0.35744000000E-01  0.51099999109E-03 0.  1.
       22    1    1    2    0    0 -0.63512450665E-02 -0.29599411097E-01  0.18991317324E-01  0.35737005818E-01  0.00000000000E+00 0. -1.
  9000001    1    1    2    0    0  0.63512450665E-02  0.29599411097E-01 -0.18991317324E-01  0.35750994182E-01  0.10000000475E-02 0.  1.
</event>
<event>
 4   0  0.4892667E-02  0.9118800E+02  0.7818609E-02  0.1379984E+01
      -11   -1    0    0    0    0  0.00000000000E+00  0.00000000000E+00  0.35740347158E-01  0.35744000000E-01  0.51099999109E-03 0.  1.
       11   -1    0    0    0    0 -0.00000000000E+00 -0.00000000000E+00 -0.35740347158E-01  0.35744000000E-01  0.51099999109E-03 0. -1.
       22    1    1    2    0    0  0.14053427611E-01 -0.33344410229E-02 -0.32688166977E-01  0.35737005818E-01  0.00000000000E+00 0.  1.
  9000001    1    1    2    0    0 -0.14053427611E-01  0.33344410229E-02  0.32688166977E-01  0.35750994182E-01  0.10000000475E-02 0. -1.
</event>
<event>
 4   0  0.4892667E-02  0.9118800E+02  0.7818609E-02  0.1379984E+01
      -11   -1    0    0    0    0  0.00000000000E+00  0.00000000000E+00  0.35740347158E-01  0.35744000000E-01  0.51099999109E-03 0.  1.
       11   -1    0    0    0    0 -0.00000000000E+00 -0.00000000000E+00 -0.35740347158E-01  0.35744000000E-01  0.51099999109E-03 0. -1.
       22    1    1    2    0    0 -0.83106601448E-02 -0.23346683323E-02  0.34678751947E-01  0.35737005818E-01  0.00000000000E+00 0.  1.
  9000001    1    1    2    0    0  0.83106601448E-02  0.23346683323E-02 -0.34678751947E-01  0.35750994182E-01  0.10000000475E-02 0. -1.
</event>
<event>
 4   0  0.4892667E-02  0.9118800E+02  0.7818609E-02  0.1379984E+01
      -11   -1    0    0    0    0  0.00000000000E+00  0.00000000000E+00  0.35740347158E-01  0.35744000000E-01  0.51099999109E-03 0. -1.
       11   -1    0    0    0    0 -0.00000000000E+00 -0.00000000000E+00 -0.35740347158E-01  0.35744000000E-01  0.51099999109E-03 0.  1.
       22    1    1    2    0    0 -0.37964386877E-02  0.17330009073E-01 -0.31022434200E-01  0.35737005818E-01  0.00000000000E+00 0.  1.
  9000001    1    1    2    0    0  0.37964386877E-02 -0.17330009073E-01  0.31022434200E-01  0.35750994182E-01  0.10000000475E-02 0. -1.
</event>
<event>
 4   0  0.4892667E-02  0.9118800E+02  0.7818609E-02  0.1379984E+01
      -11   -1    0    0    0    0  0.00000000000E+00  0.00000000000E+00  0.35740347158E-01  0.35744000000E-01  0.51099999109E-03 0.  1.
       11   -1    0    0    0    0 -0.00000000000E+00 -0.00000000000E+00 -0.35740347158E-01  0.35744000000E-01  0.51099999109E-03 0. -1.
       22    1    1    2    0    0 -0.63283817556E-02 -0.24363186424E-03  0.35171377749E-01  0.35737005818E-01  0.00000000000E+00 0.  1.
  9000001    1    1    2    0    0  0.63283817556E-02  0.24363186424E-03 -0.35171377749E-01  0.35750994182E-01  0.10000000475E-02 0. -1.
</event>
<event>
 4   0  0.4892667E-02  0.9118800E+02  0.7818609E-02  0.1379984E+01
      -11   -1    0    0    0    0  0.00000000000E+00  0.00000000000E+00  0.35740347158E-01  0.35744000000E-01  0.51099999109E-03 0. -1.
       11   -1    0    0    0    0 -0.00000000000E+00 -0.00000000000E+00 -0.35740347158E-01  0.35744000000E-01  0.51099999109E-03 0.  1.
       22    1    1    2    0    0  0.89543278391E-02  0.18327059029E-01 -0.29344036961E-01  0.35737005818E-01  0.00000000000E+00 0.  1.
  9000001    1    1    2    0    0 -0.89543278391E-02 -0.18327059029E-01  0.29344036961E-01  0.35750994182E-01  0.10000000475E-02 0. -1.
</event>
<event>
 4   0  0.4892667E-02  0.9118800E+02  0.7818609E-02  0.1379984E+01
      -11   -1    0    0    0    0  0.00000000000E+00  0.00000000000E+00  0.35740347158E-01  0.35744000000E-01  0.51099999109E-03 0. -1.
       11   -1    0    0    0    0 -0.00000000000E+00 -0.00000000000E+00 -0.35740347158E-01  0.35744000000E-01  0.51099999109E-03 0.  1.
       22    1    1    2    0    0 -0.11993740631E-01 -0.22973694478E-01  0.24606770056E-01  0.35737005818E-01  0.00000000000E+00 0. -1.
  9000001    1    1    2    0    0  0.11993740631E-01  0.22973694478E-01 -0.24606770056E-01  0.35750994182E-01  0.10000000475E-02 0.  1.
</event>
<event>
 4   0  0.4892667E-02  0.9118800E+02  0.7818609E-02  0.1379984E+01
      -11   -1    0    0    0    0  0.00000000000E+00  0.00000000000E+00  0.35740347158E-01  0.35744000000E-01  0.51099999109E-03 0. -1.
       11   -1    0    0    0    0 -0.00000000000E+00 -0.00000000000E+00 -0.35740347158E-01  0.35744000000E-01  0.51099999109E-03 0.  1.
       22    1    1    2    0    0  0.75038693422E-02  0.24546553991E-01 -0.24865482439E-01  0.35737005818E-01  0.00000000000E+00 0.  1.
  9000001    1    1    2    0    0 -0.75038693422E-02 -0.24546553991E-01  0.24865482439E-01  0.35750994182E-01  0.10000000475E-02 0. -1.
</event>
<event>
 4   0  0.4892667E-02  0.9118800E+02  0.7818609E-02  0.1379984E+01
      -11   -1    0    0    0    0  0.00000000000E+00  0.00000000000E+00  0.35740347158E-01  0.35744000000E-01  0.51099999109E-03 0.  1.
       11   -1    0    0    0    0 -0.00000000000E+00 -0.00000000000E+00 -0.35740347158E-01  0.35744000000E-01  0.51099999109E-03 0. -1.
       22    1    1    2    0    0  0.94052533263E-02 -0.10761750060E-01 -0.32754534501E-01  0.35737005818E-01  0.00000000000E+00 0. -1.
  9000001    1    1    2    0    0 -0.94052533263E-02  0.10761750060E-01  0.32754534501E-01  0.35750994182E-01  0.10000000475E-02 0.  1.
</event>
<event>
 4   0  0.4892667E-02  0.9118800E+02  0.7818609E-02  0.1379984E+01
      -11   -1    0    0    0    0  0.00000000000E+00  0.00000000000E+00  0.35740347158E-01  0.35744000000E-01  0.51099999109E-03 0. -1.
       11   -1    0    0    0    0 -0.00000000000E+00 -0.00000000000E+00 -0.35740347158E-01  0.35744000000E-01  0.51099999109E-03 0.  1.
       22    1    1    2    0    0 -0.64104466067E-02 -0.89855221461E-03  0.35145872632E-01  0.35737005818E-01  0.00000000000E+00 0. -1.
  9000001    1    1    2    0    0  0.64104466067E-02  0.89855221461E-03 -0.35145872632E-01  0.35750994182E-01  0.10000000475E-02 0.  1.
</event>
<event>
 4   0  0.4892667E-02  0.9118800E+02  0.7818609E-02  0.1379984E+01
      -11   -1    0    0    0    0  0.00000000000E+00  0.00000000000E+00  0.35740347158E-01  0.35744000000E-01  0.51099999109E-03 0. -1.
       11   -1    0    0    0    0 -0.00000000000E+00 -0.00000000000E+00 -0.35740347158E-01  0.35744000000E-01  0.51099999109E-03 0.  1.
       22    1    1    2    0    0  0.19639705449E-02 -0.66815131204E-02  0.35051872803E-01  0.35737005818E-01  0.00000000000E+00 0. -1.
  9000001    1    1    2    0    0 -0.19639705449E-02  0.66815131204E-02 -0.35051872803E-01  0.35750994182E-01  0.10000000475E-02 0.  1.
</event>
<event>
 4   0  0.4892667E-02  0.9118800E+02  0.7818609E-02  0.1379984E+01
      -11   -1    0    0    0    0  0.00000000000E+00  0.00000000000E+00  0.35740347158E-01  0.35744000000E-01  0.51099999109E-03 0.  1.
       11   -1    0    0    0    0 -0.00000000000E+00 -0.00000000000E+00 -0.35740347158E-01  0.35744000000E-01  0.51099999109E-03 0. -1.
       22    1    1    2    0    0 -0.22991496533E-02 -0.78235825638E-02  0.34794238770E-01  0.35737005818E-01  0.00000000000E+00 0.  1.
  9000001    1    1    2    0    0  0.22991496533E-02  0.78235825638E-02 -0.34794238770E-01  0.35750994182E-01  0.10000000475E-02 0. -1.
</event>
<event>
 4   0  0.4892667E-02  0.9118800E+02  0.7818609E-02  0.1379984E+01
      -11   -1    0    0    0    0  0.00000000000E+00  0.00000000000E+00  0.35740347158E-01  0.35744000000E-01  0.51099999109E-03 0. -1.
       11   -1    0    0    0    0 -0.00000000000E+00 -0.00000000000E+00 -0.35740347158E-01  0.35744000000E-01  0.51099999109E-03 0.  1.
       22    1    1    2    0    0 -0.87612318718E-02  0.98003940457E-02 -0.33231411007E-01  0.35737005818E-01  0.00000000000E+00 0.  1.
  9000001    1    1    2    0    0  0.87612318718E-02 -0.98003940457E-02  0.33231411007E-01  0.35750994182E-01  0.10000000475E-02 0. -1.
</event>
<event>
 4   0  0.4892667E-02  0.9118800E+02  0.7818609E-02  0.1379984E+01
      -11   -1    0    0    0    0  0.00000000000E+00  0.00000000000E+00  0.35740347158E-01  0.35744000000E-01  0.51099999109E-03 0.  1.
       11   -1    0    0    0    0 -0.00000000000E+00 -0.00000000000E+00 -0.35740347158E-01  0.35744000000E-01  0.51099999109E-03 0. -1.
       22    1    1    2    0    0 -0.34217196181E-01 -0.10294036301E-01  0.59151246644E-03  0.35737005818E-01  0.00000000000E+00 0.  1.
  9000001    1    1    2    0    0  0.34217196181E-01  0.10294036301E-01 -0.59151246644E-03  0.35750994182E-01  0.10000000475E-02 0. -1.
</event>
<event>
 4   0  0.4892667E-02  0.9118800E+02  0.7818609E-02  0.1379984E+01
      -11   -1    0    0    0    0  0.00000000000E+00  0.00000000000E+00  0.35740347158E-01  0.35744000000E-01  0.51099999109E-03 0.  1.
       11   -1    0    0    0    0 -0.00000000000E+00 -0.00000000000E+00 -0.35740347158E-01  0.35744000000E-01  0.51099999109E-03 0. -1.
       22    1    1    2    0    0  0.20655566452E-01 -0.89652285017E-03 -0.29149226511E-01  0.35737005818E-01  0.00000000000E+00 0. -1.
  9000001    1    1    2    0    0 -0.20655566452E-01  0.89652285017E-03  0.29149226511E-01  0.35750994182E-01  0.10000000475E-02 0.  1.
</event>
<event>
 4   0  0.4892667E-02  0.9118800E+02  0.7818609E-02  0.1379984E+01
      -11   -1    0    0    0    0  0.00000000000E+00  0.00000000000E+00  0.35740347158E-01  0.35744000000E-01  0.51099999109E-03 0. -1.
       11   -1    0    0    0    0 -0.00000000000E+00 -0.00000000000E+00 -0.35740347158E-01  0.35744000000E-01  0.51099999109E-03 0.  1.
       22    1    1    2    0    0 -0.35416480791E-02 -0.20941296040E-02 -0.35499365275E-01  0.35737005818E-01  0.00000000000E+00 0.  1.
  9000001    1    1    2    0    0  0.35416480791E-02  0.20941296040E-02  0.35499365275E-01  0.35750994182E-01  0.10000000475E-02 0. -1.
</event>
<event>
 4   0  0.4892667E-02  0.9118800E+02  0.7818609E-02  0.1379984E+01
      -11   -1    0    0    0    0  0.00000000000E+00  0.00000000000E+00  0.35740347158E-01  0.35744000000E-01  0.51099999109E-03 0.  1.
       11   -1    0    0    0    0 -0.00000000000E+00 -0.00000000000E+00 -0.35740347158E-01  0.35744000000E-01  0.51099999109E-03 0. -1.
       22    1    1    2    0    0 -0.49557125493E-02  0.35527103283E-06  0.35391729230E-01  0.35737005818E-01  0.00000000000E+00 0.  1.
  9000001    1    1    2    0    0  0.49557125493E-02 -0.35527103283E-06 -0.35391729230E-01  0.35750994182E-01  0.10000000475E-02 0. -1.
</event>
<event>
 4   0  0.4892667E-02  0.9118800E+02  0.7818609E-02  0.1379984E+01
      -11   -1    0    0    0    0  0.00000000000E+00  0.00000000000E+00  0.35740347158E-01  0.35744000000E-01  0.51099999109E-03 0.  1.
       11   -1    0    0    0    0 -0.00000000000E+00 -0.00000000000E+00 -0.35740347158E-01  0.35744000000E-01  0.51099999109E-03 0. -1.
       22    1    1    2    0    0 -0.10126099114E-01  0.57475492318E-02 -0.33787000154E-01  0.35737005818E-01  0.00000000000E+00 0. -1.
  9000001    1    1    2    0    0  0.10126099114E-01 -0.57475492318E-02  0.33787000154E-01  0.35750994182E-01  0.10000000475E-02 0.  1.
</event>
<event>
 4   0  0.4892667E-02  0.9118800E+02  0.7818609E-02  0.1379984E+01
      -11   -1    0    0    0    0  0.00000000000E+00  0.00000000000E+00  0.35740347158E-01  0.35744000000E-01  0.51099999109E-03 0. -1.
       11   -1    0    0    0    0 -0.00000000000E+00 -0.00000000000E+00 -0.35740347158E-01  0.35744000000E-01  0.51099999109E-03 0.  1.
       22    1    1    2    0    0 -0.25925344514E-01  0.22808350010E-01 -0.92081087376E-02  0.35737005818E-01  0.00000000000E+00 0.  1.
  9000001    1    1    2    0    0  0.25925344514E-01 -0.22808350010E-01  0.92081087376E-02  0.35750994182E-01  0.10000000475E-02 0. -1.
</event>
<event>
 4   0  0.4892667E-02  0.9118800E+02  0.7818609E-02  0.1379984E+01
      -11   -1    0    0    0    0  0.00000000000E+00  0.00000000000E+00  0.35740347158E-01  0.35744000000E-01  0.51099999109E-03 0.  1.
       11   -1    0    0    0    0 -0.00000000000E+00 -0.00000000000E+00 -0.35740347158E-01  0.35744000000E-01  0.51099999109E-03 0. -1.
       22    1    1    2    0    0  0.10408936851E-02  0.47004062687E-02  0.35411245475E-01  0.35737005818E-01  0.00000000000E+00 0.  1.
  9000001    1    1    2    0    0 -0.10408936851E-02 -0.47004062687E-02 -0.35411245475E-01  0.35750994182E-01  0.10000000475E-02 0. -1.
</event>
<event>
 4   0  0.4892667E-02  0.9118800E+02  0.7818609E-02  0.1379984E+01
      -11   -1    0    0    0    0  0.00000000000E+00  0.00000000000E+00  0.35740347158E-01  0.35744000000E-01  0.51099999109E-03 0.  1.
       11   -1    0    0    0    0 -0.00000000000E+00 -0.00000000000E+00 -0.35740347158E-01  0.35744000000E-01  0.51099999109E-03 0. -1.
       22    1    1    2    0    0  0.79915142028E-02  0.70499526211E-02 -0.34111104551E-01  0.35737005818E-01  0.00000000000E+00 0. -1.
  9000001    1    1    2    0    0 -0.79915142028E-02 -0.70499526211E-02  0.34111104551E-01  0.35750994182E-01  0.10000000475E-02 0.  1.
</event>
<event>
 4   0  0.4892667E-02  0.9118800E+02  0.7818609E-02  0.1379984E+01
      -11   -1    0    0    0    0  0.00000000000E+00  0.00000000000E+00  0.35740347158E-01  0.35744000000E-01  0.51099999109E-03 0.  1.
       11   -1    0    0    0    0 -0.00000000000E+00 -0.00000000000E+00 -0.35740347158E-01  0.35744000000E-01  0.51099999109E-03 0. -1.
       22    1    1    2    0    0 -0.38032763463E-02  0.41356512066E-03 -0.35531642768E-01  0.35737005818E-01  0.00000000000E+00 0. -1.
  9000001    1    1    2    0    0  0.38032763463E-02 -0.41356512066E-03  0.35531642768E-01  0.35750994182E-01  0.10000000475E-02 0.  1.
</event>
<event>
 4   0  0.4892667E-02  0.9118800E+02  0.7818609E-02  0.1379984E+01
      -11   -1    0    0    0    0  0.00000000000E+00  0.00000000000E+00  0.35740347158E-01  0.35744000000E-01  0.51099999109E-03 0. -1.
       11   -1    0    0    0    0 -0.00000000000E+00 -0.00000000000E+00 -0.35740347158E-01  0.35744000000E-01  0.51099999109E-03 0.  1.
       22    1    1    2    0    0  0.78961714379E-02 -0.22552184856E-01 -0.26574104307E-01  0.35737005818E-01  0.00000000000E+00 0.  1.
  9000001    1    1    2    0    0 -0.78961714379E-02  0.22552184856E-01  0.26574104307E-01  0.35750994182E-01  0.10000000475E-02 0. -1.
</event>
<event>
 4   0  0.4892667E-02  0.9118800E+02  0.7818609E-02  0.1379984E+01
      -11   -1    0    0    0    0  0.00000000000E+00  0.00000000000E+00  0.35740347158E-01  0.35744000000E-01  0.51099999109E-03 0.  1.
       11   -1    0    0    0    0 -0.00000000000E+00 -0.00000000000E+00 -0.35740347158E-01  0.35744000000E-01  0.51099999109E-03 0. -1.
       22    1    1    2    0    0  0.29540062408E-01  0.12475077889E-01 -0.15776271089E-01  0.35737005818E-01  0.00000000000E+00 0. -1.
  9000001    1    1    2    0    0 -0.29540062408E-01 -0.12475077889E-01  0.15776271089E-01  0.35750994182E-01  0.10000000475E-02 0.  1.
</event>
<event>
 4   0  0.4892667E-02  0.9118800E+02  0.7818609E-02  0.1379984E+01
      -11   -1    0    0    0    0  0.00000000000E+00  0.00000000000E+00  0.35740347158E-01  0.35744000000E-01  0.51099999109E-03 0. -1.
       11   -1    0    0    0    0 -0.00000000000E+00 -0.00000000000E+00 -0.35740347158E-01  0.35744000000E-01  0.51099999109E-03 0.  1.
       22    1    1    2    0    0  0.59888505274E-02 -0.26296533590E-02  0.35133348509E-01  0.35737005818E-01  0.00000000000E+00 0. -1.
  9000001    1    1    2    0    0 -0.59888505274E-02  0.26296533590E-02 -0.35133348509E-01  0.35750994182E-01  0.10000000475E-02 0.  1.
</event>
<event>
 4   0  0.4892667E-02  0.9118800E+02  0.7818609E-02  0.1379984E+01
      -11   -1    0    0    0    0  0.00000000000E+00  0.00000000000E+00  0.35740347158E-01  0.35744000000E-01  0.51099999109E-03 0.  1.
       11   -1    0    0    0    0 -0.00000000000E+00 -0.00000000000E+00 -0.35740347158E-01  0.35744000000E-01  0.51099999109E-03 0. -1.
       22    1    1    2    0    0  0.13097811374E-01 -0.15260102225E-02  0.33215240702E-01  0.35737005818E-01  0.00000000000E+00 0.  1.
  9000001    1    1    2    0    0 -0.13097811374E-01  0.15260102225E-02 -0.33215240702E-01  0.35750994182E-01  0.10000000475E-02 0. -1.
</event>
<event>
 4   0  0.4892667E-02  0.9118800E+02  0.7818609E-02  0.1379984E+01
      -11   -1    0    0    0    0  0.00000000000E+00  0.00000000000E+00  0.35740347158E-01  0.35744000000E-01  0.51099999109E-03 0.  1.
       11   -1    0    0    0    0 -0.00000000000E+00 -0.00000000000E+00 -0.35740347158E-01  0.35744000000E-01  0.51099999109E-03 0. -1.
       22    1    1    2    0    0 -0.12211362246E-01  0.10100987891E-01 -0.32031020287E-01  0.35737005818E-01  0.00000000000E+00 0. -1.
  9000001    1    1    2    0    0  0.12211362246E-01 -0.10100987891E-01  0.32031020287E-01  0.35750994182E-01  0.10000000475E-02 0.  1.
</event>
<event>
 4   0  0.4892667E-02  0.9118800E+02  0.7818609E-02  0.1379984E+01
      -11   -1    0    0    0    0  0.00000000000E+00  0.00000000000E+00  0.35740347158E-01  0.35744000000E-01  0.51099999109E-03 0. -1.
       11   -1    0    0    0    0 -0.00000000000E+00 -0.00000000000E+00 -0.35740347158E-01  0.35744000000E-01  0.51099999109E-03 0.  1.
       22    1    1    2    0    0 -0.31179754844E-01 -0.47376952121E-02 -0.16808055117E-01  0.35737005818E-01  0.00000000000E+00 0.  1.
  9000001    1    1    2    0    0  0.31179754844E-01  0.47376952121E-02  0.16808055117E-01  0.35750994182E-01  0.10000000475E-02 0. -1.
</event>
<event>
 4   0  0.4892667E-02  0.9118800E+02  0.7818609E-02  0.1379984E+01
      -11   -1    0    0    0    0  0.00000000000E+00  0.00000000000E+00  0.35740347158E-01  0.35744000000E-01  0.51099999109E-03 0. -1.
       11   -1    0    0    0    0 -0.00000000000E+00 -0.00000000000E+00 -0.35740347158E-01  0.35744000000E-01  0.51099999109E-03 0.  1.
       22    1    1    2    0    0  0.14261692766E-04 -0.37382439738E-02 -0.35540946997E-01  0.35737005818E-01  0.00000000000E+00 0.  1.
  9000001    1    1    2    0    0 -0.14261692766E-04  0.37382439738E-02  0.35540946997E-01  0.35750994182E-01  0.10000000475E-02 0. -1.
</event>
<event>
 4   0  0.4892667E-02  0.9118800E+02  0.7818609E-02  0.1379984E+01
      -11   -1    0    0    0    0  0.00000000000E+00  0.00000000000E+00  0.35740347158E-01  0.35744000000E-01  0.51099999109E-03 0. -1.
       11   -1    0    0    0    0 -0.00000000000E+00 -0.00000000000E+00 -0.35740347158E-01  0.35744000000E-01  0.51099999109E-03 0.  1.
       22    1    1    2    0    0  0.19619970058E-01  0.29282156221E-01  0.58945472153E-02  0.35737005818E-01  0.00000000000E+00 0.  1.
  9000001    1    1    2    0    0 -0.19619970058E-01 -0.29282156221E-01 -0.58945472153E-02  0.35750994182E-01  0.10000000475E-02 0. -1.
</event>
<event>
 4   0  0.4892667E-02  0.9118800E+02  0.7818609E-02  0.1379984E+01
      -11   -1    0    0    0    0  0.00000000000E+00  0.00000000000E+00  0.35740347158E-01  0.35744000000E-01  0.51099999109E-03 0. -1.
       11   -1    0    0    0    0 -0.00000000000E+00 -0.00000000000E+00 -0.35740347158E-01  0.35744000000E-01  0.51099999109E-03 0.  1.
       22    1    1    2    0    0 -0.53961819815E-02 -0.46140258522E-02 -0.35024642330E-01  0.35737005818E-01  0.00000000000E+00 0.  1.
  9000001    1    1    2    0    0  0.53961819815E-02  0.46140258522E-02  0.35024642330E-01  0.35750994182E-01  0.10000000475E-02 0. -1.
</event>
<event>
 4   0  0.4892667E-02  0.9118800E+02  0.7818609E-02  0.1379984E+01
      -11   -1    0    0    0    0  0.00000000000E+00  0.00000000000E+00  0.35740347158E-01  0.35744000000E-01  0.51099999109E-03 0.  1.
       11   -1    0    0    0    0 -0.00000000000E+00 -0.00000000000E+00 -0.35740347158E-01  0.35744000000E-01  0.51099999109E-03 0. -1.
       22    1    1    2    0    0  0.95208549032E-02  0.10373371428E-01  0.32846309869E-01  0.35737005818E-01  0.00000000000E+00 0.  1.
  9000001    1    1    2    0    0 -0.95208549032E-02 -0.10373371428E-01 -0.32846309869E-01  0.35750994182E-01  0.10000000475E-02 0. -1.
</event>
<event>
 4   0  0.4892667E-02  0.9118800E+02  0.7818609E-02  0.1379984E+01
      -11   -1    0    0    0    0  0.00000000000E+00  0.00000000000E+00  0.35740347158E-01  0.35744000000E-01  0.51099999109E-03 0.  1.
       11   -1    0    0    0    0 -0.00000000000E+00 -0.00000000000E+00 -0.35740347158E-01  0.35744000000E-01  0.51099999109E-03 0. -1.
       22    1    1    2    0    0 -0.38036886466E-02  0.19283721023E-02 -0.35481641994E-01  0.35737005818E-01  0.00000000000E+00 0. -1.
  9000001    1    1    2    0    0  0.38036886466E-02 -0.19283721023E-02  0.35481641994E-01  0.35750994182E-01  0.10000000475E-02 0.  1.
</event>
<event>
 4   0  0.4892667E-02  0.9118800E+02  0.7818609E-02  0.1379984E+01
      -11   -1    0    0    0    0  0.00000000000E+00  0.00000000000E+00  0.35740347158E-01  0.35744000000E-01  0.51099999109E-03 0.  1.
       11   -1    0    0    0    0 -0.00000000000E+00 -0.00000000000E+00 -0.35740347158E-01  0.35744000000E-01  0.51099999109E-03 0. -1.
       22    1    1    2    0    0  0.29317945506E-02 -0.85343682837E-03  0.35606317012E-01  0.35737005818E-01  0.00000000000E+00 0.  1.
  9000001    1    1    2    0    0 -0.29317945506E-02  0.85343682837E-03 -0.35606317012E-01  0.35750994182E-01  0.10000000475E-02 0. -1.
</event>
<event>
 4   0  0.4892667E-02  0.9118800E+02  0.7818609E-02  0.1379984E+01
      -11   -1    0    0    0    0  0.00000000000E+00  0.00000000000E+00  0.35740347158E-01  0.35744000000E-01  0.51099999109E-03 0.  1.
       11   -1    0    0    0    0 -0.00000000000E+00 -0.00000000000E+00 -0.35740347158E-01  0.35744000000E-01  0.51099999109E-03 0. -1.
       22    1    1    2    0    0  0.55728968225E-02  0.44049814624E-02 -0.35023885338E-01  0.35737005818E-01  0.00000000000E+00 0. -1.
  9000001    1    1    2    0    0 -0.55728968225E-02 -0.44049814624E-02  0.35023885338E-01  0.35750994182E-01  0.10000000475E-02 0.  1.
</event>
<event>
 4   0  0.4892667E-02  0.9118800E+02  0.7818609E-02  0.1379984E+01
      -11   -1    0    0    0    0  0.00000000000E+00  0.00000000000E+00  0.35740347158E-01  0.35744000000E-01  0.51099999109E-03 0.  1.
       11   -1    0    0    0    0 -0.00000000000E+00 -0.00000000000E+00 -0.35740347158E-01  0.35744000000E-01  0.51099999109E-03 0. -1.
       22    1    1    2    0    0  0.43541775746E-02 -0.17127517614E-01  0.31061597881E-01  0.35737005818E-01  0.00000000000E+00 0.  1.
  9000001    1    1    2    0    0 -0.43541775746E-02  0.17127517614E-01 -0.31061597881E-01  0.35750994182E-01  0.10000000475E-02 0. -1.
</event>
<event>
 4   0  0.4892667E-02  0.9118800E+02  0.7818609E-02  0.1379984E+01
      -11   -1    0    0    0    0  0.00000000000E+00  0.00000000000E+00  0.35740347158E-01  0.35744000000E-01  0.51099999109E-03 0. -1.
       11   -1    0    0    0    0 -0.00000000000E+00 -0.00000000000E+00 -0.35740347158E-01  0.35744000000E-01  0.51099999109E-03 0.  1.
       22    1    1    2    0    0 -0.72698587074E-02 -0.59930052380E-02  0.34472693940E-01  0.35737005818E-01  0.00000000000E+00 0. -1.
  9000001    1    1    2    0    0  0.72698587074E-02  0.59930052380E-02 -0.34472693940E-01  0.35750994182E-01  0.10000000475E-02 0.  1.
</event>
<event>
 4   0  0.4892667E-02  0.9118800E+02  0.7818609E-02  0.1379984E+01
      -11   -1    0    0    0    0  0.00000000000E+00  0.00000000000E+00  0.35740347158E-01  0.35744000000E-01  0.51099999109E-03 0.  1.
       11   -1    0    0    0    0 -0.00000000000E+00 -0.00000000000E+00 -0.35740347158E-01  0.35744000000E-01  0.51099999109E-03 0. -1.
       22    1    1    2    0    0 -0.99388399847E-03 -0.50587013879E-02 -0.35363191594E-01  0.35737005818E-01  0.00000000000E+00 0. -1.
  9000001    1    1    2    0    0  0.99388399847E-03  0.50587013879E-02  0.35363191594E-01  0.35750994182E-01  0.10000000475E-02 0.  1.
</event>
<event>
 4   0  0.4892667E-02  0.9118800E+02  0.7818609E-02  0.1379984E+01
      -11   -1    0    0    0    0  0.00000000000E+00  0.00000000000E+00  0.35740347158E-01  0.35744000000E-01  0.51099999109E-03 0.  1.
       11   -1    0    0    0    0 -0.00000000000E+00 -0.00000000000E+00 -0.35740347158E-01  0.35744000000E-01  0.51099999109E-03 0. -1.
       22    1    1    2    0    0 -0.23367719828E-02  0.24996889020E-01 -0.25432825656E-01  0.35737005818E-01  0.00000000000E+00 0. -1.
  9000001    1    1    2    0    0  0.23367719828E-02 -0.24996889020E-01  0.25432825656E-01  0.35750994182E-01  0.10000000475E-02 0.  1.
</event>
<event>
 4   0  0.4892667E-02  0.9118800E+02  0.7818609E-02  0.1379984E+01
      -11   -1    0    0    0    0  0.00000000000E+00  0.00000000000E+00  0.35740347158E-01  0.35744000000E-01  0.51099999109E-03 0.  1.
       11   -1    0    0    0    0 -0.00000000000E+00 -0.00000000000E+00 -0.35740347158E-01  0.35744000000E-01  0.51099999109E-03 0. -1.
       22    1    1    2    0    0 -0.22679849822E-02  0.45760721606E-02  0.35370176598E-01  0.35737005818E-01  0.00000000000E+00 0.  1.
  9000001    1    1    2    0    0  0.22679849822E-02 -0.45760721606E-02 -0.35370176598E-01  0.35750994182E-01  0.10000000475E-02 0. -1.
</event>
<event>
 4   0  0.4892667E-02  0.9118800E+02  0.7818609E-02  0.1379984E+01
      -11   -1    0    0    0    0  0.00000000000E+00  0.00000000000E+00  0.35740347158E-01  0.35744000000E-01  0.51099999109E-03 0.  1.
       11   -1    0    0    0    0 -0.00000000000E+00 -0.00000000000E+00 -0.35740347158E-01  0.35744000000E-01  0.51099999109E-03 0. -1.
       22    1    1    2    0    0  0.58813677300E-04 -0.52273056011E-02  0.35352586921E-01  0.35737005818E-01  0.00000000000E+00 0.  1.
  9000001    1    1    2    0    0 -0.58813677300E-04  0.52273056011E-02 -0.35352586921E-01  0.35750994182E-01  0.10000000475E-02 0. -1.
</event>
<event>
 4   0  0.4892667E-02  0.9118800E+02  0.7818609E-02  0.1379984E+01
      -11   -1    0    0    0    0  0.00000000000E+00  0.00000000000E+00  0.35740347158E-01  0.35744000000E-01  0.51099999109E-03 0. -1.
       11   -1    0    0    0    0 -0.00000000000E+00 -0.00000000000E+00 -0.35740347158E-01  0.35744000000E-01  0.51099999109E-03 0.  1.
       22    1    1    2    0    0  0.28710527174E-02 -0.28065844493E-02  0.35510755059E-01  0.35737005818E-01  0.00000000000E+00 0. -1.
  9000001    1    1    2    0    0 -0.28710527174E-02  0.28065844493E-02 -0.35510755059E-01  0.35750994182E-01  0.10000000475E-02 0.  1.
</event>
<event>
 4   0  0.4892667E-02  0.9118800E+02  0.7818609E-02  0.1379984E+01
      -11   -1    0    0    0    0  0.00000000000E+00  0.00000000000E+00  0.35740347158E-01  0.35744000000E-01  0.51099999109E-03 0. -1.
       11   -1    0    0    0    0 -0.00000000000E+00 -0.00000000000E+00 -0.35740347158E-01  0.35744000000E-01  0.51099999109E-03 0.  1.
       22    1    1    2    0    0 -0.42523270433E-02  0.38396257346E-02  0.35274758310E-01  0.35737005818E-01  0.00000000000E+00 0. -1.
  9000001    1    1    2    0    0  0.42523270433E-02 -0.38396257346E-02 -0.35274758310E-01  0.35750994182E-01  0.10000000475E-02 0.  1.
</event>
<event>
 4   0  0.4892667E-02  0.9118800E+02  0.7818609E-02  0.1379984E+01
      -11   -1    0    0    0    0  0.00000000000E+00  0.00000000000E+00  0.35740347158E-01  0.35744000000E-01  0.51099999109E-03 0. -1.
       11   -1    0    0    0    0 -0.00000000000E+00 -0.00000000000E+00 -0.35740347158E-01  0.35744000000E-01  0.51099999109E-03 0.  1.
       22    1    1    2    0    0  0.10614611179E-01  0.32926299229E-02  0.33965014391E-01  0.35737005818E-01  0.00000000000E+00 0. -1.
  9000001    1    1    2    0    0 -0.10614611179E-01 -0.32926299229E-02 -0.33965014391E-01  0.35750994182E-01  0.10000000475E-02 0.  1.
</event>
<event>
 4   0  0.4892667E-02  0.9118800E+02  0.7818609E-02  0.1379984E+01
      -11   -1    0    0    0    0  0.00000000000E+00  0.00000000000E+00  0.35740347158E-01  0.35744000000E-01  0.51099999109E-03 0. -1.
       11   -1    0    0    0    0 -0.00000000000E+00 -0.00000000000E+00 -0.35740347158E-01  0.35744000000E-01  0.51099999109E-03 0.  1.
       22    1    1    2    0    0  0.81888145729E-02 -0.32220135708E-02  0.34636621217E-01  0.35737005818E-01  0.00000000000E+00 0. -1.
  9000001    1    1    2    0    0 -0.81888145729E-02  0.32220135708E-02 -0.34636621217E-01  0.35750994182E-01  0.10000000475E-02 0.  1.
</event>
<event>
 4   0  0.4892667E-02  0.9118800E+02  0.7818609E-02  0.1379984E+01
      -11   -1    0    0    0    0  0.00000000000E+00  0.00000000000E+00  0.35740347158E-01  0.35744000000E-01  0.51099999109E-03 0. -1.
       11   -1    0    0    0    0 -0.00000000000E+00 -0.00000000000E+00 -0.35740347158E-01  0.35744000000E-01  0.51099999109E-03 0.  1.
       22    1    1    2    0    0  0.59195357450E-02  0.24930797538E-03  0.35242453475E-01  0.35737005818E-01  0.00000000000E+00 0. -1.
  9000001    1    1    2    0    0 -0.59195357450E-02 -0.24930797538E-03 -0.35242453475E-01  0.35750994182E-01  0.10000000475E-02 0.  1.
</event>
<event>
 4   0  0.4892667E-02  0.9118800E+02  0.7818609E-02  0.1379984E+01
      -11   -1    0    0    0    0  0.00000000000E+00  0.00000000000E+00  0.35740347158E-01  0.35744000000E-01  0.51099999109E-03 0. -1.
       11   -1    0    0    0    0 -0.00000000000E+00 -0.00000000000E+00 -0.35740347158E-01  0.35744000000E-01  0.51099999109E-03 0.  1.
       22    1    1    2    0    0 -0.66836398853E-02  0.18771707468E-03 -0.35105944013E-01  0.35737005818E-01  0.00000000000E+00 0.  1.
  9000001    1    1    2    0    0  0.66836398853E-02 -0.18771707468E-03  0.35105944013E-01  0.35750994182E-01  0.10000000475E-02 0. -1.
</event>
<event>
 4   0  0.4892667E-02  0.9118800E+02  0.7818609E-02  0.1379984E+01
      -11   -1    0    0    0    0  0.00000000000E+00  0.00000000000E+00  0.35740347158E-01  0.35744000000E-01  0.51099999109E-03 0. -1.
       11   -1    0    0    0    0 -0.00000000000E+00 -0.00000000000E+00 -0.35740347158E-01  0.35744000000E-01  0.51099999109E-03 0.  1.
       22    1    1    2    0    0 -0.63493099876E-02  0.13750545458E-02  0.35141557628E-01  0.35737005818E-01  0.00000000000E+00 0. -1.
  9000001    1    1    2    0    0  0.63493099876E-02 -0.13750545458E-02 -0.35141557628E-01  0.35750994182E-01  0.10000000475E-02 0.  1.
</event>
<event>
 4   0  0.4892667E-02  0.9118800E+02  0.7818609E-02  0.1379984E+01
      -11   -1    0    0    0    0  0.00000000000E+00  0.00000000000E+00  0.35740347158E-01  0.35744000000E-01  0.51099999109E-03 0.  1.
       11   -1    0    0    0    0 -0.00000000000E+00 -0.00000000000E+00 -0.35740347158E-01  0.35744000000E-01  0.51099999109E-03 0. -1.
       22    1    1    2    0    0  0.10567189212E-01 -0.89444777915E-02  0.32946386965E-01  0.35737005818E-01  0.00000000000E+00 0.  1.
  9000001    1    1    2    0    0 -0.10567189212E-01  0.89444777915E-02 -0.32946386965E-01  0.35750994182E-01  0.10000000475E-02 0. -1.
</event>
<event>
 4   0  0.4892667E-02  0.9118800E+02  0.7818609E-02  0.1379984E+01
      -11   -1    0    0    0    0  0.00000000000E+00  0.00000000000E+00  0.35740347158E-01  0.35744000000E-01  0.51099999109E-03 0. -1.
       11   -1    0    0    0    0 -0.00000000000E+00 -0.00000000000E+00 -0.35740347158E-01  0.35744000000E-01  0.51099999109E-03 0.  1.
       22    1    1    2    0    0 -0.58555540527E-02  0.67941435447E-02 -0.34593145059E-01  0.35737005818E-01  0.00000000000E+00 0.  1.
  9000001    1    1    2    0    0  0.58555540527E-02 -0.67941435447E-02  0.34593145059E-01  0.35750994182E-01  0.10000000475E-02 0. -1.
</event>
<event>
 4   0  0.4892667E-02  0.9118800E+02  0.7818609E-02  0.1379984E+01
      -11   -1    0    0    0    0  0.00000000000E+00  0.00000000000E+00  0.35740347158E-01  0.35744000000E-01  0.51099999109E-03 0. -1.
       11   -1    0    0    0    0 -0.00000000000E+00 -0.00000000000E+00 -0.35740347158E-01  0.35744000000E-01  0.51099999109E-03 0.  1.
       22    1    1    2    0    0 -0.20239243725E-01  0.29425669630E-01  0.12792830654E-02  0.35737005818E-01  0.00000000000E+00 0.  1.
  9000001    1    1    2    0    0  0.20239243725E-01 -0.29425669630E-01 -0.12792830654E-02  0.35750994182E-01  0.10000000475E-02 0. -1.
</event>
<event>
 4   0  0.4892667E-02  0.9118800E+02  0.7818609E-02  0.1379984E+01
      -11   -1    0    0    0    0  0.00000000000E+00  0.00000000000E+00  0.35740347158E-01  0.35744000000E-01  0.51099999109E-03 0.  1.
       11   -1    0    0    0    0 -0.00000000000E+00 -0.00000000000E+00 -0.35740347158E-01  0.35744000000E-01  0.51099999109E-03 0. -1.
       22    1    1    2    0    0 -0.11863166833E-01  0.14704365033E-01 -0.30334477192E-01  0.35737005818E-01  0.00000000000E+00 0. -1.
  9000001    1    1    2    0    0  0.11863166833E-01 -0.14704365033E-01  0.30334477192E-01  0.35750994182E-01  0.10000000475E-02 0.  1.
</event>
<event>
 4   0  0.4892667E-02  0.9118800E+02  0.7818609E-02  0.1379984E+01
      -11   -1    0    0    0    0  0.00000000000E+00  0.00000000000E+00  0.35740347158E-01  0.35744000000E-01  0.51099999109E-03 0.  1.
       11   -1    0    0    0    0 -0.00000000000E+00 -0.00000000000E+00 -0.35740347158E-01  0.35744000000E-01  0.51099999109E-03 0. -1.
       22    1    1    2    0    0  0.11207650764E-01 -0.25948160308E-01 -0.21868130370E-01  0.35737005818E-01  0.00000000000E+00 0. -1.
  9000001    1    1    2    0    0 -0.11207650764E-01  0.25948160308E-01  0.21868130370E-01  0.35750994182E-01  0.10000000475E-02 0.  1.
</event>
<event>
 4   0  0.4892667E-02  0.9118800E+02  0.7818609E-02  0.1379984E+01
      -11   -1    0    0    0    0  0.00000000000E+00  0.00000000000E+00  0.35740347158E-01  0.35744000000E-01  0.51099999109E-03 0.  1.
       11   -1    0    0    0    0 -0.00000000000E+00 -0.00000000000E+00 -0.35740347158E-01  0.35744000000E-01  0.51099999109E-03 0. -1.
       22    1    1    2    0    0  0.24620997232E-01  0.36870894962E-02 -0.25638749018E-01  0.35737005818E-01  0.00000000000E+00 0. -1.
  9000001    1    1    2    0    0 -0.24620997232E-01 -0.36870894962E-02  0.25638749018E-01  0.35750994182E-01  0.10000000475E-02 0.  1.
</event>
<event>
 4   0  0.4892667E-02  0.9118800E+02  0.7818609E-02  0.1379984E+01
      -11   -1    0    0    0    0  0.00000000000E+00  0.00000000000E+00  0.35740347158E-01  0.35744000000E-01  0.51099999109E-03 0. -1.
       11   -1    0    0    0    0 -0.00000000000E+00 -0.00000000000E+00 -0.35740347158E-01  0.35744000000E-01  0.51099999109E-03 0.  1.
       22    1    1    2    0    0 -0.12839354569E-01 -0.26562650443E-01 -0.20167056319E-01  0.35737005818E-01  0.00000000000E+00 0.  1.
  9000001    1    1    2    0    0  0.12839354569E-01  0.26562650443E-01  0.20167056319E-01  0.35750994182E-01  0.10000000475E-02 0. -1.
</event>
<event>
 4   0  0.4892667E-02  0.9118800E+02  0.7818609E-02  0.1379984E+01
      -11   -1    0    0    0    0  0.00000000000E+00  0.00000000000E+00  0.35740347158E-01  0.35744000000E-01  0.51099999109E-03 0. -1.
       11   -1    0    0    0    0 -0.00000000000E+00 -0.00000000000E+00 -0.35740347158E-01  0.35744000000E-01  0.51099999109E-03 0.  1.
       22    1    1    2    0    0  0.14456789104E-02  0.37532197291E-02 -0.35509955492E-01  0.35737005818E-01  0.00000000000E+00 0.  1.
  9000001    1    1    2    0    0 -0.14456789104E-02 -0.37532197291E-02  0.35509955492E-01  0.35750994182E-01  0.10000000475E-02 0. -1.
</event>
<event>
 4   0  0.4892667E-02  0.9118800E+02  0.7818609E-02  0.1379984E+01
      -11   -1    0    0    0    0  0.00000000000E+00  0.00000000000E+00  0.35740347158E-01  0.35744000000E-01  0.51099999109E-03 0. -1.
       11   -1    0    0    0    0 -0.00000000000E+00 -0.00000000000E+00 -0.35740347158E-01  0.35744000000E-01  0.51099999109E-03 0.  1.
       22    1    1    2    0    0  0.16790876683E-01 -0.18179908091E-01 -0.25781601713E-01  0.35737005818E-01  0.00000000000E+00 0.  1.
  9000001    1    1    2    0    0 -0.16790876683E-01  0.18179908091E-01  0.25781601713E-01  0.35750994182E-01  0.10000000475E-02 0. -1.
</event>
<event>
 4   0  0.4892667E-02  0.9118800E+02  0.7818609E-02  0.1379984E+01
      -11   -1    0    0    0    0  0.00000000000E+00  0.00000000000E+00  0.35740347158E-01  0.35744000000E-01  0.51099999109E-03 0.  1.
       11   -1    0    0    0    0 -0.00000000000E+00 -0.00000000000E+00 -0.35740347158E-01  0.35744000000E-01  0.51099999109E-03 0. -1.
       22    1    1    2    0    0  0.17334827813E-01 -0.15125840401E-01  0.27346778270E-01  0.35737005818E-01  0.00000000000E+00 0.  1.
  9000001    1    1    2    0    0 -0.17334827813E-01  0.15125840401E-01 -0.27346778270E-01  0.35750994182E-01  0.10000000475E-02 0. -1.
</event>
<event>
 4   0  0.4892667E-02  0.9118800E+02  0.7818609E-02  0.1379984E+01
      -11   -1    0    0    0    0  0.00000000000E+00  0.00000000000E+00  0.35740347158E-01  0.35744000000E-01  0.51099999109E-03 0.  1.
       11   -1    0    0    0    0 -0.00000000000E+00 -0.00000000000E+00 -0.35740347158E-01  0.35744000000E-01  0.51099999109E-03 0. -1.
       22    1    1    2    0    0 -0.72966087015E-02  0.25830595122E-01 -0.23593928074E-01  0.35737005818E-01  0.00000000000E+00 0. -1.
  9000001    1    1    2    0    0  0.72966087015E-02 -0.25830595122E-01  0.23593928074E-01  0.35750994182E-01  0.10000000475E-02 0.  1.
</event>
<event>
 4   0  0.4892667E-02  0.9118800E+02  0.7818609E-02  0.1379984E+01
      -11   -1    0    0    0    0  0.00000000000E+00  0.00000000000E+00  0.35740347158E-01  0.35744000000E-01  0.51099999109E-03 0.  1.
       11   -1    0    0    0    0 -0.00000000000E+00 -0.00000000000E+00 -0.35740347158E-01  0.35744000000E-01  0.51099999109E-03 0. -1.
       22    1    1    2    0    0 -0.12353846489E-01 -0.77667628228E-02  0.32621978129E-01  0.35737005818E-01  0.00000000000E+00 0.  1.
  9000001    1    1    2    0    0  0.12353846489E-01  0.77667628228E-02 -0.32621978129E-01  0.35750994182E-01  0.10000000475E-02 0. -1.
</event>
<event>
 4   0  0.4892667E-02  0.9118800E+02  0.7818609E-02  0.1379984E+01
      -11   -1    0    0    0    0  0.00000000000E+00  0.00000000000E+00  0.35740347158E-01  0.35744000000E-01  0.51099999109E-03 0. -1.
       11   -1    0    0    0    0 -0.00000000000E+00 -0.00000000000E+00 -0.35740347158E-01  0.35744000000E-01  0.51099999109E-03 0.  1.
       22    1    1    2    0    0 -0.41929397189E-02 -0.48148281921E-02  0.35162057262E-01  0.35737005818E-01  0.00000000000E+00 0. -1.
  9000001    1    1    2    0    0  0.41929397189E-02  0.48148281921E-02 -0.35162057262E-01  0.35750994182E-01  0.10000000475E-02 0.  1.
</event>
<event>
 4   0  0.4892667E-02  0.9118800E+02  0.7818609E-02  0.1379984E+01
      -11   -1    0    0    0    0  0.00000000000E+00  0.00000000000E+00  0.35740347158E-01  0.35744000000E-01  0.51099999109E-03 0.  1.
       11   -1    0    0    0    0 -0.00000000000E+00 -0.00000000000E+00 -0.35740347158E-01  0.35744000000E-01  0.51099999109E-03 0. -1.
       22    1    1    2    0    0  0.87600817499E-02  0.11213172009E-01 -0.32781996981E-01  0.35737005818E-01  0.00000000000E+00 0. -1.
  9000001    1    1    2    0    0 -0.87600817499E-02 -0.11213172009E-01  0.32781996981E-01  0.35750994182E-01  0.10000000475E-02 0.  1.
</event>
<event>
 4   0  0.4892667E-02  0.9118800E+02  0.7818609E-02  0.1379984E+01
      -11   -1    0    0    0    0  0.00000000000E+00  0.00000000000E+00  0.35740347158E-01  0.35744000000E-01  0.51099999109E-03 0.  1.
       11   -1    0    0    0    0 -0.00000000000E+00 -0.00000000000E+00 -0.35740347158E-01  0.35744000000E-01  0.51099999109E-03 0. -1.
       22    1    1    2    0    0  0.69583966841E-02 -0.35609836937E-02  0.34871674689E-01  0.35737005818E-01  0.00000000000E+00 0.  1.
  9000001    1    1    2    0    0 -0.69583966841E-02  0.35609836937E-02 -0.34871674689E-01  0.35750994182E-01  0.10000000475E-02 0. -1.
</event>
<event>
 4   0  0.4892667E-02  0.9118800E+02  0.7818609E-02  0.1379984E+01
      -11   -1    0    0    0    0  0.00000000000E+00  0.00000000000E+00  0.35740347158E-01  0.35744000000E-01  0.51099999109E-03 0. -1.
       11   -1    0    0    0    0 -0.00000000000E+00 -0.00000000000E+00 -0.35740347158E-01  0.35744000000E-01  0.51099999109E-03 0.  1.
       22    1    1    2    0    0 -0.15897440302E-01  0.50102931197E-03 -0.32002405321E-01  0.35737005818E-01  0.00000000000E+00 0.  1.
  9000001    1    1    2    0    0  0.15897440302E-01 -0.50102931197E-03  0.32002405321E-01  0.35750994182E-01  0.10000000475E-02 0. -1.
</event>
<event>
 4   0  0.4892667E-02  0.9118800E+02  0.7818609E-02  0.1379984E+01
      -11   -1    0    0    0    0  0.00000000000E+00  0.00000000000E+00  0.35740347158E-01  0.35744000000E-01  0.51099999109E-03 0. -1.
       11   -1    0    0    0    0 -0.00000000000E+00 -0.00000000000E+00 -0.35740347158E-01  0.35744000000E-01  0.51099999109E-03 0.  1.
       22    1    1    2    0    0 -0.18263601672E-01  0.23735903763E-02 -0.30625814399E-01  0.35737005818E-01  0.00000000000E+00 0.  1.
  9000001    1    1    2    0    0  0.18263601672E-01 -0.23735903763E-02  0.30625814399E-01  0.35750994182E-01  0.10000000475E-02 0. -1.
</event>
<event>
 4   0  0.4892667E-02  0.9118800E+02  0.7818609E-02  0.1379984E+01
      -11   -1    0    0    0    0  0.00000000000E+00  0.00000000000E+00  0.35740347158E-01  0.35744000000E-01  0.51099999109E-03 0. -1.
       11   -1    0    0    0    0 -0.00000000000E+00 -0.00000000000E+00 -0.35740347158E-01  0.35744000000E-01  0.51099999109E-03 0.  1.
       22    1    1    2    0    0  0.90432031424E-02 -0.97216521072E-02 -0.33178962342E-01  0.35737005818E-01  0.00000000000E+00 0.  1.
  9000001    1    1    2    0    0 -0.90432031424E-02  0.97216521072E-02  0.33178962342E-01  0.35750994182E-01  0.10000000475E-02 0. -1.
</event>
<event>
 4   0  0.4892667E-02  0.9118800E+02  0.7818609E-02  0.1379984E+01
      -11   -1    0    0    0    0  0.00000000000E+00  0.00000000000E+00  0.35740347158E-01  0.35744000000E-01  0.51099999109E-03 0.  1.
       11   -1    0    0    0    0 -0.00000000000E+00 -0.00000000000E+00 -0.35740347158E-01  0.35744000000E-01  0.51099999109E-03 0. -1.
       22    1    1    2    0    0  0.34387040586E-02  0.15800838636E-03  0.35570829799E-01  0.35737005818E-01  0.00000000000E+00 0.  1.
  9000001    1    1    2    0    0 -0.34387040586E-02 -0.15800838636E-03 -0.35570829799E-01  0.35750994182E-01  0.10000000475E-02 0. -1.
</event>
<event>
 4   0  0.4892667E-02  0.9118800E+02  0.7818609E-02  0.1379984E+01
      -11   -1    0    0    0    0  0.00000000000E+00  0.00000000000E+00  0.35740347158E-01  0.35744000000E-01  0.51099999109E-03 0. -1.
       11   -1    0    0    0    0 -0.00000000000E+00 -0.00000000000E+00 -0.35740347158E-01  0.35744000000E-01  0.51099999109E-03 0.  1.
       22    1    1    2    0    0  0.14500515026E-01  0.51690663413E-02  0.32251347290E-01  0.35737005818E-01  0.00000000000E+00 0. -1.
  9000001    1    1    2    0    0 -0.14500515026E-01 -0.51690663413E-02 -0.32251347290E-01  0.35750994182E-01  0.10000000475E-02 0.  1.
</event>
<event>
 4   0  0.4892667E-02  0.9118800E+02  0.7818609E-02  0.1379984E+01
      -11   -1    0    0    0    0  0.00000000000E+00  0.00000000000E+00  0.35740347158E-01  0.35744000000E-01  0.51099999109E-03 0.  1.
       11   -1    0    0    0    0 -0.00000000000E+00 -0.00000000000E+00 -0.35740347158E-01  0.35744000000E-01  0.51099999109E-03 0. -1.
       22    1    1    2    0    0 -0.45376931934E-02 -0.25744772982E-01 -0.24366977438E-01  0.35737005818E-01  0.00000000000E+00 0. -1.
  9000001    1    1    2    0    0  0.45376931934E-02  0.25744772982E-01  0.24366977438E-01  0.35750994182E-01  0.10000000475E-02 0.  1.
</event>
<event>
 4   0  0.4892667E-02  0.9118800E+02  0.7818609E-02  0.1379984E+01
      -11   -1    0    0    0    0  0.00000000000E+00  0.00000000000E+00  0.35740347158E-01  0.35744000000E-01  0.51099999109E-03 0.  1.
       11   -1    0    0    0    0 -0.00000000000E+00 -0.00000000000E+00 -0.35740347158E-01  0.35744000000E-01  0.51099999109E-03 0. -1.
       22    1    1    2    0    0  0.49554885573E-02  0.46765590256E-02  0.35081426905E-01  0.35737005818E-01  0.00000000000E+00 0.  1.
  9000001    1    1    2    0    0 -0.49554885573E-02 -0.46765590256E-02 -0.35081426905E-01  0.35750994182E-01  0.10000000475E-02 0. -1.
</event>
<event>
 4   0  0.4892667E-02  0.9118800E+02  0.7818609E-02  0.1379984E+01
      -11   -1    0    0    0    0  0.00000000000E+00  0.00000000000E+00  0.35740347158E-01  0.35744000000E-01  0.51099999109E-03 0. -1.
       11   -1    0    0    0    0 -0.00000000000E+00 -0.00000000000E+00 -0.35740347158E-01  0.35744000000E-01  0.51099999109E-03 0.  1.
       22    1    1    2    0    0  0.22721989597E-02  0.69962146587E-02  0.34971755421E-01  0.35737005818E-01  0.00000000000E+00 0. -1.
  9000001    1    1    2    0    0 -0.22721989597E-02 -0.69962146587E-02 -0.34971755421E-01  0.35750994182E-01  0.10000000475E-02 0.  1.
</event>
<event>
 4   0  0.4892667E-02  0.9118800E+02  0.7818609E-02  0.1379984E+01
      -11   -1    0    0    0    0  0.00000000000E+00  0.00000000000E+00  0.35740347158E-01  0.35744000000E-01  0.51099999109E-03 0. -1.
       11   -1    0    0    0    0 -0.00000000000E+00 -0.00000000000E+00 -0.35740347158E-01  0.35744000000E-01  0.51099999109E-03 0.  1.
       22    1    1    2    0    0 -0.76903653672E-02 -0.13094031642E-01  0.32350242669E-01  0.35737005818E-01  0.00000000000E+00 0. -1.
  9000001    1    1    2    0    0  0.76903653672E-02  0.13094031642E-01 -0.32350242669E-01  0.35750994182E-01  0.10000000475E-02 0.  1.
</event>
<event>
 4   0  0.4892667E-02  0.9118800E+02  0.7818609E-02  0.1379984E+01
      -11   -1    0    0    0    0  0.00000000000E+00  0.00000000000E+00  0.35740347158E-01  0.35744000000E-01  0.51099999109E-03 0.  1.
       11   -1    0    0    0    0 -0.00000000000E+00 -0.00000000000E+00 -0.35740347158E-01  0.35744000000E-01  0.51099999109E-03 0. -1.
       22    1    1    2    0    0  0.42944009725E-02  0.16012439464E-01 -0.31659019056E-01  0.35737005818E-01  0.00000000000E+00 0. -1.
  9000001    1    1    2    0    0 -0.42944009725E-02 -0.16012439464E-01  0.31659019056E-01  0.35750994182E-01  0.10000000475E-02 0.  1.
</event>
<event>
 4   0  0.4892667E-02  0.9118800E+02  0.7818609E-02  0.1379984E+01
      -11   -1    0    0    0    0  0.00000000000E+00  0.00000000000E+00  0.35740347158E-01  0.35744000000E-01  0.51099999109E-03 0. -1.
       11   -1    0    0    0    0 -0.00000000000E+00 -0.00000000000E+00 -0.35740347158E-01  0.35744000000E-01  0.51099999109E-03 0.  1.
       22    1    1    2    0    0  0.44766300669E-02  0.39868853057E-02 -0.35230641687E-01  0.35737005818E-01  0.00000000000E+00 0.  1.
  9000001    1    1    2    0    0 -0.44766300669E-02 -0.39868853057E-02  0.35230641687E-01  0.35750994182E-01  0.10000000475E-02 0. -1.
</event>
<event>
 4   0  0.4892667E-02  0.9118800E+02  0.7818609E-02  0.1379984E+01
      -11   -1    0    0    0    0  0.00000000000E+00  0.00000000000E+00  0.35740347158E-01  0.35744000000E-01  0.51099999109E-03 0.  1.
       11   -1    0    0    0    0 -0.00000000000E+00 -0.00000000000E+00 -0.35740347158E-01  0.35744000000E-01  0.51099999109E-03 0. -1.
       22    1    1    2    0    0  0.52950119652E-02 -0.42530229669E-02  0.35085726853E-01  0.35737005818E-01  0.00000000000E+00 0.  1.
  9000001    1    1    2    0    0 -0.52950119652E-02  0.42530229669E-02 -0.35085726853E-01  0.35750994182E-01  0.10000000475E-02 0. -1.
</event>
<event>
 4   0  0.4892667E-02  0.9118800E+02  0.7818609E-02  0.1379984E+01
      -11   -1    0    0    0    0  0.00000000000E+00  0.00000000000E+00  0.35740347158E-01  0.35744000000E-01  0.51099999109E-03 0.  1.
       11   -1    0    0    0    0 -0.00000000000E+00 -0.00000000000E+00 -0.35740347158E-01  0.35744000000E-01  0.51099999109E-03 0. -1.
       22    1    1    2    0    0  0.54982243251E-02  0.16158742824E-02  0.35274524298E-01  0.35737005818E-01  0.00000000000E+00 0.  1.
  9000001    1    1    2    0    0 -0.54982243251E-02 -0.16158742824E-02 -0.35274524298E-01  0.35750994182E-01  0.10000000475E-02 0. -1.
</event>
<event>
 4   0  0.4892667E-02  0.9118800E+02  0.7818609E-02  0.1379984E+01
      -11   -1    0    0    0    0  0.00000000000E+00  0.00000000000E+00  0.35740347158E-01  0.35744000000E-01  0.51099999109E-03 0. -1.
       11   -1    0    0    0    0 -0.00000000000E+00 -0.00000000000E+00 -0.35740347158E-01  0.35744000000E-01  0.51099999109E-03 0.  1.
       22    1    1    2    0    0  0.12308836479E-02  0.48753780280E-02 -0.35381481023E-01  0.35737005818E-01  0.00000000000E+00 0.  1.
  9000001    1    1    2    0    0 -0.12308836479E-02 -0.48753780280E-02  0.35381481023E-01  0.35750994182E-01  0.10000000475E-02 0. -1.
</event>
<event>
 4   0  0.4892667E-02  0.9118800E+02  0.7818609E-02  0.1379984E+01
      -11   -1    0    0    0    0  0.00000000000E+00  0.00000000000E+00  0.35740347158E-01  0.35744000000E-01  0.51099999109E-03 0. -1.
       11   -1    0    0    0    0 -0.00000000000E+00 -0.00000000000E+00 -0.35740347158E-01  0.35744000000E-01  0.51099999109E-03 0.  1.
       22    1    1    2    0    0  0.28215791111E-03 -0.15182412716E-01 -0.32350399007E-01  0.35737005818E-01  0.00000000000E+00 0.  1.
  9000001    1    1    2    0    0 -0.28215791111E-03  0.15182412716E-01  0.32350399007E-01  0.35750994182E-01  0.10000000475E-02 0. -1.
</event>
<event>
 4   0  0.4892667E-02  0.9118800E+02  0.7818609E-02  0.1379984E+01
      -11   -1    0    0    0    0  0.00000000000E+00  0.00000000000E+00  0.35740347158E-01  0.35744000000E-01  0.51099999109E-03 0.  1.
       11   -1    0    0    0    0 -0.00000000000E+00 -0.00000000000E+00 -0.35740347158E-01  0.35744000000E-01  0.51099999109E-03 0. -1.
       22    1    1    2    0    0 -0.15478422617E-02  0.28940001344E-01 -0.20909665024E-01  0.35737005818E-01  0.00000000000E+00 0. -1.
  9000001    1    1    2    0    0  0.15478422617E-02 -0.28940001344E-01  0.20909665024E-01  0.35750994182E-01  0.10000000475E-02 0.  1.
</event>
<event>
 4   0  0.4892667E-02  0.9118800E+02  0.7818609E-02  0.1379984E+01
      -11   -1    0    0    0    0  0.00000000000E+00  0.00000000000E+00  0.35740347158E-01  0.35744000000E-01  0.51099999109E-03 0. -1.
       11   -1    0    0    0    0 -0.00000000000E+00 -0.00000000000E+00 -0.35740347158E-01  0.35744000000E-01  0.51099999109E-03 0.  1.
       22    1    1    2    0    0  0.24063565271E-01 -0.81895637166E-02  0.25119901621E-01  0.35737005818E-01  0.00000000000E+00 0. -1.
  9000001    1    1    2    0    0 -0.24063565271E-01  0.81895637166E-02 -0.25119901621E-01  0.35750994182E-01  0.10000000475E-02 0.  1.
</event>
<event>
 4   0  0.4892667E-02  0.9118800E+02  0.7818609E-02  0.1379984E+01
      -11   -1    0    0    0    0  0.00000000000E+00  0.00000000000E+00  0.35740347158E-01  0.35744000000E-01  0.51099999109E-03 0. -1.
       11   -1    0    0    0    0 -0.00000000000E+00 -0.00000000000E+00 -0.35740347158E-01  0.35744000000E-01  0.51099999109E-03 0.  1.
       22    1    1    2    0    0  0.81706707342E-03 -0.30151878565E-02  0.35600205455E-01  0.35737005818E-01  0.00000000000E+00 0. -1.
  9000001    1    1    2    0    0 -0.81706707342E-03  0.30151878565E-02 -0.35600205455E-01  0.35750994182E-01  0.10000000475E-02 0.  1.
</event>
<event>
 4   0  0.4892667E-02  0.9118800E+02  0.7818609E-02  0.1379984E+01
      -11   -1    0    0    0    0  0.00000000000E+00  0.00000000000E+00  0.35740347158E-01  0.35744000000E-01  0.51099999109E-03 0.  1.
       11   -1    0    0    0    0 -0.00000000000E+00 -0.00000000000E+00 -0.35740347158E-01  0.35744000000E-01  0.51099999109E-03 0. -1.
       22    1    1    2    0    0 -0.26250384916E-02  0.29185833910E-02 -0.35520763347E-01  0.35737005818E-01  0.00000000000E+00 0. -1.
  9000001    1    1    2    0    0  0.26250384916E-02 -0.29185833910E-02  0.35520763347E-01  0.35750994182E-01  0.10000000475E-02 0.  1.
</event>
<event>
 4   0  0.4892667E-02  0.9118800E+02  0.7818609E-02  0.1379984E+01
      -11   -1    0    0    0    0  0.00000000000E+00  0.00000000000E+00  0.35740347158E-01  0.35744000000E-01  0.51099999109E-03 0. -1.
       11   -1    0    0    0    0 -0.00000000000E+00 -0.00000000000E+00 -0.35740347158E-01  0.35744000000E-01  0.51099999109E-03 0.  1.
       22    1    1    2    0    0 -0.22433962106E-02  0.56567170902E-02  0.35215086399E-01  0.35737005818E-01  0.00000000000E+00 0. -1.
  9000001    1    1    2    0    0  0.22433962106E-02 -0.56567170902E-02 -0.35215086399E-01  0.35750994182E-01  0.10000000475E-02 0.  1.
</event>
<event>
 4   0  0.4892667E-02  0.9118800E+02  0.7818609E-02  0.1379984E+01
      -11   -1    0    0    0    0  0.00000000000E+00  0.00000000000E+00  0.35740347158E-01  0.35744000000E-01  0.51099999109E-03 0. -1.
       11   -1    0    0    0    0 -0.00000000000E+00 -0.00000000000E+00 -0.35740347158E-01  0.35744000000E-01  0.51099999109E-03 0.  1.
       22    1    1    2    0    0 -0.17035268861E-02  0.41512487053E-02  0.35454177683E-01  0.35737005818E-01  0.00000000000E+00 0. -1.
  9000001    1    1    2    0    0  0.17035268861E-02 -0.41512487053E-02 -0.35454177683E-01  0.35750994182E-01  0.10000000475E-02 0.  1.
</event>
<event>
 4   0  0.4892667E-02  0.9118800E+02  0.7818609E-02  0.1379984E+01
      -11   -1    0    0    0    0  0.00000000000E+00  0.00000000000E+00  0.35740347158E-01  0.35744000000E-01  0.51099999109E-03 0. -1.
       11   -1    0    0    0    0 -0.00000000000E+00 -0.00000000000E+00 -0.35740347158E-01  0.35744000000E-01  0.51099999109E-03 0.  1.
       22    1    1    2    0    0 -0.30273109935E-01 -0.16581954882E-01  0.92580328380E-02  0.35737005818E-01  0.00000000000E+00 0. -1.
  9000001    1    1    2    0    0  0.30273109935E-01  0.16581954882E-01 -0.92580328380E-02  0.35750994182E-01  0.10000000475E-02 0.  1.
</event>
<event>
 4   0  0.4892667E-02  0.9118800E+02  0.7818609E-02  0.1379984E+01
      -11   -1    0    0    0    0  0.00000000000E+00  0.00000000000E+00  0.35740347158E-01  0.35744000000E-01  0.51099999109E-03 0.  1.
       11   -1    0    0    0    0 -0.00000000000E+00 -0.00000000000E+00 -0.35740347158E-01  0.35744000000E-01  0.51099999109E-03 0. -1.
       22    1    1    2    0    0 -0.73438045858E-02  0.30096350502E-01 -0.17816054714E-01  0.35737005818E-01  0.00000000000E+00 0.  1.
  9000001    1    1    2    0    0  0.73438045858E-02 -0.30096350502E-01  0.17816054714E-01  0.35750994182E-01  0.10000000475E-02 0. -1.
</event>
<event>
 4   0  0.4892667E-02  0.9118800E+02  0.7818609E-02  0.1379984E+01
      -11   -1    0    0    0    0  0.00000000000E+00  0.00000000000E+00  0.35740347158E-01  0.35744000000E-01  0.51099999109E-03 0.  1.
       11   -1    0    0    0    0 -0.00000000000E+00 -0.00000000000E+00 -0.35740347158E-01  0.35744000000E-01  0.51099999109E-03 0. -1.
       22    1    1    2    0    0  0.60704748878E-02 -0.42605399468E-03 -0.35215073442E-01  0.35737005818E-01  0.00000000000E+00 0. -1.
  9000001    1    1    2    0    0 -0.60704748878E-02  0.42605399468E-03  0.35215073442E-01  0.35750994182E-01  0.10000000475E-02 0.  1.
</event>
<event>
 4   0  0.4892667E-02  0.9118800E+02  0.7818609E-02  0.1379984E+01
      -11   -1    0    0    0    0  0.00000000000E+00  0.00000000000E+00  0.35740347158E-01  0.35744000000E-01  0.51099999109E-03 0. -1.
       11   -1    0    0    0    0 -0.00000000000E+00 -0.00000000000E+00 -0.35740347158E-01  0.35744000000E-01  0.51099999109E-03 0.  1.
       22    1    1    2    0    0  0.20855828456E-01  0.11267307532E-01 -0.26743518566E-01  0.35737005818E-01  0.00000000000E+00 0.  1.
  9000001    1    1    2    0    0 -0.20855828456E-01 -0.11267307532E-01  0.26743518566E-01  0.35750994182E-01  0.10000000475E-02 0. -1.
</event>
<event>
 4   0  0.4892667E-02  0.9118800E+02  0.7818609E-02  0.1379984E+01
      -11   -1    0    0    0    0  0.00000000000E+00  0.00000000000E+00  0.35740347158E-01  0.35744000000E-01  0.51099999109E-03 0. -1.
       11   -1    0    0    0    0 -0.00000000000E+00 -0.00000000000E+00 -0.35740347158E-01  0.35744000000E-01  0.51099999109E-03 0.  1.
       22    1    1    2    0    0 -0.94541698630E-02 -0.14698531420E-01 -0.31172190028E-01  0.35737005818E-01  0.00000000000E+00 0.  1.
  9000001    1    1    2    0    0  0.94541698630E-02  0.14698531420E-01  0.31172190028E-01  0.35750994182E-01  0.10000000475E-02 0. -1.
</event>
<event>
 4   0  0.4892667E-02  0.9118800E+02  0.7818609E-02  0.1379984E+01
      -11   -1    0    0    0    0  0.00000000000E+00  0.00000000000E+00  0.35740347158E-01  0.35744000000E-01  0.51099999109E-03 0. -1.
       11   -1    0    0    0    0 -0.00000000000E+00 -0.00000000000E+00 -0.35740347158E-01  0.35744000000E-01  0.51099999109E-03 0.  1.
       22    1    1    2    0    0 -0.49284634102E-02  0.80643131962E-02 -0.34464629491E-01  0.35737005818E-01  0.00000000000E+00 0.  1.
  9000001    1    1    2    0    0  0.49284634102E-02 -0.80643131962E-02  0.34464629491E-01  0.35750994182E-01  0.10000000475E-02 0. -1.
</event>
<event>
 4   0  0.4892667E-02  0.9118800E+02  0.7818609E-02  0.1379984E+01
      -11   -1    0    0    0    0  0.00000000000E+00  0.00000000000E+00  0.35740347158E-01  0.35744000000E-01  0.51099999109E-03 0.  1.
       11   -1    0    0    0    0 -0.00000000000E+00 -0.00000000000E+00 -0.35740347158E-01  0.35744000000E-01  0.51099999109E-03 0. -1.
       22    1    1    2    0    0  0.11875406604E-01 -0.86293166732E-03  0.33695157691E-01  0.35737005818E-01  0.00000000000E+00 0.  1.
  9000001    1    1    2    0    0 -0.11875406604E-01  0.86293166732E-03 -0.33695157691E-01  0.35750994182E-01  0.10000000475E-02 0. -1.
</event>
<event>
 4   0  0.4892667E-02  0.9118800E+02  0.7818609E-02  0.1379984E+01
      -11   -1    0    0    0    0  0.00000000000E+00  0.00000000000E+00  0.35740347158E-01  0.35744000000E-01  0.51099999109E-03 0. -1.
       11   -1    0    0    0    0 -0.00000000000E+00 -0.00000000000E+00 -0.35740347158E-01  0.35744000000E-01  0.51099999109E-03 0.  1.
       22    1    1    2    0    0  0.10148564686E-01  0.33017445237E-01  0.91645256146E-02  0.35737005818E-01  0.00000000000E+00 0. -1.
  9000001    1    1    2    0    0 -0.10148564686E-01 -0.33017445237E-01 -0.91645256146E-02  0.35750994182E-01  0.10000000475E-02 0.  1.
</event>
<event>
 4   0  0.4892667E-02  0.9118800E+02  0.7818609E-02  0.1379984E+01
      -11   -1    0    0    0    0  0.00000000000E+00  0.00000000000E+00  0.35740347158E-01  0.35744000000E-01  0.51099999109E-03 0.  1.
       11   -1    0    0    0    0 -0.00000000000E+00 -0.00000000000E+00 -0.35740347158E-01  0.35744000000E-01  0.51099999109E-03 0. -1.
       22    1    1    2    0    0  0.21256330271E-01  0.11926558170E-01 -0.26135401633E-01  0.35737005818E-01  0.00000000000E+00 0. -1.
  9000001    1    1    2    0    0 -0.21256330271E-01 -0.11926558170E-01  0.26135401633E-01  0.35750994182E-01  0.10000000475E-02 0.  1.
</event>
<event>
 4   0  0.4892667E-02  0.9118800E+02  0.7818609E-02  0.1379984E+01
      -11   -1    0    0    0    0  0.00000000000E+00  0.00000000000E+00  0.35740347158E-01  0.35744000000E-01  0.51099999109E-03 0.  1.
       11   -1    0    0    0    0 -0.00000000000E+00 -0.00000000000E+00 -0.35740347158E-01  0.35744000000E-01  0.51099999109E-03 0. -1.
       22    1    1    2    0    0 -0.30177955184E-02 -0.13204990708E-01  0.33070450790E-01  0.35737005818E-01  0.00000000000E+00 0.  1.
  9000001    1    1    2    0    0  0.30177955184E-02  0.13204990708E-01 -0.33070450790E-01  0.35750994182E-01  0.10000000475E-02 0. -1.
</event>
<event>
 4   0  0.4892667E-02  0.9118800E+02  0.7818609E-02  0.1379984E+01
      -11   -1    0    0    0    0  0.00000000000E+00  0.00000000000E+00  0.35740347158E-01  0.35744000000E-01  0.51099999109E-03 0. -1.
       11   -1    0    0    0    0 -0.00000000000E+00 -0.00000000000E+00 -0.35740347158E-01  0.35744000000E-01  0.51099999109E-03 0.  1.
       22    1    1    2    0    0 -0.24472356452E-01  0.11606079782E-01  0.23313864258E-01  0.35737005818E-01  0.00000000000E+00 0. -1.
  9000001    1    1    2    0    0  0.24472356452E-01 -0.11606079782E-01 -0.23313864258E-01  0.35750994182E-01  0.10000000475E-02 0.  1.
</event>
<event>
 4   0  0.4892667E-02  0.9118800E+02  0.7818609E-02  0.1379984E+01
      -11   -1    0    0    0    0  0.00000000000E+00  0.00000000000E+00  0.35740347158E-01  0.35744000000E-01  0.51099999109E-03 0.  1.
       11   -1    0    0    0    0 -0.00000000000E+00 -0.00000000000E+00 -0.35740347158E-01  0.35744000000E-01  0.51099999109E-03 0. -1.
       22    1    1    2    0    0  0.74855645576E-02 -0.91634276592E-02 -0.33721380483E-01  0.35737005818E-01  0.00000000000E+00 0. -1.
  9000001    1    1    2    0    0 -0.74855645576E-02  0.91634276592E-02  0.33721380483E-01  0.35750994182E-01  0.10000000475E-02 0.  1.
</event>
<event>
 4   0  0.4892667E-02  0.9118800E+02  0.7818609E-02  0.1379984E+01
      -11   -1    0    0    0    0  0.00000000000E+00  0.00000000000E+00  0.35740347158E-01  0.35744000000E-01  0.51099999109E-03 0. -1.
       11   -1    0    0    0    0 -0.00000000000E+00 -0.00000000000E+00 -0.35740347158E-01  0.35744000000E-01  0.51099999109E-03 0.  1.
       22    1    1    2    0    0 -0.28262794365E-01  0.18853578176E-01 -0.11085604607E-01  0.35737005818E-01  0.00000000000E+00 0. -1.
  9000001    1    1    2    0    0  0.28262794365E-01 -0.18853578176E-01  0.11085604607E-01  0.35750994182E-01  0.10000000475E-02 0.  1.
</event>
<event>
 4   0  0.4892667E-02  0.9118800E+02  0.7818609E-02  0.1379984E+01
      -11   -1    0    0    0    0  0.00000000000E+00  0.00000000000E+00  0.35740347158E-01  0.35744000000E-01  0.51099999109E-03 0.  1.
       11   -1    0    0    0    0 -0.00000000000E+00 -0.00000000000E+00 -0.35740347158E-01  0.35744000000E-01  0.51099999109E-03 0. -1.
       22    1    1    2    0    0 -0.26598309595E-02 -0.64420955482E-02 -0.35050795841E-01  0.35737005818E-01  0.00000000000E+00 0. -1.
  9000001    1    1    2    0    0  0.26598309595E-02  0.64420955482E-02  0.35050795841E-01  0.35750994182E-01  0.10000000475E-02 0.  1.
</event>
<event>
 4   0  0.4892667E-02  0.9118800E+02  0.7818609E-02  0.1379984E+01
      -11   -1    0    0    0    0  0.00000000000E+00  0.00000000000E+00  0.35740347158E-01  0.35744000000E-01  0.51099999109E-03 0. -1.
       11   -1    0    0    0    0 -0.00000000000E+00 -0.00000000000E+00 -0.35740347158E-01  0.35744000000E-01  0.51099999109E-03 0.  1.
       22    1    1    2    0    0 -0.42109645562E-02 -0.73797978335E-02 -0.34712244905E-01  0.35737005818E-01  0.00000000000E+00 0.  1.
  9000001    1    1    2    0    0  0.42109645562E-02  0.73797978335E-02  0.34712244905E-01  0.35750994182E-01  0.10000000475E-02 0. -1.
</event>
<event>
 4   0  0.4892667E-02  0.9118800E+02  0.7818609E-02  0.1379984E+01
      -11   -1    0    0    0    0  0.00000000000E+00  0.00000000000E+00  0.35740347158E-01  0.35744000000E-01  0.51099999109E-03 0.  1.
       11   -1    0    0    0    0 -0.00000000000E+00 -0.00000000000E+00 -0.35740347158E-01  0.35744000000E-01  0.51099999109E-03 0. -1.
       22    1    1    2    0    0  0.34372540702E-02 -0.31173573409E-02 -0.35434459958E-01  0.35737005818E-01  0.00000000000E+00 0. -1.
  9000001    1    1    2    0    0 -0.34372540702E-02  0.31173573409E-02  0.35434459958E-01  0.35750994182E-01  0.10000000475E-02 0.  1.
</event>
<event>
 4   0  0.4892667E-02  0.9118800E+02  0.7818609E-02  0.1379984E+01
      -11   -1    0    0    0    0  0.00000000000E+00  0.00000000000E+00  0.35740347158E-01  0.35744000000E-01  0.51099999109E-03 0.  1.
       11   -1    0    0    0    0 -0.00000000000E+00 -0.00000000000E+00 -0.35740347158E-01  0.35744000000E-01  0.51099999109E-03 0. -1.
       22    1    1    2    0    0  0.71726173664E-02  0.27500170558E-02  0.34901641096E-01  0.35737005818E-01  0.00000000000E+00 0.  1.
  9000001    1    1    2    0    0 -0.71726173664E-02 -0.27500170558E-02 -0.34901641096E-01  0.35750994182E-01  0.10000000475E-02 0. -1.
</event>
<event>
 4   0  0.4892667E-02  0.9118800E+02  0.7818609E-02  0.1379984E+01
      -11   -1    0    0    0    0  0.00000000000E+00  0.00000000000E+00  0.35740347158E-01  0.35744000000E-01  0.51099999109E-03 0.  1.
       11   -1    0    0    0    0 -0.00000000000E+00 -0.00000000000E+00 -0.35740347158E-01  0.35744000000E-01  0.51099999109E-03 0. -1.
       22    1    1    2    0    0 -0.30866853526E-02  0.68411063315E-03 -0.35596881198E-01  0.35737005818E-01  0.00000000000E+00 0. -1.
  9000001    1    1    2    0    0  0.30866853526E-02 -0.68411063315E-03  0.35596881198E-01  0.35750994182E-01  0.10000000475E-02 0.  1.
</event>
<event>
 4   0  0.4892667E-02  0.9118800E+02  0.7818609E-02  0.1379984E+01
      -11   -1    0    0    0    0  0.00000000000E+00  0.00000000000E+00  0.35740347158E-01  0.35744000000E-01  0.51099999109E-03 0.  1.
       11   -1    0    0    0    0 -0.00000000000E+00 -0.00000000000E+00 -0.35740347158E-01  0.35744000000E-01  0.51099999109E-03 0. -1.
       22    1    1    2    0    0 -0.46108305717E-02  0.94070559055E-02  0.34166959559E-01  0.35737005818E-01  0.00000000000E+00 0.  1.
  9000001    1    1    2    0    0  0.46108305717E-02 -0.94070559055E-02 -0.34166959559E-01  0.35750994182E-01  0.10000000475E-02 0. -1.
</event>
<event>
 4   0  0.4892667E-02  0.9118800E+02  0.7818609E-02  0.1379984E+01
      -11   -1    0    0    0    0  0.00000000000E+00  0.00000000000E+00  0.35740347158E-01  0.35744000000E-01  0.51099999109E-03 0. -1.
       11   -1    0    0    0    0 -0.00000000000E+00 -0.00000000000E+00 -0.35740347158E-01  0.35744000000E-01  0.51099999109E-03 0.  1.
       22    1    1    2    0    0  0.31378622079E-02  0.24226565304E-02 -0.35516448879E-01  0.35737005818E-01  0.00000000000E+00 0.  1.
  9000001    1    1    2    0    0 -0.31378622079E-02 -0.24226565304E-02  0.35516448879E-01  0.35750994182E-01  0.10000000475E-02 0. -1.
</event>
<event>
 4   0  0.4892667E-02  0.9118800E+02  0.7818609E-02  0.1379984E+01
      -11   -1    0    0    0    0  0.00000000000E+00  0.00000000000E+00  0.35740347158E-01  0.35744000000E-01  0.51099999109E-03 0. -1.
       11   -1    0    0    0    0 -0.00000000000E+00 -0.00000000000E+00 -0.35740347158E-01  0.35744000000E-01  0.51099999109E-03 0.  1.
       22    1    1    2    0    0 -0.13477724621E-02 -0.57554673899E-02 -0.35244739882E-01  0.35737005818E-01  0.00000000000E+00 0.  1.
  9000001    1    1    2    0    0  0.13477724621E-02  0.57554673899E-02  0.35244739882E-01  0.35750994182E-01  0.10000000475E-02 0. -1.
</event>
<event>
 4   0  0.4892667E-02  0.9118800E+02  0.7818609E-02  0.1379984E+01
      -11   -1    0    0    0    0  0.00000000000E+00  0.00000000000E+00  0.35740347158E-01  0.35744000000E-01  0.51099999109E-03 0.  1.
       11   -1    0    0    0    0 -0.00000000000E+00 -0.00000000000E+00 -0.35740347158E-01  0.35744000000E-01  0.51099999109E-03 0. -1.
       22    1    1    2    0    0  0.40349211038E-02  0.26434056920E-01  0.23708513900E-01  0.35737005818E-01  0.00000000000E+00 0.  1.
  9000001    1    1    2    0    0 -0.40349211038E-02 -0.26434056920E-01 -0.23708513900E-01  0.35750994182E-01  0.10000000475E-02 0. -1.
</event>
<event>
 4   0  0.4892667E-02  0.9118800E+02  0.7818609E-02  0.1379984E+01
      -11   -1    0    0    0    0  0.00000000000E+00  0.00000000000E+00  0.35740347158E-01  0.35744000000E-01  0.51099999109E-03 0.  1.
       11   -1    0    0    0    0 -0.00000000000E+00 -0.00000000000E+00 -0.35740347158E-01  0.35744000000E-01  0.51099999109E-03 0. -1.
       22    1    1    2    0    0 -0.14476855991E-01 -0.22813307664E-01 -0.23390323190E-01  0.35737005818E-01  0.00000000000E+00 0. -1.
  9000001    1    1    2    0    0  0.14476855991E-01  0.22813307664E-01  0.23390323190E-01  0.35750994182E-01  0.10000000475E-02 0.  1.
</event>
<event>
 4   0  0.4892667E-02  0.9118800E+02  0.7818609E-02  0.1379984E+01
      -11   -1    0    0    0    0  0.00000000000E+00  0.00000000000E+00  0.35740347158E-01  0.35744000000E-01  0.51099999109E-03 0.  1.
       11   -1    0    0    0    0 -0.00000000000E+00 -0.00000000000E+00 -0.35740347158E-01  0.35744000000E-01  0.51099999109E-03 0. -1.
       22    1    1    2    0    0  0.19559337082E-01 -0.14091813721E-01 -0.26381559920E-01  0.35737005818E-01  0.00000000000E+00 0. -1.
  9000001    1    1    2    0    0 -0.19559337082E-01  0.14091813721E-01  0.26381559920E-01  0.35750994182E-01  0.10000000475E-02 0.  1.
</event>
<event>
 4   0  0.4892667E-02  0.9118800E+02  0.7818609E-02  0.1379984E+01
      -11   -1    0    0    0    0  0.00000000000E+00  0.00000000000E+00  0.35740347158E-01  0.35744000000E-01  0.51099999109E-03 0.  1.
       11   -1    0    0    0    0 -0.00000000000E+00 -0.00000000000E+00 -0.35740347158E-01  0.35744000000E-01  0.51099999109E-03 0. -1.
       22    1    1    2    0    0  0.24047351393E-01  0.10964474945E-01 -0.24054911454E-01  0.35737005818E-01  0.00000000000E+00 0. -1.
  9000001    1    1    2    0    0 -0.24047351393E-01 -0.10964474945E-01  0.24054911454E-01  0.35750994182E-01  0.10000000475E-02 0.  1.
</event>
<event>
 4   0  0.4892667E-02  0.9118800E+02  0.7818609E-02  0.1379984E+01
      -11   -1    0    0    0    0  0.00000000000E+00  0.00000000000E+00  0.35740347158E-01  0.35744000000E-01  0.51099999109E-03 0. -1.
       11   -1    0    0    0    0 -0.00000000000E+00 -0.00000000000E+00 -0.35740347158E-01  0.35744000000E-01  0.51099999109E-03 0.  1.
       22    1    1    2    0    0 -0.21308918322E-02 -0.29464217957E-02  0.35551532787E-01  0.35737005818E-01  0.00000000000E+00 0. -1.
  9000001    1    1    2    0    0  0.21308918322E-02  0.29464217957E-02 -0.35551532787E-01  0.35750994182E-01  0.10000000475E-02 0.  1.
</event>
<event>
 4   0  0.4892667E-02  0.9118800E+02  0.7818609E-02  0.1379984E+01
      -11   -1    0    0    0    0  0.00000000000E+00  0.00000000000E+00  0.35740347158E-01  0.35744000000E-01  0.51099999109E-03 0.  1.
       11   -1    0    0    0    0 -0.00000000000E+00 -0.00000000000E+00 -0.35740347158E-01  0.35744000000E-01  0.51099999109E-03 0. -1.
       22    1    1    2    0    0  0.56026201159E-03  0.26062130244E-01 -0.24445552939E-01  0.35737005818E-01  0.00000000000E+00 0. -1.
  9000001    1    1    2    0    0 -0.56026201159E-03 -0.26062130244E-01  0.24445552939E-01  0.35750994182E-01  0.10000000475E-02 0.  1.
</event>
<event>
 4   0  0.4892667E-02  0.9118800E+02  0.7818609E-02  0.1379984E+01
      -11   -1    0    0    0    0  0.00000000000E+00  0.00000000000E+00  0.35740347158E-01  0.35744000000E-01  0.51099999109E-03 0.  1.
       11   -1    0    0    0    0 -0.00000000000E+00 -0.00000000000E+00 -0.35740347158E-01  0.35744000000E-01  0.51099999109E-03 0. -1.
       22    1    1    2    0    0 -0.50745492422E-03  0.90545187391E-02 -0.34567206494E-01  0.35737005818E-01  0.00000000000E+00 0. -1.
  9000001    1    1    2    0    0  0.50745492422E-03 -0.90545187391E-02  0.34567206494E-01  0.35750994182E-01  0.10000000475E-02 0.  1.
</event>
<event>
 4   0  0.4892667E-02  0.9118800E+02  0.7818609E-02  0.1379984E+01
      -11   -1    0    0    0    0  0.00000000000E+00  0.00000000000E+00  0.35740347158E-01  0.35744000000E-01  0.51099999109E-03 0.  1.
       11   -1    0    0    0    0 -0.00000000000E+00 -0.00000000000E+00 -0.35740347158E-01  0.35744000000E-01  0.51099999109E-03 0. -1.
       22    1    1    2    0    0 -0.96447769217E-02  0.57810904677E-02  0.33921834502E-01  0.35737005818E-01  0.00000000000E+00 0.  1.
  9000001    1    1    2    0    0  0.96447769217E-02 -0.57810904677E-02 -0.33921834502E-01  0.35750994182E-01  0.10000000475E-02 0. -1.
</event>
<event>
 4   0  0.4892667E-02  0.9118800E+02  0.7818609E-02  0.1379984E+01
      -11   -1    0    0    0    0  0.00000000000E+00  0.00000000000E+00  0.35740347158E-01  0.35744000000E-01  0.51099999109E-03 0. -1.
       11   -1    0    0    0    0 -0.00000000000E+00 -0.00000000000E+00 -0.35740347158E-01  0.35744000000E-01  0.51099999109E-03 0.  1.
       22    1    1    2    0    0  0.86894247645E-02  0.16597187403E-01 -0.30432890964E-01  0.35737005818E-01  0.00000000000E+00 0.  1.
  9000001    1    1    2    0    0 -0.86894247645E-02 -0.16597187403E-01  0.30432890964E-01  0.35750994182E-01  0.10000000475E-02 0. -1.
</event>
<event>
 4   0  0.4892667E-02  0.9118800E+02  0.7818609E-02  0.1379984E+01
      -11   -1    0    0    0    0  0.00000000000E+00  0.00000000000E+00  0.35740347158E-01  0.35744000000E-01  0.51099999109E-03 0.  1.
       11   -1    0    0    0    0 -0.00000000000E+00 -0.00000000000E+00 -0.35740347158E-01  0.35744000000E-01  0.51099999109E-03 0. -1.
       22    1    1    2    0    0 -0.27560884655E-01  0.16878538403E-01 -0.15252742812E-01  0.35737005818E-01  0.00000000000E+00 0. -1.
  9000001    1    1    2    0    0  0.27560884655E-01 -0.16878538403E-01  0.15252742812E-01  0.35750994182E-01  0.10000000475E-02 0.  1.
</event>
<event>
 4   0  0.4892667E-02  0.9118800E+02  0.7818609E-02  0.1379984E+01
      -11   -1    0    0    0    0  0.00000000000E+00  0.00000000000E+00  0.35740347158E-01  0.35744000000E-01  0.51099999109E-03 0. -1.
       11   -1    0    0    0    0 -0.00000000000E+00 -0.00000000000E+00 -0.35740347158E-01  0.35744000000E-01  0.51099999109E-03 0.  1.
       22    1    1    2    0    0 -0.30282060918E-01  0.18420030510E-01  0.45643014153E-02  0.35737005818E-01  0.00000000000E+00 0. -1.
  9000001    1    1    2    0    0  0.30282060918E-01 -0.18420030510E-01 -0.45643014153E-02  0.35750994182E-01  0.10000000475E-02 0.  1.
</event>
<event>
 4   0  0.4892667E-02  0.9118800E+02  0.7818609E-02  0.1379984E+01
      -11   -1    0    0    0    0  0.00000000000E+00  0.00000000000E+00  0.35740347158E-01  0.35744000000E-01  0.51099999109E-03 0.  1.
       11   -1    0    0    0    0 -0.00000000000E+00 -0.00000000000E+00 -0.35740347158E-01  0.35744000000E-01  0.51099999109E-03 0. -1.
       22    1    1    2    0    0 -0.12443251618E-01  0.44378394168E-02 -0.33205491343E-01  0.35737005818E-01  0.00000000000E+00 0. -1.
  9000001    1    1    2    0    0  0.12443251618E-01 -0.44378394168E-02  0.33205491343E-01  0.35750994182E-01  0.10000000475E-02 0.  1.
</event>
<event>
 4   0  0.4892667E-02  0.9118800E+02  0.7818609E-02  0.1379984E+01
      -11   -1    0    0    0    0  0.00000000000E+00  0.00000000000E+00  0.35740347158E-01  0.35744000000E-01  0.51099999109E-03 0.  1.
       11   -1    0    0    0    0 -0.00000000000E+00 -0.00000000000E+00 -0.35740347158E-01  0.35744000000E-01  0.51099999109E-03 0. -1.
       22    1    1    2    0    0 -0.75303510272E-02  0.21636101650E-01  0.27428206352E-01  0.35737005818E-01  0.00000000000E+00 0.  1.
  9000001    1    1    2    0    0  0.75303510272E-02 -0.21636101650E-01 -0.27428206352E-01  0.35750994182E-01  0.10000000475E-02 0. -1.
</event>
<event>
 4   0  0.4892667E-02  0.9118800E+02  0.7818609E-02  0.1379984E+01
      -11   -1    0    0    0    0  0.00000000000E+00  0.00000000000E+00  0.35740347158E-01  0.35744000000E-01  0.51099999109E-03 0. -1.
       11   -1    0    0    0    0 -0.00000000000E+00 -0.00000000000E+00 -0.35740347158E-01  0.35744000000E-01  0.51099999109E-03 0.  1.
       22    1    1    2    0    0 -0.35101743421E-03 -0.82024501920E-02  0.34781175691E-01  0.35737005818E-01  0.00000000000E+00 0. -1.
  9000001    1    1    2    0    0  0.35101743421E-03  0.82024501920E-02 -0.34781175691E-01  0.35750994182E-01  0.10000000475E-02 0.  1.
</event>
<event>
 4   0  0.4892667E-02  0.9118800E+02  0.7818609E-02  0.1379984E+01
      -11   -1    0    0    0    0  0.00000000000E+00  0.00000000000E+00  0.35740347158E-01  0.35744000000E-01  0.51099999109E-03 0.  1.
       11   -1    0    0    0    0 -0.00000000000E+00 -0.00000000000E+00 -0.35740347158E-01  0.35744000000E-01  0.51099999109E-03 0. -1.
       22    1    1    2    0    0  0.19268893527E-02  0.68701485296E-02 -0.35017449100E-01  0.35737005818E-01  0.00000000000E+00 0. -1.
  9000001    1    1    2    0    0 -0.19268893527E-02 -0.68701485296E-02  0.35017449100E-01  0.35750994182E-01  0.10000000475E-02 0.  1.
</event>
<event>
 4   0  0.4892667E-02  0.9118800E+02  0.7818609E-02  0.1379984E+01
      -11   -1    0    0    0    0  0.00000000000E+00  0.00000000000E+00  0.35740347158E-01  0.35744000000E-01  0.51099999109E-03 0.  1.
       11   -1    0    0    0    0 -0.00000000000E+00 -0.00000000000E+00 -0.35740347158E-01  0.35744000000E-01  0.51099999109E-03 0. -1.
       22    1    1    2    0    0  0.65642000472E-02  0.18540111952E-02 -0.35080015751E-01  0.35737005818E-01  0.00000000000E+00 0. -1.
  9000001    1    1    2    0    0 -0.65642000472E-02 -0.18540111952E-02  0.35080015751E-01  0.35750994182E-01  0.10000000475E-02 0.  1.
</event>
<event>
 4   0  0.4892667E-02  0.9118800E+02  0.7818609E-02  0.1379984E+01
      -11   -1    0    0    0    0  0.00000000000E+00  0.00000000000E+00  0.35740347158E-01  0.35744000000E-01  0.51099999109E-03 0.  1.
       11   -1    0    0    0    0 -0.00000000000E+00 -0.00000000000E+00 -0.35740347158E-01  0.35744000000E-01  0.51099999109E-03 0. -1.
       22    1    1    2    0    0 -0.30920402682E-02 -0.28555746021E-02 -0.35488287723E-01  0.35737005818E-01  0.00000000000E+00 0. -1.
  9000001    1    1    2    0    0  0.30920402682E-02  0.28555746021E-02  0.35488287723E-01  0.35750994182E-01  0.10000000475E-02 0.  1.
</event>
<event>
 4   0  0.4892667E-02  0.9118800E+02  0.7818609E-02  0.1379984E+01
      -11   -1    0    0    0    0  0.00000000000E+00  0.00000000000E+00  0.35740347158E-01  0.35744000000E-01  0.51099999109E-03 0. -1.
       11   -1    0    0    0    0 -0.00000000000E+00 -0.00000000000E+00 -0.35740347158E-01  0.35744000000E-01  0.51099999109E-03 0.  1.
       22    1    1    2    0    0  0.75751114482E-02 -0.13287784139E-02 -0.34899650705E-01  0.35737005818E-01  0.00000000000E+00 0.  1.
  9000001    1    1    2    0    0 -0.75751114482E-02  0.13287784139E-02  0.34899650705E-01  0.35750994182E-01  0.10000000475E-02 0. -1.
</event>
<event>
 4   0  0.4892667E-02  0.9118800E+02  0.7818609E-02  0.1379984E+01
      -11   -1    0    0    0    0  0.00000000000E+00  0.00000000000E+00  0.35740347158E-01  0.35744000000E-01  0.51099999109E-03 0. -1.
       11   -1    0    0    0    0 -0.00000000000E+00 -0.00000000000E+00 -0.35740347158E-01  0.35744000000E-01  0.51099999109E-03 0.  1.
       22    1    1    2    0    0  0.10728289025E-01 -0.14520256132E-01  0.30841523330E-01  0.35737005818E-01  0.00000000000E+00 0. -1.
  9000001    1    1    2    0    0 -0.10728289025E-01  0.14520256132E-01 -0.30841523330E-01  0.35750994182E-01  0.10000000475E-02 0.  1.
</event>
<event>
 4   0  0.4892667E-02  0.9118800E+02  0.7818609E-02  0.1379984E+01
      -11   -1    0    0    0    0  0.00000000000E+00  0.00000000000E+00  0.35740347158E-01  0.35744000000E-01  0.51099999109E-03 0. -1.
       11   -1    0    0    0    0 -0.00000000000E+00 -0.00000000000E+00 -0.35740347158E-01  0.35744000000E-01  0.51099999109E-03 0.  1.
       22    1    1    2    0    0  0.80499481936E-02  0.12233497709E-01  0.32598672561E-01  0.35737005818E-01  0.00000000000E+00 0. -1.
  9000001    1    1    2    0    0 -0.80499481936E-02 -0.12233497709E-01 -0.32598672561E-01  0.35750994182E-01  0.10000000475E-02 0.  1.
</event>
<event>
 4   0  0.4892667E-02  0.9118800E+02  0.7818609E-02  0.1379984E+01
      -11   -1    0    0    0    0  0.00000000000E+00  0.00000000000E+00  0.35740347158E-01  0.35744000000E-01  0.51099999109E-03 0.  1.
       11   -1    0    0    0    0 -0.00000000000E+00 -0.00000000000E+00 -0.35740347158E-01  0.35744000000E-01  0.51099999109E-03 0. -1.
       22    1    1    2    0    0  0.10327458407E-01  0.22480642077E-01 -0.25789492425E-01  0.35737005818E-01  0.00000000000E+00 0. -1.
  9000001    1    1    2    0    0 -0.10327458407E-01 -0.22480642077E-01  0.25789492425E-01  0.35750994182E-01  0.10000000475E-02 0.  1.
</event>
<event>
 4   0  0.4892667E-02  0.9118800E+02  0.7818609E-02  0.1379984E+01
      -11   -1    0    0    0    0  0.00000000000E+00  0.00000000000E+00  0.35740347158E-01  0.35744000000E-01  0.51099999109E-03 0. -1.
       11   -1    0    0    0    0 -0.00000000000E+00 -0.00000000000E+00 -0.35740347158E-01  0.35744000000E-01  0.51099999109E-03 0.  1.
       22    1    1    2    0    0 -0.50888317685E-03  0.49206383754E-02 -0.35392964566E-01  0.35737005818E-01  0.00000000000E+00 0.  1.
  9000001    1    1    2    0    0  0.50888317685E-03 -0.49206383754E-02  0.35392964566E-01  0.35750994182E-01  0.10000000475E-02 0. -1.
</event>
<event>
 4   0  0.4892667E-02  0.9118800E+02  0.7818609E-02  0.1379984E+01
      -11   -1    0    0    0    0  0.00000000000E+00  0.00000000000E+00  0.35740347158E-01  0.35744000000E-01  0.51099999109E-03 0.  1.
       11   -1    0    0    0    0 -0.00000000000E+00 -0.00000000000E+00 -0.35740347158E-01  0.35744000000E-01  0.51099999109E-03 0. -1.
       22    1    1    2    0    0  0.44607563714E-03  0.12123831248E-01 -0.33614689010E-01  0.35737005818E-01  0.00000000000E+00 0. -1.
  9000001    1    1    2    0    0 -0.44607563714E-03 -0.12123831248E-01  0.33614689010E-01  0.35750994182E-01  0.10000000475E-02 0.  1.
</event>
<event>
 4   0  0.4892667E-02  0.9118800E+02  0.7818609E-02  0.1379984E+01
      -11   -1    0    0    0    0  0.00000000000E+00  0.00000000000E+00  0.35740347158E-01  0.35744000000E-01  0.51099999109E-03 0. -1.
       11   -1    0    0    0    0 -0.00000000000E+00 -0.00000000000E+00 -0.35740347158E-01  0.35744000000E-01  0.51099999109E-03 0.  1.
       22    1    1    2    0    0 -0.11712067430E-01 -0.98369451283E-02 -0.32298538232E-01  0.35737005818E-01  0.00000000000E+00 0.  1.
  9000001    1    1    2    0    0  0.11712067430E-01  0.98369451283E-02  0.32298538232E-01  0.35750994182E-01  0.10000000475E-02 0. -1.
</event>
<event>
 4   0  0.4892667E-02  0.9118800E+02  0.7818609E-02  0.1379984E+01
      -11   -1    0    0    0    0  0.00000000000E+00  0.00000000000E+00  0.35740347158E-01  0.35744000000E-01  0.51099999109E-03 0.  1.
       11   -1    0    0    0    0 -0.00000000000E+00 -0.00000000000E+00 -0.35740347158E-01  0.35744000000E-01  0.51099999109E-03 0. -1.
       22    1    1    2    0    0  0.81356727078E-02  0.53662187510E-02  0.34382380819E-01  0.35737005818E-01  0.00000000000E+00 0.  1.
  9000001    1    1    2    0    0 -0.81356727078E-02 -0.53662187510E-02 -0.34382380819E-01  0.35750994182E-01  0.10000000475E-02 0. -1.
</event>
<event>
 4   0  0.4892667E-02  0.9118800E+02  0.7818609E-02  0.1379984E+01
      -11   -1    0    0    0    0  0.00000000000E+00  0.00000000000E+00  0.35740347158E-01  0.35744000000E-01  0.51099999109E-03 0. -1.
       11   -1    0    0    0    0 -0.00000000000E+00 -0.00000000000E+00 -0.35740347158E-01  0.35744000000E-01  0.51099999109E-03 0.  1.
       22    1    1    2    0    0  0.14007141402E-01 -0.25760346227E-01 -0.20428855496E-01  0.35737005818E-01  0.00000000000E+00 0.  1.
  9000001    1    1    2    0    0 -0.14007141402E-01  0.25760346227E-01  0.20428855496E-01  0.35750994182E-01  0.10000000475E-02 0. -1.
</event>
<event>
 4   0  0.4892667E-02  0.9118800E+02  0.7818609E-02  0.1379984E+01
      -11   -1    0    0    0    0  0.00000000000E+00  0.00000000000E+00  0.35740347158E-01  0.35744000000E-01  0.51099999109E-03 0. -1.
       11   -1    0    0    0    0 -0.00000000000E+00 -0.00000000000E+00 -0.35740347158E-01  0.35744000000E-01  0.51099999109E-03 0.  1.
       22    1    1    2    0    0 -0.16828804654E-02 -0.10273782918E-01  0.34186998739E-01  0.35737005818E-01  0.00000000000E+00 0. -1.
  9000001    1    1    2    0    0  0.16828804654E-02  0.10273782918E-01 -0.34186998739E-01  0.35750994182E-01  0.10000000475E-02 0.  1.
</event>
<event>
 4   0  0.4892667E-02  0.9118800E+02  0.7818609E-02  0.1379984E+01
      -11   -1    0    0    0    0  0.00000000000E+00  0.00000000000E+00  0.35740347158E-01  0.35744000000E-01  0.51099999109E-03 0. -1.
       11   -1    0    0    0    0 -0.00000000000E+00 -0.00000000000E+00 -0.35740347158E-01  0.35744000000E-01  0.51099999109E-03 0.  1.
       22    1    1    2    0    0  0.38577575477E-02 -0.92399985625E-02 -0.34305593103E-01  0.35737005818E-01  0.00000000000E+00 0.  1.
  9000001    1    1    2    0    0 -0.38577575477E-02  0.92399985625E-02  0.34305593103E-01  0.35750994182E-01  0.10000000475E-02 0. -1.
</event>
<event>
 4   0  0.4892667E-02  0.9118800E+02  0.7818609E-02  0.1379984E+01
      -11   -1    0    0    0    0  0.00000000000E+00  0.00000000000E+00  0.35740347158E-01  0.35744000000E-01  0.51099999109E-03 0.  1.
       11   -1    0    0    0    0 -0.00000000000E+00 -0.00000000000E+00 -0.35740347158E-01  0.35744000000E-01  0.51099999109E-03 0. -1.
       22    1    1    2    0    0  0.78675728394E-02  0.92595288652E-02  0.33607975358E-01  0.35737005818E-01  0.00000000000E+00 0.  1.
  9000001    1    1    2    0    0 -0.78675728394E-02 -0.92595288652E-02 -0.33607975358E-01  0.35750994182E-01  0.10000000475E-02 0. -1.
</event>
<event>
 4   0  0.4892667E-02  0.9118800E+02  0.7818609E-02  0.1379984E+01
      -11   -1    0    0    0    0  0.00000000000E+00  0.00000000000E+00  0.35740347158E-01  0.35744000000E-01  0.51099999109E-03 0. -1.
       11   -1    0    0    0    0 -0.00000000000E+00 -0.00000000000E+00 -0.35740347158E-01  0.35744000000E-01  0.51099999109E-03 0.  1.
       22    1    1    2    0    0 -0.25001110383E-01 -0.20772155190E-02 -0.25451193296E-01  0.35737005818E-01  0.00000000000E+00 0.  1.
  9000001    1    1    2    0    0  0.25001110383E-01  0.20772155190E-02  0.25451193296E-01  0.35750994182E-01  0.10000000475E-02 0. -1.
</event>
<event>
 4   0  0.4892667E-02  0.9118800E+02  0.7818609E-02  0.1379984E+01
      -11   -1    0    0    0    0  0.00000000000E+00  0.00000000000E+00  0.35740347158E-01  0.35744000000E-01  0.51099999109E-03 0.  1.
       11   -1    0    0    0    0 -0.00000000000E+00 -0.00000000000E+00 -0.35740347158E-01  0.35744000000E-01  0.51099999109E-03 0. -1.
       22    1    1    2    0    0 -0.30368095188E-01 -0.29772127267E-02 -0.18602381136E-01  0.35737005818E-01  0.00000000000E+00 0. -1.
  9000001    1    1    2    0    0  0.30368095188E-01  0.29772127267E-02  0.18602381136E-01  0.35750994182E-01  0.10000000475E-02 0.  1.
</event>
<event>
 4   0  0.4892667E-02  0.9118800E+02  0.7818609E-02  0.1379984E+01
      -11   -1    0    0    0    0  0.00000000000E+00  0.00000000000E+00  0.35740347158E-01  0.35744000000E-01  0.51099999109E-03 0.  1.
       11   -1    0    0    0    0 -0.00000000000E+00 -0.00000000000E+00 -0.35740347158E-01  0.35744000000E-01  0.51099999109E-03 0. -1.
       22    1    1    2    0    0  0.16894244504E-01  0.31487531976E-01 -0.50340599927E-03  0.35737005818E-01  0.00000000000E+00 0.  1.
  9000001    1    1    2    0    0 -0.16894244504E-01 -0.31487531976E-01  0.50340599927E-03  0.35750994182E-01  0.10000000475E-02 0. -1.
</event>
<event>
 4   0  0.4892667E-02  0.9118800E+02  0.7818609E-02  0.1379984E+01
      -11   -1    0    0    0    0  0.00000000000E+00  0.00000000000E+00  0.35740347158E-01  0.35744000000E-01  0.51099999109E-03 0.  1.
       11   -1    0    0    0    0 -0.00000000000E+00 -0.00000000000E+00 -0.35740347158E-01  0.35744000000E-01  0.51099999109E-03 0. -1.
       22    1    1    2    0    0  0.77512238640E-02 -0.39602041959E-02 -0.34660768835E-01  0.35737005818E-01  0.00000000000E+00 0. -1.
  9000001    1    1    2    0    0 -0.77512238640E-02  0.39602041959E-02  0.34660768835E-01  0.35750994182E-01  0.10000000475E-02 0.  1.
</event>
<event>
 4   0  0.4892667E-02  0.9118800E+02  0.7818609E-02  0.1379984E+01
      -11   -1    0    0    0    0  0.00000000000E+00  0.00000000000E+00  0.35740347158E-01  0.35744000000E-01  0.51099999109E-03 0. -1.
       11   -1    0    0    0    0 -0.00000000000E+00 -0.00000000000E+00 -0.35740347158E-01  0.35744000000E-01  0.51099999109E-03 0.  1.
       22    1    1    2    0    0 -0.80278276510E-02  0.26711917492E-01 -0.22341912004E-01  0.35737005818E-01  0.00000000000E+00 0.  1.
  9000001    1    1    2    0    0  0.80278276510E-02 -0.26711917492E-01  0.22341912004E-01  0.35750994182E-01  0.10000000475E-02 0. -1.
</event>
<event>
 4   0  0.4892667E-02  0.9118800E+02  0.7818609E-02  0.1379984E+01
      -11   -1    0    0    0    0  0.00000000000E+00  0.00000000000E+00  0.35740347158E-01  0.35744000000E-01  0.51099999109E-03 0. -1.
       11   -1    0    0    0    0 -0.00000000000E+00 -0.00000000000E+00 -0.35740347158E-01  0.35744000000E-01  0.51099999109E-03 0.  1.
       22    1    1    2    0    0 -0.31606883556E-02 -0.48122279333E-02  0.35270187075E-01  0.35737005818E-01  0.00000000000E+00 0. -1.
  9000001    1    1    2    0    0  0.31606883556E-02  0.48122279333E-02 -0.35270187075E-01  0.35750994182E-01  0.10000000475E-02 0.  1.
</event>
<event>
 4   0  0.4892667E-02  0.9118800E+02  0.7818609E-02  0.1379984E+01
      -11   -1    0    0    0    0  0.00000000000E+00  0.00000000000E+00  0.35740347158E-01  0.35744000000E-01  0.51099999109E-03 0.  1.
       11   -1    0    0    0    0 -0.00000000000E+00 -0.00000000000E+00 -0.35740347158E-01  0.35744000000E-01  0.51099999109E-03 0. -1.
       22    1    1    2    0    0  0.50549303660E-02 -0.82584540105E-02  0.34400279086E-01  0.35737005818E-01  0.00000000000E+00 0.  1.
  9000001    1    1    2    0    0 -0.50549303660E-02  0.82584540105E-02 -0.34400279086E-01  0.35750994182E-01  0.10000000475E-02 0. -1.
</event>
<event>
 4   0  0.4892667E-02  0.9118800E+02  0.7818609E-02  0.1379984E+01
      -11   -1    0    0    0    0  0.00000000000E+00  0.00000000000E+00  0.35740347158E-01  0.35744000000E-01  0.51099999109E-03 0.  1.
       11   -1    0    0    0    0 -0.00000000000E+00 -0.00000000000E+00 -0.35740347158E-01  0.35744000000E-01  0.51099999109E-03 0. -1.
       22    1    1    2    0    0 -0.88415976067E-02 -0.80240469674E-02 -0.33683444107E-01  0.35737005818E-01  0.00000000000E+00 0. -1.
  9000001    1    1    2    0    0  0.88415976067E-02  0.80240469674E-02  0.33683444107E-01  0.35750994182E-01  0.10000000475E-02 0.  1.
</event>
<event>
 4   0  0.4892667E-02  0.9118800E+02  0.7818609E-02  0.1379984E+01
      -11   -1    0    0    0    0  0.00000000000E+00  0.00000000000E+00  0.35740347158E-01  0.35744000000E-01  0.51099999109E-03 0.  1.
       11   -1    0    0    0    0 -0.00000000000E+00 -0.00000000000E+00 -0.35740347158E-01  0.35744000000E-01  0.51099999109E-03 0. -1.
       22    1    1    2    0    0 -0.12504221714E-02 -0.33828944175E-02 -0.35554550407E-01  0.35737005818E-01  0.00000000000E+00 0. -1.
  9000001    1    1    2    0    0  0.12504221714E-02  0.33828944175E-02  0.35554550407E-01  0.35750994182E-01  0.10000000475E-02 0.  1.
</event>
<event>
 4   0  0.4892667E-02  0.9118800E+02  0.7818609E-02  0.1379984E+01
      -11   -1    0    0    0    0  0.00000000000E+00  0.00000000000E+00  0.35740347158E-01  0.35744000000E-01  0.51099999109E-03 0.  1.
       11   -1    0    0    0    0 -0.00000000000E+00 -0.00000000000E+00 -0.35740347158E-01  0.35744000000E-01  0.51099999109E-03 0. -1.
       22    1    1    2    0    0 -0.18929190546E-01  0.15166116942E-01 -0.26245156259E-01  0.35737005818E-01  0.00000000000E+00 0. -1.
  9000001    1    1    2    0    0  0.18929190546E-01 -0.15166116942E-01  0.26245156259E-01  0.35750994182E-01  0.10000000475E-02 0.  1.
</event>
<event>
 4   0  0.4892667E-02  0.9118800E+02  0.7818609E-02  0.1379984E+01
      -11   -1    0    0    0    0  0.00000000000E+00  0.00000000000E+00  0.35740347158E-01  0.35744000000E-01  0.51099999109E-03 0. -1.
       11   -1    0    0    0    0 -0.00000000000E+00 -0.00000000000E+00 -0.35740347158E-01  0.35744000000E-01  0.51099999109E-03 0.  1.
       22    1    1    2    0    0 -0.66099538843E-02  0.11493709501E-01 -0.33186393845E-01  0.35737005818E-01  0.00000000000E+00 0.  1.
  9000001    1    1    2    0    0  0.66099538843E-02 -0.11493709501E-01  0.33186393845E-01  0.35750994182E-01  0.10000000475E-02 0. -1.
</event>
<event>
 4   0  0.4892667E-02  0.9118800E+02  0.7818609E-02  0.1379984E+01
      -11   -1    0    0    0    0  0.00000000000E+00  0.00000000000E+00  0.35740347158E-01  0.35744000000E-01  0.51099999109E-03 0. -1.
       11   -1    0    0    0    0 -0.00000000000E+00 -0.00000000000E+00 -0.35740347158E-01  0.35744000000E-01  0.51099999109E-03 0.  1.
       22    1    1    2    0    0  0.16103249059E-02 -0.97220021347E-02 -0.34351464497E-01  0.35737005818E-01  0.00000000000E+00 0.  1.
  9000001    1    1    2    0    0 -0.16103249059E-02  0.97220021347E-02  0.34351464497E-01  0.35750994182E-01  0.10000000475E-02 0. -1.
</event>
<event>
 4   0  0.4892667E-02  0.9118800E+02  0.7818609E-02  0.1379984E+01
      -11   -1    0    0    0    0  0.00000000000E+00  0.00000000000E+00  0.35740347158E-01  0.35744000000E-01  0.51099999109E-03 0. -1.
       11   -1    0    0    0    0 -0.00000000000E+00 -0.00000000000E+00 -0.35740347158E-01  0.35744000000E-01  0.51099999109E-03 0.  1.
       22    1    1    2    0    0 -0.24459859475E-01 -0.99201659720E-04  0.26054539304E-01  0.35737005818E-01  0.00000000000E+00 0.  1.
  9000001    1    1    2    0    0  0.24459859475E-01  0.99201659720E-04 -0.26054539304E-01  0.35750994182E-01  0.10000000475E-02 0. -1.
</event>
<event>
 4   0  0.4892667E-02  0.9118800E+02  0.7818609E-02  0.1379984E+01
      -11   -1    0    0    0    0  0.00000000000E+00  0.00000000000E+00  0.35740347158E-01  0.35744000000E-01  0.51099999109E-03 0.  1.
       11   -1    0    0    0    0 -0.00000000000E+00 -0.00000000000E+00 -0.35740347158E-01  0.35744000000E-01  0.51099999109E-03 0. -1.
       22    1    1    2    0    0 -0.25667684492E-01 -0.24862303223E-01 -0.41162620394E-03  0.35737005818E-01  0.00000000000E+00 0.  1.
  9000001    1    1    2    0    0  0.25667684492E-01  0.24862303223E-01  0.41162620394E-03  0.35750994182E-01  0.10000000475E-02 0. -1.
</event>
<event>
 4   0  0.4892667E-02  0.9118800E+02  0.7818609E-02  0.1379984E+01
      -11   -1    0    0    0    0  0.00000000000E+00  0.00000000000E+00  0.35740347158E-01  0.35744000000E-01  0.51099999109E-03 0.  1.
       11   -1    0    0    0    0 -0.00000000000E+00 -0.00000000000E+00 -0.35740347158E-01  0.35744000000E-01  0.51099999109E-03 0. -1.
       22    1    1    2    0    0  0.95655719536E-03  0.35201968899E-02  0.35550341729E-01  0.35737005818E-01  0.00000000000E+00 0.  1.
  9000001    1    1    2    0    0 -0.95655719536E-03 -0.35201968899E-02 -0.35550341729E-01  0.35750994182E-01  0.10000000475E-02 0. -1.
</event>
<event>
 4   0  0.4892667E-02  0.9118800E+02  0.7818609E-02  0.1379984E+01
      -11   -1    0    0    0    0  0.00000000000E+00  0.00000000000E+00  0.35740347158E-01  0.35744000000E-01  0.51099999109E-03 0.  1.
       11   -1    0    0    0    0 -0.00000000000E+00 -0.00000000000E+00 -0.35740347158E-01  0.35744000000E-01  0.51099999109E-03 0. -1.
       22    1    1    2    0    0  0.50021706432E-02  0.65049520512E-03  0.35379213243E-01  0.35737005818E-01  0.00000000000E+00 0.  1.
  9000001    1    1    2    0    0 -0.50021706432E-02 -0.65049520512E-03 -0.35379213243E-01  0.35750994182E-01  0.10000000475E-02 0. -1.
</event>
<event>
 4   0  0.4892667E-02  0.9118800E+02  0.7818609E-02  0.1379984E+01
      -11   -1    0    0    0    0  0.00000000000E+00  0.00000000000E+00  0.35740347158E-01  0.35744000000E-01  0.51099999109E-03 0. -1.
       11   -1    0    0    0    0 -0.00000000000E+00 -0.00000000000E+00 -0.35740347158E-01  0.35744000000E-01  0.51099999109E-03 0.  1.
       22    1    1    2    0    0 -0.82288207245E-02  0.18782828923E-02 -0.34725957838E-01  0.35737005818E-01  0.00000000000E+00 0.  1.
  9000001    1    1    2    0    0  0.82288207245E-02 -0.18782828923E-02  0.34725957838E-01  0.35750994182E-01  0.10000000475E-02 0. -1.
</event>
<event>
 4   0  0.4892667E-02  0.9118800E+02  0.7818609E-02  0.1379984E+01
      -11   -1    0    0    0    0  0.00000000000E+00  0.00000000000E+00  0.35740347158E-01  0.35744000000E-01  0.51099999109E-03 0. -1.
       11   -1    0    0    0    0 -0.00000000000E+00 -0.00000000000E+00 -0.35740347158E-01  0.35744000000E-01  0.51099999109E-03 0.  1.
       22    1    1    2    0    0 -0.41946431817E-02  0.33979056134E-02 -0.35326941431E-01  0.35737005818E-01  0.00000000000E+00 0.  1.
  9000001    1    1    2    0    0  0.41946431817E-02 -0.33979056134E-02  0.35326941431E-01  0.35750994182E-01  0.10000000475E-02 0. -1.
</event>
<event>
 4   0  0.4892667E-02  0.9118800E+02  0.7818609E-02  0.1379984E+01
      -11   -1    0    0    0    0  0.00000000000E+00  0.00000000000E+00  0.35740347158E-01  0.35744000000E-01  0.51099999109E-03 0. -1.
       11   -1    0    0    0    0 -0.00000000000E+00 -0.00000000000E+00 -0.35740347158E-01  0.35744000000E-01  0.51099999109E-03 0.  1.
       22    1    1    2    0    0 -0.22301499169E-01  0.99810267585E-02  0.26079797249E-01  0.35737005818E-01  0.00000000000E+00 0. -1.
  9000001    1    1    2    0    0  0.22301499169E-01 -0.99810267585E-02 -0.26079797249E-01  0.35750994182E-01  0.10000000475E-02 0.  1.
</event>
<event>
 4   0  0.4892667E-02  0.9118800E+02  0.7818609E-02  0.1379984E+01
      -11   -1    0    0    0    0  0.00000000000E+00  0.00000000000E+00  0.35740347158E-01  0.35744000000E-01  0.51099999109E-03 0. -1.
       11   -1    0    0    0    0 -0.00000000000E+00 -0.00000000000E+00 -0.35740347158E-01  0.35744000000E-01  0.51099999109E-03 0.  1.
       22    1    1    2    0    0 -0.95688636429E-03 -0.19562010723E-01 -0.29892234608E-01  0.35737005818E-01  0.00000000000E+00 0.  1.
  9000001    1    1    2    0    0  0.95688636429E-03  0.19562010723E-01  0.29892234608E-01  0.35750994182E-01  0.10000000475E-02 0. -1.
</event>
<event>
 4   0  0.4892667E-02  0.9118800E+02  0.7818609E-02  0.1379984E+01
      -11   -1    0    0    0    0  0.00000000000E+00  0.00000000000E+00  0.35740347158E-01  0.35744000000E-01  0.51099999109E-03 0. -1.
       11   -1    0    0    0    0 -0.00000000000E+00 -0.00000000000E+00 -0.35740347158E-01  0.35744000000E-01  0.51099999109E-03 0.  1.
       22    1    1    2    0    0  0.65000596167E-04 -0.50122203783E-02 -0.35383711036E-01  0.35737005818E-01  0.00000000000E+00 0.  1.
  9000001    1    1    2    0    0 -0.65000596167E-04  0.50122203783E-02  0.35383711036E-01  0.35750994182E-01  0.10000000475E-02 0. -1.
</event>
<event>
 4   0  0.4892667E-02  0.9118800E+02  0.7818609E-02  0.1379984E+01
      -11   -1    0    0    0    0  0.00000000000E+00  0.00000000000E+00  0.35740347158E-01  0.35744000000E-01  0.51099999109E-03 0. -1.
       11   -1    0    0    0    0 -0.00000000000E+00 -0.00000000000E+00 -0.35740347158E-01  0.35744000000E-01  0.51099999109E-03 0.  1.
       22    1    1    2    0    0  0.17722268585E-02 -0.92522140636E-02  0.34473023246E-01  0.35737005818E-01  0.00000000000E+00 0. -1.
  9000001    1    1    2    0    0 -0.17722268585E-02  0.92522140636E-02 -0.34473023246E-01  0.35750994182E-01  0.10000000475E-02 0.  1.
</event>
<event>
 4   0  0.4892667E-02  0.9118800E+02  0.7818609E-02  0.1379984E+01
      -11   -1    0    0    0    0  0.00000000000E+00  0.00000000000E+00  0.35740347158E-01  0.35744000000E-01  0.51099999109E-03 0.  1.
       11   -1    0    0    0    0 -0.00000000000E+00 -0.00000000000E+00 -0.35740347158E-01  0.35744000000E-01  0.51099999109E-03 0. -1.
       22    1    1    2    0    0 -0.29291011991E-02 -0.23389167026E-02 -0.35539884914E-01  0.35737005818E-01  0.00000000000E+00 0. -1.
  9000001    1    1    2    0    0  0.29291011991E-02  0.23389167026E-02  0.35539884914E-01  0.35750994182E-01  0.10000000475E-02 0.  1.
</event>
<event>
 4   0  0.4892667E-02  0.9118800E+02  0.7818609E-02  0.1379984E+01
      -11   -1    0    0    0    0  0.00000000000E+00  0.00000000000E+00  0.35740347158E-01  0.35744000000E-01  0.51099999109E-03 0. -1.
       11   -1    0    0    0    0 -0.00000000000E+00 -0.00000000000E+00 -0.35740347158E-01  0.35744000000E-01  0.51099999109E-03 0.  1.
       22    1    1    2    0    0  0.56768231270E-02 -0.18366444152E-02  0.35235408347E-01  0.35737005818E-01  0.00000000000E+00 0. -1.
  9000001    1    1    2    0    0 -0.56768231270E-02  0.18366444152E-02 -0.35235408347E-01  0.35750994182E-01  0.10000000475E-02 0.  1.
</event>
<event>
 4   0  0.4892667E-02  0.9118800E+02  0.7818609E-02  0.1379984E+01
      -11   -1    0    0    0    0  0.00000000000E+00  0.00000000000E+00  0.35740347158E-01  0.35744000000E-01  0.51099999109E-03 0.  1.
       11   -1    0    0    0    0 -0.00000000000E+00 -0.00000000000E+00 -0.35740347158E-01  0.35744000000E-01  0.51099999109E-03 0. -1.
       22    1    1    2    0    0 -0.41272980810E-02  0.61102597796E-02 -0.34968038562E-01  0.35737005818E-01  0.00000000000E+00 0. -1.
  9000001    1    1    2    0    0  0.41272980810E-02 -0.61102597796E-02  0.34968038562E-01  0.35750994182E-01  0.10000000475E-02 0.  1.
</event>
<event>
 4   0  0.4892667E-02  0.9118800E+02  0.7818609E-02  0.1379984E+01
      -11   -1    0    0    0    0  0.00000000000E+00  0.00000000000E+00  0.35740347158E-01  0.35744000000E-01  0.51099999109E-03 0.  1.
       11   -1    0    0    0    0 -0.00000000000E+00 -0.00000000000E+00 -0.35740347158E-01  0.35744000000E-01  0.51099999109E-03 0. -1.
       22    1    1    2    0    0  0.16222502037E-01  0.29587332981E-01 -0.11770885251E-01  0.35737005818E-01  0.00000000000E+00 0. -1.
  9000001    1    1    2    0    0 -0.16222502037E-01 -0.29587332981E-01  0.11770885251E-01  0.35750994182E-01  0.10000000475E-02 0.  1.
</event>
<event>
 4   0  0.4892667E-02  0.9118800E+02  0.7818609E-02  0.1379984E+01
      -11   -1    0    0    0    0  0.00000000000E+00  0.00000000000E+00  0.35740347158E-01  0.35744000000E-01  0.51099999109E-03 0. -1.
       11   -1    0    0    0    0 -0.00000000000E+00 -0.00000000000E+00 -0.35740347158E-01  0.35744000000E-01  0.51099999109E-03 0.  1.
       22    1    1    2    0    0  0.52592448370E-02  0.27886606365E-02 -0.35237725529E-01  0.35737005818E-01  0.00000000000E+00 0.  1.
  9000001    1    1    2    0    0 -0.52592448370E-02 -0.27886606365E-02  0.35237725529E-01  0.35750994182E-01  0.10000000475E-02 0. -1.
</event>
<event>
 4   0  0.4892667E-02  0.9118800E+02  0.7818609E-02  0.1379984E+01
      -11   -1    0    0    0    0  0.00000000000E+00  0.00000000000E+00  0.35740347158E-01  0.35744000000E-01  0.51099999109E-03 0. -1.
       11   -1    0    0    0    0 -0.00000000000E+00 -0.00000000000E+00 -0.35740347158E-01  0.35744000000E-01  0.51099999109E-03 0.  1.
       22    1    1    2    0    0 -0.15199355558E-01 -0.27228504170E-01  0.17456280708E-01  0.35737005818E-01  0.00000000000E+00 0. -1.
  9000001    1    1    2    0    0  0.15199355558E-01  0.27228504170E-01 -0.17456280708E-01  0.35750994182E-01  0.10000000475E-02 0.  1.
</event>
<event>
 4   0  0.4892667E-02  0.9118800E+02  0.7818609E-02  0.1379984E+01
      -11   -1    0    0    0    0  0.00000000000E+00  0.00000000000E+00  0.35740347158E-01  0.35744000000E-01  0.51099999109E-03 0. -1.
       11   -1    0    0    0    0 -0.00000000000E+00 -0.00000000000E+00 -0.35740347158E-01  0.35744000000E-01  0.51099999109E-03 0.  1.
       22    1    1    2    0    0 -0.12178356716E-01  0.32693232731E-01 -0.77442718291E-02  0.35737005818E-01  0.00000000000E+00 0.  1.
  9000001    1    1    2    0    0  0.12178356716E-01 -0.32693232731E-01  0.77442718291E-02  0.35750994182E-01  0.10000000475E-02 0. -1.
</event>
<event>
 4   0  0.4892667E-02  0.9118800E+02  0.7818609E-02  0.1379984E+01
      -11   -1    0    0    0    0  0.00000000000E+00  0.00000000000E+00  0.35740347158E-01  0.35744000000E-01  0.51099999109E-03 0. -1.
       11   -1    0    0    0    0 -0.00000000000E+00 -0.00000000000E+00 -0.35740347158E-01  0.35744000000E-01  0.51099999109E-03 0.  1.
       22    1    1    2    0    0  0.32663897461E-02 -0.26940292597E-03 -0.35586397752E-01  0.35737005818E-01  0.00000000000E+00 0.  1.
  9000001    1    1    2    0    0 -0.32663897461E-02  0.26940292597E-03  0.35586397752E-01  0.35750994182E-01  0.10000000475E-02 0. -1.
</event>
<event>
 4   0  0.4892667E-02  0.9118800E+02  0.7818609E-02  0.1379984E+01
      -11   -1    0    0    0    0  0.00000000000E+00  0.00000000000E+00  0.35740347158E-01  0.35744000000E-01  0.51099999109E-03 0.  1.
       11   -1    0    0    0    0 -0.00000000000E+00 -0.00000000000E+00 -0.35740347158E-01  0.35744000000E-01  0.51099999109E-03 0. -1.
       22    1    1    2    0    0 -0.10864683580E-02 -0.90157758397E-02 -0.34563983529E-01  0.35737005818E-01  0.00000000000E+00 0. -1.
  9000001    1    1    2    0    0  0.10864683580E-02  0.90157758397E-02  0.34563983529E-01  0.35750994182E-01  0.10000000475E-02 0.  1.
</event>
<event>
 4   0  0.4892667E-02  0.9118800E+02  0.7818609E-02  0.1379984E+01
      -11   -1    0    0    0    0  0.00000000000E+00  0.00000000000E+00  0.35740347158E-01  0.35744000000E-01  0.51099999109E-03 0. -1.
       11   -1    0    0    0    0 -0.00000000000E+00 -0.00000000000E+00 -0.35740347158E-01  0.35744000000E-01  0.51099999109E-03 0.  1.
       22    1    1    2    0    0  0.56731890988E-02 -0.40756285684E-02  0.35047649880E-01  0.35737005818E-01  0.00000000000E+00 0. -1.
  9000001    1    1    2    0    0 -0.56731890988E-02  0.40756285684E-02 -0.35047649880E-01  0.35750994182E-01  0.10000000475E-02 0.  1.
</event>
<event>
 4   0  0.4892667E-02  0.9118800E+02  0.7818609E-02  0.1379984E+01
      -11   -1    0    0    0    0  0.00000000000E+00  0.00000000000E+00  0.35740347158E-01  0.35744000000E-01  0.51099999109E-03 0. -1.
       11   -1    0    0    0    0 -0.00000000000E+00 -0.00000000000E+00 -0.35740347158E-01  0.35744000000E-01  0.51099999109E-03 0.  1.
       22    1    1    2    0    0  0.30920435980E-01 -0.15147919855E-01  0.95708279549E-02  0.35737005818E-01  0.00000000000E+00 0.  1.
  9000001    1    1    2    0    0 -0.30920435980E-01  0.15147919855E-01 -0.95708279549E-02  0.35750994182E-01  0.10000000475E-02 0. -1.
</event>
<event>
 4   0  0.4892667E-02  0.9118800E+02  0.7818609E-02  0.1379984E+01
      -11   -1    0    0    0    0  0.00000000000E+00  0.00000000000E+00  0.35740347158E-01  0.35744000000E-01  0.51099999109E-03 0.  1.
       11   -1    0    0    0    0 -0.00000000000E+00 -0.00000000000E+00 -0.35740347158E-01  0.35744000000E-01  0.51099999109E-03 0. -1.
       22    1    1    2    0    0 -0.39943947216E-02 -0.73897215267E-02  0.34735722411E-01  0.35737005818E-01  0.00000000000E+00 0.  1.
  9000001    1    1    2    0    0  0.39943947216E-02  0.73897215267E-02 -0.34735722411E-01  0.35750994182E-01  0.10000000475E-02 0. -1.
</event>
<event>
 4   0  0.4892667E-02  0.9118800E+02  0.7818609E-02  0.1379984E+01
      -11   -1    0    0    0    0  0.00000000000E+00  0.00000000000E+00  0.35740347158E-01  0.35744000000E-01  0.51099999109E-03 0.  1.
       11   -1    0    0    0    0 -0.00000000000E+00 -0.00000000000E+00 -0.35740347158E-01  0.35744000000E-01  0.51099999109E-03 0. -1.
       22    1    1    2    0    0  0.18416333933E-01  0.13411614563E-01 -0.27533630784E-01  0.35737005818E-01  0.00000000000E+00 0. -1.
  9000001    1    1    2    0    0 -0.18416333933E-01 -0.13411614563E-01  0.27533630784E-01  0.35750994182E-01  0.10000000475E-02 0.  1.
</event>
<event>
 4   0  0.4892667E-02  0.9118800E+02  0.7818609E-02  0.1379984E+01
      -11   -1    0    0    0    0  0.00000000000E+00  0.00000000000E+00  0.35740347158E-01  0.35744000000E-01  0.51099999109E-03 0. -1.
       11   -1    0    0    0    0 -0.00000000000E+00 -0.00000000000E+00 -0.35740347158E-01  0.35744000000E-01  0.51099999109E-03 0.  1.
       22    1    1    2    0    0  0.56198480542E-02 -0.46797123267E-02 -0.34980725911E-01  0.35737005818E-01  0.00000000000E+00 0.  1.
  9000001    1    1    2    0    0 -0.56198480542E-02  0.46797123267E-02  0.34980725911E-01  0.35750994182E-01  0.10000000475E-02 0. -1.
</event>
<event>
 4   0  0.4892667E-02  0.9118800E+02  0.7818609E-02  0.1379984E+01
      -11   -1    0    0    0    0  0.00000000000E+00  0.00000000000E+00  0.35740347158E-01  0.35744000000E-01  0.51099999109E-03 0. -1.
       11   -1    0    0    0    0 -0.00000000000E+00 -0.00000000000E+00 -0.35740347158E-01  0.35744000000E-01  0.51099999109E-03 0.  1.
       22    1    1    2    0    0  0.22823798027E-02  0.12985483469E-01  0.33215983297E-01  0.35737005818E-01  0.00000000000E+00 0. -1.
  9000001    1    1    2    0    0 -0.22823798027E-02 -0.12985483469E-01 -0.33215983297E-01  0.35750994182E-01  0.10000000475E-02 0.  1.
</event>
<event>
 4   0  0.4892667E-02  0.9118800E+02  0.7818609E-02  0.1379984E+01
      -11   -1    0    0    0    0  0.00000000000E+00  0.00000000000E+00  0.35740347158E-01  0.35744000000E-01  0.51099999109E-03 0.  1.
       11   -1    0    0    0    0 -0.00000000000E+00 -0.00000000000E+00 -0.35740347158E-01  0.35744000000E-01  0.51099999109E-03 0. -1.
       22    1    1    2    0    0 -0.18956876151E-02  0.64455298880E-02  0.35099787717E-01  0.35737005818E-01  0.00000000000E+00 0.  1.
  9000001    1    1    2    0    0  0.18956876151E-02 -0.64455298880E-02 -0.35099787717E-01  0.35750994182E-01  0.10000000475E-02 0. -1.
</event>
<event>
 4   0  0.4892667E-02  0.9118800E+02  0.7818609E-02  0.1379984E+01
      -11   -1    0    0    0    0  0.00000000000E+00  0.00000000000E+00  0.35740347158E-01  0.35744000000E-01  0.51099999109E-03 0. -1.
       11   -1    0    0    0    0 -0.00000000000E+00 -0.00000000000E+00 -0.35740347158E-01  0.35744000000E-01  0.51099999109E-03 0.  1.
       22    1    1    2    0    0 -0.15849958043E-02  0.29916101714E-02 -0.35576279201E-01  0.35737005818E-01  0.00000000000E+00 0.  1.
  9000001    1    1    2    0    0  0.15849958043E-02 -0.29916101714E-02  0.35576279201E-01  0.35750994182E-01  0.10000000475E-02 0. -1.
</event>
<event>
 4   0  0.4892667E-02  0.9118800E+02  0.7818609E-02  0.1379984E+01
      -11   -1    0    0    0    0  0.00000000000E+00  0.00000000000E+00  0.35740347158E-01  0.35744000000E-01  0.51099999109E-03 0. -1.
       11   -1    0    0    0    0 -0.00000000000E+00 -0.00000000000E+00 -0.35740347158E-01  0.35744000000E-01  0.51099999109E-03 0.  1.
       22    1    1    2    0    0 -0.63893950000E-03  0.43053201894E-02 -0.35470967836E-01  0.35737005818E-01  0.00000000000E+00 0.  1.
  9000001    1    1    2    0    0  0.63893950000E-03 -0.43053201894E-02  0.35470967836E-01  0.35750994182E-01  0.10000000475E-02 0. -1.
</event>
<event>
 4   0  0.4892667E-02  0.9118800E+02  0.7818609E-02  0.1379984E+01
      -11   -1    0    0    0    0  0.00000000000E+00  0.00000000000E+00  0.35740347158E-01  0.35744000000E-01  0.51099999109E-03 0. -1.
       11   -1    0    0    0    0 -0.00000000000E+00 -0.00000000000E+00 -0.35740347158E-01  0.35744000000E-01  0.51099999109E-03 0.  1.
       22    1    1    2    0    0  0.16354324383E-02 -0.52010216035E-02  0.35318668150E-01  0.35737005818E-01  0.00000000000E+00 0. -1.
  9000001    1    1    2    0    0 -0.16354324383E-02  0.52010216035E-02 -0.35318668150E-01  0.35750994182E-01  0.10000000475E-02 0.  1.
</event>
<event>
 4   0  0.4892667E-02  0.9118800E+02  0.7818609E-02  0.1379984E+01
      -11   -1    0    0    0    0  0.00000000000E+00  0.00000000000E+00  0.35740347158E-01  0.35744000000E-01  0.51099999109E-03 0. -1.
       11   -1    0    0    0    0 -0.00000000000E+00 -0.00000000000E+00 -0.35740347158E-01  0.35744000000E-01  0.51099999109E-03 0.  1.
       22    1    1    2    0    0 -0.44751433012E-02 -0.83031950167E-03  0.35445976455E-01  0.35737005818E-01  0.00000000000E+00 0. -1.
  9000001    1    1    2    0    0  0.44751433012E-02  0.83031950167E-03 -0.35445976455E-01  0.35750994182E-01  0.10000000475E-02 0.  1.
</event>
<event>
 4   0  0.4892667E-02  0.9118800E+02  0.7818609E-02  0.1379984E+01
      -11   -1    0    0    0    0  0.00000000000E+00  0.00000000000E+00  0.35740347158E-01  0.35744000000E-01  0.51099999109E-03 0. -1.
       11   -1    0    0    0    0 -0.00000000000E+00 -0.00000000000E+00 -0.35740347158E-01  0.35744000000E-01  0.51099999109E-03 0.  1.
       22    1    1    2    0    0  0.17666302837E-01 -0.30736714780E-01 -0.45044082268E-02  0.35737005818E-01  0.00000000000E+00 0.  1.
  9000001    1    1    2    0    0 -0.17666302837E-01  0.30736714780E-01  0.45044082268E-02  0.35750994182E-01  0.10000000475E-02 0. -1.
</event>
<event>
 4   0  0.4892667E-02  0.9118800E+02  0.7818609E-02  0.1379984E+01
      -11   -1    0    0    0    0  0.00000000000E+00  0.00000000000E+00  0.35740347158E-01  0.35744000000E-01  0.51099999109E-03 0. -1.
       11   -1    0    0    0    0 -0.00000000000E+00 -0.00000000000E+00 -0.35740347158E-01  0.35744000000E-01  0.51099999109E-03 0.  1.
       22    1    1    2    0    0 -0.33357264789E-02 -0.30836602968E-02  0.35447109232E-01  0.35737005818E-01  0.00000000000E+00 0. -1.
  9000001    1    1    2    0    0  0.33357264789E-02  0.30836602968E-02 -0.35447109232E-01  0.35750994182E-01  0.10000000475E-02 0.  1.
</event>
<event>
 4   0  0.4892667E-02  0.9118800E+02  0.7818609E-02  0.1379984E+01
      -11   -1    0    0    0    0  0.00000000000E+00  0.00000000000E+00  0.35740347158E-01  0.35744000000E-01  0.51099999109E-03 0.  1.
       11   -1    0    0    0    0 -0.00000000000E+00 -0.00000000000E+00 -0.35740347158E-01  0.35744000000E-01  0.51099999109E-03 0. -1.
       22    1    1    2    0    0  0.18416289090E-02 -0.37378971831E-02 -0.35493240377E-01  0.35737005818E-01  0.00000000000E+00 0. -1.
  9000001    1    1    2    0    0 -0.18416289090E-02  0.37378971831E-02  0.35493240377E-01  0.35750994182E-01  0.10000000475E-02 0.  1.
</event>
<event>
 4   0  0.4892667E-02  0.9118800E+02  0.7818609E-02  0.1379984E+01
      -11   -1    0    0    0    0  0.00000000000E+00  0.00000000000E+00  0.35740347158E-01  0.35744000000E-01  0.51099999109E-03 0. -1.
       11   -1    0    0    0    0 -0.00000000000E+00 -0.00000000000E+00 -0.35740347158E-01  0.35744000000E-01  0.51099999109E-03 0.  1.
       22    1    1    2    0    0 -0.14309529400E-02 -0.32886727882E-02  0.35556582933E-01  0.35737005818E-01  0.00000000000E+00 0. -1.
  9000001    1    1    2    0    0  0.14309529400E-02  0.32886727882E-02 -0.35556582933E-01  0.35750994182E-01  0.10000000475E-02 0.  1.
</event>
<event>
 4   0  0.4892667E-02  0.9118800E+02  0.7818609E-02  0.1379984E+01
      -11   -1    0    0    0    0  0.00000000000E+00  0.00000000000E+00  0.35740347158E-01  0.35744000000E-01  0.51099999109E-03 0. -1.
       11   -1    0    0    0    0 -0.00000000000E+00 -0.00000000000E+00 -0.35740347158E-01  0.35744000000E-01  0.51099999109E-03 0.  1.
       22    1    1    2    0    0  0.54350635564E-02  0.43822215842E-02 -0.35048392303E-01  0.35737005818E-01  0.00000000000E+00 0.  1.
  9000001    1    1    2    0    0 -0.54350635564E-02 -0.43822215842E-02  0.35048392303E-01  0.35750994182E-01  0.10000000475E-02 0. -1.
</event>
<event>
 4   0  0.4892667E-02  0.9118800E+02  0.7818609E-02  0.1379984E+01
      -11   -1    0    0    0    0  0.00000000000E+00  0.00000000000E+00  0.35740347158E-01  0.35744000000E-01  0.51099999109E-03 0.  1.
       11   -1    0    0    0    0 -0.00000000000E+00 -0.00000000000E+00 -0.35740347158E-01  0.35744000000E-01  0.51099999109E-03 0. -1.
       22    1    1    2    0    0 -0.19906722657E-01  0.28664081985E-01  0.76958678422E-02  0.35737005818E-01  0.00000000000E+00 0.  1.
  9000001    1    1    2    0    0  0.19906722657E-01 -0.28664081985E-01 -0.76958678422E-02  0.35750994182E-01  0.10000000475E-02 0. -1.
</event>
<event>
 4   0  0.4892667E-02  0.9118800E+02  0.7818609E-02  0.1379984E+01
      -11   -1    0    0    0    0  0.00000000000E+00  0.00000000000E+00  0.35740347158E-01  0.35744000000E-01  0.51099999109E-03 0.  1.
       11   -1    0    0    0    0 -0.00000000000E+00 -0.00000000000E+00 -0.35740347158E-01  0.35744000000E-01  0.51099999109E-03 0. -1.
       22    1    1    2    0    0  0.74708194085E-02 -0.60200789172E-02 -0.34424977735E-01  0.35737005818E-01  0.00000000000E+00 0. -1.
  9000001    1    1    2    0    0 -0.74708194085E-02  0.60200789172E-02  0.34424977735E-01  0.35750994182E-01  0.10000000475E-02 0.  1.
</event>
<event>
 4   0  0.4892667E-02  0.9118800E+02  0.7818609E-02  0.1379984E+01
      -11   -1    0    0    0    0  0.00000000000E+00  0.00000000000E+00  0.35740347158E-01  0.35744000000E-01  0.51099999109E-03 0.  1.
       11   -1    0    0    0    0 -0.00000000000E+00 -0.00000000000E+00 -0.35740347158E-01  0.35744000000E-01  0.51099999109E-03 0. -1.
       22    1    1    2    0    0  0.10768229682E-01  0.19879483142E-02  0.34018037508E-01  0.35737005818E-01  0.00000000000E+00 0.  1.
  9000001    1    1    2    0    0 -0.10768229682E-01 -0.19879483142E-02 -0.34018037508E-01  0.35750994182E-01  0.10000000475E-02 0. -1.
</event>
<event>
 4   0  0.4892667E-02  0.9118800E+02  0.7818609E-02  0.1379984E+01
      -11   -1    0    0    0    0  0.00000000000E+00  0.00000000000E+00  0.35740347158E-01  0.35744000000E-01  0.51099999109E-03 0. -1.
       11   -1    0    0    0    0 -0.00000000000E+00 -0.00000000000E+00 -0.35740347158E-01  0.35744000000E-01  0.51099999109E-03 0.  1.
       22    1    1    2    0    0  0.67231170795E-02 -0.43732244830E-02  0.34825395751E-01  0.35737005818E-01  0.00000000000E+00 0. -1.
  9000001    1    1    2    0    0 -0.67231170795E-02  0.43732244830E-02 -0.34825395751E-01  0.35750994182E-01  0.10000000475E-02 0.  1.
</event>
<event>
 4   0  0.4892667E-02  0.9118800E+02  0.7818609E-02  0.1379984E+01
      -11   -1    0    0    0    0  0.00000000000E+00  0.00000000000E+00  0.35740347158E-01  0.35744000000E-01  0.51099999109E-03 0. -1.
       11   -1    0    0    0    0 -0.00000000000E+00 -0.00000000000E+00 -0.35740347158E-01  0.35744000000E-01  0.51099999109E-03 0.  1.
       22    1    1    2    0    0 -0.22755727413E-02  0.22845389249E-02  0.35591238184E-01  0.35737005818E-01  0.00000000000E+00 0. -1.
  9000001    1    1    2    0    0  0.22755727413E-02 -0.22845389249E-02 -0.35591238184E-01  0.35750994182E-01  0.10000000475E-02 0.  1.
</event>
<event>
 4   0  0.4892667E-02  0.9118800E+02  0.7818609E-02  0.1379984E+01
      -11   -1    0    0    0    0  0.00000000000E+00  0.00000000000E+00  0.35740347158E-01  0.35744000000E-01  0.51099999109E-03 0. -1.
       11   -1    0    0    0    0 -0.00000000000E+00 -0.00000000000E+00 -0.35740347158E-01  0.35744000000E-01  0.51099999109E-03 0.  1.
       22    1    1    2    0    0  0.94368613330E-02 -0.77599814626E-02 -0.33583655560E-01  0.35737005818E-01  0.00000000000E+00 0.  1.
  9000001    1    1    2    0    0 -0.94368613330E-02  0.77599814626E-02  0.33583655560E-01  0.35750994182E-01  0.10000000475E-02 0. -1.
</event>
<event>
 4   0  0.4892667E-02  0.9118800E+02  0.7818609E-02  0.1379984E+01
      -11   -1    0    0    0    0  0.00000000000E+00  0.00000000000E+00  0.35740347158E-01  0.35744000000E-01  0.51099999109E-03 0. -1.
       11   -1    0    0    0    0 -0.00000000000E+00 -0.00000000000E+00 -0.35740347158E-01  0.35744000000E-01  0.51099999109E-03 0.  1.
       22    1    1    2    0    0 -0.22745570404E-01 -0.27412535782E-01  0.28853931915E-02  0.35737005818E-01  0.00000000000E+00 0.  1.
  9000001    1    1    2    0    0  0.22745570404E-01  0.27412535782E-01 -0.28853931915E-02  0.35750994182E-01  0.10000000475E-02 0. -1.
</event>
<event>
 4   0  0.4892667E-02  0.9118800E+02  0.7818609E-02  0.1379984E+01
      -11   -1    0    0    0    0  0.00000000000E+00  0.00000000000E+00  0.35740347158E-01  0.35744000000E-01  0.51099999109E-03 0.  1.
       11   -1    0    0    0    0 -0.00000000000E+00 -0.00000000000E+00 -0.35740347158E-01  0.35744000000E-01  0.51099999109E-03 0. -1.
       22    1    1    2    0    0 -0.33160637864E-02  0.18816772237E-02 -0.35533035286E-01  0.35737005818E-01  0.00000000000E+00 0. -1.
  9000001    1    1    2    0    0  0.33160637864E-02 -0.18816772237E-02  0.35533035286E-01  0.35750994182E-01  0.10000000475E-02 0.  1.
</event>
<event>
 4   0  0.4892667E-02  0.9118800E+02  0.7818609E-02  0.1379984E+01
      -11   -1    0    0    0    0  0.00000000000E+00  0.00000000000E+00  0.35740347158E-01  0.35744000000E-01  0.51099999109E-03 0. -1.
       11   -1    0    0    0    0 -0.00000000000E+00 -0.00000000000E+00 -0.35740347158E-01  0.35744000000E-01  0.51099999109E-03 0.  1.
       22    1    1    2    0    0 -0.10145689972E-01  0.73233280868E-02 -0.33474877529E-01  0.35737005818E-01  0.00000000000E+00 0.  1.
  9000001    1    1    2    0    0  0.10145689972E-01 -0.73233280868E-02  0.33474877529E-01  0.35750994182E-01  0.10000000475E-02 0. -1.
</event>
<event>
 4   0  0.4892667E-02  0.9118800E+02  0.7818609E-02  0.1379984E+01
      -11   -1    0    0    0    0  0.00000000000E+00  0.00000000000E+00  0.35740347158E-01  0.35744000000E-01  0.51099999109E-03 0. -1.
       11   -1    0    0    0    0 -0.00000000000E+00 -0.00000000000E+00 -0.35740347158E-01  0.35744000000E-01  0.51099999109E-03 0.  1.
       22    1    1    2    0    0 -0.21582610036E-02 -0.11330918334E-01  0.33824337156E-01  0.35737005818E-01  0.00000000000E+00 0. -1.
  9000001    1    1    2    0    0  0.21582610036E-02  0.11330918334E-01 -0.33824337156E-01  0.35750994182E-01  0.10000000475E-02 0.  1.
</event>
<event>
 4   0  0.4892667E-02  0.9118800E+02  0.7818609E-02  0.1379984E+01
      -11   -1    0    0    0    0  0.00000000000E+00  0.00000000000E+00  0.35740347158E-01  0.35744000000E-01  0.51099999109E-03 0.  1.
       11   -1    0    0    0    0 -0.00000000000E+00 -0.00000000000E+00 -0.35740347158E-01  0.35744000000E-01  0.51099999109E-03 0. -1.
       22    1    1    2    0    0 -0.29392329491E-01  0.20235168383E-01  0.19397196857E-02  0.35737005818E-01  0.00000000000E+00 0. -1.
  9000001    1    1    2    0    0  0.29392329491E-01 -0.20235168383E-01 -0.19397196857E-02  0.35750994182E-01  0.10000000475E-02 0.  1.
</event>
<event>
 4   0  0.4892667E-02  0.9118800E+02  0.7818609E-02  0.1379984E+01
      -11   -1    0    0    0    0  0.00000000000E+00  0.00000000000E+00  0.35740347158E-01  0.35744000000E-01  0.51099999109E-03 0.  1.
       11   -1    0    0    0    0 -0.00000000000E+00 -0.00000000000E+00 -0.35740347158E-01  0.35744000000E-01  0.51099999109E-03 0. -1.
       22    1    1    2    0    0  0.62641994572E-02  0.12887020390E-03  0.35183473144E-01  0.35737005818E-01  0.00000000000E+00 0.  1.
  9000001    1    1    2    0    0 -0.62641994572E-02 -0.12887020390E-03 -0.35183473144E-01  0.35750994182E-01  0.10000000475E-02 0. -1.
</event>
<event>
 4   0  0.4892667E-02  0.9118800E+02  0.7818609E-02  0.1379984E+01
      -11   -1    0    0    0    0  0.00000000000E+00  0.00000000000E+00  0.35740347158E-01  0.35744000000E-01  0.51099999109E-03 0.  1.
       11   -1    0    0    0    0 -0.00000000000E+00 -0.00000000000E+00 -0.35740347158E-01  0.35744000000E-01  0.51099999109E-03 0. -1.
       22    1    1    2    0    0 -0.56030075576E-02 -0.38294536952E-02 -0.35086680886E-01  0.35737005818E-01  0.00000000000E+00 0. -1.
  9000001    1    1    2    0    0  0.56030075576E-02  0.38294536952E-02  0.35086680886E-01  0.35750994182E-01  0.10000000475E-02 0.  1.
</event>
<event>
 4   0  0.4892667E-02  0.9118800E+02  0.7818609E-02  0.1379984E+01
      -11   -1    0    0    0    0  0.00000000000E+00  0.00000000000E+00  0.35740347158E-01  0.35744000000E-01  0.51099999109E-03 0.  1.
       11   -1    0    0    0    0 -0.00000000000E+00 -0.00000000000E+00 -0.35740347158E-01  0.35744000000E-01  0.51099999109E-03 0. -1.
       22    1    1    2    0    0 -0.28168923335E-01 -0.16031559743E-01  0.15054382592E-01  0.35737005818E-01  0.00000000000E+00 0.  1.
  9000001    1    1    2    0    0  0.28168923335E-01  0.16031559743E-01 -0.15054382592E-01  0.35750994182E-01  0.10000000475E-02 0. -1.
</event>
<event>
 4   0  0.4892667E-02  0.9118800E+02  0.7818609E-02  0.1379984E+01
      -11   -1    0    0    0    0  0.00000000000E+00  0.00000000000E+00  0.35740347158E-01  0.35744000000E-01  0.51099999109E-03 0. -1.
       11   -1    0    0    0    0 -0.00000000000E+00 -0.00000000000E+00 -0.35740347158E-01  0.35744000000E-01  0.51099999109E-03 0.  1.
       22    1    1    2    0    0 -0.26824807318E-01 -0.14313548664E-01  0.18779926035E-01  0.35737005818E-01  0.00000000000E+00 0. -1.
  9000001    1    1    2    0    0  0.26824807318E-01  0.14313548664E-01 -0.18779926035E-01  0.35750994182E-01  0.10000000475E-02 0.  1.
</event>
<event>
 4   0  0.4892667E-02  0.9118800E+02  0.7818609E-02  0.1379984E+01
      -11   -1    0    0    0    0  0.00000000000E+00  0.00000000000E+00  0.35740347158E-01  0.35744000000E-01  0.51099999109E-03 0.  1.
       11   -1    0    0    0    0 -0.00000000000E+00 -0.00000000000E+00 -0.35740347158E-01  0.35744000000E-01  0.51099999109E-03 0. -1.
       22    1    1    2    0    0 -0.64306536139E-02 -0.70190455870E-02  0.34445802038E-01  0.35737005818E-01  0.00000000000E+00 0.  1.
  9000001    1    1    2    0    0  0.64306536139E-02  0.70190455870E-02 -0.34445802038E-01  0.35750994182E-01  0.10000000475E-02 0. -1.
</event>
<event>
 4   0  0.4892667E-02  0.9118800E+02  0.7818609E-02  0.1379984E+01
      -11   -1    0    0    0    0  0.00000000000E+00  0.00000000000E+00  0.35740347158E-01  0.35744000000E-01  0.51099999109E-03 0.  1.
       11   -1    0    0    0    0 -0.00000000000E+00 -0.00000000000E+00 -0.35740347158E-01  0.35744000000E-01  0.51099999109E-03 0. -1.
       22    1    1    2    0    0 -0.66617521395E-02  0.23793878667E-02 -0.35029889476E-01  0.35737005818E-01  0.00000000000E+00 0. -1.
  9000001    1    1    2    0    0  0.66617521395E-02 -0.23793878667E-02  0.35029889476E-01  0.35750994182E-01  0.10000000475E-02 0.  1.
</event>
<event>
 4   0  0.4892667E-02  0.9118800E+02  0.7818609E-02  0.1379984E+01
      -11   -1    0    0    0    0  0.00000000000E+00  0.00000000000E+00  0.35740347158E-01  0.35744000000E-01  0.51099999109E-03 0.  1.
       11   -1    0    0    0    0 -0.00000000000E+00 -0.00000000000E+00 -0.35740347158E-01  0.35744000000E-01  0.51099999109E-03 0. -1.
       22    1    1    2    0    0  0.30748283839E-01  0.87461200800E-02 -0.15974417341E-01  0.35737005818E-01  0.00000000000E+00 0. -1.
  9000001    1    1    2    0    0 -0.30748283839E-01 -0.87461200800E-02  0.15974417341E-01  0.35750994182E-01  0.10000000475E-02 0.  1.
</event>
<event>
 4   0  0.4892667E-02  0.9118800E+02  0.7818609E-02  0.1379984E+01
      -11   -1    0    0    0    0  0.00000000000E+00  0.00000000000E+00  0.35740347158E-01  0.35744000000E-01  0.51099999109E-03 0.  1.
       11   -1    0    0    0    0 -0.00000000000E+00 -0.00000000000E+00 -0.35740347158E-01  0.35744000000E-01  0.51099999109E-03 0. -1.
       22    1    1    2    0    0 -0.32844671726E-02  0.18547676391E-02 -0.35537384502E-01  0.35737005818E-01  0.00000000000E+00 0. -1.
  9000001    1    1    2    0    0  0.32844671726E-02 -0.18547676391E-02  0.35537384502E-01  0.35750994182E-01  0.10000000475E-02 0.  1.
</event>
<event>
 4   0  0.4892667E-02  0.9118800E+02  0.7818609E-02  0.1379984E+01
      -11   -1    0    0    0    0  0.00000000000E+00  0.00000000000E+00  0.35740347158E-01  0.35744000000E-01  0.51099999109E-03 0.  1.
       11   -1    0    0    0    0 -0.00000000000E+00 -0.00000000000E+00 -0.35740347158E-01  0.35744000000E-01  0.51099999109E-03 0. -1.
       22    1    1    2    0    0 -0.21515463107E-01  0.28520924793E-01  0.88050049677E-03  0.35737005818E-01  0.00000000000E+00 0. -1.
  9000001    1    1    2    0    0  0.21515463107E-01 -0.28520924793E-01 -0.88050049677E-03  0.35750994182E-01  0.10000000475E-02 0.  1.
</event>
<event>
 4   0  0.4892667E-02  0.9118800E+02  0.7818609E-02  0.1379984E+01
      -11   -1    0    0    0    0  0.00000000000E+00  0.00000000000E+00  0.35740347158E-01  0.35744000000E-01  0.51099999109E-03 0. -1.
       11   -1    0    0    0    0 -0.00000000000E+00 -0.00000000000E+00 -0.35740347158E-01  0.35744000000E-01  0.51099999109E-03 0.  1.
       22    1    1    2    0    0 -0.34936210775E-02 -0.13834736728E-02  0.35538911031E-01  0.35737005818E-01  0.00000000000E+00 0. -1.
  9000001    1    1    2    0    0  0.34936210775E-02  0.13834736728E-02 -0.35538911031E-01  0.35750994182E-01  0.10000000475E-02 0.  1.
</event>
<event>
 4   0  0.4892667E-02  0.9118800E+02  0.7818609E-02  0.1379984E+01
      -11   -1    0    0    0    0  0.00000000000E+00  0.00000000000E+00  0.35740347158E-01  0.35744000000E-01  0.51099999109E-03 0.  1.
       11   -1    0    0    0    0 -0.00000000000E+00 -0.00000000000E+00 -0.35740347158E-01  0.35744000000E-01  0.51099999109E-03 0. -1.
       22    1    1    2    0    0 -0.12618712429E-01  0.26534184096E-01 -0.20343027206E-01  0.35737005818E-01  0.00000000000E+00 0. -1.
  9000001    1    1    2    0    0  0.12618712429E-01 -0.26534184096E-01  0.20343027206E-01  0.35750994182E-01  0.10000000475E-02 0.  1.
</event>
<event>
 4   0  0.4892667E-02  0.9118800E+02  0.7818609E-02  0.1379984E+01
      -11   -1    0    0    0    0  0.00000000000E+00  0.00000000000E+00  0.35740347158E-01  0.35744000000E-01  0.51099999109E-03 0. -1.
       11   -1    0    0    0    0 -0.00000000000E+00 -0.00000000000E+00 -0.35740347158E-01  0.35744000000E-01  0.51099999109E-03 0.  1.
       22    1    1    2    0    0  0.11793879044E-01 -0.12984454046E-01  0.31135862845E-01  0.35737005818E-01  0.00000000000E+00 0. -1.
  9000001    1    1    2    0    0 -0.11793879044E-01  0.12984454046E-01 -0.31135862845E-01  0.35750994182E-01  0.10000000475E-02 0.  1.
</event>
<event>
 4   0  0.4892667E-02  0.9118800E+02  0.7818609E-02  0.1379984E+01
      -11   -1    0    0    0    0  0.00000000000E+00  0.00000000000E+00  0.35740347158E-01  0.35744000000E-01  0.51099999109E-03 0. -1.
       11   -1    0    0    0    0 -0.00000000000E+00 -0.00000000000E+00 -0.35740347158E-01  0.35744000000E-01  0.51099999109E-03 0.  1.
       22    1    1    2    0    0  0.40604821173E-02 -0.52332140918E-02  0.35117795206E-01  0.35737005818E-01  0.00000000000E+00 0. -1.
  9000001    1    1    2    0    0 -0.40604821173E-02  0.52332140918E-02 -0.35117795206E-01  0.35750994182E-01  0.10000000475E-02 0.  1.
</event>
<event>
 4   0  0.4892667E-02  0.9118800E+02  0.7818609E-02  0.1379984E+01
      -11   -1    0    0    0    0  0.00000000000E+00  0.00000000000E+00  0.35740347158E-01  0.35744000000E-01  0.51099999109E-03 0. -1.
       11   -1    0    0    0    0 -0.00000000000E+00 -0.00000000000E+00 -0.35740347158E-01  0.35744000000E-01  0.51099999109E-03 0.  1.
       22    1    1    2    0    0  0.31209630358E-01 -0.16471470079E-01 -0.56376618587E-02  0.35737005818E-01  0.00000000000E+00 0.  1.
  9000001    1    1    2    0    0 -0.31209630358E-01  0.16471470079E-01  0.56376618587E-02  0.35750994182E-01  0.10000000475E-02 0. -1.
</event>
<event>
 4   0  0.4892667E-02  0.9118800E+02  0.7818609E-02  0.1379984E+01
      -11   -1    0    0    0    0  0.00000000000E+00  0.00000000000E+00  0.35740347158E-01  0.35744000000E-01  0.51099999109E-03 0. -1.
       11   -1    0    0    0    0 -0.00000000000E+00 -0.00000000000E+00 -0.35740347158E-01  0.35744000000E-01  0.51099999109E-03 0.  1.
       22    1    1    2    0    0  0.50315090887E-02 -0.11965587540E-02 -0.35360793943E-01  0.35737005818E-01  0.00000000000E+00 0.  1.
  9000001    1    1    2    0    0 -0.50315090887E-02  0.11965587540E-02  0.35360793943E-01  0.35750994182E-01  0.10000000475E-02 0. -1.
</event>
<event>
 4   0  0.4892667E-02  0.9118800E+02  0.7818609E-02  0.1379984E+01
      -11   -1    0    0    0    0  0.00000000000E+00  0.00000000000E+00  0.35740347158E-01  0.35744000000E-01  0.51099999109E-03 0. -1.
       11   -1    0    0    0    0 -0.00000000000E+00 -0.00000000000E+00 -0.35740347158E-01  0.35744000000E-01  0.51099999109E-03 0.  1.
       22    1    1    2    0    0 -0.30954069393E-01 -0.17533523985E-01 -0.33992219034E-02  0.35737005818E-01  0.00000000000E+00 0.  1.
  9000001    1    1    2    0    0  0.30954069393E-01  0.17533523985E-01  0.33992219034E-02  0.35750994182E-01  0.10000000475E-02 0. -1.
</event>
<event>
 4   0  0.4892667E-02  0.9118800E+02  0.7818609E-02  0.1379984E+01
      -11   -1    0    0    0    0  0.00000000000E+00  0.00000000000E+00  0.35740347158E-01  0.35744000000E-01  0.51099999109E-03 0.  1.
       11   -1    0    0    0    0 -0.00000000000E+00 -0.00000000000E+00 -0.35740347158E-01  0.35744000000E-01  0.51099999109E-03 0. -1.
       22    1    1    2    0    0 -0.56849855855E-03  0.97262579827E-02 -0.34383285182E-01  0.35737005818E-01  0.00000000000E+00 0. -1.
  9000001    1    1    2    0    0  0.56849855855E-03 -0.97262579827E-02  0.34383285182E-01  0.35750994182E-01  0.10000000475E-02 0.  1.
</event>
<event>
 4   0  0.4892667E-02  0.9118800E+02  0.7818609E-02  0.1379984E+01
      -11   -1    0    0    0    0  0.00000000000E+00  0.00000000000E+00  0.35740347158E-01  0.35744000000E-01  0.51099999109E-03 0. -1.
       11   -1    0    0    0    0 -0.00000000000E+00 -0.00000000000E+00 -0.35740347158E-01  0.35744000000E-01  0.51099999109E-03 0.  1.
       22    1    1    2    0    0  0.14976326517E-01 -0.29127633821E-01  0.14297698309E-01  0.35737005818E-01  0.00000000000E+00 0.  1.
  9000001    1    1    2    0    0 -0.14976326517E-01  0.29127633821E-01 -0.14297698309E-01  0.35750994182E-01  0.10000000475E-02 0. -1.
</event>
<event>
 4   0  0.4892667E-02  0.9118800E+02  0.7818609E-02  0.1379984E+01
      -11   -1    0    0    0    0  0.00000000000E+00  0.00000000000E+00  0.35740347158E-01  0.35744000000E-01  0.51099999109E-03 0.  1.
       11   -1    0    0    0    0 -0.00000000000E+00 -0.00000000000E+00 -0.35740347158E-01  0.35744000000E-01  0.51099999109E-03 0. -1.
       22    1    1    2    0    0 -0.35336899896E-02 -0.13728881378E-02  0.35535359828E-01  0.35737005818E-01  0.00000000000E+00 0.  1.
  9000001    1    1    2    0    0  0.35336899896E-02  0.13728881378E-02 -0.35535359828E-01  0.35750994182E-01  0.10000000475E-02 0. -1.
</event>
<event>
 4   0  0.4892667E-02  0.9118800E+02  0.7818609E-02  0.1379984E+01
      -11   -1    0    0    0    0  0.00000000000E+00  0.00000000000E+00  0.35740347158E-01  0.35744000000E-01  0.51099999109E-03 0.  1.
       11   -1    0    0    0    0 -0.00000000000E+00 -0.00000000000E+00 -0.35740347158E-01  0.35744000000E-01  0.51099999109E-03 0. -1.
       22    1    1    2    0    0 -0.11525208305E-02  0.28368092712E-02  0.35605586553E-01  0.35737005818E-01  0.00000000000E+00 0.  1.
  9000001    1    1    2    0    0  0.11525208305E-02 -0.28368092712E-02 -0.35605586553E-01  0.35750994182E-01  0.10000000475E-02 0. -1.
</event>
<event>
 4   0  0.4892667E-02  0.9118800E+02  0.7818609E-02  0.1379984E+01
      -11   -1    0    0    0    0  0.00000000000E+00  0.00000000000E+00  0.35740347158E-01  0.35744000000E-01  0.51099999109E-03 0. -1.
       11   -1    0    0    0    0 -0.00000000000E+00 -0.00000000000E+00 -0.35740347158E-01  0.35744000000E-01  0.51099999109E-03 0.  1.
       22    1    1    2    0    0  0.15487008553E-01 -0.94675239559E-02  0.30783959152E-01  0.35737005818E-01  0.00000000000E+00 0. -1.
  9000001    1    1    2    0    0 -0.15487008553E-01  0.94675239559E-02 -0.30783959152E-01  0.35750994182E-01  0.10000000475E-02 0.  1.
</event>
<event>
 4   0  0.4892667E-02  0.9118800E+02  0.7818609E-02  0.1379984E+01
      -11   -1    0    0    0    0  0.00000000000E+00  0.00000000000E+00  0.35740347158E-01  0.35744000000E-01  0.51099999109E-03 0.  1.
       11   -1    0    0    0    0 -0.00000000000E+00 -0.00000000000E+00 -0.35740347158E-01  0.35744000000E-01  0.51099999109E-03 0. -1.
       22    1    1    2    0    0  0.11651914809E-01  0.31451598573E-02 -0.33637396386E-01  0.35737005818E-01  0.00000000000E+00 0. -1.
  9000001    1    1    2    0    0 -0.11651914809E-01 -0.31451598573E-02  0.33637396386E-01  0.35750994182E-01  0.10000000475E-02 0.  1.
</event>
<event>
 4   0  0.4892667E-02  0.9118800E+02  0.7818609E-02  0.1379984E+01
      -11   -1    0    0    0    0  0.00000000000E+00  0.00000000000E+00  0.35740347158E-01  0.35744000000E-01  0.51099999109E-03 0. -1.
       11   -1    0    0    0    0 -0.00000000000E+00 -0.00000000000E+00 -0.35740347158E-01  0.35744000000E-01  0.51099999109E-03 0.  1.
       22    1    1    2    0    0  0.16513093800E-01 -0.10344206602E-01 -0.29957448286E-01  0.35737005818E-01  0.00000000000E+00 0.  1.
  9000001    1    1    2    0    0 -0.16513093800E-01  0.10344206602E-01  0.29957448286E-01  0.35750994182E-01  0.10000000475E-02 0. -1.
</event>
<event>
 4   0  0.4892667E-02  0.9118800E+02  0.7818609E-02  0.1379984E+01
      -11   -1    0    0    0    0  0.00000000000E+00  0.00000000000E+00  0.35740347158E-01  0.35744000000E-01  0.51099999109E-03 0.  1.
       11   -1    0    0    0    0 -0.00000000000E+00 -0.00000000000E+00 -0.35740347158E-01  0.35744000000E-01  0.51099999109E-03 0. -1.
       22    1    1    2    0    0  0.62232432774E-02  0.19744294086E-02  0.35135544061E-01  0.35737005818E-01  0.00000000000E+00 0.  1.
  9000001    1    1    2    0    0 -0.62232432774E-02 -0.19744294086E-02 -0.35135544061E-01  0.35750994182E-01  0.10000000475E-02 0. -1.
</event>
<event>
 4   0  0.4892667E-02  0.9118800E+02  0.7818609E-02  0.1379984E+01
      -11   -1    0    0    0    0  0.00000000000E+00  0.00000000000E+00  0.35740347158E-01  0.35744000000E-01  0.51099999109E-03 0. -1.
       11   -1    0    0    0    0 -0.00000000000E+00 -0.00000000000E+00 -0.35740347158E-01  0.35744000000E-01  0.51099999109E-03 0.  1.
       22    1    1    2    0    0 -0.11351321022E-02  0.35674818022E-01 -0.17755052978E-02  0.35737005818E-01  0.00000000000E+00 0.  1.
  9000001    1    1    2    0    0  0.11351321022E-02 -0.35674818022E-01  0.17755052978E-02  0.35750994182E-01  0.10000000475E-02 0. -1.
</event>
<event>
 4   0  0.4892667E-02  0.9118800E+02  0.7818609E-02  0.1379984E+01
      -11   -1    0    0    0    0  0.00000000000E+00  0.00000000000E+00  0.35740347158E-01  0.35744000000E-01  0.51099999109E-03 0. -1.
       11   -1    0    0    0    0 -0.00000000000E+00 -0.00000000000E+00 -0.35740347158E-01  0.35744000000E-01  0.51099999109E-03 0.  1.
       22    1    1    2    0    0  0.41228820392E-02 -0.41460514819E-03 -0.35495964998E-01  0.35737005818E-01  0.00000000000E+00 0.  1.
  9000001    1    1    2    0    0 -0.41228820392E-02  0.41460514819E-03  0.35495964998E-01  0.35750994182E-01  0.10000000475E-02 0. -1.
</event>
<event>
 4   0  0.4892667E-02  0.9118800E+02  0.7818609E-02  0.1379984E+01
      -11   -1    0    0    0    0  0.00000000000E+00  0.00000000000E+00  0.35740347158E-01  0.35744000000E-01  0.51099999109E-03 0.  1.
       11   -1    0    0    0    0 -0.00000000000E+00 -0.00000000000E+00 -0.35740347158E-01  0.35744000000E-01  0.51099999109E-03 0. -1.
       22    1    1    2    0    0 -0.94889510844E-02  0.42987226272E-02 -0.34185002208E-01  0.35737005818E-01  0.00000000000E+00 0. -1.
  9000001    1    1    2    0    0  0.94889510844E-02 -0.42987226272E-02  0.34185002208E-01  0.35750994182E-01  0.10000000475E-02 0.  1.
</event>
<event>
 4   0  0.4892667E-02  0.9118800E+02  0.7818609E-02  0.1379984E+01
      -11   -1    0    0    0    0  0.00000000000E+00  0.00000000000E+00  0.35740347158E-01  0.35744000000E-01  0.51099999109E-03 0.  1.
       11   -1    0    0    0    0 -0.00000000000E+00 -0.00000000000E+00 -0.35740347158E-01  0.35744000000E-01  0.51099999109E-03 0. -1.
       22    1    1    2    0    0  0.21512640754E-02  0.73400507673E-02  0.34908871401E-01  0.35737005818E-01  0.00000000000E+00 0.  1.
  9000001    1    1    2    0    0 -0.21512640754E-02 -0.73400507673E-02 -0.34908871401E-01  0.35750994182E-01  0.10000000475E-02 0. -1.
</event>
<event>
 4   0  0.4892667E-02  0.9118800E+02  0.7818609E-02  0.1379984E+01
      -11   -1    0    0    0    0  0.00000000000E+00  0.00000000000E+00  0.35740347158E-01  0.35744000000E-01  0.51099999109E-03 0. -1.
       11   -1    0    0    0    0 -0.00000000000E+00 -0.00000000000E+00 -0.35740347158E-01  0.35744000000E-01  0.51099999109E-03 0.  1.
       22    1    1    2    0    0  0.59789787485E-02 -0.72410499897E-02  0.34481191874E-01  0.35737005818E-01  0.00000000000E+00 0. -1.
  9000001    1    1    2    0    0 -0.59789787485E-02  0.72410499897E-02 -0.34481191874E-01  0.35750994182E-01  0.10000000475E-02 0.  1.
</event>
<event>
 4   0  0.4892667E-02  0.9118800E+02  0.7818609E-02  0.1379984E+01
      -11   -1    0    0    0    0  0.00000000000E+00  0.00000000000E+00  0.35740347158E-01  0.35744000000E-01  0.51099999109E-03 0. -1.
       11   -1    0    0    0    0 -0.00000000000E+00 -0.00000000000E+00 -0.35740347158E-01  0.35744000000E-01  0.51099999109E-03 0.  1.
       22    1    1    2    0    0  0.46331935557E-02  0.33406373350E-02 -0.35277574244E-01  0.35737005818E-01  0.00000000000E+00 0.  1.
  9000001    1    1    2    0    0 -0.46331935557E-02 -0.33406373350E-02  0.35277574244E-01  0.35750994182E-01  0.10000000475E-02 0. -1.
</event>
<event>
 4   0  0.4892667E-02  0.9118800E+02  0.7818609E-02  0.1379984E+01
      -11   -1    0    0    0    0  0.00000000000E+00  0.00000000000E+00  0.35740347158E-01  0.35744000000E-01  0.51099999109E-03 0.  1.
       11   -1    0    0    0    0 -0.00000000000E+00 -0.00000000000E+00 -0.35740347158E-01  0.35744000000E-01  0.51099999109E-03 0. -1.
       22    1    1    2    0    0 -0.90009497945E-02 -0.50929675468E-04  0.34584879555E-01  0.35737005818E-01  0.00000000000E+00 0.  1.
  9000001    1    1    2    0    0  0.90009497945E-02  0.50929675468E-04 -0.34584879555E-01  0.35750994182E-01  0.10000000475E-02 0. -1.
</event>
<event>
 4   0  0.4892667E-02  0.9118800E+02  0.7818609E-02  0.1379984E+01
      -11   -1    0    0    0    0  0.00000000000E+00  0.00000000000E+00  0.35740347158E-01  0.35744000000E-01  0.51099999109E-03 0. -1.
       11   -1    0    0    0    0 -0.00000000000E+00 -0.00000000000E+00 -0.35740347158E-01  0.35744000000E-01  0.51099999109E-03 0.  1.
       22    1    1    2    0    0  0.53071752522E-02 -0.33600571254E-02 -0.35180640867E-01  0.35737005818E-01  0.00000000000E+00 0.  1.
  9000001    1    1    2    0    0 -0.53071752522E-02  0.33600571254E-02  0.35180640867E-01  0.35750994182E-01  0.10000000475E-02 0. -1.
</event>
<event>
 4   0  0.4892667E-02  0.9118800E+02  0.7818609E-02  0.1379984E+01
      -11   -1    0    0    0    0  0.00000000000E+00  0.00000000000E+00  0.35740347158E-01  0.35744000000E-01  0.51099999109E-03 0. -1.
       11   -1    0    0    0    0 -0.00000000000E+00 -0.00000000000E+00 -0.35740347158E-01  0.35744000000E-01  0.51099999109E-03 0.  1.
       22    1    1    2    0    0 -0.76429934489E-02 -0.36671475950E-02 -0.34717002528E-01  0.35737005818E-01  0.00000000000E+00 0.  1.
  9000001    1    1    2    0    0  0.76429934489E-02  0.36671475950E-02  0.34717002528E-01  0.35750994182E-01  0.10000000475E-02 0. -1.
</event>
<event>
 4   0  0.4892667E-02  0.9118800E+02  0.7818609E-02  0.1379984E+01
      -11   -1    0    0    0    0  0.00000000000E+00  0.00000000000E+00  0.35740347158E-01  0.35744000000E-01  0.51099999109E-03 0. -1.
       11   -1    0    0    0    0 -0.00000000000E+00 -0.00000000000E+00 -0.35740347158E-01  0.35744000000E-01  0.51099999109E-03 0.  1.
       22    1    1    2    0    0  0.71304816683E-02 -0.10612691103E-01  0.33371553809E-01  0.35737005818E-01  0.00000000000E+00 0. -1.
  9000001    1    1    2    0    0 -0.71304816683E-02  0.10612691103E-01 -0.33371553809E-01  0.35750994182E-01  0.10000000475E-02 0.  1.
</event>
<event>
 4   0  0.4892667E-02  0.9118800E+02  0.7818609E-02  0.1379984E+01
      -11   -1    0    0    0    0  0.00000000000E+00  0.00000000000E+00  0.35740347158E-01  0.35744000000E-01  0.51099999109E-03 0.  1.
       11   -1    0    0    0    0 -0.00000000000E+00 -0.00000000000E+00 -0.35740347158E-01  0.35744000000E-01  0.51099999109E-03 0. -1.
       22    1    1    2    0    0  0.34285513349E-02  0.99023544546E-02  0.34166094258E-01  0.35737005818E-01  0.00000000000E+00 0.  1.
  9000001    1    1    2    0    0 -0.34285513349E-02 -0.99023544546E-02 -0.34166094258E-01  0.35750994182E-01  0.10000000475E-02 0. -1.
</event>
<event>
 4   0  0.4892667E-02  0.9118800E+02  0.7818609E-02  0.1379984E+01
      -11   -1    0    0    0    0  0.00000000000E+00  0.00000000000E+00  0.35740347158E-01  0.35744000000E-01  0.51099999109E-03 0. -1.
       11   -1    0    0    0    0 -0.00000000000E+00 -0.00000000000E+00 -0.35740347158E-01  0.35744000000E-01  0.51099999109E-03 0.  1.
       22    1    1    2    0    0  0.37741344242E-02 -0.17209202006E-02 -0.35495463483E-01  0.35737005818E-01  0.00000000000E+00 0.  1.
  9000001    1    1    2    0    0 -0.37741344242E-02  0.17209202006E-02  0.35495463483E-01  0.35750994182E-01  0.10000000475E-02 0. -1.
</event>
<event>
 4   0  0.4892667E-02  0.9118800E+02  0.7818609E-02  0.1379984E+01
      -11   -1    0    0    0    0  0.00000000000E+00  0.00000000000E+00  0.35740347158E-01  0.35744000000E-01  0.51099999109E-03 0. -1.
       11   -1    0    0    0    0 -0.00000000000E+00 -0.00000000000E+00 -0.35740347158E-01  0.35744000000E-01  0.51099999109E-03 0.  1.
       22    1    1    2    0    0 -0.12790680676E-01  0.14775982383E-01  0.29919933445E-01  0.35737005818E-01  0.00000000000E+00 0. -1.
  9000001    1    1    2    0    0  0.12790680676E-01 -0.14775982383E-01 -0.29919933445E-01  0.35750994182E-01  0.10000000475E-02 0.  1.
</event>
<event>
 4   0  0.4892667E-02  0.9118800E+02  0.7818609E-02  0.1379984E+01
      -11   -1    0    0    0    0  0.00000000000E+00  0.00000000000E+00  0.35740347158E-01  0.35744000000E-01  0.51099999109E-03 0.  1.
       11   -1    0    0    0    0 -0.00000000000E+00 -0.00000000000E+00 -0.35740347158E-01  0.35744000000E-01  0.51099999109E-03 0. -1.
       22    1    1    2    0    0 -0.61521599643E-02  0.58492501214E-03  0.35198613259E-01  0.35737005818E-01  0.00000000000E+00 0.  1.
  9000001    1    1    2    0    0  0.61521599643E-02 -0.58492501214E-03 -0.35198613259E-01  0.35750994182E-01  0.10000000475E-02 0. -1.
</event>
<event>
 4   0  0.4892667E-02  0.9118800E+02  0.7818609E-02  0.1379984E+01
      -11   -1    0    0    0    0  0.00000000000E+00  0.00000000000E+00  0.35740347158E-01  0.35744000000E-01  0.51099999109E-03 0.  1.
       11   -1    0    0    0    0 -0.00000000000E+00 -0.00000000000E+00 -0.35740347158E-01  0.35744000000E-01  0.51099999109E-03 0. -1.
       22    1    1    2    0    0  0.95736373877E-03 -0.80457133918E-02 -0.34806372054E-01  0.35737005818E-01  0.00000000000E+00 0. -1.
  9000001    1    1    2    0    0 -0.95736373877E-03  0.80457133918E-02  0.34806372054E-01  0.35750994182E-01  0.10000000475E-02 0.  1.
</event>
<event>
 4   0  0.4892667E-02  0.9118800E+02  0.7818609E-02  0.1379984E+01
      -11   -1    0    0    0    0  0.00000000000E+00  0.00000000000E+00  0.35740347158E-01  0.35744000000E-01  0.51099999109E-03 0.  1.
       11   -1    0    0    0    0 -0.00000000000E+00 -0.00000000000E+00 -0.35740347158E-01  0.35744000000E-01  0.51099999109E-03 0. -1.
       22    1    1    2    0    0  0.73395029813E-02 -0.15056684325E-02 -0.34942785284E-01  0.35737005818E-01  0.00000000000E+00 0. -1.
  9000001    1    1    2    0    0 -0.73395029813E-02  0.15056684325E-02  0.34942785284E-01  0.35750994182E-01  0.10000000475E-02 0.  1.
</event>
<event>
 4   0  0.4892667E-02  0.9118800E+02  0.7818609E-02  0.1379984E+01
      -11   -1    0    0    0    0  0.00000000000E+00  0.00000000000E+00  0.35740347158E-01  0.35744000000E-01  0.51099999109E-03 0. -1.
       11   -1    0    0    0    0 -0.00000000000E+00 -0.00000000000E+00 -0.35740347158E-01  0.35744000000E-01  0.51099999109E-03 0.  1.
       22    1    1    2    0    0 -0.20698285015E-01 -0.28665724338E-01 -0.51952700111E-02  0.35737005818E-01  0.00000000000E+00 0. -1.
  9000001    1    1    2    0    0  0.20698285015E-01  0.28665724338E-01  0.51952700111E-02  0.35750994182E-01  0.10000000475E-02 0.  1.
</event>
<event>
 4   0  0.4892667E-02  0.9118800E+02  0.7818609E-02  0.1379984E+01
      -11   -1    0    0    0    0  0.00000000000E+00  0.00000000000E+00  0.35740347158E-01  0.35744000000E-01  0.51099999109E-03 0. -1.
       11   -1    0    0    0    0 -0.00000000000E+00 -0.00000000000E+00 -0.35740347158E-01  0.35744000000E-01  0.51099999109E-03 0.  1.
       22    1    1    2    0    0  0.74722252309E-02  0.12024427989E-01 -0.32813298623E-01  0.35737005818E-01  0.00000000000E+00 0.  1.
  9000001    1    1    2    0    0 -0.74722252309E-02 -0.12024427989E-01  0.32813298623E-01  0.35750994182E-01  0.10000000475E-02 0. -1.
</event>
<event>
 4   0  0.4892667E-02  0.9118800E+02  0.7818609E-02  0.1379984E+01
      -11   -1    0    0    0    0  0.00000000000E+00  0.00000000000E+00  0.35740347158E-01  0.35744000000E-01  0.51099999109E-03 0. -1.
       11   -1    0    0    0    0 -0.00000000000E+00 -0.00000000000E+00 -0.35740347158E-01  0.35744000000E-01  0.51099999109E-03 0.  1.
       22    1    1    2    0    0  0.27174454352E-02 -0.35421091773E-02 -0.35457052017E-01  0.35737005818E-01  0.00000000000E+00 0.  1.
  9000001    1    1    2    0    0 -0.27174454352E-02  0.35421091773E-02  0.35457052017E-01  0.35750994182E-01  0.10000000475E-02 0. -1.
</event>
<event>
 4   0  0.4892667E-02  0.9118800E+02  0.7818609E-02  0.1379984E+01
      -11   -1    0    0    0    0  0.00000000000E+00  0.00000000000E+00  0.35740347158E-01  0.35744000000E-01  0.51099999109E-03 0.  1.
       11   -1    0    0    0    0 -0.00000000000E+00 -0.00000000000E+00 -0.35740347158E-01  0.35744000000E-01  0.51099999109E-03 0. -1.
       22    1    1    2    0    0 -0.85886763575E-02  0.29500757710E-02 -0.34563930278E-01  0.35737005818E-01  0.00000000000E+00 0. -1.
  9000001    1    1    2    0    0  0.85886763575E-02 -0.29500757710E-02  0.34563930278E-01  0.35750994182E-01  0.10000000475E-02 0.  1.
</event>
<event>
 4   0  0.4892667E-02  0.9118800E+02  0.7818609E-02  0.1379984E+01
      -11   -1    0    0    0    0  0.00000000000E+00  0.00000000000E+00  0.35740347158E-01  0.35744000000E-01  0.51099999109E-03 0.  1.
       11   -1    0    0    0    0 -0.00000000000E+00 -0.00000000000E+00 -0.35740347158E-01  0.35744000000E-01  0.51099999109E-03 0. -1.
       22    1    1    2    0    0  0.11676206879E-01 -0.48880111194E-02 -0.33420160459E-01  0.35737005818E-01  0.00000000000E+00 0. -1.
  9000001    1    1    2    0    0 -0.11676206879E-01  0.48880111194E-02  0.33420160459E-01  0.35750994182E-01  0.10000000475E-02 0.  1.
</event>
<event>
 4   0  0.4892667E-02  0.9118800E+02  0.7818609E-02  0.1379984E+01
      -11   -1    0    0    0    0  0.00000000000E+00  0.00000000000E+00  0.35740347158E-01  0.35744000000E-01  0.51099999109E-03 0.  1.
       11   -1    0    0    0    0 -0.00000000000E+00 -0.00000000000E+00 -0.35740347158E-01  0.35744000000E-01  0.51099999109E-03 0. -1.
       22    1    1    2    0    0 -0.32767467223E-02 -0.22691107274E-02  0.35514048661E-01  0.35737005818E-01  0.00000000000E+00 0.  1.
  9000001    1    1    2    0    0  0.32767467223E-02  0.22691107274E-02 -0.35514048661E-01  0.35750994182E-01  0.10000000475E-02 0. -1.
</event>
<event>
 4   0  0.4892667E-02  0.9118800E+02  0.7818609E-02  0.1379984E+01
      -11   -1    0    0    0    0  0.00000000000E+00  0.00000000000E+00  0.35740347158E-01  0.35744000000E-01  0.51099999109E-03 0.  1.
       11   -1    0    0    0    0 -0.00000000000E+00 -0.00000000000E+00 -0.35740347158E-01  0.35744000000E-01  0.51099999109E-03 0. -1.
       22    1    1    2    0    0 -0.20931495664E-01  0.40579372135E-02  0.28679944556E-01  0.35737005818E-01  0.00000000000E+00 0.  1.
  9000001    1    1    2    0    0  0.20931495664E-01 -0.40579372135E-02 -0.28679944556E-01  0.35750994182E-01  0.10000000475E-02 0. -1.
</event>
<event>
 4   0  0.4892667E-02  0.9118800E+02  0.7818609E-02  0.1379984E+01
      -11   -1    0    0    0    0  0.00000000000E+00  0.00000000000E+00  0.35740347158E-01  0.35744000000E-01  0.51099999109E-03 0.  1.
       11   -1    0    0    0    0 -0.00000000000E+00 -0.00000000000E+00 -0.35740347158E-01  0.35744000000E-01  0.51099999109E-03 0. -1.
       22    1    1    2    0    0  0.21914326968E-01 -0.12026297237E-01 -0.25539460315E-01  0.35737005818E-01  0.00000000000E+00 0. -1.
  9000001    1    1    2    0    0 -0.21914326968E-01  0.12026297237E-01  0.25539460315E-01  0.35750994182E-01  0.10000000475E-02 0.  1.
</event>
<event>
 4   0  0.4892667E-02  0.9118800E+02  0.7818609E-02  0.1379984E+01
      -11   -1    0    0    0    0  0.00000000000E+00  0.00000000000E+00  0.35740347158E-01  0.35744000000E-01  0.51099999109E-03 0.  1.
       11   -1    0    0    0    0 -0.00000000000E+00 -0.00000000000E+00 -0.35740347158E-01  0.35744000000E-01  0.51099999109E-03 0. -1.
       22    1    1    2    0    0  0.80646743484E-02 -0.80928843492E-02  0.33861480113E-01  0.35737005818E-01  0.00000000000E+00 0.  1.
  9000001    1    1    2    0    0 -0.80646743484E-02  0.80928843492E-02 -0.33861480113E-01  0.35750994182E-01  0.10000000475E-02 0. -1.
</event>
<event>
 4   0  0.4892667E-02  0.9118800E+02  0.7818609E-02  0.1379984E+01
      -11   -1    0    0    0    0  0.00000000000E+00  0.00000000000E+00  0.35740347158E-01  0.35744000000E-01  0.51099999109E-03 0.  1.
       11   -1    0    0    0    0 -0.00000000000E+00 -0.00000000000E+00 -0.35740347158E-01  0.35744000000E-01  0.51099999109E-03 0. -1.
       22    1    1    2    0    0 -0.19613197934E-03  0.43399936881E-02  0.35471954723E-01  0.35737005818E-01  0.00000000000E+00 0.  1.
  9000001    1    1    2    0    0  0.19613197934E-03 -0.43399936881E-02 -0.35471954723E-01  0.35750994182E-01  0.10000000475E-02 0. -1.
</event>
<event>
 4   0  0.4892667E-02  0.9118800E+02  0.7818609E-02  0.1379984E+01
      -11   -1    0    0    0    0  0.00000000000E+00  0.00000000000E+00  0.35740347158E-01  0.35744000000E-01  0.51099999109E-03 0. -1.
       11   -1    0    0    0    0 -0.00000000000E+00 -0.00000000000E+00 -0.35740347158E-01  0.35744000000E-01  0.51099999109E-03 0.  1.
       22    1    1    2    0    0  0.96931556255E-02  0.12257948016E-01  0.32139057692E-01  0.35737005818E-01  0.00000000000E+00 0. -1.
  9000001    1    1    2    0    0 -0.96931556255E-02 -0.12257948016E-01 -0.32139057692E-01  0.35750994182E-01  0.10000000475E-02 0.  1.
</event>
<event>
 4   0  0.4892667E-02  0.9118800E+02  0.7818609E-02  0.1379984E+01
      -11   -1    0    0    0    0  0.00000000000E+00  0.00000000000E+00  0.35740347158E-01  0.35744000000E-01  0.51099999109E-03 0.  1.
       11   -1    0    0    0    0 -0.00000000000E+00 -0.00000000000E+00 -0.35740347158E-01  0.35744000000E-01  0.51099999109E-03 0. -1.
       22    1    1    2    0    0  0.66274186415E-02  0.12503306131E-02  0.35094836948E-01  0.35737005818E-01  0.00000000000E+00 0.  1.
  9000001    1    1    2    0    0 -0.66274186415E-02 -0.12503306131E-02 -0.35094836948E-01  0.35750994182E-01  0.10000000475E-02 0. -1.
</event>
<event>
 4   0  0.4892667E-02  0.9118800E+02  0.7818609E-02  0.1379984E+01
      -11   -1    0    0    0    0  0.00000000000E+00  0.00000000000E+00  0.35740347158E-01  0.35744000000E-01  0.51099999109E-03 0.  1.
       11   -1    0    0    0    0 -0.00000000000E+00 -0.00000000000E+00 -0.35740347158E-01  0.35744000000E-01  0.51099999109E-03 0. -1.
       22    1    1    2    0    0  0.10578147608E-01 -0.36553153118E-02  0.33939284731E-01  0.35737005818E-01  0.00000000000E+00 0.  1.
  9000001    1    1    2    0    0 -0.10578147608E-01  0.36553153118E-02 -0.33939284731E-01  0.35750994182E-01  0.10000000475E-02 0. -1.
</event>
<event>
 4   0  0.4892667E-02  0.9118800E+02  0.7818609E-02  0.1379984E+01
      -11   -1    0    0    0    0  0.00000000000E+00  0.00000000000E+00  0.35740347158E-01  0.35744000000E-01  0.51099999109E-03 0. -1.
       11   -1    0    0    0    0 -0.00000000000E+00 -0.00000000000E+00 -0.35740347158E-01  0.35744000000E-01  0.51099999109E-03 0.  1.
       22    1    1    2    0    0  0.10826834864E-01 -0.31439876791E-02  0.33912071201E-01  0.35737005818E-01  0.00000000000E+00 0. -1.
  9000001    1    1    2    0    0 -0.10826834864E-01  0.31439876791E-02 -0.33912071201E-01  0.35750994182E-01  0.10000000475E-02 0.  1.
</event>
<event>
 4   0  0.4892667E-02  0.9118800E+02  0.7818609E-02  0.1379984E+01
      -11   -1    0    0    0    0  0.00000000000E+00  0.00000000000E+00  0.35740347158E-01  0.35744000000E-01  0.51099999109E-03 0.  1.
       11   -1    0    0    0    0 -0.00000000000E+00 -0.00000000000E+00 -0.35740347158E-01  0.35744000000E-01  0.51099999109E-03 0. -1.
       22    1    1    2    0    0  0.79853393604E-02 -0.35249893901E-02  0.34654615709E-01  0.35737005818E-01  0.00000000000E+00 0.  1.
  9000001    1    1    2    0    0 -0.79853393604E-02  0.35249893901E-02 -0.34654615709E-01  0.35750994182E-01  0.10000000475E-02 0. -1.
</event>
<event>
 4   0  0.4892667E-02  0.9118800E+02  0.7818609E-02  0.1379984E+01
      -11   -1    0    0    0    0  0.00000000000E+00  0.00000000000E+00  0.35740347158E-01  0.35744000000E-01  0.51099999109E-03 0.  1.
       11   -1    0    0    0    0 -0.00000000000E+00 -0.00000000000E+00 -0.35740347158E-01  0.35744000000E-01  0.51099999109E-03 0. -1.
       22    1    1    2    0    0  0.38785823079E-02 -0.75817997482E-03 -0.35517817321E-01  0.35737005818E-01  0.00000000000E+00 0. -1.
  9000001    1    1    2    0    0 -0.38785823079E-02  0.75817997482E-03  0.35517817321E-01  0.35750994182E-01  0.10000000475E-02 0.  1.
</event>
<event>
 4   0  0.4892667E-02  0.9118800E+02  0.7818609E-02  0.1379984E+01
      -11   -1    0    0    0    0  0.00000000000E+00  0.00000000000E+00  0.35740347158E-01  0.35744000000E-01  0.51099999109E-03 0. -1.
       11   -1    0    0    0    0 -0.00000000000E+00 -0.00000000000E+00 -0.35740347158E-01  0.35744000000E-01  0.51099999109E-03 0.  1.
       22    1    1    2    0    0  0.65227894713E-04  0.28632379110E-01 -0.21384952576E-01  0.35737005818E-01  0.00000000000E+00 0.  1.
  9000001    1    1    2    0    0 -0.65227894713E-04 -0.28632379110E-01  0.21384952576E-01  0.35750994182E-01  0.10000000475E-02 0. -1.
</event>
<event>
 4   0  0.4892667E-02  0.9118800E+02  0.7818609E-02  0.1379984E+01
      -11   -1    0    0    0    0  0.00000000000E+00  0.00000000000E+00  0.35740347158E-01  0.35744000000E-01  0.51099999109E-03 0.  1.
       11   -1    0    0    0    0 -0.00000000000E+00 -0.00000000000E+00 -0.35740347158E-01  0.35744000000E-01  0.51099999109E-03 0. -1.
       22    1    1    2    0    0 -0.86772251662E-02  0.15961377881E-01  0.30774563595E-01  0.35737005818E-01  0.00000000000E+00 0.  1.
  9000001    1    1    2    0    0  0.86772251662E-02 -0.15961377881E-01 -0.30774563595E-01  0.35750994182E-01  0.10000000475E-02 0. -1.
</event>
<event>
 4   0  0.4892667E-02  0.9118800E+02  0.7818609E-02  0.1379984E+01
      -11   -1    0    0    0    0  0.00000000000E+00  0.00000000000E+00  0.35740347158E-01  0.35744000000E-01  0.51099999109E-03 0. -1.
       11   -1    0    0    0    0 -0.00000000000E+00 -0.00000000000E+00 -0.35740347158E-01  0.35744000000E-01  0.51099999109E-03 0.  1.
       22    1    1    2    0    0 -0.37352783601E-02 -0.54167323663E-02 -0.35126062844E-01  0.35737005818E-01  0.00000000000E+00 0.  1.
  9000001    1    1    2    0    0  0.37352783601E-02  0.54167323663E-02  0.35126062844E-01  0.35750994182E-01  0.10000000475E-02 0. -1.
</event>
<event>
 4   0  0.4892667E-02  0.9118800E+02  0.7818609E-02  0.1379984E+01
      -11   -1    0    0    0    0  0.00000000000E+00  0.00000000000E+00  0.35740347158E-01  0.35744000000E-01  0.51099999109E-03 0. -1.
       11   -1    0    0    0    0 -0.00000000000E+00 -0.00000000000E+00 -0.35740347158E-01  0.35744000000E-01  0.51099999109E-03 0.  1.
       22    1    1    2    0    0  0.70097804679E-02  0.34518171668E-02 -0.34872360415E-01  0.35737005818E-01  0.00000000000E+00 0.  1.
  9000001    1    1    2    0    0 -0.70097804679E-02 -0.34518171668E-02  0.34872360415E-01  0.35750994182E-01  0.10000000475E-02 0. -1.
</event>
<event>
 4   0  0.4892667E-02  0.9118800E+02  0.7818609E-02  0.1379984E+01
      -11   -1    0    0    0    0  0.00000000000E+00  0.00000000000E+00  0.35740347158E-01  0.35744000000E-01  0.51099999109E-03 0.  1.
       11   -1    0    0    0    0 -0.00000000000E+00 -0.00000000000E+00 -0.35740347158E-01  0.35744000000E-01  0.51099999109E-03 0. -1.
       22    1    1    2    0    0  0.10782827686E-01  0.21478253103E-01  0.26448985909E-01  0.35737005818E-01  0.00000000000E+00 0.  1.
  9000001    1    1    2    0    0 -0.10782827686E-01 -0.21478253103E-01 -0.26448985909E-01  0.35750994182E-01  0.10000000475E-02 0. -1.
</event>
<event>
 4   0  0.4892667E-02  0.9118800E+02  0.7818609E-02  0.1379984E+01
      -11   -1    0    0    0    0  0.00000000000E+00  0.00000000000E+00  0.35740347158E-01  0.35744000000E-01  0.51099999109E-03 0. -1.
       11   -1    0    0    0    0 -0.00000000000E+00 -0.00000000000E+00 -0.35740347158E-01  0.35744000000E-01  0.51099999109E-03 0.  1.
       22    1    1    2    0    0 -0.25781009720E-02  0.46299684321E-02  0.35341906748E-01  0.35737005818E-01  0.00000000000E+00 0. -1.
  9000001    1    1    2    0    0  0.25781009720E-02 -0.46299684321E-02 -0.35341906748E-01  0.35750994182E-01  0.10000000475E-02 0.  1.
</event>
<event>
 4   0  0.4892667E-02  0.9118800E+02  0.7818609E-02  0.1379984E+01
      -11   -1    0    0    0    0  0.00000000000E+00  0.00000000000E+00  0.35740347158E-01  0.35744000000E-01  0.51099999109E-03 0. -1.
       11   -1    0    0    0    0 -0.00000000000E+00 -0.00000000000E+00 -0.35740347158E-01  0.35744000000E-01  0.51099999109E-03 0.  1.
       22    1    1    2    0    0  0.55788895121E-02  0.68600900868E-02  0.34625839205E-01  0.35737005818E-01  0.00000000000E+00 0. -1.
  9000001    1    1    2    0    0 -0.55788895121E-02 -0.68600900868E-02 -0.34625839205E-01  0.35750994182E-01  0.10000000475E-02 0.  1.
</event>
<event>
 4   0  0.4892667E-02  0.9118800E+02  0.7818609E-02  0.1379984E+01
      -11   -1    0    0    0    0  0.00000000000E+00  0.00000000000E+00  0.35740347158E-01  0.35744000000E-01  0.51099999109E-03 0. -1.
       11   -1    0    0    0    0 -0.00000000000E+00 -0.00000000000E+00 -0.35740347158E-01  0.35744000000E-01  0.51099999109E-03 0.  1.
       22    1    1    2    0    0 -0.48338540253E-02  0.12071994894E-02  0.35387993861E-01  0.35737005818E-01  0.00000000000E+00 0. -1.
  9000001    1    1    2    0    0  0.48338540253E-02 -0.12071994894E-02 -0.35387993861E-01  0.35750994182E-01  0.10000000475E-02 0.  1.
</event>
<event>
 4   0  0.4892667E-02  0.9118800E+02  0.7818609E-02  0.1379984E+01
      -11   -1    0    0    0    0  0.00000000000E+00  0.00000000000E+00  0.35740347158E-01  0.35744000000E-01  0.51099999109E-03 0.  1.
       11   -1    0    0    0    0 -0.00000000000E+00 -0.00000000000E+00 -0.35740347158E-01  0.35744000000E-01  0.51099999109E-03 0. -1.
       22    1    1    2    0    0 -0.27129045086E-01  0.21744016126E-03 -0.23261582435E-01  0.35737005818E-01  0.00000000000E+00 0. -1.
  9000001    1    1    2    0    0  0.27129045086E-01 -0.21744016126E-03  0.23261582435E-01  0.35750994182E-01  0.10000000475E-02 0.  1.
</event>
<event>
 4   0  0.4892667E-02  0.9118800E+02  0.7818609E-02  0.1379984E+01
      -11   -1    0    0    0    0  0.00000000000E+00  0.00000000000E+00  0.35740347158E-01  0.35744000000E-01  0.51099999109E-03 0. -1.
       11   -1    0    0    0    0 -0.00000000000E+00 -0.00000000000E+00 -0.35740347158E-01  0.35744000000E-01  0.51099999109E-03 0.  1.
       22    1    1    2    0    0  0.90746652149E-02 -0.22536249798E-02  0.34492103597E-01  0.35737005818E-01  0.00000000000E+00 0. -1.
  9000001    1    1    2    0    0 -0.90746652149E-02  0.22536249798E-02 -0.34492103597E-01  0.35750994182E-01  0.10000000475E-02 0.  1.
</event>
<event>
 4   0  0.4892667E-02  0.9118800E+02  0.7818609E-02  0.1379984E+01
      -11   -1    0    0    0    0  0.00000000000E+00  0.00000000000E+00  0.35740347158E-01  0.35744000000E-01  0.51099999109E-03 0. -1.
       11   -1    0    0    0    0 -0.00000000000E+00 -0.00000000000E+00 -0.35740347158E-01  0.35744000000E-01  0.51099999109E-03 0.  1.
       22    1    1    2    0    0 -0.90093405906E-02 -0.97585106007E-03 -0.34568961247E-01  0.35737005818E-01  0.00000000000E+00 0.  1.
  9000001    1    1    2    0    0  0.90093405906E-02  0.97585106007E-03  0.34568961247E-01  0.35750994182E-01  0.10000000475E-02 0. -1.
</event>
<event>
 4   0  0.4892667E-02  0.9118800E+02  0.7818609E-02  0.1379984E+01
      -11   -1    0    0    0    0  0.00000000000E+00  0.00000000000E+00  0.35740347158E-01  0.35744000000E-01  0.51099999109E-03 0. -1.
       11   -1    0    0    0    0 -0.00000000000E+00 -0.00000000000E+00 -0.35740347158E-01  0.35744000000E-01  0.51099999109E-03 0.  1.
       22    1    1    2    0    0  0.55935651624E-02  0.67341317980E-02 -0.34648190177E-01  0.35737005818E-01  0.00000000000E+00 0.  1.
  9000001    1    1    2    0    0 -0.55935651624E-02 -0.67341317980E-02  0.34648190177E-01  0.35750994182E-01  0.10000000475E-02 0. -1.
</event>
<event>
 4   0  0.4892667E-02  0.9118800E+02  0.7818609E-02  0.1379984E+01
      -11   -1    0    0    0    0  0.00000000000E+00  0.00000000000E+00  0.35740347158E-01  0.35744000000E-01  0.51099999109E-03 0. -1.
       11   -1    0    0    0    0 -0.00000000000E+00 -0.00000000000E+00 -0.35740347158E-01  0.35744000000E-01  0.51099999109E-03 0.  1.
       22    1    1    2    0    0 -0.40431588454E-02  0.17931050392E-01 -0.30647412342E-01  0.35737005818E-01  0.00000000000E+00 0.  1.
  9000001    1    1    2    0    0  0.40431588454E-02 -0.17931050392E-01  0.30647412342E-01  0.35750994182E-01  0.10000000475E-02 0. -1.
</event>
<event>
 4   0  0.4892667E-02  0.9118800E+02  0.7818609E-02  0.1379984E+01
      -11   -1    0    0    0    0  0.00000000000E+00  0.00000000000E+00  0.35740347158E-01  0.35744000000E-01  0.51099999109E-03 0.  1.
       11   -1    0    0    0    0 -0.00000000000E+00 -0.00000000000E+00 -0.35740347158E-01  0.35744000000E-01  0.51099999109E-03 0. -1.
       22    1    1    2    0    0  0.12530329117E-01  0.31379476350E-02  0.33320830148E-01  0.35737005818E-01  0.00000000000E+00 0.  1.
  9000001    1    1    2    0    0 -0.12530329117E-01 -0.31379476350E-02 -0.33320830148E-01  0.35750994182E-01  0.10000000475E-02 0. -1.
</event>
<event>
 4   0  0.4892667E-02  0.9118800E+02  0.7818609E-02  0.1379984E+01
      -11   -1    0    0    0    0  0.00000000000E+00  0.00000000000E+00  0.35740347158E-01  0.35744000000E-01  0.51099999109E-03 0. -1.
       11   -1    0    0    0    0 -0.00000000000E+00 -0.00000000000E+00 -0.35740347158E-01  0.35744000000E-01  0.51099999109E-03 0.  1.
       22    1    1    2    0    0 -0.35751869497E-02 -0.38647822595E-02  0.35347066091E-01  0.35737005818E-01  0.00000000000E+00 0. -1.
  9000001    1    1    2    0    0  0.35751869497E-02  0.38647822595E-02 -0.35347066091E-01  0.35750994182E-01  0.10000000475E-02 0.  1.
</event>
<event>
 4   0  0.4892667E-02  0.9118800E+02  0.7818609E-02  0.1379984E+01
      -11   -1    0    0    0    0  0.00000000000E+00  0.00000000000E+00  0.35740347158E-01  0.35744000000E-01  0.51099999109E-03 0.  1.
       11   -1    0    0    0    0 -0.00000000000E+00 -0.00000000000E+00 -0.35740347158E-01  0.35744000000E-01  0.51099999109E-03 0. -1.
       22    1    1    2    0    0  0.15711879404E-02 -0.13796856953E-01 -0.32928888404E-01  0.35737005818E-01  0.00000000000E+00 0. -1.
  9000001    1    1    2    0    0 -0.15711879404E-02  0.13796856953E-01  0.32928888404E-01  0.35750994182E-01  0.10000000475E-02 0.  1.
</event>
<event>
 4   0  0.4892667E-02  0.9118800E+02  0.7818609E-02  0.1379984E+01
      -11   -1    0    0    0    0  0.00000000000E+00  0.00000000000E+00  0.35740347158E-01  0.35744000000E-01  0.51099999109E-03 0. -1.
       11   -1    0    0    0    0 -0.00000000000E+00 -0.00000000000E+00 -0.35740347158E-01  0.35744000000E-01  0.51099999109E-03 0.  1.
       22    1    1    2    0    0 -0.56547085826E-02 -0.12379714824E-01  0.33043917997E-01  0.35737005818E-01  0.00000000000E+00 0. -1.
  9000001    1    1    2    0    0  0.56547085826E-02  0.12379714824E-01 -0.33043917997E-01  0.35750994182E-01  0.10000000475E-02 0.  1.
</event>
<event>
 4   0  0.4892667E-02  0.9118800E+02  0.7818609E-02  0.1379984E+01
      -11   -1    0    0    0    0  0.00000000000E+00  0.00000000000E+00  0.35740347158E-01  0.35744000000E-01  0.51099999109E-03 0.  1.
       11   -1    0    0    0    0 -0.00000000000E+00 -0.00000000000E+00 -0.35740347158E-01  0.35744000000E-01  0.51099999109E-03 0. -1.
       22    1    1    2    0    0  0.12654092206E-01  0.32300912810E-01 -0.85824569303E-02  0.35737005818E-01  0.00000000000E+00 0. -1.
  9000001    1    1    2    0    0 -0.12654092206E-01 -0.32300912810E-01  0.85824569303E-02  0.35750994182E-01  0.10000000475E-02 0.  1.
</event>
<event>
 4   0  0.4892667E-02  0.9118800E+02  0.7818609E-02  0.1379984E+01
      -11   -1    0    0    0    0  0.00000000000E+00  0.00000000000E+00  0.35740347158E-01  0.35744000000E-01  0.51099999109E-03 0. -1.
       11   -1    0    0    0    0 -0.00000000000E+00 -0.00000000000E+00 -0.35740347158E-01  0.35744000000E-01  0.51099999109E-03 0.  1.
       22    1    1    2    0    0  0.32599518603E-02 -0.10562659286E-01 -0.33984357101E-01  0.35737005818E-01  0.00000000000E+00 0.  1.
  9000001    1    1    2    0    0 -0.32599518603E-02  0.10562659286E-01  0.33984357101E-01  0.35750994182E-01  0.10000000475E-02 0. -1.
</event>
<event>
 4   0  0.4892667E-02  0.9118800E+02  0.7818609E-02  0.1379984E+01
      -11   -1    0    0    0    0  0.00000000000E+00  0.00000000000E+00  0.35740347158E-01  0.35744000000E-01  0.51099999109E-03 0. -1.
       11   -1    0    0    0    0 -0.00000000000E+00 -0.00000000000E+00 -0.35740347158E-01  0.35744000000E-01  0.51099999109E-03 0.  1.
       22    1    1    2    0    0 -0.28195395775E-01  0.21878342351E-01  0.18685229266E-02  0.35737005818E-01  0.00000000000E+00 0. -1.
  9000001    1    1    2    0    0  0.28195395775E-01 -0.21878342351E-01 -0.18685229266E-02  0.35750994182E-01  0.10000000475E-02 0.  1.
</event>
<event>
 4   0  0.4892667E-02  0.9118800E+02  0.7818609E-02  0.1379984E+01
      -11   -1    0    0    0    0  0.00000000000E+00  0.00000000000E+00  0.35740347158E-01  0.35744000000E-01  0.51099999109E-03 0.  1.
       11   -1    0    0    0    0 -0.00000000000E+00 -0.00000000000E+00 -0.35740347158E-01  0.35744000000E-01  0.51099999109E-03 0. -1.
       22    1    1    2    0    0 -0.95232114283E-02  0.29599382212E-02 -0.34317354133E-01  0.35737005818E-01  0.00000000000E+00 0. -1.
  9000001    1    1    2    0    0  0.95232114283E-02 -0.29599382212E-02  0.34317354133E-01  0.35750994182E-01  0.10000000475E-02 0.  1.
</event>
<event>
 4   0  0.4892667E-02  0.9118800E+02  0.7818609E-02  0.1379984E+01
      -11   -1    0    0    0    0  0.00000000000E+00  0.00000000000E+00  0.35740347158E-01  0.35744000000E-01  0.51099999109E-03 0. -1.
       11   -1    0    0    0    0 -0.00000000000E+00 -0.00000000000E+00 -0.35740347158E-01  0.35744000000E-01  0.51099999109E-03 0.  1.
       22    1    1    2    0    0  0.27776979518E-01 -0.17432354360E-01  0.14201620161E-01  0.35737005818E-01  0.00000000000E+00 0. -1.
  9000001    1    1    2    0    0 -0.27776979518E-01  0.17432354360E-01 -0.14201620161E-01  0.35750994182E-01  0.10000000475E-02 0.  1.
</event>
<event>
 4   0  0.4892667E-02  0.9118800E+02  0.7818609E-02  0.1379984E+01
      -11   -1    0    0    0    0  0.00000000000E+00  0.00000000000E+00  0.35740347158E-01  0.35744000000E-01  0.51099999109E-03 0. -1.
       11   -1    0    0    0    0 -0.00000000000E+00 -0.00000000000E+00 -0.35740347158E-01  0.35744000000E-01  0.51099999109E-03 0.  1.
       22    1    1    2    0    0  0.79832696369E-02 -0.32168998231E-02  0.34685047878E-01  0.35737005818E-01  0.00000000000E+00 0. -1.
  9000001    1    1    2    0    0 -0.79832696369E-02  0.32168998231E-02 -0.34685047878E-01  0.35750994182E-01  0.10000000475E-02 0.  1.
</event>
<event>
 4   0  0.4892667E-02  0.9118800E+02  0.7818609E-02  0.1379984E+01
      -11   -1    0    0    0    0  0.00000000000E+00  0.00000000000E+00  0.35740347158E-01  0.35744000000E-01  0.51099999109E-03 0.  1.
       11   -1    0    0    0    0 -0.00000000000E+00 -0.00000000000E+00 -0.35740347158E-01  0.35744000000E-01  0.51099999109E-03 0. -1.
       22    1    1    2    0    0 -0.73688491338E-02 -0.85628412805E-02  0.33904445085E-01  0.35737005818E-01  0.00000000000E+00 0.  1.
  9000001    1    1    2    0    0  0.73688491338E-02  0.85628412805E-02 -0.33904445085E-01  0.35750994182E-01  0.10000000475E-02 0. -1.
</event>
<event>
 4   0  0.4892667E-02  0.9118800E+02  0.7818609E-02  0.1379984E+01
      -11   -1    0    0    0    0  0.00000000000E+00  0.00000000000E+00  0.35740347158E-01  0.35744000000E-01  0.51099999109E-03 0.  1.
       11   -1    0    0    0    0 -0.00000000000E+00 -0.00000000000E+00 -0.35740347158E-01  0.35744000000E-01  0.51099999109E-03 0. -1.
       22    1    1    2    0    0  0.15135427140E-01  0.14301596486E-01  0.29043360138E-01  0.35737005818E-01  0.00000000000E+00 0.  1.
  9000001    1    1    2    0    0 -0.15135427140E-01 -0.14301596486E-01 -0.29043360138E-01  0.35750994182E-01  0.10000000475E-02 0. -1.
</event>
<event>
 4   0  0.4892667E-02  0.9118800E+02  0.7818609E-02  0.1379984E+01
      -11   -1    0    0    0    0  0.00000000000E+00  0.00000000000E+00  0.35740347158E-01  0.35744000000E-01  0.51099999109E-03 0. -1.
       11   -1    0    0    0    0 -0.00000000000E+00 -0.00000000000E+00 -0.35740347158E-01  0.35744000000E-01  0.51099999109E-03 0.  1.
       22    1    1    2    0    0  0.43261899260E-02  0.64373267432E-02 -0.34885218790E-01  0.35737005818E-01  0.00000000000E+00 0.  1.
  9000001    1    1    2    0    0 -0.43261899260E-02 -0.64373267432E-02  0.34885218790E-01  0.35750994182E-01  0.10000000475E-02 0. -1.
</event>
<event>
 4   0  0.4892667E-02  0.9118800E+02  0.7818609E-02  0.1379984E+01
      -11   -1    0    0    0    0  0.00000000000E+00  0.00000000000E+00  0.35740347158E-01  0.35744000000E-01  0.51099999109E-03 0. -1.
       11   -1    0    0    0    0 -0.00000000000E+00 -0.00000000000E+00 -0.35740347158E-01  0.35744000000E-01  0.51099999109E-03 0.  1.
       22    1    1    2    0    0 -0.20100675129E-01 -0.15102976905E-02 -0.29509582259E-01  0.35737005818E-01  0.00000000000E+00 0.  1.
  9000001    1    1    2    0    0  0.20100675129E-01  0.15102976905E-02  0.29509582259E-01  0.35750994182E-01  0.10000000475E-02 0. -1.
</event>
<event>
 4   0  0.4892667E-02  0.9118800E+02  0.7818609E-02  0.1379984E+01
      -11   -1    0    0    0    0  0.00000000000E+00  0.00000000000E+00  0.35740347158E-01  0.35744000000E-01  0.51099999109E-03 0.  1.
       11   -1    0    0    0    0 -0.00000000000E+00 -0.00000000000E+00 -0.35740347158E-01  0.35744000000E-01  0.51099999109E-03 0. -1.
       22    1    1    2    0    0 -0.59753614821E-02 -0.11952581487E-01  0.33144598894E-01  0.35737005818E-01  0.00000000000E+00 0.  1.
  9000001    1    1    2    0    0  0.59753614821E-02  0.11952581487E-01 -0.33144598894E-01  0.35750994182E-01  0.10000000475E-02 0. -1.
</event>
<event>
 4   0  0.4892667E-02  0.9118800E+02  0.7818609E-02  0.1379984E+01
      -11   -1    0    0    0    0  0.00000000000E+00  0.00000000000E+00  0.35740347158E-01  0.35744000000E-01  0.51099999109E-03 0.  1.
       11   -1    0    0    0    0 -0.00000000000E+00 -0.00000000000E+00 -0.35740347158E-01  0.35744000000E-01  0.51099999109E-03 0. -1.
       22    1    1    2    0    0  0.21435034828E-01  0.28568838642E-01 -0.12224260445E-02  0.35737005818E-01  0.00000000000E+00 0. -1.
  9000001    1    1    2    0    0 -0.21435034828E-01 -0.28568838642E-01  0.12224260445E-02  0.35750994182E-01  0.10000000475E-02 0.  1.
</event>
<event>
 4   0  0.4892667E-02  0.9118800E+02  0.7818609E-02  0.1379984E+01
      -11   -1    0    0    0    0  0.00000000000E+00  0.00000000000E+00  0.35740347158E-01  0.35744000000E-01  0.51099999109E-03 0. -1.
       11   -1    0    0    0    0 -0.00000000000E+00 -0.00000000000E+00 -0.35740347158E-01  0.35744000000E-01  0.51099999109E-03 0.  1.
       22    1    1    2    0    0  0.17941096976E-01 -0.65422766675E-02 -0.30206774740E-01  0.35737005818E-01  0.00000000000E+00 0.  1.
  9000001    1    1    2    0    0 -0.17941096976E-01  0.65422766675E-02  0.30206774740E-01  0.35750994182E-01  0.10000000475E-02 0. -1.
</event>
<event>
 4   0  0.4892667E-02  0.9118800E+02  0.7818609E-02  0.1379984E+01
      -11   -1    0    0    0    0  0.00000000000E+00  0.00000000000E+00  0.35740347158E-01  0.35744000000E-01  0.51099999109E-03 0. -1.
       11   -1    0    0    0    0 -0.00000000000E+00 -0.00000000000E+00 -0.35740347158E-01  0.35744000000E-01  0.51099999109E-03 0.  1.
       22    1    1    2    0    0  0.50335926525E-02  0.35170673104E-01 -0.38497121088E-02  0.35737005818E-01  0.00000000000E+00 0.  1.
  9000001    1    1    2    0    0 -0.50335926525E-02 -0.35170673104E-01  0.38497121088E-02  0.35750994182E-01  0.10000000475E-02 0. -1.
</event>
<event>
 4   0  0.4892667E-02  0.9118800E+02  0.7818609E-02  0.1379984E+01
      -11   -1    0    0    0    0  0.00000000000E+00  0.00000000000E+00  0.35740347158E-01  0.35744000000E-01  0.51099999109E-03 0.  1.
       11   -1    0    0    0    0 -0.00000000000E+00 -0.00000000000E+00 -0.35740347158E-01  0.35744000000E-01  0.51099999109E-03 0. -1.
       22    1    1    2    0    0  0.12388914004E-02 -0.19758901996E-01  0.29752050767E-01  0.35737005818E-01  0.00000000000E+00 0.  1.
  9000001    1    1    2    0    0 -0.12388914004E-02  0.19758901996E-01 -0.29752050767E-01  0.35750994182E-01  0.10000000475E-02 0. -1.
</event>
<event>
 4   0  0.4892667E-02  0.9118800E+02  0.7818609E-02  0.1379984E+01
      -11   -1    0    0    0    0  0.00000000000E+00  0.00000000000E+00  0.35740347158E-01  0.35744000000E-01  0.51099999109E-03 0. -1.
       11   -1    0    0    0    0 -0.00000000000E+00 -0.00000000000E+00 -0.35740347158E-01  0.35744000000E-01  0.51099999109E-03 0.  1.
       22    1    1    2    0    0 -0.76371121858E-02 -0.13629038597E-01  0.32141210451E-01  0.35737005818E-01  0.00000000000E+00 0. -1.
  9000001    1    1    2    0    0  0.76371121858E-02  0.13629038597E-01 -0.32141210451E-01  0.35750994182E-01  0.10000000475E-02 0.  1.
</event>
<event>
 4   0  0.4892667E-02  0.9118800E+02  0.7818609E-02  0.1379984E+01
      -11   -1    0    0    0    0  0.00000000000E+00  0.00000000000E+00  0.35740347158E-01  0.35744000000E-01  0.51099999109E-03 0.  1.
       11   -1    0    0    0    0 -0.00000000000E+00 -0.00000000000E+00 -0.35740347158E-01  0.35744000000E-01  0.51099999109E-03 0. -1.
       22    1    1    2    0    0 -0.75569037511E-03 -0.77716319015E-02 -0.34873546629E-01  0.35737005818E-01  0.00000000000E+00 0. -1.
  9000001    1    1    2    0    0  0.75569037511E-03  0.77716319015E-02  0.34873546629E-01  0.35750994182E-01  0.10000000475E-02 0.  1.
</event>
<event>
 4   0  0.4892667E-02  0.9118800E+02  0.7818609E-02  0.1379984E+01
      -11   -1    0    0    0    0  0.00000000000E+00  0.00000000000E+00  0.35740347158E-01  0.35744000000E-01  0.51099999109E-03 0. -1.
       11   -1    0    0    0    0 -0.00000000000E+00 -0.00000000000E+00 -0.35740347158E-01  0.35744000000E-01  0.51099999109E-03 0.  1.
       22    1    1    2    0    0 -0.23302682144E-01  0.53144444777E-02 -0.26568313263E-01  0.35737005818E-01  0.00000000000E+00 0.  1.
  9000001    1    1    2    0    0  0.23302682144E-01 -0.53144444777E-02  0.26568313263E-01  0.35750994182E-01  0.10000000475E-02 0. -1.
</event>
<event>
 4   0  0.4892667E-02  0.9118800E+02  0.7818609E-02  0.1379984E+01
      -11   -1    0    0    0    0  0.00000000000E+00  0.00000000000E+00  0.35740347158E-01  0.35744000000E-01  0.51099999109E-03 0.  1.
       11   -1    0    0    0    0 -0.00000000000E+00 -0.00000000000E+00 -0.35740347158E-01  0.35744000000E-01  0.51099999109E-03 0. -1.
       22    1    1    2    0    0  0.46094992381E-02 -0.84332044217E-02  0.34420446900E-01  0.35737005818E-01  0.00000000000E+00 0.  1.
  9000001    1    1    2    0    0 -0.46094992381E-02  0.84332044217E-02 -0.34420446900E-01  0.35750994182E-01  0.10000000475E-02 0. -1.
</event>
<event>
 4   0  0.4892667E-02  0.9118800E+02  0.7818609E-02  0.1379984E+01
      -11   -1    0    0    0    0  0.00000000000E+00  0.00000000000E+00  0.35740347158E-01  0.35744000000E-01  0.51099999109E-03 0. -1.
       11   -1    0    0    0    0 -0.00000000000E+00 -0.00000000000E+00 -0.35740347158E-01  0.35744000000E-01  0.51099999109E-03 0.  1.
       22    1    1    2    0    0 -0.28655176841E-03 -0.91381166895E-02 -0.34547739381E-01  0.35737005818E-01  0.00000000000E+00 0.  1.
  9000001    1    1    2    0    0  0.28655176841E-03  0.91381166895E-02  0.34547739381E-01  0.35750994182E-01  0.10000000475E-02 0. -1.
</event>
<event>
 4   0  0.4892667E-02  0.9118800E+02  0.7818609E-02  0.1379984E+01
      -11   -1    0    0    0    0  0.00000000000E+00  0.00000000000E+00  0.35740347158E-01  0.35744000000E-01  0.51099999109E-03 0.  1.
       11   -1    0    0    0    0 -0.00000000000E+00 -0.00000000000E+00 -0.35740347158E-01  0.35744000000E-01  0.51099999109E-03 0. -1.
       22    1    1    2    0    0  0.79484729196E-02 -0.11290372868E-01 -0.32961839203E-01  0.35737005818E-01  0.00000000000E+00 0. -1.
  9000001    1    1    2    0    0 -0.79484729196E-02  0.11290372868E-01  0.32961839203E-01  0.35750994182E-01  0.10000000475E-02 0.  1.
</event>
<event>
 4   0  0.4892667E-02  0.9118800E+02  0.7818609E-02  0.1379984E+01
      -11   -1    0    0    0    0  0.00000000000E+00  0.00000000000E+00  0.35740347158E-01  0.35744000000E-01  0.51099999109E-03 0.  1.
       11   -1    0    0    0    0 -0.00000000000E+00 -0.00000000000E+00 -0.35740347158E-01  0.35744000000E-01  0.51099999109E-03 0. -1.
       22    1    1    2    0    0  0.33814293078E-01 -0.84584050633E-02 -0.78855914355E-02  0.35737005818E-01  0.00000000000E+00 0.  1.
  9000001    1    1    2    0    0 -0.33814293078E-01  0.84584050633E-02  0.78855914355E-02  0.35750994182E-01  0.10000000475E-02 0. -1.
</event>
<event>
 4   0  0.4892667E-02  0.9118800E+02  0.7818609E-02  0.1379984E+01
      -11   -1    0    0    0    0  0.00000000000E+00  0.00000000000E+00  0.35740347158E-01  0.35744000000E-01  0.51099999109E-03 0.  1.
       11   -1    0    0    0    0 -0.00000000000E+00 -0.00000000000E+00 -0.35740347158E-01  0.35744000000E-01  0.51099999109E-03 0. -1.
       22    1    1    2    0    0 -0.28098066440E-02  0.30636292672E-02 -0.35494404449E-01  0.35737005818E-01  0.00000000000E+00 0. -1.
  9000001    1    1    2    0    0  0.28098066440E-02 -0.30636292672E-02  0.35494404449E-01  0.35750994182E-01  0.10000000475E-02 0.  1.
</event>
<event>
 4   0  0.4892667E-02  0.9118800E+02  0.7818609E-02  0.1379984E+01
      -11   -1    0    0    0    0  0.00000000000E+00  0.00000000000E+00  0.35740347158E-01  0.35744000000E-01  0.51099999109E-03 0.  1.
       11   -1    0    0    0    0 -0.00000000000E+00 -0.00000000000E+00 -0.35740347158E-01  0.35744000000E-01  0.51099999109E-03 0. -1.
       22    1    1    2    0    0 -0.32933856689E-03  0.62405955038E-02  0.35186362255E-01  0.35737005818E-01  0.00000000000E+00 0.  1.
  9000001    1    1    2    0    0  0.32933856689E-03 -0.62405955038E-02 -0.35186362255E-01  0.35750994182E-01  0.10000000475E-02 0. -1.
</event>
<event>
 4   0  0.4892667E-02  0.9118800E+02  0.7818609E-02  0.1379984E+01
      -11   -1    0    0    0    0  0.00000000000E+00  0.00000000000E+00  0.35740347158E-01  0.35744000000E-01  0.51099999109E-03 0.  1.
       11   -1    0    0    0    0 -0.00000000000E+00 -0.00000000000E+00 -0.35740347158E-01  0.35744000000E-01  0.51099999109E-03 0. -1.
       22    1    1    2    0    0 -0.15832692942E-02  0.36929711762E-02  0.35510404209E-01  0.35737005818E-01  0.00000000000E+00 0.  1.
  9000001    1    1    2    0    0  0.15832692942E-02 -0.36929711762E-02 -0.35510404209E-01  0.35750994182E-01  0.10000000475E-02 0. -1.
</event>
<event>
 4   0  0.4892667E-02  0.9118800E+02  0.7818609E-02  0.1379984E+01
      -11   -1    0    0    0    0  0.00000000000E+00  0.00000000000E+00  0.35740347158E-01  0.35744000000E-01  0.51099999109E-03 0.  1.
       11   -1    0    0    0    0 -0.00000000000E+00 -0.00000000000E+00 -0.35740347158E-01  0.35744000000E-01  0.51099999109E-03 0. -1.
       22    1    1    2    0    0  0.10214901002E-01 -0.63638801508E-02  0.33649523203E-01  0.35737005818E-01  0.00000000000E+00 0.  1.
  9000001    1    1    2    0    0 -0.10214901002E-01  0.63638801508E-02 -0.33649523203E-01  0.35750994182E-01  0.10000000475E-02 0. -1.
</event>
<event>
 4   0  0.4892667E-02  0.9118800E+02  0.7818609E-02  0.1379984E+01
      -11   -1    0    0    0    0  0.00000000000E+00  0.00000000000E+00  0.35740347158E-01  0.35744000000E-01  0.51099999109E-03 0.  1.
       11   -1    0    0    0    0 -0.00000000000E+00 -0.00000000000E+00 -0.35740347158E-01  0.35744000000E-01  0.51099999109E-03 0. -1.
       22    1    1    2    0    0 -0.65147357802E-02 -0.12613908103E-03  0.35137955141E-01  0.35737005818E-01  0.00000000000E+00 0.  1.
  9000001    1    1    2    0    0  0.65147357802E-02  0.12613908103E-03 -0.35137955141E-01  0.35750994182E-01  0.10000000475E-02 0. -1.
</event>
<event>
 4   0  0.4892667E-02  0.9118800E+02  0.7818609E-02  0.1379984E+01
      -11   -1    0    0    0    0  0.00000000000E+00  0.00000000000E+00  0.35740347158E-01  0.35744000000E-01  0.51099999109E-03 0.  1.
       11   -1    0    0    0    0 -0.00000000000E+00 -0.00000000000E+00 -0.35740347158E-01  0.35744000000E-01  0.51099999109E-03 0. -1.
       22    1    1    2    0    0  0.29819166851E-01  0.85427216126E-02 -0.17747472514E-01  0.35737005818E-01  0.00000000000E+00 0. -1.
  9000001    1    1    2    0    0 -0.29819166851E-01 -0.85427216126E-02  0.17747472514E-01  0.35750994182E-01  0.10000000475E-02 0.  1.
</event>
<event>
 4   0  0.4892667E-02  0.9118800E+02  0.7818609E-02  0.1379984E+01
      -11   -1    0    0    0    0  0.00000000000E+00  0.00000000000E+00  0.35740347158E-01  0.35744000000E-01  0.51099999109E-03 0.  1.
       11   -1    0    0    0    0 -0.00000000000E+00 -0.00000000000E+00 -0.35740347158E-01  0.35744000000E-01  0.51099999109E-03 0. -1.
       22    1    1    2    0    0 -0.27406295373E-02 -0.32709528683E-02  0.35481310601E-01  0.35737005818E-01  0.00000000000E+00 0.  1.
  9000001    1    1    2    0    0  0.27406295373E-02  0.32709528683E-02 -0.35481310601E-01  0.35750994182E-01  0.10000000475E-02 0. -1.
</event>
<event>
 4   0  0.4892667E-02  0.9118800E+02  0.7818609E-02  0.1379984E+01
      -11   -1    0    0    0    0  0.00000000000E+00  0.00000000000E+00  0.35740347158E-01  0.35744000000E-01  0.51099999109E-03 0. -1.
       11   -1    0    0    0    0 -0.00000000000E+00 -0.00000000000E+00 -0.35740347158E-01  0.35744000000E-01  0.51099999109E-03 0.  1.
       22    1    1    2    0    0  0.22228586424E-01 -0.65543455670E-02 -0.27204118891E-01  0.35737005818E-01  0.00000000000E+00 0.  1.
  9000001    1    1    2    0    0 -0.22228586424E-01  0.65543455670E-02  0.27204118891E-01  0.35750994182E-01  0.10000000475E-02 0. -1.
</event>
<event>
 4   0  0.4892667E-02  0.9118800E+02  0.7818609E-02  0.1379984E+01
      -11   -1    0    0    0    0  0.00000000000E+00  0.00000000000E+00  0.35740347158E-01  0.35744000000E-01  0.51099999109E-03 0. -1.
       11   -1    0    0    0    0 -0.00000000000E+00 -0.00000000000E+00 -0.35740347158E-01  0.35744000000E-01  0.51099999109E-03 0.  1.
       22    1    1    2    0    0 -0.44061298717E-02 -0.68306892224E-02  0.34800305878E-01  0.35737005818E-01  0.00000000000E+00 0. -1.
  9000001    1    1    2    0    0  0.44061298717E-02  0.68306892224E-02 -0.34800305878E-01  0.35750994182E-01  0.10000000475E-02 0.  1.
</event>
<event>
 4   0  0.4892667E-02  0.9118800E+02  0.7818609E-02  0.1379984E+01
      -11   -1    0    0    0    0  0.00000000000E+00  0.00000000000E+00  0.35740347158E-01  0.35744000000E-01  0.51099999109E-03 0. -1.
       11   -1    0    0    0    0 -0.00000000000E+00 -0.00000000000E+00 -0.35740347158E-01  0.35744000000E-01  0.51099999109E-03 0.  1.
       22    1    1    2    0    0  0.59674109117E-02 -0.18304662834E-02 -0.35187682292E-01  0.35737005818E-01  0.00000000000E+00 0.  1.
  9000001    1    1    2    0    0 -0.59674109117E-02  0.18304662834E-02  0.35187682292E-01  0.35750994182E-01  0.10000000475E-02 0. -1.
</event>
<event>
 4   0  0.4892667E-02  0.9118800E+02  0.7818609E-02  0.1379984E+01
      -11   -1    0    0    0    0  0.00000000000E+00  0.00000000000E+00  0.35740347158E-01  0.35744000000E-01  0.51099999109E-03 0.  1.
       11   -1    0    0    0    0 -0.00000000000E+00 -0.00000000000E+00 -0.35740347158E-01  0.35744000000E-01  0.51099999109E-03 0. -1.
       22    1    1    2    0    0  0.75587560283E-02 -0.13902508885E-01  0.32042456817E-01  0.35737005818E-01  0.00000000000E+00 0.  1.
  9000001    1    1    2    0    0 -0.75587560283E-02  0.13902508885E-01 -0.32042456817E-01  0.35750994182E-01  0.10000000475E-02 0. -1.
</event>
<event>
 4   0  0.4892667E-02  0.9118800E+02  0.7818609E-02  0.1379984E+01
      -11   -1    0    0    0    0  0.00000000000E+00  0.00000000000E+00  0.35740347158E-01  0.35744000000E-01  0.51099999109E-03 0. -1.
       11   -1    0    0    0    0 -0.00000000000E+00 -0.00000000000E+00 -0.35740347158E-01  0.35744000000E-01  0.51099999109E-03 0.  1.
       22    1    1    2    0    0  0.19243110415E-01 -0.13436626724E-01  0.26949830217E-01  0.35737005818E-01  0.00000000000E+00 0. -1.
  9000001    1    1    2    0    0 -0.19243110415E-01  0.13436626724E-01 -0.26949830217E-01  0.35750994182E-01  0.10000000475E-02 0.  1.
</event>
<event>
 4   0  0.4892667E-02  0.9118800E+02  0.7818609E-02  0.1379984E+01
      -11   -1    0    0    0    0  0.00000000000E+00  0.00000000000E+00  0.35740347158E-01  0.35744000000E-01  0.51099999109E-03 0. -1.
       11   -1    0    0    0    0 -0.00000000000E+00 -0.00000000000E+00 -0.35740347158E-01  0.35744000000E-01  0.51099999109E-03 0.  1.
       22    1    1    2    0    0 -0.39807139445E-04 -0.53115740838E-02  0.35340050665E-01  0.35737005818E-01  0.00000000000E+00 0. -1.
  9000001    1    1    2    0    0  0.39807139445E-04  0.53115740838E-02 -0.35340050665E-01  0.35750994182E-01  0.10000000475E-02 0.  1.
</event>
<event>
 4   0  0.4892667E-02  0.9118800E+02  0.7818609E-02  0.1379984E+01
      -11   -1    0    0    0    0  0.00000000000E+00  0.00000000000E+00  0.35740347158E-01  0.35744000000E-01  0.51099999109E-03 0. -1.
       11   -1    0    0    0    0 -0.00000000000E+00 -0.00000000000E+00 -0.35740347158E-01  0.35744000000E-01  0.51099999109E-03 0.  1.
       22    1    1    2    0    0 -0.24186862646E-02  0.28343777168E-02  0.35542226219E-01  0.35737005818E-01  0.00000000000E+00 0. -1.
  9000001    1    1    2    0    0  0.24186862646E-02 -0.28343777168E-02 -0.35542226219E-01  0.35750994182E-01  0.10000000475E-02 0.  1.
</event>
<event>
 4   0  0.4892667E-02  0.9118800E+02  0.7818609E-02  0.1379984E+01
      -11   -1    0    0    0    0  0.00000000000E+00  0.00000000000E+00  0.35740347158E-01  0.35744000000E-01  0.51099999109E-03 0. -1.
       11   -1    0    0    0    0 -0.00000000000E+00 -0.00000000000E+00 -0.35740347158E-01  0.35744000000E-01  0.51099999109E-03 0.  1.
       22    1    1    2    0    0  0.72243410642E-02  0.45511879700E-02  0.34702005261E-01  0.35737005818E-01  0.00000000000E+00 0. -1.
  9000001    1    1    2    0    0 -0.72243410642E-02 -0.45511879700E-02 -0.34702005261E-01  0.35750994182E-01  0.10000000475E-02 0.  1.
</event>
<event>
 4   0  0.4892667E-02  0.9118800E+02  0.7818609E-02  0.1379984E+01
      -11   -1    0    0    0    0  0.00000000000E+00  0.00000000000E+00  0.35740347158E-01  0.35744000000E-01  0.51099999109E-03 0.  1.
       11   -1    0    0    0    0 -0.00000000000E+00 -0.00000000000E+00 -0.35740347158E-01  0.35744000000E-01  0.51099999109E-03 0. -1.
       22    1    1    2    0    0 -0.11269683815E-01  0.11907775390E-01  0.31754254783E-01  0.35737005818E-01  0.00000000000E+00 0.  1.
  9000001    1    1    2    0    0  0.11269683815E-01 -0.11907775390E-01 -0.31754254783E-01  0.35750994182E-01  0.10000000475E-02 0. -1.
</event>
<event>
 4   0  0.4892667E-02  0.9118800E+02  0.7818609E-02  0.1379984E+01
      -11   -1    0    0    0    0  0.00000000000E+00  0.00000000000E+00  0.35740347158E-01  0.35744000000E-01  0.51099999109E-03 0. -1.
       11   -1    0    0    0    0 -0.00000000000E+00 -0.00000000000E+00 -0.35740347158E-01  0.35744000000E-01  0.51099999109E-03 0.  1.
       22    1    1    2    0    0 -0.56158038434E-02  0.25234051780E-01 -0.24674662365E-01  0.35737005818E-01  0.00000000000E+00 0.  1.
  9000001    1    1    2    0    0  0.56158038434E-02 -0.25234051780E-01  0.24674662365E-01  0.35750994182E-01  0.10000000475E-02 0. -1.
</event>
<event>
 4   0  0.4892667E-02  0.9118800E+02  0.7818609E-02  0.1379984E+01
      -11   -1    0    0    0    0  0.00000000000E+00  0.00000000000E+00  0.35740347158E-01  0.35744000000E-01  0.51099999109E-03 0.  1.
       11   -1    0    0    0    0 -0.00000000000E+00 -0.00000000000E+00 -0.35740347158E-01  0.35744000000E-01  0.51099999109E-03 0. -1.
       22    1    1    2    0    0  0.15773408251E-01  0.24512383923E-01  0.20675497852E-01  0.35737005818E-01  0.00000000000E+00 0.  1.
  9000001    1    1    2    0    0 -0.15773408251E-01 -0.24512383923E-01 -0.20675497852E-01  0.35750994182E-01  0.10000000475E-02 0. -1.
</event>
<event>
 4   0  0.4892667E-02  0.9118800E+02  0.7818609E-02  0.1379984E+01
      -11   -1    0    0    0    0  0.00000000000E+00  0.00000000000E+00  0.35740347158E-01  0.35744000000E-01  0.51099999109E-03 0.  1.
       11   -1    0    0    0    0 -0.00000000000E+00 -0.00000000000E+00 -0.35740347158E-01  0.35744000000E-01  0.51099999109E-03 0. -1.
       22    1    1    2    0    0  0.12227567806E-01  0.40065331558E-02  0.33340183900E-01  0.35737005818E-01  0.00000000000E+00 0.  1.
  9000001    1    1    2    0    0 -0.12227567806E-01 -0.40065331558E-02 -0.33340183900E-01  0.35750994182E-01  0.10000000475E-02 0. -1.
</event>
<event>
 4   0  0.4892667E-02  0.9118800E+02  0.7818609E-02  0.1379984E+01
      -11   -1    0    0    0    0  0.00000000000E+00  0.00000000000E+00  0.35740347158E-01  0.35744000000E-01  0.51099999109E-03 0. -1.
       11   -1    0    0    0    0 -0.00000000000E+00 -0.00000000000E+00 -0.35740347158E-01  0.35744000000E-01  0.51099999109E-03 0.  1.
       22    1    1    2    0    0 -0.53379980665E-02  0.31858513527E-02  0.35192182551E-01  0.35737005818E-01  0.00000000000E+00 0. -1.
  9000001    1    1    2    0    0  0.53379980665E-02 -0.31858513527E-02 -0.35192182551E-01  0.35750994182E-01  0.10000000475E-02 0.  1.
</event>
<event>
 4   0  0.4892667E-02  0.9118800E+02  0.7818609E-02  0.1379984E+01
      -11   -1    0    0    0    0  0.00000000000E+00  0.00000000000E+00  0.35740347158E-01  0.35744000000E-01  0.51099999109E-03 0.  1.
       11   -1    0    0    0    0 -0.00000000000E+00 -0.00000000000E+00 -0.35740347158E-01  0.35744000000E-01  0.51099999109E-03 0. -1.
       22    1    1    2    0    0  0.22956678817E-01  0.25344343232E-01 -0.10382136038E-01  0.35737005818E-01  0.00000000000E+00 0. -1.
  9000001    1    1    2    0    0 -0.22956678817E-01 -0.25344343232E-01  0.10382136038E-01  0.35750994182E-01  0.10000000475E-02 0.  1.
</event>
<event>
 4   0  0.4892667E-02  0.9118800E+02  0.7818609E-02  0.1379984E+01
      -11   -1    0    0    0    0  0.00000000000E+00  0.00000000000E+00  0.35740347158E-01  0.35744000000E-01  0.51099999109E-03 0.  1.
       11   -1    0    0    0    0 -0.00000000000E+00 -0.00000000000E+00 -0.35740347158E-01  0.35744000000E-01  0.51099999109E-03 0. -1.
       22    1    1    2    0    0  0.14307048998E-02 -0.30806218828E-02 -0.35575222236E-01  0.35737005818E-01  0.00000000000E+00 0. -1.
  9000001    1    1    2    0    0 -0.14307048998E-02  0.30806218828E-02  0.35575222236E-01  0.35750994182E-01  0.10000000475E-02 0.  1.
</event>
<event>
 4   0  0.4892667E-02  0.9118800E+02  0.7818609E-02  0.1379984E+01
      -11   -1    0    0    0    0  0.00000000000E+00  0.00000000000E+00  0.35740347158E-01  0.35744000000E-01  0.51099999109E-03 0.  1.
       11   -1    0    0    0    0 -0.00000000000E+00 -0.00000000000E+00 -0.35740347158E-01  0.35744000000E-01  0.51099999109E-03 0. -1.
       22    1    1    2    0    0  0.38600580956E-02 -0.26665460526E-03  0.35526925447E-01  0.35737005818E-01  0.00000000000E+00 0.  1.
  9000001    1    1    2    0    0 -0.38600580956E-02  0.26665460526E-03 -0.35526925447E-01  0.35750994182E-01  0.10000000475E-02 0. -1.
</event>
<event>
 4   0  0.4892667E-02  0.9118800E+02  0.7818609E-02  0.1379984E+01
      -11   -1    0    0    0    0  0.00000000000E+00  0.00000000000E+00  0.35740347158E-01  0.35744000000E-01  0.51099999109E-03 0.  1.
       11   -1    0    0    0    0 -0.00000000000E+00 -0.00000000000E+00 -0.35740347158E-01  0.35744000000E-01  0.51099999109E-03 0. -1.
       22    1    1    2    0    0 -0.18568270157E-01  0.22519782473E-01  0.20620677138E-01  0.35737005818E-01  0.00000000000E+00 0.  1.
  9000001    1    1    2    0    0  0.18568270157E-01 -0.22519782473E-01 -0.20620677138E-01  0.35750994182E-01  0.10000000475E-02 0. -1.
</event>
<event>
 4   0  0.4892667E-02  0.9118800E+02  0.7818609E-02  0.1379984E+01
      -11   -1    0    0    0    0  0.00000000000E+00  0.00000000000E+00  0.35740347158E-01  0.35744000000E-01  0.51099999109E-03 0. -1.
       11   -1    0    0    0    0 -0.00000000000E+00 -0.00000000000E+00 -0.35740347158E-01  0.35744000000E-01  0.51099999109E-03 0.  1.
       22    1    1    2    0    0  0.38009267164E-02 -0.22813908543E-02  0.35460989788E-01  0.35737005818E-01  0.00000000000E+00 0. -1.
  9000001    1    1    2    0    0 -0.38009267164E-02  0.22813908543E-02 -0.35460989788E-01  0.35750994182E-01  0.10000000475E-02 0.  1.
</event>
<event>
 4   0  0.4892667E-02  0.9118800E+02  0.7818609E-02  0.1379984E+01
      -11   -1    0    0    0    0  0.00000000000E+00  0.00000000000E+00  0.35740347158E-01  0.35744000000E-01  0.51099999109E-03 0. -1.
       11   -1    0    0    0    0 -0.00000000000E+00 -0.00000000000E+00 -0.35740347158E-01  0.35744000000E-01  0.51099999109E-03 0.  1.
       22    1    1    2    0    0  0.13492798840E-01 -0.65428857464E-02  0.32438690024E-01  0.35737005818E-01  0.00000000000E+00 0. -1.
  9000001    1    1    2    0    0 -0.13492798840E-01  0.65428857464E-02 -0.32438690024E-01  0.35750994182E-01  0.10000000475E-02 0.  1.
</event>
<event>
 4   0  0.4892667E-02  0.9118800E+02  0.7818609E-02  0.1379984E+01
      -11   -1    0    0    0    0  0.00000000000E+00  0.00000000000E+00  0.35740347158E-01  0.35744000000E-01  0.51099999109E-03 0. -1.
       11   -1    0    0    0    0 -0.00000000000E+00 -0.00000000000E+00 -0.35740347158E-01  0.35744000000E-01  0.51099999109E-03 0.  1.
       22    1    1    2    0    0 -0.94281770798E-02  0.79110091762E-02 -0.33550841951E-01  0.35737005818E-01  0.00000000000E+00 0.  1.
  9000001    1    1    2    0    0  0.94281770798E-02 -0.79110091762E-02  0.33550841951E-01  0.35750994182E-01  0.10000000475E-02 0. -1.
</event>
<event>
 4   0  0.4892667E-02  0.9118800E+02  0.7818609E-02  0.1379984E+01
      -11   -1    0    0    0    0  0.00000000000E+00  0.00000000000E+00  0.35740347158E-01  0.35744000000E-01  0.51099999109E-03 0.  1.
       11   -1    0    0    0    0 -0.00000000000E+00 -0.00000000000E+00 -0.35740347158E-01  0.35744000000E-01  0.51099999109E-03 0. -1.
       22    1    1    2    0    0 -0.10855199962E-01  0.12626140087E-01 -0.31620860285E-01  0.35737005818E-01  0.00000000000E+00 0. -1.
  9000001    1    1    2    0    0  0.10855199962E-01 -0.12626140087E-01  0.31620860285E-01  0.35750994182E-01  0.10000000475E-02 0.  1.
</event>
<event>
 4   0  0.4892667E-02  0.9118800E+02  0.7818609E-02  0.1379984E+01
      -11   -1    0    0    0    0  0.00000000000E+00  0.00000000000E+00  0.35740347158E-01  0.35744000000E-01  0.51099999109E-03 0.  1.
       11   -1    0    0    0    0 -0.00000000000E+00 -0.00000000000E+00 -0.35740347158E-01  0.35744000000E-01  0.51099999109E-03 0. -1.
       22    1    1    2    0    0  0.31871548141E-02  0.19465358302E-01 -0.29800594881E-01  0.35737005818E-01  0.00000000000E+00 0. -1.
  9000001    1    1    2    0    0 -0.31871548141E-02 -0.19465358302E-01  0.29800594881E-01  0.35750994182E-01  0.10000000475E-02 0.  1.
</event>
<event>
 4   0  0.4892667E-02  0.9118800E+02  0.7818609E-02  0.1379984E+01
      -11   -1    0    0    0    0  0.00000000000E+00  0.00000000000E+00  0.35740347158E-01  0.35744000000E-01  0.51099999109E-03 0. -1.
       11   -1    0    0    0    0 -0.00000000000E+00 -0.00000000000E+00 -0.35740347158E-01  0.35744000000E-01  0.51099999109E-03 0.  1.
       22    1    1    2    0    0 -0.34582494244E-02  0.14364126589E-02 -0.35540270321E-01  0.35737005818E-01  0.00000000000E+00 0.  1.
  9000001    1    1    2    0    0  0.34582494244E-02 -0.14364126589E-02  0.35540270321E-01  0.35750994182E-01  0.10000000475E-02 0. -1.
</event>
<event>
 4   0  0.4892667E-02  0.9118800E+02  0.7818609E-02  0.1379984E+01
      -11   -1    0    0    0    0  0.00000000000E+00  0.00000000000E+00  0.35740347158E-01  0.35744000000E-01  0.51099999109E-03 0. -1.
       11   -1    0    0    0    0 -0.00000000000E+00 -0.00000000000E+00 -0.35740347158E-01  0.35744000000E-01  0.51099999109E-03 0.  1.
       22    1    1    2    0    0  0.12112575438E-02  0.19595805563E-01  0.29860858065E-01  0.35737005818E-01  0.00000000000E+00 0. -1.
  9000001    1    1    2    0    0 -0.12112575438E-02 -0.19595805563E-01 -0.29860858065E-01  0.35750994182E-01  0.10000000475E-02 0.  1.
</event>
<event>
 4   0  0.4892667E-02  0.9118800E+02  0.7818609E-02  0.1379984E+01
      -11   -1    0    0    0    0  0.00000000000E+00  0.00000000000E+00  0.35740347158E-01  0.35744000000E-01  0.51099999109E-03 0. -1.
       11   -1    0    0    0    0 -0.00000000000E+00 -0.00000000000E+00 -0.35740347158E-01  0.35744000000E-01  0.51099999109E-03 0.  1.
       22    1    1    2    0    0  0.11852859282E-01  0.83189485185E-02  0.32671675917E-01  0.35737005818E-01  0.00000000000E+00 0. -1.
  9000001    1    1    2    0    0 -0.11852859282E-01 -0.83189485185E-02 -0.32671675917E-01  0.35750994182E-01  0.10000000475E-02 0.  1.
</event>
<event>
 4   0  0.4892667E-02  0.9118800E+02  0.7818609E-02  0.1379984E+01
      -11   -1    0    0    0    0  0.00000000000E+00  0.00000000000E+00  0.35740347158E-01  0.35744000000E-01  0.51099999109E-03 0. -1.
       11   -1    0    0    0    0 -0.00000000000E+00 -0.00000000000E+00 -0.35740347158E-01  0.35744000000E-01  0.51099999109E-03 0.  1.
       22    1    1    2    0    0 -0.84510560310E-02  0.46433769717E-02 -0.34411513874E-01  0.35737005818E-01  0.00000000000E+00 0.  1.
  9000001    1    1    2    0    0  0.84510560310E-02 -0.46433769717E-02  0.34411513874E-01  0.35750994182E-01  0.10000000475E-02 0. -1.
</event>
<event>
 4   0  0.4892667E-02  0.9118800E+02  0.7818609E-02  0.1379984E+01
      -11   -1    0    0    0    0  0.00000000000E+00  0.00000000000E+00  0.35740347158E-01  0.35744000000E-01  0.51099999109E-03 0. -1.
       11   -1    0    0    0    0 -0.00000000000E+00 -0.00000000000E+00 -0.35740347158E-01  0.35744000000E-01  0.51099999109E-03 0.  1.
       22    1    1    2    0    0  0.49285573950E-02  0.52461996787E-03 -0.35391632920E-01  0.35737005818E-01  0.00000000000E+00 0.  1.
  9000001    1    1    2    0    0 -0.49285573950E-02 -0.52461996787E-03  0.35391632920E-01  0.35750994182E-01  0.10000000475E-02 0. -1.
</event>
<event>
 4   0  0.4892667E-02  0.9118800E+02  0.7818609E-02  0.1379984E+01
      -11   -1    0    0    0    0  0.00000000000E+00  0.00000000000E+00  0.35740347158E-01  0.35744000000E-01  0.51099999109E-03 0.  1.
       11   -1    0    0    0    0 -0.00000000000E+00 -0.00000000000E+00 -0.35740347158E-01  0.35744000000E-01  0.51099999109E-03 0. -1.
       22    1    1    2    0    0 -0.13861984328E-02 -0.37829560570E-02  0.35509171805E-01  0.35737005818E-01  0.00000000000E+00 0.  1.
  9000001    1    1    2    0    0  0.13861984328E-02  0.37829560570E-02 -0.35509171805E-01  0.35750994182E-01  0.10000000475E-02 0. -1.
</event>
<event>
 4   0  0.4892667E-02  0.9118800E+02  0.7818609E-02  0.1379984E+01
      -11   -1    0    0    0    0  0.00000000000E+00  0.00000000000E+00  0.35740347158E-01  0.35744000000E-01  0.51099999109E-03 0. -1.
       11   -1    0    0    0    0 -0.00000000000E+00 -0.00000000000E+00 -0.35740347158E-01  0.35744000000E-01  0.51099999109E-03 0.  1.
       22    1    1    2    0    0 -0.10464292759E-01 -0.13692636629E-01 -0.31307249385E-01  0.35737005818E-01  0.00000000000E+00 0.  1.
  9000001    1    1    2    0    0  0.10464292759E-01  0.13692636629E-01  0.31307249385E-01  0.35750994182E-01  0.10000000475E-02 0. -1.
</event>
<event>
 4   0  0.4892667E-02  0.9118800E+02  0.7818609E-02  0.1379984E+01
      -11   -1    0    0    0    0  0.00000000000E+00  0.00000000000E+00  0.35740347158E-01  0.35744000000E-01  0.51099999109E-03 0.  1.
       11   -1    0    0    0    0 -0.00000000000E+00 -0.00000000000E+00 -0.35740347158E-01  0.35744000000E-01  0.51099999109E-03 0. -1.
       22    1    1    2    0    0 -0.46222047425E-02 -0.90377650717E-03 -0.35425301639E-01  0.35737005818E-01  0.00000000000E+00 0. -1.
  9000001    1    1    2    0    0  0.46222047425E-02  0.90377650717E-03  0.35425301639E-01  0.35750994182E-01  0.10000000475E-02 0.  1.
</event>
<event>
 4   0  0.4892667E-02  0.9118800E+02  0.7818609E-02  0.1379984E+01
      -11   -1    0    0    0    0  0.00000000000E+00  0.00000000000E+00  0.35740347158E-01  0.35744000000E-01  0.51099999109E-03 0.  1.
       11   -1    0    0    0    0 -0.00000000000E+00 -0.00000000000E+00 -0.35740347158E-01  0.35744000000E-01  0.51099999109E-03 0. -1.
       22    1    1    2    0    0  0.73828434854E-02  0.12173570683E-01 -0.32778520158E-01  0.35737005818E-01  0.00000000000E+00 0. -1.
  9000001    1    1    2    0    0 -0.73828434854E-02 -0.12173570683E-01  0.32778520158E-01  0.35750994182E-01  0.10000000475E-02 0.  1.
</event>
<event>
 4   0  0.4892667E-02  0.9118800E+02  0.7818609E-02  0.1379984E+01
      -11   -1    0    0    0    0  0.00000000000E+00  0.00000000000E+00  0.35740347158E-01  0.35744000000E-01  0.51099999109E-03 0. -1.
       11   -1    0    0    0    0 -0.00000000000E+00 -0.00000000000E+00 -0.35740347158E-01  0.35744000000E-01  0.51099999109E-03 0.  1.
       22    1    1    2    0    0  0.45709502357E-02 -0.17091541203E-02 -0.35402242740E-01  0.35737005818E-01  0.00000000000E+00 0.  1.
  9000001    1    1    2    0    0 -0.45709502357E-02  0.17091541203E-02  0.35402242740E-01  0.35750994182E-01  0.10000000475E-02 0. -1.
</event>
<event>
 4   0  0.4892667E-02  0.9118800E+02  0.7818609E-02  0.1379984E+01
      -11   -1    0    0    0    0  0.00000000000E+00  0.00000000000E+00  0.35740347158E-01  0.35744000000E-01  0.51099999109E-03 0.  1.
       11   -1    0    0    0    0 -0.00000000000E+00 -0.00000000000E+00 -0.35740347158E-01  0.35744000000E-01  0.51099999109E-03 0. -1.
       22    1    1    2    0    0 -0.96114169868E-02  0.88407248167E-02  0.33265535214E-01  0.35737005818E-01  0.00000000000E+00 0.  1.
  9000001    1    1    2    0    0  0.96114169868E-02 -0.88407248167E-02 -0.33265535214E-01  0.35750994182E-01  0.10000000475E-02 0. -1.
</event>
<event>
 4   0  0.4892667E-02  0.9118800E+02  0.7818609E-02  0.1379984E+01
      -11   -1    0    0    0    0  0.00000000000E+00  0.00000000000E+00  0.35740347158E-01  0.35744000000E-01  0.51099999109E-03 0.  1.
       11   -1    0    0    0    0 -0.00000000000E+00 -0.00000000000E+00 -0.35740347158E-01  0.35744000000E-01  0.51099999109E-03 0. -1.
       22    1    1    2    0    0  0.35411653689E-02 -0.33798378404E-02  0.35400147300E-01  0.35737005818E-01  0.00000000000E+00 0.  1.
  9000001    1    1    2    0    0 -0.35411653689E-02  0.33798378404E-02 -0.35400147300E-01  0.35750994182E-01  0.10000000475E-02 0. -1.
</event>
<event>
 4   0  0.4892667E-02  0.9118800E+02  0.7818609E-02  0.1379984E+01
      -11   -1    0    0    0    0  0.00000000000E+00  0.00000000000E+00  0.35740347158E-01  0.35744000000E-01  0.51099999109E-03 0.  1.
       11   -1    0    0    0    0 -0.00000000000E+00 -0.00000000000E+00 -0.35740347158E-01  0.35744000000E-01  0.51099999109E-03 0. -1.
       22    1    1    2    0    0  0.11411513823E-02 -0.31073723637E-02 -0.35583361215E-01  0.35737005818E-01  0.00000000000E+00 0. -1.
  9000001    1    1    2    0    0 -0.11411513823E-02  0.31073723637E-02  0.35583361215E-01  0.35750994182E-01  0.10000000475E-02 0.  1.
</event>
<event>
 4   0  0.4892667E-02  0.9118800E+02  0.7818609E-02  0.1379984E+01
      -11   -1    0    0    0    0  0.00000000000E+00  0.00000000000E+00  0.35740347158E-01  0.35744000000E-01  0.51099999109E-03 0. -1.
       11   -1    0    0    0    0 -0.00000000000E+00 -0.00000000000E+00 -0.35740347158E-01  0.35744000000E-01  0.51099999109E-03 0.  1.
       22    1    1    2    0    0 -0.25074638239E-02  0.12019699377E-01 -0.33561481447E-01  0.35737005818E-01  0.00000000000E+00 0.  1.
  9000001    1    1    2    0    0  0.25074638239E-02 -0.12019699377E-01  0.33561481447E-01  0.35750994182E-01  0.10000000475E-02 0. -1.
</event>
<event>
 4   0  0.4892667E-02  0.9118800E+02  0.7818609E-02  0.1379984E+01
      -11   -1    0    0    0    0  0.00000000000E+00  0.00000000000E+00  0.35740347158E-01  0.35744000000E-01  0.51099999109E-03 0. -1.
       11   -1    0    0    0    0 -0.00000000000E+00 -0.00000000000E+00 -0.35740347158E-01  0.35744000000E-01  0.51099999109E-03 0.  1.
       22    1    1    2    0    0 -0.32022793989E-01 -0.60955918516E-02  0.14646433353E-01  0.35737005818E-01  0.00000000000E+00 0. -1.
  9000001    1    1    2    0    0  0.32022793989E-01  0.60955918516E-02 -0.14646433353E-01  0.35750994182E-01  0.10000000475E-02 0.  1.
</event>
<event>
 4   0  0.4892667E-02  0.9118800E+02  0.7818609E-02  0.1379984E+01
      -11   -1    0    0    0    0  0.00000000000E+00  0.00000000000E+00  0.35740347158E-01  0.35744000000E-01  0.51099999109E-03 0.  1.
       11   -1    0    0    0    0 -0.00000000000E+00 -0.00000000000E+00 -0.35740347158E-01  0.35744000000E-01  0.51099999109E-03 0. -1.
       22    1    1    2    0    0  0.40118779579E-02  0.42353144049E-02 -0.35257630834E-01  0.35737005818E-01  0.00000000000E+00 0. -1.
  9000001    1    1    2    0    0 -0.40118779579E-02 -0.42353144049E-02  0.35257630834E-01  0.35750994182E-01  0.10000000475E-02 0.  1.
</event>
<event>
 4   0  0.4892667E-02  0.9118800E+02  0.7818609E-02  0.1379984E+01
      -11   -1    0    0    0    0  0.00000000000E+00  0.00000000000E+00  0.35740347158E-01  0.35744000000E-01  0.51099999109E-03 0.  1.
       11   -1    0    0    0    0 -0.00000000000E+00 -0.00000000000E+00 -0.35740347158E-01  0.35744000000E-01  0.51099999109E-03 0. -1.
       22    1    1    2    0    0 -0.18494162703E-02 -0.84190031778E-02  0.34681891959E-01  0.35737005818E-01  0.00000000000E+00 0.  1.
  9000001    1    1    2    0    0  0.18494162703E-02  0.84190031778E-02 -0.34681891959E-01  0.35750994182E-01  0.10000000475E-02 0. -1.
</event>
<event>
 4   0  0.4892667E-02  0.9118800E+02  0.7818609E-02  0.1379984E+01
      -11   -1    0    0    0    0  0.00000000000E+00  0.00000000000E+00  0.35740347158E-01  0.35744000000E-01  0.51099999109E-03 0. -1.
       11   -1    0    0    0    0 -0.00000000000E+00 -0.00000000000E+00 -0.35740347158E-01  0.35744000000E-01  0.51099999109E-03 0.  1.
       22    1    1    2    0    0 -0.18571784649E-01  0.23446839739E-01  0.19556791815E-01  0.35737005818E-01  0.00000000000E+00 0.  1.
  9000001    1    1    2    0    0  0.18571784649E-01 -0.23446839739E-01 -0.19556791815E-01  0.35750994182E-01  0.10000000475E-02 0. -1.
</event>
<event>
 4   0  0.4892667E-02  0.9118800E+02  0.7818609E-02  0.1379984E+01
      -11   -1    0    0    0    0  0.00000000000E+00  0.00000000000E+00  0.35740347158E-01  0.35744000000E-01  0.51099999109E-03 0. -1.
       11   -1    0    0    0    0 -0.00000000000E+00 -0.00000000000E+00 -0.35740347158E-01  0.35744000000E-01  0.51099999109E-03 0.  1.
       22    1    1    2    0    0 -0.70564666357E-02 -0.72650383211E-02 -0.34271840944E-01  0.35737005818E-01  0.00000000000E+00 0.  1.
  9000001    1    1    2    0    0  0.70564666357E-02  0.72650383211E-02  0.34271840944E-01  0.35750994182E-01  0.10000000475E-02 0. -1.
</event>
<event>
 4   0  0.4892667E-02  0.9118800E+02  0.7818609E-02  0.1379984E+01
      -11   -1    0    0    0    0  0.00000000000E+00  0.00000000000E+00  0.35740347158E-01  0.35744000000E-01  0.51099999109E-03 0. -1.
       11   -1    0    0    0    0 -0.00000000000E+00 -0.00000000000E+00 -0.35740347158E-01  0.35744000000E-01  0.51099999109E-03 0.  1.
       22    1    1    2    0    0 -0.21313339598E-01  0.20058475615E-02 -0.28615585187E-01  0.35737005818E-01  0.00000000000E+00 0.  1.
  9000001    1    1    2    0    0  0.21313339598E-01 -0.20058475615E-02  0.28615585187E-01  0.35750994182E-01  0.10000000475E-02 0. -1.
</event>
<event>
 4   0  0.4892667E-02  0.9118800E+02  0.7818609E-02  0.1379984E+01
      -11   -1    0    0    0    0  0.00000000000E+00  0.00000000000E+00  0.35740347158E-01  0.35744000000E-01  0.51099999109E-03 0.  1.
       11   -1    0    0    0    0 -0.00000000000E+00 -0.00000000000E+00 -0.35740347158E-01  0.35744000000E-01  0.51099999109E-03 0. -1.
       22    1    1    2    0    0 -0.34471608913E-01 -0.83911050472E-02 -0.42931480197E-02  0.35737005818E-01  0.00000000000E+00 0. -1.
  9000001    1    1    2    0    0  0.34471608913E-01  0.83911050472E-02  0.42931480197E-02  0.35750994182E-01  0.10000000475E-02 0.  1.
</event>
<event>
 4   0  0.4892667E-02  0.9118800E+02  0.7818609E-02  0.1379984E+01
      -11   -1    0    0    0    0  0.00000000000E+00  0.00000000000E+00  0.35740347158E-01  0.35744000000E-01  0.51099999109E-03 0. -1.
       11   -1    0    0    0    0 -0.00000000000E+00 -0.00000000000E+00 -0.35740347158E-01  0.35744000000E-01  0.51099999109E-03 0.  1.
       22    1    1    2    0    0 -0.25689503742E-02 -0.58005842578E-02 -0.35169408598E-01  0.35737005818E-01  0.00000000000E+00 0.  1.
  9000001    1    1    2    0    0  0.25689503742E-02  0.58005842578E-02  0.35169408598E-01  0.35750994182E-01  0.10000000475E-02 0. -1.
</event>
<event>
 4   0  0.4892667E-02  0.9118800E+02  0.7818609E-02  0.1379984E+01
      -11   -1    0    0    0    0  0.00000000000E+00  0.00000000000E+00  0.35740347158E-01  0.35744000000E-01  0.51099999109E-03 0. -1.
       11   -1    0    0    0    0 -0.00000000000E+00 -0.00000000000E+00 -0.35740347158E-01  0.35744000000E-01  0.51099999109E-03 0.  1.
       22    1    1    2    0    0  0.38010377661E-02  0.73687499246E-03 -0.35526647914E-01  0.35737005818E-01  0.00000000000E+00 0.  1.
  9000001    1    1    2    0    0 -0.38010377661E-02 -0.73687499246E-03  0.35526647914E-01  0.35750994182E-01  0.10000000475E-02 0. -1.
</event>
<event>
 4   0  0.4892667E-02  0.9118800E+02  0.7818609E-02  0.1379984E+01
      -11   -1    0    0    0    0  0.00000000000E+00  0.00000000000E+00  0.35740347158E-01  0.35744000000E-01  0.51099999109E-03 0.  1.
       11   -1    0    0    0    0 -0.00000000000E+00 -0.00000000000E+00 -0.35740347158E-01  0.35744000000E-01  0.51099999109E-03 0. -1.
       22    1    1    2    0    0  0.12278919689E-02 -0.55174907822E-02  0.35287152926E-01  0.35737005818E-01  0.00000000000E+00 0.  1.
  9000001    1    1    2    0    0 -0.12278919689E-02  0.55174907822E-02 -0.35287152926E-01  0.35750994182E-01  0.10000000475E-02 0. -1.
</event>
<event>
 4   0  0.4892667E-02  0.9118800E+02  0.7818609E-02  0.1379984E+01
      -11   -1    0    0    0    0  0.00000000000E+00  0.00000000000E+00  0.35740347158E-01  0.35744000000E-01  0.51099999109E-03 0. -1.
       11   -1    0    0    0    0 -0.00000000000E+00 -0.00000000000E+00 -0.35740347158E-01  0.35744000000E-01  0.51099999109E-03 0.  1.
       22    1    1    2    0    0 -0.90063278448E-02 -0.73588578298E-02  0.33791520461E-01  0.35737005818E-01  0.00000000000E+00 0. -1.
  9000001    1    1    2    0    0  0.90063278448E-02  0.73588578298E-02 -0.33791520461E-01  0.35750994182E-01  0.10000000475E-02 0.  1.
</event>
<event>
 4   0  0.4892667E-02  0.9118800E+02  0.7818609E-02  0.1379984E+01
      -11   -1    0    0    0    0  0.00000000000E+00  0.00000000000E+00  0.35740347158E-01  0.35744000000E-01  0.51099999109E-03 0. -1.
       11   -1    0    0    0    0 -0.00000000000E+00 -0.00000000000E+00 -0.35740347158E-01  0.35744000000E-01  0.51099999109E-03 0.  1.
       22    1    1    2    0    0  0.79067837644E-02  0.33645605944E-02 -0.34688558451E-01  0.35737005818E-01  0.00000000000E+00 0.  1.
  9000001    1    1    2    0    0 -0.79067837644E-02 -0.33645605944E-02  0.34688558451E-01  0.35750994182E-01  0.10000000475E-02 0. -1.
</event>
<event>
 4   0  0.4892667E-02  0.9118800E+02  0.7818609E-02  0.1379984E+01
      -11   -1    0    0    0    0  0.00000000000E+00  0.00000000000E+00  0.35740347158E-01  0.35744000000E-01  0.51099999109E-03 0.  1.
       11   -1    0    0    0    0 -0.00000000000E+00 -0.00000000000E+00 -0.35740347158E-01  0.35744000000E-01  0.51099999109E-03 0. -1.
       22    1    1    2    0    0 -0.63248989828E-02 -0.95546936061E-02 -0.33850215181E-01  0.35737005818E-01  0.00000000000E+00 0. -1.
  9000001    1    1    2    0    0  0.63248989828E-02  0.95546936061E-02  0.33850215181E-01  0.35750994182E-01  0.10000000475E-02 0.  1.
</event>
<event>
 4   0  0.4892667E-02  0.9118800E+02  0.7818609E-02  0.1379984E+01
      -11   -1    0    0    0    0  0.00000000000E+00  0.00000000000E+00  0.35740347158E-01  0.35744000000E-01  0.51099999109E-03 0.  1.
       11   -1    0    0    0    0 -0.00000000000E+00 -0.00000000000E+00 -0.35740347158E-01  0.35744000000E-01  0.51099999109E-03 0. -1.
       22    1    1    2    0    0 -0.32595169729E-02 -0.10657075083E-02  0.35572087393E-01  0.35737005818E-01  0.00000000000E+00 0.  1.
  9000001    1    1    2    0    0  0.32595169729E-02  0.10657075083E-02 -0.35572087393E-01  0.35750994182E-01  0.10000000475E-02 0. -1.
</event>
<event>
 4   0  0.4892667E-02  0.9118800E+02  0.7818609E-02  0.1379984E+01
      -11   -1    0    0    0    0  0.00000000000E+00  0.00000000000E+00  0.35740347158E-01  0.35744000000E-01  0.51099999109E-03 0. -1.
       11   -1    0    0    0    0 -0.00000000000E+00 -0.00000000000E+00 -0.35740347158E-01  0.35744000000E-01  0.51099999109E-03 0.  1.
       22    1    1    2    0    0 -0.29100089314E-02  0.96570775771E-03 -0.35605236152E-01  0.35737005818E-01  0.00000000000E+00 0.  1.
  9000001    1    1    2    0    0  0.29100089314E-02 -0.96570775771E-03  0.35605236152E-01  0.35750994182E-01  0.10000000475E-02 0. -1.
</event>
<event>
 4   0  0.4892667E-02  0.9118800E+02  0.7818609E-02  0.1379984E+01
      -11   -1    0    0    0    0  0.00000000000E+00  0.00000000000E+00  0.35740347158E-01  0.35744000000E-01  0.51099999109E-03 0. -1.
       11   -1    0    0    0    0 -0.00000000000E+00 -0.00000000000E+00 -0.35740347158E-01  0.35744000000E-01  0.51099999109E-03 0.  1.
       22    1    1    2    0    0 -0.17061984547E-03  0.33261444237E-02 -0.35581473227E-01  0.35737005818E-01  0.00000000000E+00 0.  1.
  9000001    1    1    2    0    0  0.17061984547E-03 -0.33261444237E-02  0.35581473227E-01  0.35750994182E-01  0.10000000475E-02 0. -1.
</event>
<event>
 4   0  0.4892667E-02  0.9118800E+02  0.7818609E-02  0.1379984E+01
      -11   -1    0    0    0    0  0.00000000000E+00  0.00000000000E+00  0.35740347158E-01  0.35744000000E-01  0.51099999109E-03 0. -1.
       11   -1    0    0    0    0 -0.00000000000E+00 -0.00000000000E+00 -0.35740347158E-01  0.35744000000E-01  0.51099999109E-03 0.  1.
       22    1    1    2    0    0  0.75953820210E-02  0.22742956506E-02 -0.34846396315E-01  0.35737005818E-01  0.00000000000E+00 0.  1.
  9000001    1    1    2    0    0 -0.75953820210E-02 -0.22742956506E-02  0.34846396315E-01  0.35750994182E-01  0.10000000475E-02 0. -1.
</event>
<event>
 4   0  0.4892667E-02  0.9118800E+02  0.7818609E-02  0.1379984E+01
      -11   -1    0    0    0    0  0.00000000000E+00  0.00000000000E+00  0.35740347158E-01  0.35744000000E-01  0.51099999109E-03 0.  1.
       11   -1    0    0    0    0 -0.00000000000E+00 -0.00000000000E+00 -0.35740347158E-01  0.35744000000E-01  0.51099999109E-03 0. -1.
       22    1    1    2    0    0 -0.11993643909E-01 -0.60874403227E-02 -0.33109351564E-01  0.35737005818E-01  0.00000000000E+00 0. -1.
  9000001    1    1    2    0    0  0.11993643909E-01  0.60874403227E-02  0.33109351564E-01  0.35750994182E-01  0.10000000475E-02 0.  1.
</event>
<event>
 4   0  0.4892667E-02  0.9118800E+02  0.7818609E-02  0.1379984E+01
      -11   -1    0    0    0    0  0.00000000000E+00  0.00000000000E+00  0.35740347158E-01  0.35744000000E-01  0.51099999109E-03 0. -1.
       11   -1    0    0    0    0 -0.00000000000E+00 -0.00000000000E+00 -0.35740347158E-01  0.35744000000E-01  0.51099999109E-03 0.  1.
       22    1    1    2    0    0 -0.15265596685E-01 -0.47193008069E-02  0.31965971636E-01  0.35737005818E-01  0.00000000000E+00 0. -1.
  9000001    1    1    2    0    0  0.15265596685E-01  0.47193008069E-02 -0.31965971636E-01  0.35750994182E-01  0.10000000475E-02 0.  1.
</event>
<event>
 4   0  0.4892667E-02  0.9118800E+02  0.7818609E-02  0.1379984E+01
      -11   -1    0    0    0    0  0.00000000000E+00  0.00000000000E+00  0.35740347158E-01  0.35744000000E-01  0.51099999109E-03 0.  1.
       11   -1    0    0    0    0 -0.00000000000E+00 -0.00000000000E+00 -0.35740347158E-01  0.35744000000E-01  0.51099999109E-03 0. -1.
       22    1    1    2    0    0  0.54077860709E-02  0.33988680494E-02 -0.35161586009E-01  0.35737005818E-01  0.00000000000E+00 0. -1.
  9000001    1    1    2    0    0 -0.54077860709E-02 -0.33988680494E-02  0.35161586009E-01  0.35750994182E-01  0.10000000475E-02 0.  1.
</event>
<event>
 4   0  0.4892667E-02  0.9118800E+02  0.7818609E-02  0.1379984E+01
      -11   -1    0    0    0    0  0.00000000000E+00  0.00000000000E+00  0.35740347158E-01  0.35744000000E-01  0.51099999109E-03 0.  1.
       11   -1    0    0    0    0 -0.00000000000E+00 -0.00000000000E+00 -0.35740347158E-01  0.35744000000E-01  0.51099999109E-03 0. -1.
       22    1    1    2    0    0  0.12021395082E-02  0.92958433856E-02  0.34485877417E-01  0.35737005818E-01  0.00000000000E+00 0.  1.
  9000001    1    1    2    0    0 -0.12021395082E-02 -0.92958433856E-02 -0.34485877417E-01  0.35750994182E-01  0.10000000475E-02 0. -1.
</event>
<event>
 4   0  0.4892667E-02  0.9118800E+02  0.7818609E-02  0.1379984E+01
      -11   -1    0    0    0    0  0.00000000000E+00  0.00000000000E+00  0.35740347158E-01  0.35744000000E-01  0.51099999109E-03 0. -1.
       11   -1    0    0    0    0 -0.00000000000E+00 -0.00000000000E+00 -0.35740347158E-01  0.35744000000E-01  0.51099999109E-03 0.  1.
       22    1    1    2    0    0 -0.15241567449E-01 -0.69329368508E-02 -0.31571547209E-01  0.35737005818E-01  0.00000000000E+00 0.  1.
  9000001    1    1    2    0    0  0.15241567449E-01  0.69329368508E-02  0.31571547209E-01  0.35750994182E-01  0.10000000475E-02 0. -1.
</event>
<event>
 4   0  0.4892667E-02  0.9118800E+02  0.7818609E-02  0.1379984E+01
      -11   -1    0    0    0    0  0.00000000000E+00  0.00000000000E+00  0.35740347158E-01  0.35744000000E-01  0.51099999109E-03 0.  1.
       11   -1    0    0    0    0 -0.00000000000E+00 -0.00000000000E+00 -0.35740347158E-01  0.35744000000E-01  0.51099999109E-03 0. -1.
       22    1    1    2    0    0 -0.20970754285E-01 -0.12122211084E-01 -0.26275712132E-01  0.35737005818E-01  0.00000000000E+00 0. -1.
  9000001    1    1    2    0    0  0.20970754285E-01  0.12122211084E-01  0.26275712132E-01  0.35750994182E-01  0.10000000475E-02 0.  1.
</event>
<event>
 4   0  0.4892667E-02  0.9118800E+02  0.7818609E-02  0.1379984E+01
      -11   -1    0    0    0    0  0.00000000000E+00  0.00000000000E+00  0.35740347158E-01  0.35744000000E-01  0.51099999109E-03 0.  1.
       11   -1    0    0    0    0 -0.00000000000E+00 -0.00000000000E+00 -0.35740347158E-01  0.35744000000E-01  0.51099999109E-03 0. -1.
       22    1    1    2    0    0  0.31107005774E-02 -0.11608034684E-01 -0.33655767077E-01  0.35737005818E-01  0.00000000000E+00 0. -1.
  9000001    1    1    2    0    0 -0.31107005774E-02  0.11608034684E-01  0.33655767077E-01  0.35750994182E-01  0.10000000475E-02 0.  1.
</event>
<event>
 4   0  0.4892667E-02  0.9118800E+02  0.7818609E-02  0.1379984E+01
      -11   -1    0    0    0    0  0.00000000000E+00  0.00000000000E+00  0.35740347158E-01  0.35744000000E-01  0.51099999109E-03 0. -1.
       11   -1    0    0    0    0 -0.00000000000E+00 -0.00000000000E+00 -0.35740347158E-01  0.35744000000E-01  0.51099999109E-03 0.  1.
       22    1    1    2    0    0  0.17389208148E-01 -0.18267654624E-01  0.25318803673E-01  0.35737005818E-01  0.00000000000E+00 0.  1.
  9000001    1    1    2    0    0 -0.17389208148E-01  0.18267654624E-01 -0.25318803673E-01  0.35750994182E-01  0.10000000475E-02 0. -1.
</event>
<event>
 4   0  0.4892667E-02  0.9118800E+02  0.7818609E-02  0.1379984E+01
      -11   -1    0    0    0    0  0.00000000000E+00  0.00000000000E+00  0.35740347158E-01  0.35744000000E-01  0.51099999109E-03 0. -1.
       11   -1    0    0    0    0 -0.00000000000E+00 -0.00000000000E+00 -0.35740347158E-01  0.35744000000E-01  0.51099999109E-03 0.  1.
       22    1    1    2    0    0 -0.27008505062E-01 -0.68688209716E-02 -0.22371712891E-01  0.35737005818E-01  0.00000000000E+00 0.  1.
  9000001    1    1    2    0    0  0.27008505062E-01  0.68688209716E-02  0.22371712891E-01  0.35750994182E-01  0.10000000475E-02 0. -1.
</event>
<event>
 4   0  0.4892667E-02  0.9118800E+02  0.7818609E-02  0.1379984E+01
      -11   -1    0    0    0    0  0.00000000000E+00  0.00000000000E+00  0.35740347158E-01  0.35744000000E-01  0.51099999109E-03 0.  1.
       11   -1    0    0    0    0 -0.00000000000E+00 -0.00000000000E+00 -0.35740347158E-01  0.35744000000E-01  0.51099999109E-03 0. -1.
       22    1    1    2    0    0 -0.78275527439E-02 -0.29620003057E-02  0.34743194400E-01  0.35737005818E-01  0.00000000000E+00 0.  1.
  9000001    1    1    2    0    0  0.78275527439E-02  0.29620003057E-02 -0.34743194400E-01  0.35750994182E-01  0.10000000475E-02 0. -1.
</event>
<event>
 4   0  0.4892667E-02  0.9118800E+02  0.7818609E-02  0.1379984E+01
      -11   -1    0    0    0    0  0.00000000000E+00  0.00000000000E+00  0.35740347158E-01  0.35744000000E-01  0.51099999109E-03 0. -1.
       11   -1    0    0    0    0 -0.00000000000E+00 -0.00000000000E+00 -0.35740347158E-01  0.35744000000E-01  0.51099999109E-03 0.  1.
       22    1    1    2    0    0 -0.10868974117E-01 -0.12298178031E-01 -0.31745138268E-01  0.35737005818E-01  0.00000000000E+00 0.  1.
  9000001    1    1    2    0    0  0.10868974117E-01  0.12298178031E-01  0.31745138268E-01  0.35750994182E-01  0.10000000475E-02 0. -1.
</event>
<event>
 4   0  0.4892667E-02  0.9118800E+02  0.7818609E-02  0.1379984E+01
      -11   -1    0    0    0    0  0.00000000000E+00  0.00000000000E+00  0.35740347158E-01  0.35744000000E-01  0.51099999109E-03 0. -1.
       11   -1    0    0    0    0 -0.00000000000E+00 -0.00000000000E+00 -0.35740347158E-01  0.35744000000E-01  0.51099999109E-03 0.  1.
       22    1    1    2    0    0 -0.53678433319E-02  0.14616249513E-01  0.32166521307E-01  0.35737005818E-01  0.00000000000E+00 0. -1.
  9000001    1    1    2    0    0  0.53678433319E-02 -0.14616249513E-01 -0.32166521307E-01  0.35750994182E-01  0.10000000475E-02 0.  1.
</event>
<event>
 4   0  0.4892667E-02  0.9118800E+02  0.7818609E-02  0.1379984E+01
      -11   -1    0    0    0    0  0.00000000000E+00  0.00000000000E+00  0.35740347158E-01  0.35744000000E-01  0.51099999109E-03 0. -1.
       11   -1    0    0    0    0 -0.00000000000E+00 -0.00000000000E+00 -0.35740347158E-01  0.35744000000E-01  0.51099999109E-03 0. -1.
       22    1    1    2    0    0  0.30184196912E-02 -0.10599377945E-02 -0.35593528335E-01  0.35737005818E-01  0.00000000000E+00 0. -1.
  9000001    1    1    2    0    0 -0.30184196912E-02  0.10599377945E-02  0.35593528335E-01  0.35750994182E-01  0.10000000475E-02 0. -1.
</event>
<event>
 4   0  0.4892667E-02  0.9118800E+02  0.7818609E-02  0.1379984E+01
      -11   -1    0    0    0    0  0.00000000000E+00  0.00000000000E+00  0.35740347158E-01  0.35744000000E-01  0.51099999109E-03 0.  1.
       11   -1    0    0    0    0 -0.00000000000E+00 -0.00000000000E+00 -0.35740347158E-01  0.35744000000E-01  0.51099999109E-03 0. -1.
       22    1    1    2    0    0  0.21307998590E-01 -0.14750251789E-01  0.24607577148E-01  0.35737005818E-01  0.00000000000E+00 0.  1.
  9000001    1    1    2    0    0 -0.21307998590E-01  0.14750251789E-01 -0.24607577148E-01  0.35750994182E-01  0.10000000475E-02 0. -1.
</event>
<event>
 4   0  0.4892667E-02  0.9118800E+02  0.7818609E-02  0.1379984E+01
      -11   -1    0    0    0    0  0.00000000000E+00  0.00000000000E+00  0.35740347158E-01  0.35744000000E-01  0.51099999109E-03 0. -1.
       11   -1    0    0    0    0 -0.00000000000E+00 -0.00000000000E+00 -0.35740347158E-01  0.35744000000E-01  0.51099999109E-03 0.  1.
       22    1    1    2    0    0 -0.13335751537E-02 -0.34177643717E-02 -0.35548193328E-01  0.35737005818E-01  0.00000000000E+00 0.  1.
  9000001    1    1    2    0    0  0.13335751537E-02  0.34177643717E-02  0.35548193328E-01  0.35750994182E-01  0.10000000475E-02 0. -1.
</event>
<event>
 4   0  0.4892667E-02  0.9118800E+02  0.7818609E-02  0.1379984E+01
      -11   -1    0    0    0    0  0.00000000000E+00  0.00000000000E+00  0.35740347158E-01  0.35744000000E-01  0.51099999109E-03 0.  1.
       11   -1    0    0    0    0 -0.00000000000E+00 -0.00000000000E+00 -0.35740347158E-01  0.35744000000E-01  0.51099999109E-03 0. -1.
       22    1    1    2    0    0 -0.12592921200E-01 -0.15794410869E-01 -0.29480307085E-01  0.35737005818E-01  0.00000000000E+00 0. -1.
  9000001    1    1    2    0    0  0.12592921200E-01  0.15794410869E-01  0.29480307085E-01  0.35750994182E-01  0.10000000475E-02 0.  1.
</event>
<event>
 4   0  0.4892667E-02  0.9118800E+02  0.7818609E-02  0.1379984E+01
      -11   -1    0    0    0    0  0.00000000000E+00  0.00000000000E+00  0.35740347158E-01  0.35744000000E-01  0.51099999109E-03 0.  1.
       11   -1    0    0    0    0 -0.00000000000E+00 -0.00000000000E+00 -0.35740347158E-01  0.35744000000E-01  0.51099999109E-03 0. -1.
       22    1    1    2    0    0 -0.25825826189E-01 -0.23524299538E-01 -0.75344288301E-02  0.35737005818E-01  0.00000000000E+00 0. -1.
  9000001    1    1    2    0    0  0.25825826189E-01  0.23524299538E-01  0.75344288301E-02  0.35750994182E-01  0.10000000475E-02 0.  1.
</event>
<event>
 4   0  0.4892667E-02  0.9118800E+02  0.7818609E-02  0.1379984E+01
      -11   -1    0    0    0    0  0.00000000000E+00  0.00000000000E+00  0.35740347158E-01  0.35744000000E-01  0.51099999109E-03 0.  1.
       11   -1    0    0    0    0 -0.00000000000E+00 -0.00000000000E+00 -0.35740347158E-01  0.35744000000E-01  0.51099999109E-03 0. -1.
       22    1    1    2    0    0  0.25445754641E-01 -0.23743876541E-01 -0.81163712586E-02  0.35737005818E-01  0.00000000000E+00 0. -1.
  9000001    1    1    2    0    0 -0.25445754641E-01  0.23743876541E-01  0.81163712586E-02  0.35750994182E-01  0.10000000475E-02 0.  1.
</event>
<event>
 4   0  0.4892667E-02  0.9118800E+02  0.7818609E-02  0.1379984E+01
      -11   -1    0    0    0    0  0.00000000000E+00  0.00000000000E+00  0.35740347158E-01  0.35744000000E-01  0.51099999109E-03 0.  1.
       11   -1    0    0    0    0 -0.00000000000E+00 -0.00000000000E+00 -0.35740347158E-01  0.35744000000E-01  0.51099999109E-03 0. -1.
       22    1    1    2    0    0  0.87042873546E-02  0.20211001732E-02 -0.34601793604E-01  0.35737005818E-01  0.00000000000E+00 0. -1.
  9000001    1    1    2    0    0 -0.87042873546E-02 -0.20211001732E-02  0.34601793604E-01  0.35750994182E-01  0.10000000475E-02 0.  1.
</event>
<event>
 4   0  0.4892667E-02  0.9118800E+02  0.7818609E-02  0.1379984E+01
      -11   -1    0    0    0    0  0.00000000000E+00  0.00000000000E+00  0.35740347158E-01  0.35744000000E-01  0.51099999109E-03 0.  1.
       11   -1    0    0    0    0 -0.00000000000E+00 -0.00000000000E+00 -0.35740347158E-01  0.35744000000E-01  0.51099999109E-03 0. -1.
       22    1    1    2    0    0 -0.13193337791E-02  0.76991174531E-02 -0.34872862425E-01  0.35737005818E-01  0.00000000000E+00 0. -1.
  9000001    1    1    2    0    0  0.13193337791E-02 -0.76991174531E-02  0.34872862425E-01  0.35750994182E-01  0.10000000475E-02 0.  1.
</event>
<event>
 4   0  0.4892667E-02  0.9118800E+02  0.7818609E-02  0.1379984E+01
      -11   -1    0    0    0    0  0.00000000000E+00  0.00000000000E+00  0.35740347158E-01  0.35744000000E-01  0.51099999109E-03 0. -1.
       11   -1    0    0    0    0 -0.00000000000E+00 -0.00000000000E+00 -0.35740347158E-01  0.35744000000E-01  0.51099999109E-03 0.  1.
       22    1    1    2    0    0  0.43294569979E-02 -0.11883329943E-02  0.35453874988E-01  0.35737005818E-01  0.00000000000E+00 0. -1.
  9000001    1    1    2    0    0 -0.43294569979E-02  0.11883329943E-02 -0.35453874988E-01  0.35750994182E-01  0.10000000475E-02 0.  1.
</event>
<event>
 4   0  0.4892667E-02  0.9118800E+02  0.7818609E-02  0.1379984E+01
      -11   -1    0    0    0    0  0.00000000000E+00  0.00000000000E+00  0.35740347158E-01  0.35744000000E-01  0.51099999109E-03 0.  1.
       11   -1    0    0    0    0 -0.00000000000E+00 -0.00000000000E+00 -0.35740347158E-01  0.35744000000E-01  0.51099999109E-03 0. -1.
       22    1    1    2    0    0 -0.35393577201E-01 -0.47828038358E-02 -0.12462203765E-02  0.35737005818E-01  0.00000000000E+00 0. -1.
  9000001    1    1    2    0    0  0.35393577201E-01  0.47828038358E-02  0.12462203765E-02  0.35750994182E-01  0.10000000475E-02 0.  1.
</event>
<event>
 4   0  0.4892667E-02  0.9118800E+02  0.7818609E-02  0.1379984E+01
      -11   -1    0    0    0    0  0.00000000000E+00  0.00000000000E+00  0.35740347158E-01  0.35744000000E-01  0.51099999109E-03 0.  1.
       11   -1    0    0    0    0 -0.00000000000E+00 -0.00000000000E+00 -0.35740347158E-01  0.35744000000E-01  0.51099999109E-03 0. -1.
       22    1    1    2    0    0 -0.51797750739E-02 -0.30669851398E-02 -0.35226369629E-01  0.35737005818E-01  0.00000000000E+00 0. -1.
  9000001    1    1    2    0    0  0.51797750739E-02  0.30669851398E-02  0.35226369629E-01  0.35750994182E-01  0.10000000475E-02 0.  1.
</event>
<event>
 4   0  0.4892667E-02  0.9118800E+02  0.7818609E-02  0.1379984E+01
      -11   -1    0    0    0    0  0.00000000000E+00  0.00000000000E+00  0.35740347158E-01  0.35744000000E-01  0.51099999109E-03 0. -1.
       11   -1    0    0    0    0 -0.00000000000E+00 -0.00000000000E+00 -0.35740347158E-01  0.35744000000E-01  0.51099999109E-03 0.  1.
       22    1    1    2    0    0 -0.27690718224E-01 -0.11650060624E-01  0.19355459089E-01  0.35737005818E-01  0.00000000000E+00 0. -1.
  9000001    1    1    2    0    0  0.27690718224E-01  0.11650060624E-01 -0.19355459089E-01  0.35750994182E-01  0.10000000475E-02 0.  1.
</event>
<event>
 4   0  0.4892667E-02  0.9118800E+02  0.7818609E-02  0.1379984E+01
      -11   -1    0    0    0    0  0.00000000000E+00  0.00000000000E+00  0.35740347158E-01  0.35744000000E-01  0.51099999109E-03 0.  1.
       11   -1    0    0    0    0 -0.00000000000E+00 -0.00000000000E+00 -0.35740347158E-01  0.35744000000E-01  0.51099999109E-03 0. -1.
       22    1    1    2    0    0  0.11284331225E-01 -0.54645512536E-02  0.33465446856E-01  0.35737005818E-01  0.00000000000E+00 0.  1.
  9000001    1    1    2    0    0 -0.11284331225E-01  0.54645512536E-02 -0.33465446856E-01  0.35750994182E-01  0.10000000475E-02 0. -1.
</event>
<event>
 4   0  0.4892667E-02  0.9118800E+02  0.7818609E-02  0.1379984E+01
      -11   -1    0    0    0    0  0.00000000000E+00  0.00000000000E+00  0.35740347158E-01  0.35744000000E-01  0.51099999109E-03 0.  1.
       11   -1    0    0    0    0 -0.00000000000E+00 -0.00000000000E+00 -0.35740347158E-01  0.35744000000E-01  0.51099999109E-03 0. -1.
       22    1    1    2    0    0  0.83927707035E-02  0.24416145706E-02  0.34651601739E-01  0.35737005818E-01  0.00000000000E+00 0.  1.
  9000001    1    1    2    0    0 -0.83927707035E-02 -0.24416145706E-02 -0.34651601739E-01  0.35750994182E-01  0.10000000475E-02 0. -1.
</event>
<event>
 4   0  0.4892667E-02  0.9118800E+02  0.7818609E-02  0.1379984E+01
      -11   -1    0    0    0    0  0.00000000000E+00  0.00000000000E+00  0.35740347158E-01  0.35744000000E-01  0.51099999109E-03 0. -1.
       11   -1    0    0    0    0 -0.00000000000E+00 -0.00000000000E+00 -0.35740347158E-01  0.35744000000E-01  0.51099999109E-03 0.  1.
       22    1    1    2    0    0 -0.88585352433E-02 -0.20741094025E-02 -0.34559485071E-01  0.35737005818E-01  0.00000000000E+00 0.  1.
  9000001    1    1    2    0    0  0.88585352433E-02  0.20741094025E-02  0.34559485071E-01  0.35750994182E-01  0.10000000475E-02 0. -1.
</event>
<event>
 4   0  0.4892667E-02  0.9118800E+02  0.7818609E-02  0.1379984E+01
      -11   -1    0    0    0    0  0.00000000000E+00  0.00000000000E+00  0.35740347158E-01  0.35744000000E-01  0.51099999109E-03 0. -1.
       11   -1    0    0    0    0 -0.00000000000E+00 -0.00000000000E+00 -0.35740347158E-01  0.35744000000E-01  0.51099999109E-03 0.  1.
       22    1    1    2    0    0 -0.14837426549E-01  0.12966319412E-01 -0.29813737089E-01  0.35737005818E-01  0.00000000000E+00 0.  1.
  9000001    1    1    2    0    0  0.14837426549E-01 -0.12966319412E-01  0.29813737089E-01  0.35750994182E-01  0.10000000475E-02 0. -1.
</event>
<event>
 4   0  0.4892667E-02  0.9118800E+02  0.7818609E-02  0.1379984E+01
      -11   -1    0    0    0    0  0.00000000000E+00  0.00000000000E+00  0.35740347158E-01  0.35744000000E-01  0.51099999109E-03 0.  1.
       11   -1    0    0    0    0 -0.00000000000E+00 -0.00000000000E+00 -0.35740347158E-01  0.35744000000E-01  0.51099999109E-03 0. -1.
       22    1    1    2    0    0 -0.72114657020E-02 -0.34318141339E-01 -0.68842953395E-02  0.35737005818E-01  0.00000000000E+00 0. -1.
  9000001    1    1    2    0    0  0.72114657020E-02  0.34318141339E-01  0.68842953395E-02  0.35750994182E-01  0.10000000475E-02 0.  1.
</event>
<event>
 4   0  0.4892667E-02  0.9118800E+02  0.7818609E-02  0.1379984E+01
      -11   -1    0    0    0    0  0.00000000000E+00  0.00000000000E+00  0.35740347158E-01  0.35744000000E-01  0.51099999109E-03 0. -1.
       11   -1    0    0    0    0 -0.00000000000E+00 -0.00000000000E+00 -0.35740347158E-01  0.35744000000E-01  0.51099999109E-03 0.  1.
       22    1    1    2    0    0 -0.18135432147E-02 -0.64484873223E-02 -0.35103584676E-01  0.35737005818E-01  0.00000000000E+00 0.  1.
  9000001    1    1    2    0    0  0.18135432147E-02  0.64484873223E-02  0.35103584676E-01  0.35750994182E-01  0.10000000475E-02 0. -1.
</event>
<event>
 4   0  0.4892667E-02  0.9118800E+02  0.7818609E-02  0.1379984E+01
      -11   -1    0    0    0    0  0.00000000000E+00  0.00000000000E+00  0.35740347158E-01  0.35744000000E-01  0.51099999109E-03 0. -1.
       11   -1    0    0    0    0 -0.00000000000E+00 -0.00000000000E+00 -0.35740347158E-01  0.35744000000E-01  0.51099999109E-03 0.  1.
       22    1    1    2    0    0 -0.44016555836E-03 -0.49148547274E-02  0.35394689463E-01  0.35737005818E-01  0.00000000000E+00 0. -1.
  9000001    1    1    2    0    0  0.44016555836E-03  0.49148547274E-02 -0.35394689463E-01  0.35750994182E-01  0.10000000475E-02 0.  1.
</event>
<event>
 4   0  0.4892667E-02  0.9118800E+02  0.7818609E-02  0.1379984E+01
      -11   -1    0    0    0    0  0.00000000000E+00  0.00000000000E+00  0.35740347158E-01  0.35744000000E-01  0.51099999109E-03 0.  1.
       11   -1    0    0    0    0 -0.00000000000E+00 -0.00000000000E+00 -0.35740347158E-01  0.35744000000E-01  0.51099999109E-03 0. -1.
       22    1    1    2    0    0  0.17171652921E-01  0.18362253357E-01 -0.25398731710E-01  0.35737005818E-01  0.00000000000E+00 0. -1.
  9000001    1    1    2    0    0 -0.17171652921E-01 -0.18362253357E-01  0.25398731710E-01  0.35750994182E-01  0.10000000475E-02 0.  1.
</event>
<event>
 4   0  0.4892667E-02  0.9118800E+02  0.7818609E-02  0.1379984E+01
      -11   -1    0    0    0    0  0.00000000000E+00  0.00000000000E+00  0.35740347158E-01  0.35744000000E-01  0.51099999109E-03 0. -1.
       11   -1    0    0    0    0 -0.00000000000E+00 -0.00000000000E+00 -0.35740347158E-01  0.35744000000E-01  0.51099999109E-03 0.  1.
       22    1    1    2    0    0  0.14635239633E-01  0.19983351877E-01 -0.25760609339E-01  0.35737005818E-01  0.00000000000E+00 0.  1.
  9000001    1    1    2    0    0 -0.14635239633E-01 -0.19983351877E-01  0.25760609339E-01  0.35750994182E-01  0.10000000475E-02 0. -1.
</event>
<event>
 4   0  0.4892667E-02  0.9118800E+02  0.7818609E-02  0.1379984E+01
      -11   -1    0    0    0    0  0.00000000000E+00  0.00000000000E+00  0.35740347158E-01  0.35744000000E-01  0.51099999109E-03 0.  1.
       11   -1    0    0    0    0 -0.00000000000E+00 -0.00000000000E+00 -0.35740347158E-01  0.35744000000E-01  0.51099999109E-03 0. -1.
       22    1    1    2    0    0 -0.30762737873E-01 -0.44784428351E-02 -0.17627566287E-01  0.35737005818E-01  0.00000000000E+00 0. -1.
  9000001    1    1    2    0    0  0.30762737873E-01  0.44784428351E-02  0.17627566287E-01  0.35750994182E-01  0.10000000475E-02 0.  1.
</event>
<event>
 4   0  0.4892667E-02  0.9118800E+02  0.7818609E-02  0.1379984E+01
      -11   -1    0    0    0    0  0.00000000000E+00  0.00000000000E+00  0.35740347158E-01  0.35744000000E-01  0.51099999109E-03 0. -1.
       11   -1    0    0    0    0 -0.00000000000E+00 -0.00000000000E+00 -0.35740347158E-01  0.35744000000E-01  0.51099999109E-03 0.  1.
       22    1    1    2    0    0 -0.70997350893E-02 -0.70887520697E-03  0.35017493378E-01  0.35737005818E-01  0.00000000000E+00 0. -1.
  9000001    1    1    2    0    0  0.70997350893E-02  0.70887520697E-03 -0.35017493378E-01  0.35750994182E-01  0.10000000475E-02 0.  1.
</event>
<event>
 4   0  0.4892667E-02  0.9118800E+02  0.7818609E-02  0.1379984E+01
      -11   -1    0    0    0    0  0.00000000000E+00  0.00000000000E+00  0.35740347158E-01  0.35744000000E-01  0.51099999109E-03 0.  1.
       11   -1    0    0    0    0 -0.00000000000E+00 -0.00000000000E+00 -0.35740347158E-01  0.35744000000E-01  0.51099999109E-03 0. -1.
       22    1    1    2    0    0  0.24306107669E-01 -0.11560789778E-02  0.26172699446E-01  0.35737005818E-01  0.00000000000E+00 0.  1.
  9000001    1    1    2    0    0 -0.24306107669E-01  0.11560789778E-02 -0.26172699446E-01  0.35750994182E-01  0.10000000475E-02 0. -1.
</event>
<event>
 4   0  0.4892667E-02  0.9118800E+02  0.7818609E-02  0.1379984E+01
      -11   -1    0    0    0    0  0.00000000000E+00  0.00000000000E+00  0.35740347158E-01  0.35744000000E-01  0.51099999109E-03 0. -1.
       11   -1    0    0    0    0 -0.00000000000E+00 -0.00000000000E+00 -0.35740347158E-01  0.35744000000E-01  0.51099999109E-03 0.  1.
       22    1    1    2    0    0 -0.34626133680E-02  0.14259160262E-02 -0.35540268106E-01  0.35737005818E-01  0.00000000000E+00 0.  1.
  9000001    1    1    2    0    0  0.34626133680E-02 -0.14259160262E-02  0.35540268106E-01  0.35750994182E-01  0.10000000475E-02 0. -1.
</event>
<event>
 4   0  0.4892667E-02  0.9118800E+02  0.7818609E-02  0.1379984E+01
      -11   -1    0    0    0    0  0.00000000000E+00  0.00000000000E+00  0.35740347158E-01  0.35744000000E-01  0.51099999109E-03 0.  1.
       11   -1    0    0    0    0 -0.00000000000E+00 -0.00000000000E+00 -0.35740347158E-01  0.35744000000E-01  0.51099999109E-03 0. -1.
       22    1    1    2    0    0  0.74708999646E-04  0.31692533381E-01 -0.16513973820E-01  0.35737005818E-01  0.00000000000E+00 0. -1.
  9000001    1    1    2    0    0 -0.74708999646E-04 -0.31692533381E-01  0.16513973820E-01  0.35750994182E-01  0.10000000475E-02 0.  1.
</event>
<event>
 4   0  0.4892667E-02  0.9118800E+02  0.7818609E-02  0.1379984E+01
      -11   -1    0    0    0    0  0.00000000000E+00  0.00000000000E+00  0.35740347158E-01  0.35744000000E-01  0.51099999109E-03 0. -1.
       11   -1    0    0    0    0 -0.00000000000E+00 -0.00000000000E+00 -0.35740347158E-01  0.35744000000E-01  0.51099999109E-03 0.  1.
       22    1    1    2    0    0 -0.11083091032E-01  0.13081512459E-01 -0.31355584987E-01  0.35737005818E-01  0.00000000000E+00 0.  1.
  9000001    1    1    2    0    0  0.11083091032E-01 -0.13081512459E-01  0.31355584987E-01  0.35750994182E-01  0.10000000475E-02 0. -1.
</event>
<event>
 4   0  0.4892667E-02  0.9118800E+02  0.7818609E-02  0.1379984E+01
      -11   -1    0    0    0    0  0.00000000000E+00  0.00000000000E+00  0.35740347158E-01  0.35744000000E-01  0.51099999109E-03 0. -1.
       11   -1    0    0    0    0 -0.00000000000E+00 -0.00000000000E+00 -0.35740347158E-01  0.35744000000E-01  0.51099999109E-03 0.  1.
       22    1    1    2    0    0  0.23879891256E-02  0.42695905047E-02  0.35400588833E-01  0.35737005818E-01  0.00000000000E+00 0. -1.
  9000001    1    1    2    0    0 -0.23879891256E-02 -0.42695905047E-02 -0.35400588833E-01  0.35750994182E-01  0.10000000475E-02 0.  1.
</event>
<event>
 4   0  0.4892667E-02  0.9118800E+02  0.7818609E-02  0.1379984E+01
      -11   -1    0    0    0    0  0.00000000000E+00  0.00000000000E+00  0.35740347158E-01  0.35744000000E-01  0.51099999109E-03 0.  1.
       11   -1    0    0    0    0 -0.00000000000E+00 -0.00000000000E+00 -0.35740347158E-01  0.35744000000E-01  0.51099999109E-03 0. -1.
       22    1    1    2    0    0 -0.38846058453E-02 -0.25282091525E-02 -0.35435174344E-01  0.35737005818E-01  0.00000000000E+00 0. -1.
  9000001    1    1    2    0    0  0.38846058453E-02  0.25282091525E-02  0.35435174344E-01  0.35750994182E-01  0.10000000475E-02 0.  1.
</event>
<event>
 4   0  0.4892667E-02  0.9118800E+02  0.7818609E-02  0.1379984E+01
      -11   -1    0    0    0    0  0.00000000000E+00  0.00000000000E+00  0.35740347158E-01  0.35744000000E-01  0.51099999109E-03 0.  1.
       11   -1    0    0    0    0 -0.00000000000E+00 -0.00000000000E+00 -0.35740347158E-01  0.35744000000E-01  0.51099999109E-03 0. -1.
       22    1    1    2    0    0  0.28862231955E-01 -0.15964703900E-01  0.13756212446E-01  0.35737005818E-01  0.00000000000E+00 0.  1.
  9000001    1    1    2    0    0 -0.28862231955E-01  0.15964703900E-01 -0.13756212446E-01  0.35750994182E-01  0.10000000475E-02 0. -1.
</event>
<event>
 4   0  0.4892667E-02  0.9118800E+02  0.7818609E-02  0.1379984E+01
      -11   -1    0    0    0    0  0.00000000000E+00  0.00000000000E+00  0.35740347158E-01  0.35744000000E-01  0.51099999109E-03 0.  1.
       11   -1    0    0    0    0 -0.00000000000E+00 -0.00000000000E+00 -0.35740347158E-01  0.35744000000E-01  0.51099999109E-03 0. -1.
       22    1    1    2    0    0  0.67860023178E-02 -0.49976737276E-02 -0.34729051452E-01  0.35737005818E-01  0.00000000000E+00 0. -1.
  9000001    1    1    2    0    0 -0.67860023178E-02  0.49976737276E-02  0.34729051452E-01  0.35750994182E-01  0.10000000475E-02 0.  1.
</event>
<event>
 4   0  0.4892667E-02  0.9118800E+02  0.7818609E-02  0.1379984E+01
      -11   -1    0    0    0    0  0.00000000000E+00  0.00000000000E+00  0.35740347158E-01  0.35744000000E-01  0.51099999109E-03 0.  1.
       11   -1    0    0    0    0 -0.00000000000E+00 -0.00000000000E+00 -0.35740347158E-01  0.35744000000E-01  0.51099999109E-03 0. -1.
       22    1    1    2    0    0 -0.23534884773E-01 -0.26860834614E-01 -0.13184640565E-02  0.35737005818E-01  0.00000000000E+00 0.  1.
  9000001    1    1    2    0    0  0.23534884773E-01  0.26860834614E-01  0.13184640565E-02  0.35750994182E-01  0.10000000475E-02 0. -1.
</event>
<event>
 4   0  0.4892667E-02  0.9118800E+02  0.7818609E-02  0.1379984E+01
      -11   -1    0    0    0    0  0.00000000000E+00  0.00000000000E+00  0.35740347158E-01  0.35744000000E-01  0.51099999109E-03 0. -1.
       11   -1    0    0    0    0 -0.00000000000E+00 -0.00000000000E+00 -0.35740347158E-01  0.35744000000E-01  0.51099999109E-03 0.  1.
       22    1    1    2    0    0  0.94344725636E-02  0.29165405760E-02 -0.34345568905E-01  0.35737005818E-01  0.00000000000E+00 0.  1.
  9000001    1    1    2    0    0 -0.94344725636E-02 -0.29165405760E-02  0.34345568905E-01  0.35750994182E-01  0.10000000475E-02 0. -1.
</event>
<event>
 4   0  0.4892667E-02  0.9118800E+02  0.7818609E-02  0.1379984E+01
      -11   -1    0    0    0    0  0.00000000000E+00  0.00000000000E+00  0.35740347158E-01  0.35744000000E-01  0.51099999109E-03 0. -1.
       11   -1    0    0    0    0 -0.00000000000E+00 -0.00000000000E+00 -0.35740347158E-01  0.35744000000E-01  0.51099999109E-03 0.  1.
       22    1    1    2    0    0  0.26968820722E-01  0.67832494146E-02 -0.22445574644E-01  0.35737005818E-01  0.00000000000E+00 0.  1.
  9000001    1    1    2    0    0 -0.26968820722E-01 -0.67832494146E-02  0.22445574644E-01  0.35750994182E-01  0.10000000475E-02 0. -1.
</event>
<event>
 4   0  0.4892667E-02  0.9118800E+02  0.7818609E-02  0.1379984E+01
      -11   -1    0    0    0    0  0.00000000000E+00  0.00000000000E+00  0.35740347158E-01  0.35744000000E-01  0.51099999109E-03 0. -1.
       11   -1    0    0    0    0 -0.00000000000E+00 -0.00000000000E+00 -0.35740347158E-01  0.35744000000E-01  0.51099999109E-03 0.  1.
       22    1    1    2    0    0 -0.91525547837E-02 -0.34448671310E-02  0.34372913991E-01  0.35737005818E-01  0.00000000000E+00 0. -1.
  9000001    1    1    2    0    0  0.91525547837E-02  0.34448671310E-02 -0.34372913991E-01  0.35750994182E-01  0.10000000475E-02 0.  1.
</event>
<event>
 4   0  0.4892667E-02  0.9118800E+02  0.7818609E-02  0.1379984E+01
      -11   -1    0    0    0    0  0.00000000000E+00  0.00000000000E+00  0.35740347158E-01  0.35744000000E-01  0.51099999109E-03 0.  1.
       11   -1    0    0    0    0 -0.00000000000E+00 -0.00000000000E+00 -0.35740347158E-01  0.35744000000E-01  0.51099999109E-03 0. -1.
       22    1    1    2    0    0 -0.51561216505E-02  0.10718224419E-02  0.35346841316E-01  0.35737005818E-01  0.00000000000E+00 0.  1.
  9000001    1    1    2    0    0  0.51561216505E-02 -0.10718224419E-02 -0.35346841316E-01  0.35750994182E-01  0.10000000475E-02 0. -1.
</event>
<event>
 4   0  0.4892667E-02  0.9118800E+02  0.7818609E-02  0.1379984E+01
      -11   -1    0    0    0    0  0.00000000000E+00  0.00000000000E+00  0.35740347158E-01  0.35744000000E-01  0.51099999109E-03 0.  1.
       11   -1    0    0    0    0 -0.00000000000E+00 -0.00000000000E+00 -0.35740347158E-01  0.35744000000E-01  0.51099999109E-03 0. -1.
       22    1    1    2    0    0  0.33494688310E-02  0.15607552447E-02  0.35545445369E-01  0.35737005818E-01  0.00000000000E+00 0.  1.
  9000001    1    1    2    0    0 -0.33494688310E-02 -0.15607552447E-02 -0.35545445369E-01  0.35750994182E-01  0.10000000475E-02 0. -1.
</event>
<event>
 4   0  0.4892667E-02  0.9118800E+02  0.7818609E-02  0.1379984E+01
      -11   -1    0    0    0    0  0.00000000000E+00  0.00000000000E+00  0.35740347158E-01  0.35744000000E-01  0.51099999109E-03 0.  1.
       11   -1    0    0    0    0 -0.00000000000E+00 -0.00000000000E+00 -0.35740347158E-01  0.35744000000E-01  0.51099999109E-03 0. -1.
       22    1    1    2    0    0  0.35777203611E-02 -0.58911021443E-02 -0.35066057911E-01  0.35737005818E-01  0.00000000000E+00 0. -1.
  9000001    1    1    2    0    0 -0.35777203611E-02  0.58911021443E-02  0.35066057911E-01  0.35750994182E-01  0.10000000475E-02 0.  1.
</event>
<event>
 4   0  0.4892667E-02  0.9118800E+02  0.7818609E-02  0.1379984E+01
      -11   -1    0    0    0    0  0.00000000000E+00  0.00000000000E+00  0.35740347158E-01  0.35744000000E-01  0.51099999109E-03 0.  1.
       11   -1    0    0    0    0 -0.00000000000E+00 -0.00000000000E+00 -0.35740347158E-01  0.35744000000E-01  0.51099999109E-03 0. -1.
       22    1    1    2    0    0  0.25630117470E-02 -0.29827655209E-02  0.35519961508E-01  0.35737005818E-01  0.00000000000E+00 0.  1.
  9000001    1    1    2    0    0 -0.25630117470E-02  0.29827655209E-02 -0.35519961508E-01  0.35750994182E-01  0.10000000475E-02 0. -1.
</event>
<event>
 4   0  0.4892667E-02  0.9118800E+02  0.7818609E-02  0.1379984E+01
      -11   -1    0    0    0    0  0.00000000000E+00  0.00000000000E+00  0.35740347158E-01  0.35744000000E-01  0.51099999109E-03 0. -1.
       11   -1    0    0    0    0 -0.00000000000E+00 -0.00000000000E+00 -0.35740347158E-01  0.35744000000E-01  0.51099999109E-03 0.  1.
       22    1    1    2    0    0 -0.35195958522E-01 -0.61791803062E-02  0.44251476553E-03  0.35737005818E-01  0.00000000000E+00 0. -1.
  9000001    1    1    2    0    0  0.35195958522E-01  0.61791803062E-02 -0.44251476553E-03  0.35750994182E-01  0.10000000475E-02 0.  1.
</event>
<event>
 4   0  0.4892667E-02  0.9118800E+02  0.7818609E-02  0.1379984E+01
      -11   -1    0    0    0    0  0.00000000000E+00  0.00000000000E+00  0.35740347158E-01  0.35744000000E-01  0.51099999109E-03 0.  1.
       11   -1    0    0    0    0 -0.00000000000E+00 -0.00000000000E+00 -0.35740347158E-01  0.35744000000E-01  0.51099999109E-03 0. -1.
       22    1    1    2    0    0 -0.26288499499E-01 -0.12995453791E-01 -0.20424655682E-01  0.35737005818E-01  0.00000000000E+00 0. -1.
  9000001    1    1    2    0    0  0.26288499499E-01  0.12995453791E-01  0.20424655682E-01  0.35750994182E-01  0.10000000475E-02 0.  1.
</event>
<event>
 4   0  0.4892667E-02  0.9118800E+02  0.7818609E-02  0.1379984E+01
      -11   -1    0    0    0    0  0.00000000000E+00  0.00000000000E+00  0.35740347158E-01  0.35744000000E-01  0.51099999109E-03 0. -1.
       11   -1    0    0    0    0 -0.00000000000E+00 -0.00000000000E+00 -0.35740347158E-01  0.35744000000E-01  0.51099999109E-03 0.  1.
       22    1    1    2    0    0 -0.80739366452E-02  0.10411276350E-01  0.33219729931E-01  0.35737005818E-01  0.00000000000E+00 0. -1.
  9000001    1    1    2    0    0  0.80739366452E-02 -0.10411276350E-01 -0.33219729931E-01  0.35750994182E-01  0.10000000475E-02 0.  1.
</event>
<event>
 4   0  0.4892667E-02  0.9118800E+02  0.7818609E-02  0.1379984E+01
      -11   -1    0    0    0    0  0.00000000000E+00  0.00000000000E+00  0.35740347158E-01  0.35744000000E-01  0.51099999109E-03 0.  1.
       11   -1    0    0    0    0 -0.00000000000E+00 -0.00000000000E+00 -0.35740347158E-01  0.35744000000E-01  0.51099999109E-03 0. -1.
       22    1    1    2    0    0 -0.21568132601E-02 -0.90143533226E-02 -0.34514101113E-01  0.35737005818E-01  0.00000000000E+00 0. -1.
  9000001    1    1    2    0    0  0.21568132601E-02  0.90143533226E-02  0.34514101113E-01  0.35750994182E-01  0.10000000475E-02 0.  1.
</event>
<event>
 4   0  0.4892667E-02  0.9118800E+02  0.7818609E-02  0.1379984E+01
      -11   -1    0    0    0    0  0.00000000000E+00  0.00000000000E+00  0.35740347158E-01  0.35744000000E-01  0.51099999109E-03 0. -1.
       11   -1    0    0    0    0 -0.00000000000E+00 -0.00000000000E+00 -0.35740347158E-01  0.35744000000E-01  0.51099999109E-03 0.  1.
       22    1    1    2    0    0  0.30695672534E-03  0.11516459935E-01  0.33829137042E-01  0.35737005818E-01  0.00000000000E+00 0. -1.
  9000001    1    1    2    0    0 -0.30695672534E-03 -0.11516459935E-01 -0.33829137042E-01  0.35750994182E-01  0.10000000475E-02 0.  1.
</event>
<event>
 4   0  0.4892667E-02  0.9118800E+02  0.7818609E-02  0.1379984E+01
      -11   -1    0    0    0    0  0.00000000000E+00  0.00000000000E+00  0.35740347158E-01  0.35744000000E-01  0.51099999109E-03 0.  1.
       11   -1    0    0    0    0 -0.00000000000E+00 -0.00000000000E+00 -0.35740347158E-01  0.35744000000E-01  0.51099999109E-03 0. -1.
       22    1    1    2    0    0  0.55272066826E-02 -0.74924867421E-02 -0.34502843558E-01  0.35737005818E-01  0.00000000000E+00 0. -1.
  9000001    1    1    2    0    0 -0.55272066826E-02  0.74924867421E-02  0.34502843558E-01  0.35750994182E-01  0.10000000475E-02 0.  1.
</event>
<event>
 4   0  0.4892667E-02  0.9118800E+02  0.7818609E-02  0.1379984E+01
      -11   -1    0    0    0    0  0.00000000000E+00  0.00000000000E+00  0.35740347158E-01  0.35744000000E-01  0.51099999109E-03 0.  1.
       11   -1    0    0    0    0 -0.00000000000E+00 -0.00000000000E+00 -0.35740347158E-01  0.35744000000E-01  0.51099999109E-03 0. -1.
       22    1    1    2    0    0 -0.77433168933E-02  0.13479471685E-01 -0.32178851307E-01  0.35737005818E-01  0.00000000000E+00 0. -1.
  9000001    1    1    2    0    0  0.77433168933E-02 -0.13479471685E-01  0.32178851307E-01  0.35750994182E-01  0.10000000475E-02 0.  1.
</event>
<event>
 4   0  0.4892667E-02  0.9118800E+02  0.7818609E-02  0.1379984E+01
      -11   -1    0    0    0    0  0.00000000000E+00  0.00000000000E+00  0.35740347158E-01  0.35744000000E-01  0.51099999109E-03 0.  1.
       11   -1    0    0    0    0 -0.00000000000E+00 -0.00000000000E+00 -0.35740347158E-01  0.35744000000E-01  0.51099999109E-03 0. -1.
       22    1    1    2    0    0  0.39665857072E-03  0.12318733404E-01  0.33544374404E-01  0.35737005818E-01  0.00000000000E+00 0.  1.
  9000001    1    1    2    0    0 -0.39665857072E-03 -0.12318733404E-01 -0.33544374404E-01  0.35750994182E-01  0.10000000475E-02 0. -1.
</event>
<event>
 4   0  0.4892667E-02  0.9118800E+02  0.7818609E-02  0.1379984E+01
      -11   -1    0    0    0    0  0.00000000000E+00  0.00000000000E+00  0.35740347158E-01  0.35744000000E-01  0.51099999109E-03 0. -1.
       11   -1    0    0    0    0 -0.00000000000E+00 -0.00000000000E+00 -0.35740347158E-01  0.35744000000E-01  0.51099999109E-03 0.  1.
       22    1    1    2    0    0  0.23253154880E-01  0.93520848856E-02 -0.25474749877E-01  0.35737005818E-01  0.00000000000E+00 0.  1.
  9000001    1    1    2    0    0 -0.23253154880E-01 -0.93520848856E-02  0.25474749877E-01  0.35750994182E-01  0.10000000475E-02 0. -1.
</event>
<event>
 4   0  0.4892667E-02  0.9118800E+02  0.7818609E-02  0.1379984E+01
      -11   -1    0    0    0    0  0.00000000000E+00  0.00000000000E+00  0.35740347158E-01  0.35744000000E-01  0.51099999109E-03 0.  1.
       11   -1    0    0    0    0 -0.00000000000E+00 -0.00000000000E+00 -0.35740347158E-01  0.35744000000E-01  0.51099999109E-03 0. -1.
       22    1    1    2    0    0 -0.47526640040E-02 -0.44491692497E-02 -0.35139019092E-01  0.35737005818E-01  0.00000000000E+00 0. -1.
  9000001    1    1    2    0    0  0.47526640040E-02  0.44491692497E-02  0.35139019092E-01  0.35750994182E-01  0.10000000475E-02 0.  1.
</event>
<event>
 4   0  0.4892667E-02  0.9118800E+02  0.7818609E-02  0.1379984E+01
      -11   -1    0    0    0    0  0.00000000000E+00  0.00000000000E+00  0.35740347158E-01  0.35744000000E-01  0.51099999109E-03 0. -1.
       11   -1    0    0    0    0 -0.00000000000E+00 -0.00000000000E+00 -0.35740347158E-01  0.35744000000E-01  0.51099999109E-03 0.  1.
       22    1    1    2    0    0 -0.31953675946E-01 -0.14956654800E-01  0.56916303137E-02  0.35737005818E-01  0.00000000000E+00 0. -1.
  9000001    1    1    2    0    0  0.31953675946E-01  0.14956654800E-01 -0.56916303137E-02  0.35750994182E-01  0.10000000475E-02 0.  1.
</event>
<event>
 4   0  0.4892667E-02  0.9118800E+02  0.7818609E-02  0.1379984E+01
      -11   -1    0    0    0    0  0.00000000000E+00  0.00000000000E+00  0.35740347158E-01  0.35744000000E-01  0.51099999109E-03 0. -1.
       11   -1    0    0    0    0 -0.00000000000E+00 -0.00000000000E+00 -0.35740347158E-01  0.35744000000E-01  0.51099999109E-03 0.  1.
       22    1    1    2    0    0  0.24941413844E-01  0.23978604319E-02 -0.25481556578E-01  0.35737005818E-01  0.00000000000E+00 0.  1.
  9000001    1    1    2    0    0 -0.24941413844E-01 -0.23978604319E-02  0.25481556578E-01  0.35750994182E-01  0.10000000475E-02 0. -1.
</event>
<event>
 4   0  0.4892667E-02  0.9118800E+02  0.7818609E-02  0.1379984E+01
      -11   -1    0    0    0    0  0.00000000000E+00  0.00000000000E+00  0.35740347158E-01  0.35744000000E-01  0.51099999109E-03 0. -1.
       11   -1    0    0    0    0 -0.00000000000E+00 -0.00000000000E+00 -0.35740347158E-01  0.35744000000E-01  0.51099999109E-03 0.  1.
       22    1    1    2    0    0  0.14067376593E-01  0.54072034250E-02 -0.32403775270E-01  0.35737005818E-01  0.00000000000E+00 0.  1.
  9000001    1    1    2    0    0 -0.14067376593E-01 -0.54072034250E-02  0.32403775270E-01  0.35750994182E-01  0.10000000475E-02 0. -1.
</event>
<event>
 4   0  0.4892667E-02  0.9118800E+02  0.7818609E-02  0.1379984E+01
      -11   -1    0    0    0    0  0.00000000000E+00  0.00000000000E+00  0.35740347158E-01  0.35744000000E-01  0.51099999109E-03 0. -1.
       11   -1    0    0    0    0 -0.00000000000E+00 -0.00000000000E+00 -0.35740347158E-01  0.35744000000E-01  0.51099999109E-03 0.  1.
       22    1    1    2    0    0 -0.78804196266E-02  0.16529941169E-01  0.30688656151E-01  0.35737005818E-01  0.00000000000E+00 0. -1.
  9000001    1    1    2    0    0  0.78804196266E-02 -0.16529941169E-01 -0.30688656151E-01  0.35750994182E-01  0.10000000475E-02 0.  1.
</event>
<event>
 4   0  0.4892667E-02  0.9118800E+02  0.7818609E-02  0.1379984E+01
      -11   -1    0    0    0    0  0.00000000000E+00  0.00000000000E+00  0.35740347158E-01  0.35744000000E-01  0.51099999109E-03 0. -1.
       11   -1    0    0    0    0 -0.00000000000E+00 -0.00000000000E+00 -0.35740347158E-01  0.35744000000E-01  0.51099999109E-03 0.  1.
       22    1    1    2    0    0 -0.47441871313E-03 -0.40885007330E-02 -0.35499192575E-01  0.35737005818E-01  0.00000000000E+00 0.  1.
  9000001    1    1    2    0    0  0.47441871313E-03  0.40885007330E-02  0.35499192575E-01  0.35750994182E-01  0.10000000475E-02 0. -1.
</event>
<event>
 4   0  0.4892667E-02  0.9118800E+02  0.7818609E-02  0.1379984E+01
      -11   -1    0    0    0    0  0.00000000000E+00  0.00000000000E+00  0.35740347158E-01  0.35744000000E-01  0.51099999109E-03 0.  1.
       11   -1    0    0    0    0 -0.00000000000E+00 -0.00000000000E+00 -0.35740347158E-01  0.35744000000E-01  0.51099999109E-03 0. -1.
       22    1    1    2    0    0 -0.29966810325E-01 -0.11781241236E-01  0.15502458475E-01  0.35737005818E-01  0.00000000000E+00 0. -1.
  9000001    1    1    2    0    0  0.29966810325E-01  0.11781241236E-01 -0.15502458475E-01  0.35750994182E-01  0.10000000475E-02 0.  1.
</event>
<event>
 4   0  0.4892667E-02  0.9118800E+02  0.7818609E-02  0.1379984E+01
      -11   -1    0    0    0    0  0.00000000000E+00  0.00000000000E+00  0.35740347158E-01  0.35744000000E-01  0.51099999109E-03 0.  1.
       11   -1    0    0    0    0 -0.00000000000E+00 -0.00000000000E+00 -0.35740347158E-01  0.35744000000E-01  0.51099999109E-03 0. -1.
       22    1    1    2    0    0  0.20131482487E-02  0.10616256560E-01 -0.34064290917E-01  0.35737005818E-01  0.00000000000E+00 0. -1.
  9000001    1    1    2    0    0 -0.20131482487E-02 -0.10616256560E-01  0.34064290917E-01  0.35750994182E-01  0.10000000475E-02 0.  1.
</event>
<event>
 4   0  0.4892667E-02  0.9118800E+02  0.7818609E-02  0.1379984E+01
      -11   -1    0    0    0    0  0.00000000000E+00  0.00000000000E+00  0.35740347158E-01  0.35744000000E-01  0.51099999109E-03 0. -1.
       11   -1    0    0    0    0 -0.00000000000E+00 -0.00000000000E+00 -0.35740347158E-01  0.35744000000E-01  0.51099999109E-03 0.  1.
       22    1    1    2    0    0  0.58217274308E-03 -0.50895472882E-02 -0.35367939835E-01  0.35737005818E-01  0.00000000000E+00 0.  1.
  9000001    1    1    2    0    0 -0.58217274308E-03  0.50895472882E-02  0.35367939835E-01  0.35750994182E-01  0.10000000475E-02 0. -1.
</event>
<event>
 4   0  0.4892667E-02  0.9118800E+02  0.7818609E-02  0.1379984E+01
      -11   -1    0    0    0    0  0.00000000000E+00  0.00000000000E+00  0.35740347158E-01  0.35744000000E-01  0.51099999109E-03 0. -1.
       11   -1    0    0    0    0 -0.00000000000E+00 -0.00000000000E+00 -0.35740347158E-01  0.35744000000E-01  0.51099999109E-03 0.  1.
       22    1    1    2    0    0  0.11640491575E-01 -0.30907551720E-02  0.33646393168E-01  0.35737005818E-01  0.00000000000E+00 0. -1.
  9000001    1    1    2    0    0 -0.11640491575E-01  0.30907551720E-02 -0.33646393168E-01  0.35750994182E-01  0.10000000475E-02 0.  1.
</event>
<event>
 4   0  0.4892667E-02  0.9118800E+02  0.7818609E-02  0.1379984E+01
      -11   -1    0    0    0    0  0.00000000000E+00  0.00000000000E+00  0.35740347158E-01  0.35744000000E-01  0.51099999109E-03 0.  1.
       11   -1    0    0    0    0 -0.00000000000E+00 -0.00000000000E+00 -0.35740347158E-01  0.35744000000E-01  0.51099999109E-03 0. -1.
       22    1    1    2    0    0 -0.10126415802E-02  0.32442209018E-02 -0.35575035807E-01  0.35737005818E-01  0.00000000000E+00 0. -1.
  9000001    1    1    2    0    0  0.10126415802E-02 -0.32442209018E-02  0.35575035807E-01  0.35750994182E-01  0.10000000475E-02 0.  1.
</event>
<event>
 4   0  0.4892667E-02  0.9118800E+02  0.7818609E-02  0.1379984E+01
      -11   -1    0    0    0    0  0.00000000000E+00  0.00000000000E+00  0.35740347158E-01  0.35744000000E-01  0.51099999109E-03 0. -1.
       11   -1    0    0    0    0 -0.00000000000E+00 -0.00000000000E+00 -0.35740347158E-01  0.35744000000E-01  0.51099999109E-03 0.  1.
       22    1    1    2    0    0 -0.38255713608E-02 -0.60768577937E-03 -0.35526459247E-01  0.35737005818E-01  0.00000000000E+00 0.  1.
  9000001    1    1    2    0    0  0.38255713608E-02  0.60768577937E-03  0.35526459247E-01  0.35750994182E-01  0.10000000475E-02 0. -1.
</event>
<event>
 4   0  0.4892667E-02  0.9118800E+02  0.7818609E-02  0.1379984E+01
      -11   -1    0    0    0    0  0.00000000000E+00  0.00000000000E+00  0.35740347158E-01  0.35744000000E-01  0.51099999109E-03 0.  1.
       11   -1    0    0    0    0 -0.00000000000E+00 -0.00000000000E+00 -0.35740347158E-01  0.35744000000E-01  0.51099999109E-03 0. -1.
       22    1    1    2    0    0  0.71540479043E-02  0.52068025824E-02  0.34624303463E-01  0.35737005818E-01  0.00000000000E+00 0.  1.
  9000001    1    1    2    0    0 -0.71540479043E-02 -0.52068025824E-02 -0.34624303463E-01  0.35750994182E-01  0.10000000475E-02 0. -1.
</event>
<event>
 4   0  0.4892667E-02  0.9118800E+02  0.7818609E-02  0.1379984E+01
      -11   -1    0    0    0    0  0.00000000000E+00  0.00000000000E+00  0.35740347158E-01  0.35744000000E-01  0.51099999109E-03 0. -1.
       11   -1    0    0    0    0 -0.00000000000E+00 -0.00000000000E+00 -0.35740347158E-01  0.35744000000E-01  0.51099999109E-03 0.  1.
       22    1    1    2    0    0  0.13040912172E-01  0.52780726086E-03 -0.33268447726E-01  0.35737005818E-01  0.00000000000E+00 0.  1.
  9000001    1    1    2    0    0 -0.13040912172E-01 -0.52780726086E-03  0.33268447726E-01  0.35750994182E-01  0.10000000475E-02 0. -1.
</event>
<event>
 4   0  0.4892667E-02  0.9118800E+02  0.7818609E-02  0.1379984E+01
      -11   -1    0    0    0    0  0.00000000000E+00  0.00000000000E+00  0.35740347158E-01  0.35744000000E-01  0.51099999109E-03 0.  1.
       11   -1    0    0    0    0 -0.00000000000E+00 -0.00000000000E+00 -0.35740347158E-01  0.35744000000E-01  0.51099999109E-03 0. -1.
       22    1    1    2    0    0  0.51611768466E-02 -0.25931308209E-02  0.35267144922E-01  0.35737005818E-01  0.00000000000E+00 0.  1.
  9000001    1    1    2    0    0 -0.51611768466E-02  0.25931308209E-02 -0.35267144922E-01  0.35750994182E-01  0.10000000475E-02 0. -1.
</event>
<event>
 4   0  0.4892667E-02  0.9118800E+02  0.7818609E-02  0.1379984E+01
      -11   -1    0    0    0    0  0.00000000000E+00  0.00000000000E+00  0.35740347158E-01  0.35744000000E-01  0.51099999109E-03 0. -1.
       11   -1    0    0    0    0 -0.00000000000E+00 -0.00000000000E+00 -0.35740347158E-01  0.35744000000E-01  0.51099999109E-03 0.  1.
       22    1    1    2    0    0 -0.83598853494E-02  0.45163753847E-03 -0.34742508910E-01  0.35737005818E-01  0.00000000000E+00 0.  1.
  9000001    1    1    2    0    0  0.83598853494E-02 -0.45163753847E-03  0.34742508910E-01  0.35750994182E-01  0.10000000475E-02 0. -1.
</event>
<event>
 4   0  0.4892667E-02  0.9118800E+02  0.7818609E-02  0.1379984E+01
      -11   -1    0    0    0    0  0.00000000000E+00  0.00000000000E+00  0.35740347158E-01  0.35744000000E-01  0.51099999109E-03 0.  1.
       11   -1    0    0    0    0 -0.00000000000E+00 -0.00000000000E+00 -0.35740347158E-01  0.35744000000E-01  0.51099999109E-03 0. -1.
       22    1    1    2    0    0  0.26998247999E-01  0.21860194843E-01 -0.83880910394E-02  0.35737005818E-01  0.00000000000E+00 0. -1.
  9000001    1    1    2    0    0 -0.26998247999E-01 -0.21860194843E-01  0.83880910394E-02  0.35750994182E-01  0.10000000475E-02 0.  1.
</event>
<event>
 4   0  0.4892667E-02  0.9118800E+02  0.7818609E-02  0.1379984E+01
      -11   -1    0    0    0    0  0.00000000000E+00  0.00000000000E+00  0.35740347158E-01  0.35744000000E-01  0.51099999109E-03 0.  1.
       11   -1    0    0    0    0 -0.00000000000E+00 -0.00000000000E+00 -0.35740347158E-01  0.35744000000E-01  0.51099999109E-03 0. -1.
       22    1    1    2    0    0  0.90327039686E-02  0.51286068635E-02  0.34194169613E-01  0.35737005818E-01  0.00000000000E+00 0.  1.
  9000001    1    1    2    0    0 -0.90327039686E-02 -0.51286068635E-02 -0.34194169613E-01  0.35750994182E-01  0.10000000475E-02 0. -1.
</event>
<event>
 4   0  0.4892667E-02  0.9118800E+02  0.7818609E-02  0.1379984E+01
      -11   -1    0    0    0    0  0.00000000000E+00  0.00000000000E+00  0.35740347158E-01  0.35744000000E-01  0.51099999109E-03 0. -1.
       11   -1    0    0    0    0 -0.00000000000E+00 -0.00000000000E+00 -0.35740347158E-01  0.35744000000E-01  0.51099999109E-03 0.  1.
       22    1    1    2    0    0 -0.39320965982E-02  0.17596791963E-03  0.35519589475E-01  0.35737005818E-01  0.00000000000E+00 0. -1.
  9000001    1    1    2    0    0  0.39320965982E-02 -0.17596791963E-03 -0.35519589475E-01  0.35750994182E-01  0.10000000475E-02 0.  1.
</event>
<event>
 4   0  0.4892667E-02  0.9118800E+02  0.7818609E-02  0.1379984E+01
      -11   -1    0    0    0    0  0.00000000000E+00  0.00000000000E+00  0.35740347158E-01  0.35744000000E-01  0.51099999109E-03 0. -1.
       11   -1    0    0    0    0 -0.00000000000E+00 -0.00000000000E+00 -0.35740347158E-01  0.35744000000E-01  0.51099999109E-03 0.  1.
       22    1    1    2    0    0 -0.60480604728E-02 -0.31010377031E-02  0.35084727654E-01  0.35737005818E-01  0.00000000000E+00 0. -1.
  9000001    1    1    2    0    0  0.60480604728E-02  0.31010377031E-02 -0.35084727654E-01  0.35750994182E-01  0.10000000475E-02 0.  1.
</event>
<event>
 4   0  0.4892667E-02  0.9118800E+02  0.7818609E-02  0.1379984E+01
      -11   -1    0    0    0    0  0.00000000000E+00  0.00000000000E+00  0.35740347158E-01  0.35744000000E-01  0.51099999109E-03 0. -1.
       11   -1    0    0    0    0 -0.00000000000E+00 -0.00000000000E+00 -0.35740347158E-01  0.35744000000E-01  0.51099999109E-03 0.  1.
       22    1    1    2    0    0 -0.28916120270E-02 -0.12658296867E-02  0.35597329113E-01  0.35737005818E-01  0.00000000000E+00 0. -1.
  9000001    1    1    2    0    0  0.28916120270E-02  0.12658296867E-02 -0.35597329113E-01  0.35750994182E-01  0.10000000475E-02 0.  1.
</event>
<event>
 4   0  0.4892667E-02  0.9118800E+02  0.7818609E-02  0.1379984E+01
      -11   -1    0    0    0    0  0.00000000000E+00  0.00000000000E+00  0.35740347158E-01  0.35744000000E-01  0.51099999109E-03 0.  1.
       11   -1    0    0    0    0 -0.00000000000E+00 -0.00000000000E+00 -0.35740347158E-01  0.35744000000E-01  0.51099999109E-03 0. -1.
       22    1    1    2    0    0 -0.61595297765E-02  0.31721949149E-02  0.35058964007E-01  0.35737005818E-01  0.00000000000E+00 0.  1.
  9000001    1    1    2    0    0  0.61595297765E-02 -0.31721949149E-02 -0.35058964007E-01  0.35750994182E-01  0.10000000475E-02 0. -1.
</event>
<event>
 4   0  0.4892667E-02  0.9118800E+02  0.7818609E-02  0.1379984E+01
      -11   -1    0    0    0    0  0.00000000000E+00  0.00000000000E+00  0.35740347158E-01  0.35744000000E-01  0.51099999109E-03 0.  1.
       11   -1    0    0    0    0 -0.00000000000E+00 -0.00000000000E+00 -0.35740347158E-01  0.35744000000E-01  0.51099999109E-03 0. -1.
       22    1    1    2    0    0 -0.91598182294E-02  0.77262581031E-02  0.33668030097E-01  0.35737005818E-01  0.00000000000E+00 0.  1.
  9000001    1    1    2    0    0  0.91598182294E-02 -0.77262581031E-02 -0.33668030097E-01  0.35750994182E-01  0.10000000475E-02 0. -1.
</event>
<event>
 4   0  0.4892667E-02  0.9118800E+02  0.7818609E-02  0.1379984E+01
      -11   -1    0    0    0    0  0.00000000000E+00  0.00000000000E+00  0.35740347158E-01  0.35744000000E-01  0.51099999109E-03 0.  1.
       11   -1    0    0    0    0 -0.00000000000E+00 -0.00000000000E+00 -0.35740347158E-01  0.35744000000E-01  0.51099999109E-03 0. -1.
       22    1    1    2    0    0 -0.53643574530E-02 -0.61911100380E-02  0.34785448258E-01  0.35737005818E-01  0.00000000000E+00 0.  1.
  9000001    1    1    2    0    0  0.53643574530E-02  0.61911100380E-02 -0.34785448258E-01  0.35750994182E-01  0.10000000475E-02 0. -1.
</event>
<event>
 4   0  0.4892667E-02  0.9118800E+02  0.7818609E-02  0.1379984E+01
      -11   -1    0    0    0    0  0.00000000000E+00  0.00000000000E+00  0.35740347158E-01  0.35744000000E-01  0.51099999109E-03 0. -1.
       11   -1    0    0    0    0 -0.00000000000E+00 -0.00000000000E+00 -0.35740347158E-01  0.35744000000E-01  0.51099999109E-03 0.  1.
       22    1    1    2    0    0 -0.53774475989E-02  0.17873853310E-01  0.30475268826E-01  0.35737005818E-01  0.00000000000E+00 0. -1.
  9000001    1    1    2    0    0  0.53774475989E-02 -0.17873853310E-01 -0.30475268826E-01  0.35750994182E-01  0.10000000475E-02 0.  1.
</event>
<event>
 4   0  0.4892667E-02  0.9118800E+02  0.7818609E-02  0.1379984E+01
      -11   -1    0    0    0    0  0.00000000000E+00  0.00000000000E+00  0.35740347158E-01  0.35744000000E-01  0.51099999109E-03 0. -1.
       11   -1    0    0    0    0 -0.00000000000E+00 -0.00000000000E+00 -0.35740347158E-01  0.35744000000E-01  0.51099999109E-03 0.  1.
       22    1    1    2    0    0  0.11358881959E-02  0.10485754279E-01 -0.34145165105E-01  0.35737005818E-01  0.00000000000E+00 0.  1.
  9000001    1    1    2    0    0 -0.11358881959E-02 -0.10485754279E-01  0.34145165105E-01  0.35750994182E-01  0.10000000475E-02 0. -1.
</event>
<event>
 4   0  0.4892667E-02  0.9118800E+02  0.7818609E-02  0.1379984E+01
      -11   -1    0    0    0    0  0.00000000000E+00  0.00000000000E+00  0.35740347158E-01  0.35744000000E-01  0.51099999109E-03 0. -1.
       11   -1    0    0    0    0 -0.00000000000E+00 -0.00000000000E+00 -0.35740347158E-01  0.35744000000E-01  0.51099999109E-03 0.  1.
       22    1    1    2    0    0  0.49656625498E-02  0.70364781912E-02  0.34683767889E-01  0.35737005818E-01  0.00000000000E+00 0. -1.
  9000001    1    1    2    0    0 -0.49656625498E-02 -0.70364781912E-02 -0.34683767889E-01  0.35750994182E-01  0.10000000475E-02 0.  1.
</event>
<event>
 4   0  0.4892667E-02  0.9118800E+02  0.7818609E-02  0.1379984E+01
      -11   -1    0    0    0    0  0.00000000000E+00  0.00000000000E+00  0.35740347158E-01  0.35744000000E-01  0.51099999109E-03 0. -1.
       11   -1    0    0    0    0 -0.00000000000E+00 -0.00000000000E+00 -0.35740347158E-01  0.35744000000E-01  0.51099999109E-03 0.  1.
       22    1    1    2    0    0 -0.10724372748E-02  0.35578902581E-01  0.31820047633E-02  0.35737005818E-01  0.00000000000E+00 0. -1.
  9000001    1    1    2    0    0  0.10724372748E-02 -0.35578902581E-01 -0.31820047633E-02  0.35750994182E-01  0.10000000475E-02 0.  1.
</event>
<event>
 4   0  0.4892667E-02  0.9118800E+02  0.7818609E-02  0.1379984E+01
      -11   -1    0    0    0    0  0.00000000000E+00  0.00000000000E+00  0.35740347158E-01  0.35744000000E-01  0.51099999109E-03 0. -1.
       11   -1    0    0    0    0 -0.00000000000E+00 -0.00000000000E+00 -0.35740347158E-01  0.35744000000E-01  0.51099999109E-03 0.  1.
       22    1    1    2    0    0  0.92594526188E-02  0.29346906364E-02 -0.34391622715E-01  0.35737005818E-01  0.00000000000E+00 0.  1.
  9000001    1    1    2    0    0 -0.92594526188E-02 -0.29346906364E-02  0.34391622715E-01  0.35750994182E-01  0.10000000475E-02 0. -1.
</event>
<event>
 4   0  0.4892667E-02  0.9118800E+02  0.7818609E-02  0.1379984E+01
      -11   -1    0    0    0    0  0.00000000000E+00  0.00000000000E+00  0.35740347158E-01  0.35744000000E-01  0.51099999109E-03 0.  1.
       11   -1    0    0    0    0 -0.00000000000E+00 -0.00000000000E+00 -0.35740347158E-01  0.35744000000E-01  0.51099999109E-03 0. -1.
       22    1    1    2    0    0  0.11714479329E-02  0.68639035558E-02 -0.35052077293E-01  0.35737005818E-01  0.00000000000E+00 0. -1.
  9000001    1    1    2    0    0 -0.11714479329E-02 -0.68639035558E-02  0.35052077293E-01  0.35750994182E-01  0.10000000475E-02 0.  1.
</event>
<event>
 4   0  0.4892667E-02  0.9118800E+02  0.7818609E-02  0.1379984E+01
      -11   -1    0    0    0    0  0.00000000000E+00  0.00000000000E+00  0.35740347158E-01  0.35744000000E-01  0.51099999109E-03 0.  1.
       11   -1    0    0    0    0 -0.00000000000E+00 -0.00000000000E+00 -0.35740347158E-01  0.35744000000E-01  0.51099999109E-03 0. -1.
       22    1    1    2    0    0 -0.95189309726E-03  0.38591455223E-02 -0.35515271085E-01  0.35737005818E-01  0.00000000000E+00 0. -1.
  9000001    1    1    2    0    0  0.95189309726E-03 -0.38591455223E-02  0.35515271085E-01  0.35750994182E-01  0.10000000475E-02 0.  1.
</event>
<event>
 4   0  0.4892667E-02  0.9118800E+02  0.7818609E-02  0.1379984E+01
      -11   -1    0    0    0    0  0.00000000000E+00  0.00000000000E+00  0.35740347158E-01  0.35744000000E-01  0.51099999109E-03 0.  1.
       11   -1    0    0    0    0 -0.00000000000E+00 -0.00000000000E+00 -0.35740347158E-01  0.35744000000E-01  0.51099999109E-03 0. -1.
       22    1    1    2    0    0 -0.10286549713E-02  0.10045404127E-01 -0.34280684208E-01  0.35737005818E-01  0.00000000000E+00 0. -1.
  9000001    1    1    2    0    0  0.10286549713E-02 -0.10045404127E-01  0.34280684208E-01  0.35750994182E-01  0.10000000475E-02 0.  1.
</event>
<event>
 4   0  0.4892667E-02  0.9118800E+02  0.7818609E-02  0.1379984E+01
      -11   -1    0    0    0    0  0.00000000000E+00  0.00000000000E+00  0.35740347158E-01  0.35744000000E-01  0.51099999109E-03 0. -1.
       11   -1    0    0    0    0 -0.00000000000E+00 -0.00000000000E+00 -0.35740347158E-01  0.35744000000E-01  0.51099999109E-03 0.  1.
       22    1    1    2    0    0 -0.14980855438E-03 -0.85212997366E-02 -0.34705887009E-01  0.35737005818E-01  0.00000000000E+00 0.  1.
  9000001    1    1    2    0    0  0.14980855438E-03  0.85212997366E-02  0.34705887009E-01  0.35750994182E-01  0.10000000475E-02 0. -1.
</event>
<event>
 4   0  0.4892667E-02  0.9118800E+02  0.7818609E-02  0.1379984E+01
      -11   -1    0    0    0    0  0.00000000000E+00  0.00000000000E+00  0.35740347158E-01  0.35744000000E-01  0.51099999109E-03 0.  1.
       11   -1    0    0    0    0 -0.00000000000E+00 -0.00000000000E+00 -0.35740347158E-01  0.35744000000E-01  0.51099999109E-03 0. -1.
       22    1    1    2    0    0  0.35336829278E-02  0.23672131561E-02  0.35482995529E-01  0.35737005818E-01  0.00000000000E+00 0.  1.
  9000001    1    1    2    0    0 -0.35336829278E-02 -0.23672131561E-02 -0.35482995529E-01  0.35750994182E-01  0.10000000475E-02 0. -1.
</event>
<event>
 4   0  0.4892667E-02  0.9118800E+02  0.7818609E-02  0.1379984E+01
      -11   -1    0    0    0    0  0.00000000000E+00  0.00000000000E+00  0.35740347158E-01  0.35744000000E-01  0.51099999109E-03 0.  1.
       11   -1    0    0    0    0 -0.00000000000E+00 -0.00000000000E+00 -0.35740347158E-01  0.35744000000E-01  0.51099999109E-03 0. -1.
       22    1    1    2    0    0  0.19979270080E-01 -0.17044955693E-01 -0.24236993159E-01  0.35737005818E-01  0.00000000000E+00 0. -1.
  9000001    1    1    2    0    0 -0.19979270080E-01  0.17044955693E-01  0.24236993159E-01  0.35750994182E-01  0.10000000475E-02 0.  1.
</event>
<event>
 4   0  0.4892667E-02  0.9118800E+02  0.7818609E-02  0.1379984E+01
      -11   -1    0    0    0    0  0.00000000000E+00  0.00000000000E+00  0.35740347158E-01  0.35744000000E-01  0.51099999109E-03 0.  1.
       11   -1    0    0    0    0 -0.00000000000E+00 -0.00000000000E+00 -0.35740347158E-01  0.35744000000E-01  0.51099999109E-03 0. -1.
       22    1    1    2    0    0 -0.14712371473E-02 -0.28532218395E-02 -0.35592529711E-01  0.35737005818E-01  0.00000000000E+00 0. -1.
  9000001    1    1    2    0    0  0.14712371473E-02  0.28532218395E-02  0.35592529711E-01  0.35750994182E-01  0.10000000475E-02 0.  1.
</event>
<event>
 4   0  0.4892667E-02  0.9118800E+02  0.7818609E-02  0.1379984E+01
      -11   -1    0    0    0    0  0.00000000000E+00  0.00000000000E+00  0.35740347158E-01  0.35744000000E-01  0.51099999109E-03 0. -1.
       11   -1    0    0    0    0 -0.00000000000E+00 -0.00000000000E+00 -0.35740347158E-01  0.35744000000E-01  0.51099999109E-03 0.  1.
       22    1    1    2    0    0  0.86247812497E-04 -0.73204013694E-02  0.34979106192E-01  0.35737005818E-01  0.00000000000E+00 0. -1.
  9000001    1    1    2    0    0 -0.86247812497E-04  0.73204013694E-02 -0.34979106192E-01  0.35750994182E-01  0.10000000475E-02 0.  1.
</event>
<event>
 4   0  0.4892667E-02  0.9118800E+02  0.7818609E-02  0.1379984E+01
      -11   -1    0    0    0    0  0.00000000000E+00  0.00000000000E+00  0.35740347158E-01  0.35744000000E-01  0.51099999109E-03 0. -1.
       11   -1    0    0    0    0 -0.00000000000E+00 -0.00000000000E+00 -0.35740347158E-01  0.35744000000E-01  0.51099999109E-03 0.  1.
       22    1    1    2    0    0 -0.76709242072E-02  0.46540729079E-02 -0.34592341812E-01  0.35737005818E-01  0.00000000000E+00 0.  1.
  9000001    1    1    2    0    0  0.76709242072E-02 -0.46540729079E-02  0.34592341812E-01  0.35750994182E-01  0.10000000475E-02 0. -1.
</event>
<event>
 4   0  0.4892667E-02  0.9118800E+02  0.7818609E-02  0.1379984E+01
      -11   -1    0    0    0    0  0.00000000000E+00  0.00000000000E+00  0.35740347158E-01  0.35744000000E-01  0.51099999109E-03 0.  1.
       11   -1    0    0    0    0 -0.00000000000E+00 -0.00000000000E+00 -0.35740347158E-01  0.35744000000E-01  0.51099999109E-03 0. -1.
       22    1    1    2    0    0 -0.16182798380E-03  0.11020677533E-01  0.33994882899E-01  0.35737005818E-01  0.00000000000E+00 0.  1.
  9000001    1    1    2    0    0  0.16182798380E-03 -0.11020677533E-01 -0.33994882899E-01  0.35750994182E-01  0.10000000475E-02 0. -1.
</event>
<event>
 4   0  0.4892667E-02  0.9118800E+02  0.7818609E-02  0.1379984E+01
      -11   -1    0    0    0    0  0.00000000000E+00  0.00000000000E+00  0.35740347158E-01  0.35744000000E-01  0.51099999109E-03 0.  1.
       11   -1    0    0    0    0 -0.00000000000E+00 -0.00000000000E+00 -0.35740347158E-01  0.35744000000E-01  0.51099999109E-03 0. -1.
       22    1    1    2    0    0  0.30403953936E-02  0.30540605749E-02  0.35476221540E-01  0.35737005818E-01  0.00000000000E+00 0.  1.
  9000001    1    1    2    0    0 -0.30403953936E-02 -0.30540605749E-02 -0.35476221540E-01  0.35750994182E-01  0.10000000475E-02 0. -1.
</event>
<event>
 4   0  0.4892667E-02  0.9118800E+02  0.7818609E-02  0.1379984E+01
      -11   -1    0    0    0    0  0.00000000000E+00  0.00000000000E+00  0.35740347158E-01  0.35744000000E-01  0.51099999109E-03 0.  1.
       11   -1    0    0    0    0 -0.00000000000E+00 -0.00000000000E+00 -0.35740347158E-01  0.35744000000E-01  0.51099999109E-03 0. -1.
       22    1    1    2    0    0 -0.11807976374E-01  0.79133723850E-02 -0.32788470783E-01  0.35737005818E-01  0.00000000000E+00 0. -1.
  9000001    1    1    2    0    0  0.11807976374E-01 -0.79133723850E-02  0.32788470783E-01  0.35750994182E-01  0.10000000475E-02 0.  1.
</event>
<event>
 4   0  0.4892667E-02  0.9118800E+02  0.7818609E-02  0.1379984E+01
      -11   -1    0    0    0    0  0.00000000000E+00  0.00000000000E+00  0.35740347158E-01  0.35744000000E-01  0.51099999109E-03 0.  1.
       11   -1    0    0    0    0 -0.00000000000E+00 -0.00000000000E+00 -0.35740347158E-01  0.35744000000E-01  0.51099999109E-03 0. -1.
       22    1    1    2    0    0  0.17981433126E-02  0.21007992577E-01  0.28854194035E-01  0.35737005818E-01  0.00000000000E+00 0.  1.
  9000001    1    1    2    0    0 -0.17981433126E-02 -0.21007992577E-01 -0.28854194035E-01  0.35750994182E-01  0.10000000475E-02 0. -1.
</event>
<event>
 4   0  0.4892667E-02  0.9118800E+02  0.7818609E-02  0.1379984E+01
      -11   -1    0    0    0    0  0.00000000000E+00  0.00000000000E+00  0.35740347158E-01  0.35744000000E-01  0.51099999109E-03 0. -1.
       11   -1    0    0    0    0 -0.00000000000E+00 -0.00000000000E+00 -0.35740347158E-01  0.35744000000E-01  0.51099999109E-03 0.  1.
       22    1    1    2    0    0 -0.23319596900E-01  0.14687753564E-01 -0.22750821535E-01  0.35737005818E-01  0.00000000000E+00 0.  1.
  9000001    1    1    2    0    0  0.23319596900E-01 -0.14687753564E-01  0.22750821535E-01  0.35750994182E-01  0.10000000475E-02 0. -1.
</event>
<event>
 4   0  0.4892667E-02  0.9118800E+02  0.7818609E-02  0.1379984E+01
      -11   -1    0    0    0    0  0.00000000000E+00  0.00000000000E+00  0.35740347158E-01  0.35744000000E-01  0.51099999109E-03 0. -1.
       11   -1    0    0    0    0 -0.00000000000E+00 -0.00000000000E+00 -0.35740347158E-01  0.35744000000E-01  0.51099999109E-03 0.  1.
       22    1    1    2    0    0  0.38325535707E-02  0.16749699936E-02  0.35491401684E-01  0.35737005818E-01  0.00000000000E+00 0. -1.
  9000001    1    1    2    0    0 -0.38325535707E-02 -0.16749699936E-02 -0.35491401684E-01  0.35750994182E-01  0.10000000475E-02 0.  1.
</event>
<event>
 4   0  0.4892667E-02  0.9118800E+02  0.7818609E-02  0.1379984E+01
      -11   -1    0    0    0    0  0.00000000000E+00  0.00000000000E+00  0.35740347158E-01  0.35744000000E-01  0.51099999109E-03 0.  1.
       11   -1    0    0    0    0 -0.00000000000E+00 -0.00000000000E+00 -0.35740347158E-01  0.35744000000E-01  0.51099999109E-03 0. -1.
       22    1    1    2    0    0 -0.52297121213E-02 -0.15334299927E-02  0.35319007467E-01  0.35737005818E-01  0.00000000000E+00 0.  1.
  9000001    1    1    2    0    0  0.52297121213E-02  0.15334299927E-02 -0.35319007467E-01  0.35750994182E-01  0.10000000475E-02 0. -1.
</event>
<event>
 4   0  0.4892667E-02  0.9118800E+02  0.7818609E-02  0.1379984E+01
      -11   -1    0    0    0    0  0.00000000000E+00  0.00000000000E+00  0.35740347158E-01  0.35744000000E-01  0.51099999109E-03 0.  1.
       11   -1    0    0    0    0 -0.00000000000E+00 -0.00000000000E+00 -0.35740347158E-01  0.35744000000E-01  0.51099999109E-03 0. -1.
       22    1    1    2    0    0 -0.89756172076E-02 -0.42246095344E-02 -0.34332558234E-01  0.35737005818E-01  0.00000000000E+00 0. -1.
  9000001    1    1    2    0    0  0.89756172076E-02  0.42246095344E-02  0.34332558234E-01  0.35750994182E-01  0.10000000475E-02 0.  1.
</event>
<event>
 4   0  0.4892667E-02  0.9118800E+02  0.7818609E-02  0.1379984E+01
      -11   -1    0    0    0    0  0.00000000000E+00  0.00000000000E+00  0.35740347158E-01  0.35744000000E-01  0.51099999109E-03 0. -1.
       11   -1    0    0    0    0 -0.00000000000E+00 -0.00000000000E+00 -0.35740347158E-01  0.35744000000E-01  0.51099999109E-03 0.  1.
       22    1    1    2    0    0 -0.14344614521E-02 -0.34460137582E-02 -0.35541537592E-01  0.35737005818E-01  0.00000000000E+00 0.  1.
  9000001    1    1    2    0    0  0.14344614521E-02  0.34460137582E-02  0.35541537592E-01  0.35750994182E-01  0.10000000475E-02 0. -1.
</event>
<event>
 4   0  0.4892667E-02  0.9118800E+02  0.7818609E-02  0.1379984E+01
      -11   -1    0    0    0    0  0.00000000000E+00  0.00000000000E+00  0.35740347158E-01  0.35744000000E-01  0.51099999109E-03 0.  1.
       11   -1    0    0    0    0 -0.00000000000E+00 -0.00000000000E+00 -0.35740347158E-01  0.35744000000E-01  0.51099999109E-03 0. -1.
       22    1    1    2    0    0  0.10316755202E-02  0.49003637497E-02 -0.35384398619E-01  0.35737005818E-01  0.00000000000E+00 0. -1.
  9000001    1    1    2    0    0 -0.10316755202E-02 -0.49003637497E-02  0.35384398619E-01  0.35750994182E-01  0.10000000475E-02 0.  1.
</event>
<event>
 4   0  0.4892667E-02  0.9118800E+02  0.7818609E-02  0.1379984E+01
      -11   -1    0    0    0    0  0.00000000000E+00  0.00000000000E+00  0.35740347158E-01  0.35744000000E-01  0.51099999109E-03 0.  1.
       11   -1    0    0    0    0 -0.00000000000E+00 -0.00000000000E+00 -0.35740347158E-01  0.35744000000E-01  0.51099999109E-03 0. -1.
       22    1    1    2    0    0  0.18000351141E-01 -0.36782135290E-02 -0.30652759890E-01  0.35737005818E-01  0.00000000000E+00 0. -1.
  9000001    1    1    2    0    0 -0.18000351141E-01  0.36782135290E-02  0.30652759890E-01  0.35750994182E-01  0.10000000475E-02 0.  1.
</event>
<event>
 4   0  0.4892667E-02  0.9118800E+02  0.7818609E-02  0.1379984E+01
      -11   -1    0    0    0    0  0.00000000000E+00  0.00000000000E+00  0.35740347158E-01  0.35744000000E-01  0.51099999109E-03 0. -1.
       11   -1    0    0    0    0 -0.00000000000E+00 -0.00000000000E+00 -0.35740347158E-01  0.35744000000E-01  0.51099999109E-03 0.  1.
       22    1    1    2    0    0  0.85430902990E-02  0.27448493983E-01  0.21230387916E-01  0.35737005818E-01  0.00000000000E+00 0. -1.
  9000001    1    1    2    0    0 -0.85430902990E-02 -0.27448493983E-01 -0.21230387916E-01  0.35750994182E-01  0.10000000475E-02 0.  1.
</event>
<event>
 4   0  0.4892667E-02  0.9118800E+02  0.7818609E-02  0.1379984E+01
      -11   -1    0    0    0    0  0.00000000000E+00  0.00000000000E+00  0.35740347158E-01  0.35744000000E-01  0.51099999109E-03 0.  1.
       11   -1    0    0    0    0 -0.00000000000E+00 -0.00000000000E+00 -0.35740347158E-01  0.35744000000E-01  0.51099999109E-03 0. -1.
       22    1    1    2    0    0 -0.97772627209E-03  0.54896357275E-02  0.35299313531E-01  0.35737005818E-01  0.00000000000E+00 0.  1.
  9000001    1    1    2    0    0  0.97772627209E-03 -0.54896357275E-02 -0.35299313531E-01  0.35750994182E-01  0.10000000475E-02 0. -1.
</event>
<event>
 4   0  0.4892667E-02  0.9118800E+02  0.7818609E-02  0.1379984E+01
      -11   -1    0    0    0    0  0.00000000000E+00  0.00000000000E+00  0.35740347158E-01  0.35744000000E-01  0.51099999109E-03 0.  1.
       11   -1    0    0    0    0 -0.00000000000E+00 -0.00000000000E+00 -0.35740347158E-01  0.35744000000E-01  0.51099999109E-03 0. -1.
       22    1    1    2    0    0  0.15864523535E-02  0.25859249373E-01 -0.24615360564E-01  0.35737005818E-01  0.00000000000E+00 0. -1.
  9000001    1    1    2    0    0 -0.15864523535E-02 -0.25859249373E-01  0.24615360564E-01  0.35750994182E-01  0.10000000475E-02 0.  1.
</event>
<event>
 4   0  0.4892667E-02  0.9118800E+02  0.7818609E-02  0.1379984E+01
      -11   -1    0    0    0    0  0.00000000000E+00  0.00000000000E+00  0.35740347158E-01  0.35744000000E-01  0.51099999109E-03 0.  1.
       11   -1    0    0    0    0 -0.00000000000E+00 -0.00000000000E+00 -0.35740347158E-01  0.35744000000E-01  0.51099999109E-03 0. -1.
       22    1    1    2    0    0 -0.21503821809E-01 -0.10447593698E-02 -0.28524160116E-01  0.35737005818E-01  0.00000000000E+00 0. -1.
  9000001    1    1    2    0    0  0.21503821809E-01  0.10447593698E-02  0.28524160116E-01  0.35750994182E-01  0.10000000475E-02 0.  1.
</event>
<event>
 4   0  0.4892667E-02  0.9118800E+02  0.7818609E-02  0.1379984E+01
      -11   -1    0    0    0    0  0.00000000000E+00  0.00000000000E+00  0.35740347158E-01  0.35744000000E-01  0.51099999109E-03 0. -1.
       11   -1    0    0    0    0 -0.00000000000E+00 -0.00000000000E+00 -0.35740347158E-01  0.35744000000E-01  0.51099999109E-03 0.  1.
       22    1    1    2    0    0  0.27851354385E-02  0.69681318734E-02 -0.34940259639E-01  0.35737005818E-01  0.00000000000E+00 0.  1.
  9000001    1    1    2    0    0 -0.27851354385E-02 -0.69681318734E-02  0.34940259639E-01  0.35750994182E-01  0.10000000475E-02 0. -1.
</event>
<event>
 4   0  0.4892667E-02  0.9118800E+02  0.7818609E-02  0.1379984E+01
      -11   -1    0    0    0    0  0.00000000000E+00  0.00000000000E+00  0.35740347158E-01  0.35744000000E-01  0.51099999109E-03 0. -1.
       11   -1    0    0    0    0 -0.00000000000E+00 -0.00000000000E+00 -0.35740347158E-01  0.35744000000E-01  0.51099999109E-03 0.  1.
       22    1    1    2    0    0 -0.26045357120E-01  0.49748372140E-02  0.23958796966E-01  0.35737005818E-01  0.00000000000E+00 0. -1.
  9000001    1    1    2    0    0  0.26045357120E-01 -0.49748372140E-02 -0.23958796966E-01  0.35750994182E-01  0.10000000475E-02 0.  1.
</event>
<event>
 4   0  0.4892667E-02  0.9118800E+02  0.7818609E-02  0.1379984E+01
      -11   -1    0    0    0    0  0.00000000000E+00  0.00000000000E+00  0.35740347158E-01  0.35744000000E-01  0.51099999109E-03 0. -1.
       11   -1    0    0    0    0 -0.00000000000E+00 -0.00000000000E+00 -0.35740347158E-01  0.35744000000E-01  0.51099999109E-03 0.  1.
       22    1    1    2    0    0 -0.73983562752E-02  0.30412267572E-01  0.17247953225E-01  0.35737005818E-01  0.00000000000E+00 0. -1.
  9000001    1    1    2    0    0  0.73983562752E-02 -0.30412267572E-01 -0.17247953225E-01  0.35750994182E-01  0.10000000475E-02 0.  1.
</event>
<event>
 4   0  0.4892667E-02  0.9118800E+02  0.7818609E-02  0.1379984E+01
      -11   -1    0    0    0    0  0.00000000000E+00  0.00000000000E+00  0.35740347158E-01  0.35744000000E-01  0.51099999109E-03 0.  1.
       11   -1    0    0    0    0 -0.00000000000E+00 -0.00000000000E+00 -0.35740347158E-01  0.35744000000E-01  0.51099999109E-03 0. -1.
       22    1    1    2    0    0  0.31061892196E-02  0.57559274992E-03  0.35597104747E-01  0.35737005818E-01  0.00000000000E+00 0.  1.
  9000001    1    1    2    0    0 -0.31061892196E-02 -0.57559274992E-03 -0.35597104747E-01  0.35750994182E-01  0.10000000475E-02 0. -1.
</event>
<event>
 4   0  0.4892667E-02  0.9118800E+02  0.7818609E-02  0.1379984E+01
      -11   -1    0    0    0    0  0.00000000000E+00  0.00000000000E+00  0.35740347158E-01  0.35744000000E-01  0.51099999109E-03 0.  1.
       11   -1    0    0    0    0 -0.00000000000E+00 -0.00000000000E+00 -0.35740347158E-01  0.35744000000E-01  0.51099999109E-03 0. -1.
       22    1    1    2    0    0  0.34443467699E-02  0.47402672863E-02 -0.35253367587E-01  0.35737005818E-01  0.00000000000E+00 0. -1.
  9000001    1    1    2    0    0 -0.34443467699E-02 -0.47402672863E-02  0.35253367587E-01  0.35750994182E-01  0.10000000475E-02 0.  1.
</event>
<event>
 4   0  0.4892667E-02  0.9118800E+02  0.7818609E-02  0.1379984E+01
      -11   -1    0    0    0    0  0.00000000000E+00  0.00000000000E+00  0.35740347158E-01  0.35744000000E-01  0.51099999109E-03 0. -1.
       11   -1    0    0    0    0 -0.00000000000E+00 -0.00000000000E+00 -0.35740347158E-01  0.35744000000E-01  0.51099999109E-03 0.  1.
       22    1    1    2    0    0  0.95953108524E-02 -0.36205973959E-02  0.34233826386E-01  0.35737005818E-01  0.00000000000E+00 0. -1.
  9000001    1    1    2    0    0 -0.95953108524E-02  0.36205973959E-02 -0.34233826386E-01  0.35750994182E-01  0.10000000475E-02 0.  1.
</event>
<event>
 4   0  0.4892667E-02  0.9118800E+02  0.7818609E-02  0.1379984E+01
      -11   -1    0    0    0    0  0.00000000000E+00  0.00000000000E+00  0.35740347158E-01  0.35744000000E-01  0.51099999109E-03 0.  1.
       11   -1    0    0    0    0 -0.00000000000E+00 -0.00000000000E+00 -0.35740347158E-01  0.35744000000E-01  0.51099999109E-03 0. -1.
       22    1    1    2    0    0  0.14161812221E-01  0.36542418839E-02  0.32607103148E-01  0.35737005818E-01  0.00000000000E+00 0.  1.
  9000001    1    1    2    0    0 -0.14161812221E-01 -0.36542418839E-02 -0.32607103148E-01  0.35750994182E-01  0.10000000475E-02 0. -1.
</event>
<event>
 4   0  0.4892667E-02  0.9118800E+02  0.7818609E-02  0.1379984E+01
      -11   -1    0    0    0    0  0.00000000000E+00  0.00000000000E+00  0.35740347158E-01  0.35744000000E-01  0.51099999109E-03 0. -1.
       11   -1    0    0    0    0 -0.00000000000E+00 -0.00000000000E+00 -0.35740347158E-01  0.35744000000E-01  0.51099999109E-03 0.  1.
       22    1    1    2    0    0 -0.14567628381E-01  0.49878607011E-02 -0.32249636182E-01  0.35737005818E-01  0.00000000000E+00 0.  1.
  9000001    1    1    2    0    0  0.14567628381E-01 -0.49878607011E-02  0.32249636182E-01  0.35750994182E-01  0.10000000475E-02 0. -1.
</event>
<event>
 4   0  0.4892667E-02  0.9118800E+02  0.7818609E-02  0.1379984E+01
      -11   -1    0    0    0    0  0.00000000000E+00  0.00000000000E+00  0.35740347158E-01  0.35744000000E-01  0.51099999109E-03 0. -1.
       11   -1    0    0    0    0 -0.00000000000E+00 -0.00000000000E+00 -0.35740347158E-01  0.35744000000E-01  0.51099999109E-03 0.  1.
       22    1    1    2    0    0 -0.35330120639E-02 -0.10743602240E-02  0.35545705236E-01  0.35737005818E-01  0.00000000000E+00 0. -1.
  9000001    1    1    2    0    0  0.35330120639E-02  0.10743602240E-02 -0.35545705236E-01  0.35750994182E-01  0.10000000475E-02 0.  1.
</event>
<event>
 4   0  0.4892667E-02  0.9118800E+02  0.7818609E-02  0.1379984E+01
      -11   -1    0    0    0    0  0.00000000000E+00  0.00000000000E+00  0.35740347158E-01  0.35744000000E-01  0.51099999109E-03 0. -1.
       11   -1    0    0    0    0 -0.00000000000E+00 -0.00000000000E+00 -0.35740347158E-01  0.35744000000E-01  0.51099999109E-03 0.  1.
       22    1    1    2    0    0 -0.51292099366E-02 -0.83154396687E-03 -0.35357224508E-01  0.35737005818E-01  0.00000000000E+00 0.  1.
  9000001    1    1    2    0    0  0.51292099366E-02  0.83154396687E-03  0.35357224508E-01  0.35750994182E-01  0.10000000475E-02 0. -1.
</event>
<event>
 4   0  0.4892667E-02  0.9118800E+02  0.7818609E-02  0.1379984E+01
      -11   -1    0    0    0    0  0.00000000000E+00  0.00000000000E+00  0.35740347158E-01  0.35744000000E-01  0.51099999109E-03 0. -1.
       11   -1    0    0    0    0 -0.00000000000E+00 -0.00000000000E+00 -0.35740347158E-01  0.35744000000E-01  0.51099999109E-03 0.  1.
       22    1    1    2    0    0  0.30571915537E-01 -0.61254496026E-02  0.17463402659E-01  0.35737005818E-01  0.00000000000E+00 0. -1.
  9000001    1    1    2    0    0 -0.30571915537E-01  0.61254496026E-02 -0.17463402659E-01  0.35750994182E-01  0.10000000475E-02 0.  1.
</event>
<event>
 4   0  0.4892667E-02  0.9118800E+02  0.7818609E-02  0.1379984E+01
      -11   -1    0    0    0    0  0.00000000000E+00  0.00000000000E+00  0.35740347158E-01  0.35744000000E-01  0.51099999109E-03 0. -1.
       11   -1    0    0    0    0 -0.00000000000E+00 -0.00000000000E+00 -0.35740347158E-01  0.35744000000E-01  0.51099999109E-03 0.  1.
       22    1    1    2    0    0  0.14500864337E-03 -0.50809231014E-02 -0.35373673513E-01  0.35737005818E-01  0.00000000000E+00 0.  1.
  9000001    1    1    2    0    0 -0.14500864337E-03  0.50809231014E-02  0.35373673513E-01  0.35750994182E-01  0.10000000475E-02 0. -1.
</event>
<event>
 4   0  0.4892667E-02  0.9118800E+02  0.7818609E-02  0.1379984E+01
      -11   -1    0    0    0    0  0.00000000000E+00  0.00000000000E+00  0.35740347158E-01  0.35744000000E-01  0.51099999109E-03 0. -1.
       11   -1    0    0    0    0 -0.00000000000E+00 -0.00000000000E+00 -0.35740347158E-01  0.35744000000E-01  0.51099999109E-03 0.  1.
       22    1    1    2    0    0  0.33779540271E-02 -0.13582368901E-02 -0.35551064738E-01  0.35737005818E-01  0.00000000000E+00 0.  1.
  9000001    1    1    2    0    0 -0.33779540271E-02  0.13582368901E-02  0.35551064738E-01  0.35750994182E-01  0.10000000475E-02 0. -1.
</event>
<event>
 4   0  0.4892667E-02  0.9118800E+02  0.7818609E-02  0.1379984E+01
      -11   -1    0    0    0    0  0.00000000000E+00  0.00000000000E+00  0.35740347158E-01  0.35744000000E-01  0.51099999109E-03 0.  1.
       11   -1    0    0    0    0 -0.00000000000E+00 -0.00000000000E+00 -0.35740347158E-01  0.35744000000E-01  0.51099999109E-03 0. -1.
       22    1    1    2    0    0  0.34951098992E-01  0.72957164229E-02  0.15253805977E-02  0.35737005818E-01  0.00000000000E+00 0. -1.
  9000001    1    1    2    0    0 -0.34951098992E-01 -0.72957164229E-02 -0.15253805977E-02  0.35750994182E-01  0.10000000475E-02 0.  1.
</event>
<event>
 4   0  0.4892667E-02  0.9118800E+02  0.7818609E-02  0.1379984E+01
      -11   -1    0    0    0    0  0.00000000000E+00  0.00000000000E+00  0.35740347158E-01  0.35744000000E-01  0.51099999109E-03 0. -1.
       11   -1    0    0    0    0 -0.00000000000E+00 -0.00000000000E+00 -0.35740347158E-01  0.35744000000E-01  0.51099999109E-03 0.  1.
       22    1    1    2    0    0  0.25962220366E-01 -0.23713796312E-01 -0.63837734159E-02  0.35737005818E-01  0.00000000000E+00 0.  1.
  9000001    1    1    2    0    0 -0.25962220366E-01  0.23713796312E-01  0.63837734159E-02  0.35750994182E-01  0.10000000475E-02 0. -1.
</event>
<event>
 4   0  0.4892667E-02  0.9118800E+02  0.7818609E-02  0.1379984E+01
      -11   -1    0    0    0    0  0.00000000000E+00  0.00000000000E+00  0.35740347158E-01  0.35744000000E-01  0.51099999109E-03 0.  1.
       11   -1    0    0    0    0 -0.00000000000E+00 -0.00000000000E+00 -0.35740347158E-01  0.35744000000E-01  0.51099999109E-03 0. -1.
       22    1    1    2    0    0  0.37813238625E-02  0.78364887370E-02 -0.34661572656E-01  0.35737005818E-01  0.00000000000E+00 0. -1.
  9000001    1    1    2    0    0 -0.37813238625E-02 -0.78364887370E-02  0.34661572656E-01  0.35750994182E-01  0.10000000475E-02 0.  1.
</event>
<event>
 4   0  0.4892667E-02  0.9118800E+02  0.7818609E-02  0.1379984E+01
      -11   -1    0    0    0    0  0.00000000000E+00  0.00000000000E+00  0.35740347158E-01  0.35744000000E-01  0.51099999109E-03 0.  1.
       11   -1    0    0    0    0 -0.00000000000E+00 -0.00000000000E+00 -0.35740347158E-01  0.35744000000E-01  0.51099999109E-03 0. -1.
       22    1    1    2    0    0 -0.86273600385E-03 -0.22418624262E-01  0.27817163005E-01  0.35737005818E-01  0.00000000000E+00 0.  1.
  9000001    1    1    2    0    0  0.86273600385E-03  0.22418624262E-01 -0.27817163005E-01  0.35750994182E-01  0.10000000475E-02 0. -1.
</event>
<event>
 4   0  0.4892667E-02  0.9118800E+02  0.7818609E-02  0.1379984E+01
      -11   -1    0    0    0    0  0.00000000000E+00  0.00000000000E+00  0.35740347158E-01  0.35744000000E-01  0.51099999109E-03 0. -1.
       11   -1    0    0    0    0 -0.00000000000E+00 -0.00000000000E+00 -0.35740347158E-01  0.35744000000E-01  0.51099999109E-03 0.  1.
       22    1    1    2    0    0  0.24353743619E-01 -0.16824563342E-01  0.20024056156E-01  0.35737005818E-01  0.00000000000E+00 0.  1.
  9000001    1    1    2    0    0 -0.24353743619E-01  0.16824563342E-01 -0.20024056156E-01  0.35750994182E-01  0.10000000475E-02 0. -1.
</event>
<event>
 4   0  0.4892667E-02  0.9118800E+02  0.7818609E-02  0.1379984E+01
      -11   -1    0    0    0    0  0.00000000000E+00  0.00000000000E+00  0.35740347158E-01  0.35744000000E-01  0.51099999109E-03 0.  1.
       11   -1    0    0    0    0 -0.00000000000E+00 -0.00000000000E+00 -0.35740347158E-01  0.35744000000E-01  0.51099999109E-03 0. -1.
       22    1    1    2    0    0 -0.30264309278E-01  0.13979710164E-01 -0.12875281453E-01  0.35737005818E-01  0.00000000000E+00 0. -1.
  9000001    1    1    2    0    0  0.30264309278E-01 -0.13979710164E-01  0.12875281453E-01  0.35750994182E-01  0.10000000475E-02 0.  1.
</event>
<event>
 4   0  0.4892667E-02  0.9118800E+02  0.7818609E-02  0.1379984E+01
      -11   -1    0    0    0    0  0.00000000000E+00  0.00000000000E+00  0.35740347158E-01  0.35744000000E-01  0.51099999109E-03 0.  1.
       11   -1    0    0    0    0 -0.00000000000E+00 -0.00000000000E+00 -0.35740347158E-01  0.35744000000E-01  0.51099999109E-03 0. -1.
       22    1    1    2    0    0  0.30108159313E-02  0.31634677249E-02 -0.35469156238E-01  0.35737005818E-01  0.00000000000E+00 0. -1.
  9000001    1    1    2    0    0 -0.30108159313E-02 -0.31634677249E-02  0.35469156238E-01  0.35750994182E-01  0.10000000475E-02 0.  1.
</event>
<event>
 4   0  0.4892667E-02  0.9118800E+02  0.7818609E-02  0.1379984E+01
      -11   -1    0    0    0    0  0.00000000000E+00  0.00000000000E+00  0.35740347158E-01  0.35744000000E-01  0.51099999109E-03 0.  1.
       11   -1    0    0    0    0 -0.00000000000E+00 -0.00000000000E+00 -0.35740347158E-01  0.35744000000E-01  0.51099999109E-03 0. -1.
       22    1    1    2    0    0  0.46567991310E-03  0.65733957781E-02 -0.35124168247E-01  0.35737005818E-01  0.00000000000E+00 0. -1.
  9000001    1    1    2    0    0 -0.46567991310E-03 -0.65733957781E-02  0.35124168247E-01  0.35750994182E-01  0.10000000475E-02 0.  1.
</event>
<event>
 4   0  0.4892667E-02  0.9118800E+02  0.7818609E-02  0.1379984E+01
      -11   -1    0    0    0    0  0.00000000000E+00  0.00000000000E+00  0.35740347158E-01  0.35744000000E-01  0.51099999109E-03 0.  1.
       11   -1    0    0    0    0 -0.00000000000E+00 -0.00000000000E+00 -0.35740347158E-01  0.35744000000E-01  0.51099999109E-03 0. -1.
       22    1    1    2    0    0  0.36746450012E-02  0.27397113770E-01 -0.22650137440E-01  0.35737005818E-01  0.00000000000E+00 0. -1.
  9000001    1    1    2    0    0 -0.36746450012E-02 -0.27397113770E-01  0.22650137440E-01  0.35750994182E-01  0.10000000475E-02 0.  1.
</event>
<event>
 4   0  0.4892667E-02  0.9118800E+02  0.7818609E-02  0.1379984E+01
      -11   -1    0    0    0    0  0.00000000000E+00  0.00000000000E+00  0.35740347158E-01  0.35744000000E-01  0.51099999109E-03 0. -1.
       11   -1    0    0    0    0 -0.00000000000E+00 -0.00000000000E+00 -0.35740347158E-01  0.35744000000E-01  0.51099999109E-03 0.  1.
       22    1    1    2    0    0 -0.44877051065E-02  0.40879841561E-03 -0.35451755550E-01  0.35737005818E-01  0.00000000000E+00 0.  1.
  9000001    1    1    2    0    0  0.44877051065E-02 -0.40879841561E-03  0.35451755550E-01  0.35750994182E-01  0.10000000475E-02 0. -1.
</event>
<event>
 4   0  0.4892667E-02  0.9118800E+02  0.7818609E-02  0.1379984E+01
      -11   -1    0    0    0    0  0.00000000000E+00  0.00000000000E+00  0.35740347158E-01  0.35744000000E-01  0.51099999109E-03 0.  1.
       11   -1    0    0    0    0 -0.00000000000E+00 -0.00000000000E+00 -0.35740347158E-01  0.35744000000E-01  0.51099999109E-03 0. -1.
       22    1    1    2    0    0 -0.34512537954E-02 -0.37458782371E-02 -0.35372175906E-01  0.35737005818E-01  0.00000000000E+00 0. -1.
  9000001    1    1    2    0    0  0.34512537954E-02  0.37458782371E-02  0.35372175906E-01  0.35750994182E-01  0.10000000475E-02 0.  1.
</event>
<event>
 4   0  0.4892667E-02  0.9118800E+02  0.7818609E-02  0.1379984E+01
      -11   -1    0    0    0    0  0.00000000000E+00  0.00000000000E+00  0.35740347158E-01  0.35744000000E-01  0.51099999109E-03 0. -1.
       11   -1    0    0    0    0 -0.00000000000E+00 -0.00000000000E+00 -0.35740347158E-01  0.35744000000E-01  0.51099999109E-03 0.  1.
       22    1    1    2    0    0  0.23739127348E-01  0.18828290933E-01  0.18949482267E-01  0.35737005818E-01  0.00000000000E+00 0. -1.
  9000001    1    1    2    0    0 -0.23739127348E-01 -0.18828290933E-01 -0.18949482267E-01  0.35750994182E-01  0.10000000475E-02 0.  1.
</event>
<event>
 4   0  0.4892667E-02  0.9118800E+02  0.7818609E-02  0.1379984E+01
      -11   -1    0    0    0    0  0.00000000000E+00  0.00000000000E+00  0.35740347158E-01  0.35744000000E-01  0.51099999109E-03 0. -1.
       11   -1    0    0    0    0 -0.00000000000E+00 -0.00000000000E+00 -0.35740347158E-01  0.35744000000E-01  0.51099999109E-03 0.  1.
       22    1    1    2    0    0  0.17979656218E-01 -0.56883876790E-03 -0.30879474892E-01  0.35737005818E-01  0.00000000000E+00 0.  1.
  9000001    1    1    2    0    0 -0.17979656218E-01  0.56883876790E-03  0.30879474892E-01  0.35750994182E-01  0.10000000475E-02 0. -1.
</event>
<event>
 4   0  0.4892667E-02  0.9118800E+02  0.7818609E-02  0.1379984E+01
      -11   -1    0    0    0    0  0.00000000000E+00  0.00000000000E+00  0.35740347158E-01  0.35744000000E-01  0.51099999109E-03 0. -1.
       11   -1    0    0    0    0 -0.00000000000E+00 -0.00000000000E+00 -0.35740347158E-01  0.35744000000E-01  0.51099999109E-03 0.  1.
       22    1    1    2    0    0  0.16536252780E-01  0.13097348713E-01 -0.28846930262E-01  0.35737005818E-01  0.00000000000E+00 0.  1.
  9000001    1    1    2    0    0 -0.16536252780E-01 -0.13097348713E-01  0.28846930262E-01  0.35750994182E-01  0.10000000475E-02 0. -1.
</event>
<event>
 4   0  0.4892667E-02  0.9118800E+02  0.7818609E-02  0.1379984E+01
      -11   -1    0    0    0    0  0.00000000000E+00  0.00000000000E+00  0.35740347158E-01  0.35744000000E-01  0.51099999109E-03 0. -1.
       11   -1    0    0    0    0 -0.00000000000E+00 -0.00000000000E+00 -0.35740347158E-01  0.35744000000E-01  0.51099999109E-03 0.  1.
       22    1    1    2    0    0 -0.89675836233E-02  0.25699374218E-01 -0.23157249267E-01  0.35737005818E-01  0.00000000000E+00 0.  1.
  9000001    1    1    2    0    0  0.89675836233E-02 -0.25699374218E-01  0.23157249267E-01  0.35750994182E-01  0.10000000475E-02 0. -1.
</event>
<event>
 4   0  0.4892667E-02  0.9118800E+02  0.7818609E-02  0.1379984E+01
      -11   -1    0    0    0    0  0.00000000000E+00  0.00000000000E+00  0.35740347158E-01  0.35744000000E-01  0.51099999109E-03 0. -1.
       11   -1    0    0    0    0 -0.00000000000E+00 -0.00000000000E+00 -0.35740347158E-01  0.35744000000E-01  0.51099999109E-03 0.  1.
       22    1    1    2    0    0 -0.76862834678E-02 -0.10607333252E-01  0.33249648308E-01  0.35737005818E-01  0.00000000000E+00 0. -1.
  9000001    1    1    2    0    0  0.76862834678E-02  0.10607333252E-01 -0.33249648308E-01  0.35750994182E-01  0.10000000475E-02 0.  1.
</event>
<event>
 4   0  0.4892667E-02  0.9118800E+02  0.7818609E-02  0.1379984E+01
      -11   -1    0    0    0    0  0.00000000000E+00  0.00000000000E+00  0.35740347158E-01  0.35744000000E-01  0.51099999109E-03 0. -1.
       11   -1    0    0    0    0 -0.00000000000E+00 -0.00000000000E+00 -0.35740347158E-01  0.35744000000E-01  0.51099999109E-03 0.  1.
       22    1    1    2    0    0 -0.28054410263E-01 -0.22065581672E-01  0.17871080292E-02  0.35737005818E-01  0.00000000000E+00 0.  1.
  9000001    1    1    2    0    0  0.28054410263E-01  0.22065581672E-01 -0.17871080292E-02  0.35750994182E-01  0.10000000475E-02 0. -1.
</event>
<event>
 4   0  0.4892667E-02  0.9118800E+02  0.7818609E-02  0.1379984E+01
      -11   -1    0    0    0    0  0.00000000000E+00  0.00000000000E+00  0.35740347158E-01  0.35744000000E-01  0.51099999109E-03 0.  1.
       11   -1    0    0    0    0 -0.00000000000E+00 -0.00000000000E+00 -0.35740347158E-01  0.35744000000E-01  0.51099999109E-03 0. -1.
       22    1    1    2    0    0 -0.11602645577E-02  0.12034596462E-01  0.33629687168E-01  0.35737005818E-01  0.00000000000E+00 0.  1.
  9000001    1    1    2    0    0  0.11602645577E-02 -0.12034596462E-01 -0.33629687168E-01  0.35750994182E-01  0.10000000475E-02 0. -1.
</event>
<event>
 4   0  0.4892667E-02  0.9118800E+02  0.7818609E-02  0.1379984E+01
      -11   -1    0    0    0    0  0.00000000000E+00  0.00000000000E+00  0.35740347158E-01  0.35744000000E-01  0.51099999109E-03 0.  1.
       11   -1    0    0    0    0 -0.00000000000E+00 -0.00000000000E+00 -0.35740347158E-01  0.35744000000E-01  0.51099999109E-03 0. -1.
       22    1    1    2    0    0  0.10145686052E-01 -0.49571410766E-02  0.33906126168E-01  0.35737005818E-01  0.00000000000E+00 0.  1.
  9000001    1    1    2    0    0 -0.10145686052E-01  0.49571410766E-02 -0.33906126168E-01  0.35750994182E-01  0.10000000475E-02 0. -1.
</event>
<event>
 4   0  0.4892667E-02  0.9118800E+02  0.7818609E-02  0.1379984E+01
      -11   -1    0    0    0    0  0.00000000000E+00  0.00000000000E+00  0.35740347158E-01  0.35744000000E-01  0.51099999109E-03 0.  1.
       11   -1    0    0    0    0 -0.00000000000E+00 -0.00000000000E+00 -0.35740347158E-01  0.35744000000E-01  0.51099999109E-03 0. -1.
       22    1    1    2    0    0  0.30461550535E-02 -0.50044955173E-03 -0.35603427848E-01  0.35737005818E-01  0.00000000000E+00 0. -1.
  9000001    1    1    2    0    0 -0.30461550535E-02  0.50044955173E-03  0.35603427848E-01  0.35750994182E-01  0.10000000475E-02 0.  1.
</event>
<event>
 4   0  0.4892667E-02  0.9118800E+02  0.7818609E-02  0.1379984E+01
      -11   -1    0    0    0    0  0.00000000000E+00  0.00000000000E+00  0.35740347158E-01  0.35744000000E-01  0.51099999109E-03 0. -1.
       11   -1    0    0    0    0 -0.00000000000E+00 -0.00000000000E+00 -0.35740347158E-01  0.35744000000E-01  0.51099999109E-03 0.  1.
       22    1    1    2    0    0  0.10531107906E-01 -0.32158343963E-01  0.11492182765E-01  0.35737005818E-01  0.00000000000E+00 0. -1.
  9000001    1    1    2    0    0 -0.10531107906E-01  0.32158343963E-01 -0.11492182765E-01  0.35750994182E-01  0.10000000475E-02 0.  1.
</event>
<event>
 4   0  0.4892667E-02  0.9118800E+02  0.7818609E-02  0.1379984E+01
      -11   -1    0    0    0    0  0.00000000000E+00  0.00000000000E+00  0.35740347158E-01  0.35744000000E-01  0.51099999109E-03 0.  1.
       11   -1    0    0    0    0 -0.00000000000E+00 -0.00000000000E+00 -0.35740347158E-01  0.35744000000E-01  0.51099999109E-03 0. -1.
       22    1    1    2    0    0 -0.24251065274E-02 -0.26566724081E-02 -0.35555513425E-01  0.35737005818E-01  0.00000000000E+00 0. -1.
  9000001    1    1    2    0    0  0.24251065274E-02  0.26566724081E-02  0.35555513425E-01  0.35750994182E-01  0.10000000475E-02 0.  1.
</event>
<event>
 4   0  0.4892667E-02  0.9118800E+02  0.7818609E-02  0.1379984E+01
      -11   -1    0    0    0    0  0.00000000000E+00  0.00000000000E+00  0.35740347158E-01  0.35744000000E-01  0.51099999109E-03 0. -1.
       11   -1    0    0    0    0 -0.00000000000E+00 -0.00000000000E+00 -0.35740347158E-01  0.35744000000E-01  0.51099999109E-03 0.  1.
       22    1    1    2    0    0 -0.86473339135E-02 -0.47452808261E-02 -0.34348791987E-01  0.35737005818E-01  0.00000000000E+00 0.  1.
  9000001    1    1    2    0    0  0.86473339135E-02  0.47452808261E-02  0.34348791987E-01  0.35750994182E-01  0.10000000475E-02 0. -1.
</event>
<event>
 4   0  0.4892667E-02  0.9118800E+02  0.7818609E-02  0.1379984E+01
      -11   -1    0    0    0    0  0.00000000000E+00  0.00000000000E+00  0.35740347158E-01  0.35744000000E-01  0.51099999109E-03 0.  1.
       11   -1    0    0    0    0 -0.00000000000E+00 -0.00000000000E+00 -0.35740347158E-01  0.35744000000E-01  0.51099999109E-03 0. -1.
       22    1    1    2    0    0 -0.60777879247E-02 -0.60709471243E-03  0.35211156113E-01  0.35737005818E-01  0.00000000000E+00 0.  1.
  9000001    1    1    2    0    0  0.60777879247E-02  0.60709471243E-03 -0.35211156113E-01  0.35750994182E-01  0.10000000475E-02 0. -1.
</event>
<event>
 4   0  0.4892667E-02  0.9118800E+02  0.7818609E-02  0.1379984E+01
      -11   -1    0    0    0    0  0.00000000000E+00  0.00000000000E+00  0.35740347158E-01  0.35744000000E-01  0.51099999109E-03 0.  1.
       11   -1    0    0    0    0 -0.00000000000E+00 -0.00000000000E+00 -0.35740347158E-01  0.35744000000E-01  0.51099999109E-03 0. -1.
       22    1    1    2    0    0 -0.49934958173E-02  0.49490981448E-03 -0.35382957037E-01  0.35737005818E-01  0.00000000000E+00 0. -1.
  9000001    1    1    2    0    0  0.49934958173E-02 -0.49490981448E-03  0.35382957037E-01  0.35750994182E-01  0.10000000475E-02 0.  1.
</event>
<event>
 4   0  0.4892667E-02  0.9118800E+02  0.7818609E-02  0.1379984E+01
      -11   -1    0    0    0    0  0.00000000000E+00  0.00000000000E+00  0.35740347158E-01  0.35744000000E-01  0.51099999109E-03 0. -1.
       11   -1    0    0    0    0 -0.00000000000E+00 -0.00000000000E+00 -0.35740347158E-01  0.35744000000E-01  0.51099999109E-03 0.  1.
       22    1    1    2    0    0  0.38537561391E-02  0.41199185444E-02  0.35288927721E-01  0.35737005818E-01  0.00000000000E+00 0. -1.
  9000001    1    1    2    0    0 -0.38537561391E-02 -0.41199185444E-02 -0.35288927721E-01  0.35750994182E-01  0.10000000475E-02 0.  1.
</event>
<event>
 4   0  0.4892667E-02  0.9118800E+02  0.7818609E-02  0.1379984E+01
      -11   -1    0    0    0    0  0.00000000000E+00  0.00000000000E+00  0.35740347158E-01  0.35744000000E-01  0.51099999109E-03 0. -1.
       11   -1    0    0    0    0 -0.00000000000E+00 -0.00000000000E+00 -0.35740347158E-01  0.35744000000E-01  0.51099999109E-03 0.  1.
       22    1    1    2    0    0 -0.15458819202E-01 -0.29123953325E-01 -0.13782374122E-01  0.35737005818E-01  0.00000000000E+00 0.  1.
  9000001    1    1    2    0    0  0.15458819202E-01  0.29123953325E-01  0.13782374122E-01  0.35750994182E-01  0.10000000475E-02 0. -1.
</event>
<event>
 4   0  0.4892667E-02  0.9118800E+02  0.7818609E-02  0.1379984E+01
      -11   -1    0    0    0    0  0.00000000000E+00  0.00000000000E+00  0.35740347158E-01  0.35744000000E-01  0.51099999109E-03 0.  1.
       11   -1    0    0    0    0 -0.00000000000E+00 -0.00000000000E+00 -0.35740347158E-01  0.35744000000E-01  0.51099999109E-03 0. -1.
       22    1    1    2    0    0  0.45450470818E-02  0.29129504289E-02  0.35326913985E-01  0.35737005818E-01  0.00000000000E+00 0.  1.
  9000001    1    1    2    0    0 -0.45450470818E-02 -0.29129504289E-02 -0.35326913985E-01  0.35750994182E-01  0.10000000475E-02 0. -1.
</event>
<event>
 4   0  0.4892667E-02  0.9118800E+02  0.7818609E-02  0.1379984E+01
      -11   -1    0    0    0    0  0.00000000000E+00  0.00000000000E+00  0.35740347158E-01  0.35744000000E-01  0.51099999109E-03 0. -1.
       11   -1    0    0    0    0 -0.00000000000E+00 -0.00000000000E+00 -0.35740347158E-01  0.35744000000E-01  0.51099999109E-03 0.  1.
       22    1    1    2    0    0 -0.95062412569E-02 -0.22071011648E-01  0.26450622051E-01  0.35737005818E-01  0.00000000000E+00 0. -1.
  9000001    1    1    2    0    0  0.95062412569E-02  0.22071011648E-01 -0.26450622051E-01  0.35750994182E-01  0.10000000475E-02 0.  1.
</event>
<event>
 4   0  0.4892667E-02  0.9118800E+02  0.7818609E-02  0.1379984E+01
      -11   -1    0    0    0    0  0.00000000000E+00  0.00000000000E+00  0.35740347158E-01  0.35744000000E-01  0.51099999109E-03 0. -1.
       11   -1    0    0    0    0 -0.00000000000E+00 -0.00000000000E+00 -0.35740347158E-01  0.35744000000E-01  0.51099999109E-03 0.  1.
       22    1    1    2    0    0  0.49632449408E-03  0.61674844729E-02  0.35197292256E-01  0.35737005818E-01  0.00000000000E+00 0. -1.
  9000001    1    1    2    0    0 -0.49632449408E-03 -0.61674844729E-02 -0.35197292256E-01  0.35750994182E-01  0.10000000475E-02 0.  1.
</event>
<event>
 4   0  0.4892667E-02  0.9118800E+02  0.7818609E-02  0.1379984E+01
      -11   -1    0    0    0    0  0.00000000000E+00  0.00000000000E+00  0.35740347158E-01  0.35744000000E-01  0.51099999109E-03 0.  1.
       11   -1    0    0    0    0 -0.00000000000E+00 -0.00000000000E+00 -0.35740347158E-01  0.35744000000E-01  0.51099999109E-03 0. -1.
       22    1    1    2    0    0  0.29491000009E-02  0.42430373001E-02 -0.35361462477E-01  0.35737005818E-01  0.00000000000E+00 0. -1.
  9000001    1    1    2    0    0 -0.29491000009E-02 -0.42430373001E-02  0.35361462477E-01  0.35750994182E-01  0.10000000475E-02 0.  1.
</event>
<event>
 4   0  0.4892667E-02  0.9118800E+02  0.7818609E-02  0.1379984E+01
      -11   -1    0    0    0    0  0.00000000000E+00  0.00000000000E+00  0.35740347158E-01  0.35744000000E-01  0.51099999109E-03 0.  1.
       11   -1    0    0    0    0 -0.00000000000E+00 -0.00000000000E+00 -0.35740347158E-01  0.35744000000E-01  0.51099999109E-03 0. -1.
       22    1    1    2    0    0  0.81363522231E-02  0.21796561257E-01  0.27126431294E-01  0.35737005818E-01  0.00000000000E+00 0.  1.
  9000001    1    1    2    0    0 -0.81363522231E-02 -0.21796561257E-01 -0.27126431294E-01  0.35750994182E-01  0.10000000475E-02 0. -1.
</event>
<event>
 4   0  0.4892667E-02  0.9118800E+02  0.7818609E-02  0.1379984E+01
      -11   -1    0    0    0    0  0.00000000000E+00  0.00000000000E+00  0.35740347158E-01  0.35744000000E-01  0.51099999109E-03 0. -1.
       11   -1    0    0    0    0 -0.00000000000E+00 -0.00000000000E+00 -0.35740347158E-01  0.35744000000E-01  0.51099999109E-03 0.  1.
       22    1    1    2    0    0  0.16726622721E-01 -0.57641915469E-02  0.31050406970E-01  0.35737005818E-01  0.00000000000E+00 0. -1.
  9000001    1    1    2    0    0 -0.16726622721E-01  0.57641915469E-02 -0.31050406970E-01  0.35750994182E-01  0.10000000475E-02 0.  1.
</event>
<event>
 4   0  0.4892667E-02  0.9118800E+02  0.7818609E-02  0.1379984E+01
      -11   -1    0    0    0    0  0.00000000000E+00  0.00000000000E+00  0.35740347158E-01  0.35744000000E-01  0.51099999109E-03 0.  1.
       11   -1    0    0    0    0 -0.00000000000E+00 -0.00000000000E+00 -0.35740347158E-01  0.35744000000E-01  0.51099999109E-03 0. -1.
       22    1    1    2    0    0  0.24436158048E-02 -0.20501165827E-02 -0.35594372430E-01  0.35737005818E-01  0.00000000000E+00 0. -1.
  9000001    1    1    2    0    0 -0.24436158048E-02  0.20501165827E-02  0.35594372430E-01  0.35750994182E-01  0.10000000475E-02 0.  1.
</event>
<event>
 4   0  0.4892667E-02  0.9118800E+02  0.7818609E-02  0.1379984E+01
      -11   -1    0    0    0    0  0.00000000000E+00  0.00000000000E+00  0.35740347158E-01  0.35744000000E-01  0.51099999109E-03 0.  1.
       11   -1    0    0    0    0 -0.00000000000E+00 -0.00000000000E+00 -0.35740347158E-01  0.35744000000E-01  0.51099999109E-03 0. -1.
       22    1    1    2    0    0 -0.18770935896E-02  0.39548904535E-02 -0.35467857928E-01  0.35737005818E-01  0.00000000000E+00 0. -1.
  9000001    1    1    2    0    0  0.18770935896E-02 -0.39548904535E-02  0.35467857928E-01  0.35750994182E-01  0.10000000475E-02 0.  1.
</event>
<event>
 4   0  0.4892667E-02  0.9118800E+02  0.7818609E-02  0.1379984E+01
      -11   -1    0    0    0    0  0.00000000000E+00  0.00000000000E+00  0.35740347158E-01  0.35744000000E-01  0.51099999109E-03 0.  1.
       11   -1    0    0    0    0 -0.00000000000E+00 -0.00000000000E+00 -0.35740347158E-01  0.35744000000E-01  0.51099999109E-03 0. -1.
       22    1    1    2    0    0  0.15721572990E-03  0.43745183347E-02  0.35467907429E-01  0.35737005818E-01  0.00000000000E+00 0.  1.
  9000001    1    1    2    0    0 -0.15721572990E-03 -0.43745183347E-02 -0.35467907429E-01  0.35750994182E-01  0.10000000475E-02 0. -1.
</event>
<event>
 4   0  0.4892667E-02  0.9118800E+02  0.7818609E-02  0.1379984E+01
      -11   -1    0    0    0    0  0.00000000000E+00  0.00000000000E+00  0.35740347158E-01  0.35744000000E-01  0.51099999109E-03 0. -1.
       11   -1    0    0    0    0 -0.00000000000E+00 -0.00000000000E+00 -0.35740347158E-01  0.35744000000E-01  0.51099999109E-03 0.  1.
       22    1    1    2    0    0  0.88494733457E-03 -0.32335230388E-02  0.35579415142E-01  0.35737005818E-01  0.00000000000E+00 0. -1.
  9000001    1    1    2    0    0 -0.88494733457E-03  0.32335230388E-02 -0.35579415142E-01  0.35750994182E-01  0.10000000475E-02 0.  1.
</event>
<event>
 4   0  0.4892667E-02  0.9118800E+02  0.7818609E-02  0.1379984E+01
      -11   -1    0    0    0    0  0.00000000000E+00  0.00000000000E+00  0.35740347158E-01  0.35744000000E-01  0.51099999109E-03 0. -1.
       11   -1    0    0    0    0 -0.00000000000E+00 -0.00000000000E+00 -0.35740347158E-01  0.35744000000E-01  0.51099999109E-03 0.  1.
       22    1    1    2    0    0  0.41668370734E-02 -0.93810370239E-03 -0.35480854205E-01  0.35737005818E-01  0.00000000000E+00 0.  1.
  9000001    1    1    2    0    0 -0.41668370734E-02  0.93810370239E-03  0.35480854205E-01  0.35750994182E-01  0.10000000475E-02 0. -1.
</event>
<event>
 4   0  0.4892667E-02  0.9118800E+02  0.7818609E-02  0.1379984E+01
      -11   -1    0    0    0    0  0.00000000000E+00  0.00000000000E+00  0.35740347158E-01  0.35744000000E-01  0.51099999109E-03 0. -1.
       11   -1    0    0    0    0 -0.00000000000E+00 -0.00000000000E+00 -0.35740347158E-01  0.35744000000E-01  0.51099999109E-03 0.  1.
       22    1    1    2    0    0 -0.41334160684E-03  0.10254774931E-01 -0.34231598337E-01  0.35737005818E-01  0.00000000000E+00 0.  1.
  9000001    1    1    2    0    0  0.41334160684E-03 -0.10254774931E-01  0.34231598337E-01  0.35750994182E-01  0.10000000475E-02 0. -1.
</event>
<event>
 4   0  0.4892667E-02  0.9118800E+02  0.7818609E-02  0.1379984E+01
      -11   -1    0    0    0    0  0.00000000000E+00  0.00000000000E+00  0.35740347158E-01  0.35744000000E-01  0.51099999109E-03 0.  1.
       11   -1    0    0    0    0 -0.00000000000E+00 -0.00000000000E+00 -0.35740347158E-01  0.35744000000E-01  0.51099999109E-03 0. -1.
       22    1    1    2    0    0 -0.11166410256E-01  0.12028051881E-02 -0.33926363297E-01  0.35737005818E-01  0.00000000000E+00 0. -1.
  9000001    1    1    2    0    0  0.11166410256E-01 -0.12028051881E-02  0.33926363297E-01  0.35750994182E-01  0.10000000475E-02 0.  1.
</event>
<event>
 4   0  0.4892667E-02  0.9118800E+02  0.7818609E-02  0.1379984E+01
      -11   -1    0    0    0    0  0.00000000000E+00  0.00000000000E+00  0.35740347158E-01  0.35744000000E-01  0.51099999109E-03 0.  1.
       11   -1    0    0    0    0 -0.00000000000E+00 -0.00000000000E+00 -0.35740347158E-01  0.35744000000E-01  0.51099999109E-03 0. -1.
       22    1    1    2    0    0 -0.35377176085E-02 -0.22993772114E-01  0.27127561316E-01  0.35737005818E-01  0.00000000000E+00 0.  1.
  9000001    1    1    2    0    0  0.35377176085E-02  0.22993772114E-01 -0.27127561316E-01  0.35750994182E-01  0.10000000475E-02 0. -1.
</event>
<event>
 4   0  0.4892667E-02  0.9118800E+02  0.7818609E-02  0.1379984E+01
      -11   -1    0    0    0    0  0.00000000000E+00  0.00000000000E+00  0.35740347158E-01  0.35744000000E-01  0.51099999109E-03 0.  1.
       11   -1    0    0    0    0 -0.00000000000E+00 -0.00000000000E+00 -0.35740347158E-01  0.35744000000E-01  0.51099999109E-03 0. -1.
       22    1    1    2    0    0  0.10755289333E-02 -0.77131841238E-02  0.34878125137E-01  0.35737005818E-01  0.00000000000E+00 0.  1.
  9000001    1    1    2    0    0 -0.10755289333E-02  0.77131841238E-02 -0.34878125137E-01  0.35750994182E-01  0.10000000475E-02 0. -1.
</event>
<event>
 4   0  0.4892667E-02  0.9118800E+02  0.7818609E-02  0.1379984E+01
      -11   -1    0    0    0    0  0.00000000000E+00  0.00000000000E+00  0.35740347158E-01  0.35744000000E-01  0.51099999109E-03 0. -1.
       11   -1    0    0    0    0 -0.00000000000E+00 -0.00000000000E+00 -0.35740347158E-01  0.35744000000E-01  0.51099999109E-03 0.  1.
       22    1    1    2    0    0 -0.90345659855E-02 -0.82356650484E-02  0.33581006887E-01  0.35737005818E-01  0.00000000000E+00 0. -1.
  9000001    1    1    2    0    0  0.90345659855E-02  0.82356650484E-02 -0.33581006887E-01  0.35750994182E-01  0.10000000475E-02 0.  1.
</event>
<event>
 4   0  0.4892667E-02  0.9118800E+02  0.7818609E-02  0.1379984E+01
      -11   -1    0    0    0    0  0.00000000000E+00  0.00000000000E+00  0.35740347158E-01  0.35744000000E-01  0.51099999109E-03 0.  1.
       11   -1    0    0    0    0 -0.00000000000E+00 -0.00000000000E+00 -0.35740347158E-01  0.35744000000E-01  0.51099999109E-03 0. -1.
       22    1    1    2    0    0  0.26328771780E-01 -0.18178365099E-01 -0.15920942301E-01  0.35737005818E-01  0.00000000000E+00 0. -1.
  9000001    1    1    2    0    0 -0.26328771780E-01  0.18178365099E-01  0.15920942301E-01  0.35750994182E-01  0.10000000475E-02 0.  1.
</event>
<event>
 4   0  0.4892667E-02  0.9118800E+02  0.7818609E-02  0.1379984E+01
      -11   -1    0    0    0    0  0.00000000000E+00  0.00000000000E+00  0.35740347158E-01  0.35744000000E-01  0.51099999109E-03 0.  1.
       11   -1    0    0    0    0 -0.00000000000E+00 -0.00000000000E+00 -0.35740347158E-01  0.35744000000E-01  0.51099999109E-03 0. -1.
       22    1    1    2    0    0  0.59775714479E-02 -0.16349181390E-02  0.35195585904E-01  0.35737005818E-01  0.00000000000E+00 0.  1.
  9000001    1    1    2    0    0 -0.59775714479E-02  0.16349181390E-02 -0.35195585904E-01  0.35750994182E-01  0.10000000475E-02 0. -1.
</event>
<event>
 4   0  0.4892667E-02  0.9118800E+02  0.7818609E-02  0.1379984E+01
      -11   -1    0    0    0    0  0.00000000000E+00  0.00000000000E+00  0.35740347158E-01  0.35744000000E-01  0.51099999109E-03 0.  1.
       11   -1    0    0    0    0 -0.00000000000E+00 -0.00000000000E+00 -0.35740347158E-01  0.35744000000E-01  0.51099999109E-03 0. -1.
       22    1    1    2    0    0  0.72270670194E-02  0.28988899858E-01  0.19609864155E-01  0.35737005818E-01  0.00000000000E+00 0.  1.
  9000001    1    1    2    0    0 -0.72270670194E-02 -0.28988899858E-01 -0.19609864155E-01  0.35750994182E-01  0.10000000475E-02 0. -1.
</event>
<event>
 4   0  0.4892667E-02  0.9118800E+02  0.7818609E-02  0.1379984E+01
      -11   -1    0    0    0    0  0.00000000000E+00  0.00000000000E+00  0.35740347158E-01  0.35744000000E-01  0.51099999109E-03 0.  1.
       11   -1    0    0    0    0 -0.00000000000E+00 -0.00000000000E+00 -0.35740347158E-01  0.35744000000E-01  0.51099999109E-03 0. -1.
       22    1    1    2    0    0 -0.86772720373E-02  0.47841932708E-02  0.34335841764E-01  0.35737005818E-01  0.00000000000E+00 0.  1.
  9000001    1    1    2    0    0  0.86772720373E-02 -0.47841932708E-02 -0.34335841764E-01  0.35750994182E-01  0.10000000475E-02 0. -1.
</event>
<event>
 4   0  0.4892667E-02  0.9118800E+02  0.7818609E-02  0.1379984E+01
      -11   -1    0    0    0    0  0.00000000000E+00  0.00000000000E+00  0.35740347158E-01  0.35744000000E-01  0.51099999109E-03 0. -1.
       11   -1    0    0    0    0 -0.00000000000E+00 -0.00000000000E+00 -0.35740347158E-01  0.35744000000E-01  0.51099999109E-03 0.  1.
       22    1    1    2    0    0  0.91447602489E-02 -0.10705629545E-01 -0.32846559042E-01  0.35737005818E-01  0.00000000000E+00 0.  1.
  9000001    1    1    2    0    0 -0.91447602489E-02  0.10705629545E-01  0.32846559042E-01  0.35750994182E-01  0.10000000475E-02 0. -1.
</event>
<event>
 4   0  0.4892667E-02  0.9118800E+02  0.7818609E-02  0.1379984E+01
      -11   -1    0    0    0    0  0.00000000000E+00  0.00000000000E+00  0.35740347158E-01  0.35744000000E-01  0.51099999109E-03 0.  1.
       11   -1    0    0    0    0 -0.00000000000E+00 -0.00000000000E+00 -0.35740347158E-01  0.35744000000E-01  0.51099999109E-03 0. -1.
       22    1    1    2    0    0 -0.18998721597E-02  0.26083051725E-01 -0.24355666350E-01  0.35737005818E-01  0.00000000000E+00 0. -1.
  9000001    1    1    2    0    0  0.18998721597E-02 -0.26083051725E-01  0.24355666350E-01  0.35750994182E-01  0.10000000475E-02 0.  1.
</event>
<event>
 4   0  0.4892667E-02  0.9118800E+02  0.7818609E-02  0.1379984E+01
      -11   -1    0    0    0    0  0.00000000000E+00  0.00000000000E+00  0.35740347158E-01  0.35744000000E-01  0.51099999109E-03 0.  1.
       11   -1    0    0    0    0 -0.00000000000E+00 -0.00000000000E+00 -0.35740347158E-01  0.35744000000E-01  0.51099999109E-03 0. -1.
       22    1    1    2    0    0 -0.27181677961E-01 -0.22360908669E-01 -0.61870616310E-02  0.35737005818E-01  0.00000000000E+00 0. -1.
  9000001    1    1    2    0    0  0.27181677961E-01  0.22360908669E-01  0.61870616310E-02  0.35750994182E-01  0.10000000475E-02 0.  1.
</event>
<event>
 4   0  0.4892667E-02  0.9118800E+02  0.7818609E-02  0.1379984E+01
      -11   -1    0    0    0    0  0.00000000000E+00  0.00000000000E+00  0.35740347158E-01  0.35744000000E-01  0.51099999109E-03 0.  1.
       11   -1    0    0    0    0 -0.00000000000E+00 -0.00000000000E+00 -0.35740347158E-01  0.35744000000E-01  0.51099999109E-03 0. -1.
       22    1    1    2    0    0  0.32964561399E-01  0.44233073131E-03  0.13794042923E-01  0.35737005818E-01  0.00000000000E+00 0.  1.
  9000001    1    1    2    0    0 -0.32964561399E-01 -0.44233073131E-03 -0.13794042923E-01  0.35750994182E-01  0.10000000475E-02 0. -1.
</event>
<event>
 4   0  0.4892667E-02  0.9118800E+02  0.7818609E-02  0.1379984E+01
      -11   -1    0    0    0    0  0.00000000000E+00  0.00000000000E+00  0.35740347158E-01  0.35744000000E-01  0.51099999109E-03 0. -1.
       11   -1    0    0    0    0 -0.00000000000E+00 -0.00000000000E+00 -0.35740347158E-01  0.35744000000E-01  0.51099999109E-03 0.  1.
       22    1    1    2    0    0 -0.62737792956E-02  0.14733087811E-01 -0.31948543030E-01  0.35737005818E-01  0.00000000000E+00 0.  1.
  9000001    1    1    2    0    0  0.62737792956E-02 -0.14733087811E-01  0.31948543030E-01  0.35750994182E-01  0.10000000475E-02 0. -1.
</event>
<event>
 4   0  0.4892667E-02  0.9118800E+02  0.7818609E-02  0.1379984E+01
      -11   -1    0    0    0    0  0.00000000000E+00  0.00000000000E+00  0.35740347158E-01  0.35744000000E-01  0.51099999109E-03 0.  1.
       11   -1    0    0    0    0 -0.00000000000E+00 -0.00000000000E+00 -0.35740347158E-01  0.35744000000E-01  0.51099999109E-03 0. -1.
       22    1    1    2    0    0  0.14976594240E-01 -0.32445545369E-01  0.34899219976E-03  0.35737005818E-01  0.00000000000E+00 0.  1.
  9000001    1    1    2    0    0 -0.14976594240E-01  0.32445545369E-01 -0.34899219976E-03  0.35750994182E-01  0.10000000475E-02 0. -1.
</event>
<event>
 4   0  0.4892667E-02  0.9118800E+02  0.7818609E-02  0.1379984E+01
      -11   -1    0    0    0    0  0.00000000000E+00  0.00000000000E+00  0.35740347158E-01  0.35744000000E-01  0.51099999109E-03 0. -1.
       11   -1    0    0    0    0 -0.00000000000E+00 -0.00000000000E+00 -0.35740347158E-01  0.35744000000E-01  0.51099999109E-03 0.  1.
       22    1    1    2    0    0 -0.33471635769E-02  0.17890922743E-01  0.30754592572E-01  0.35737005818E-01  0.00000000000E+00 0. -1.
  9000001    1    1    2    0    0  0.33471635769E-02 -0.17890922743E-01 -0.30754592572E-01  0.35750994182E-01  0.10000000475E-02 0.  1.
</event>
<event>
 4   0  0.4892667E-02  0.9118800E+02  0.7818609E-02  0.1379984E+01
      -11   -1    0    0    0    0  0.00000000000E+00  0.00000000000E+00  0.35740347158E-01  0.35744000000E-01  0.51099999109E-03 0.  1.
       11   -1    0    0    0    0 -0.00000000000E+00 -0.00000000000E+00 -0.35740347158E-01  0.35744000000E-01  0.51099999109E-03 0. -1.
       22    1    1    2    0    0  0.31570995138E-01 -0.16509285754E-01  0.28016664287E-02  0.35737005818E-01  0.00000000000E+00 0.  1.
  9000001    1    1    2    0    0 -0.31570995138E-01  0.16509285754E-01 -0.28016664287E-02  0.35750994182E-01  0.10000000475E-02 0. -1.
</event>
<event>
 4   0  0.4892667E-02  0.9118800E+02  0.7818609E-02  0.1379984E+01
      -11   -1    0    0    0    0  0.00000000000E+00  0.00000000000E+00  0.35740347158E-01  0.35744000000E-01  0.51099999109E-03 0. -1.
       11   -1    0    0    0    0 -0.00000000000E+00 -0.00000000000E+00 -0.35740347158E-01  0.35744000000E-01  0.51099999109E-03 0.  1.
       22    1    1    2    0    0  0.27682533778E-01 -0.49800295973E-02  0.22045639336E-01  0.35737005818E-01  0.00000000000E+00 0. -1.
  9000001    1    1    2    0    0 -0.27682533778E-01  0.49800295973E-02 -0.22045639336E-01  0.35750994182E-01  0.10000000475E-02 0.  1.
</event>
<event>
 4   0  0.4892667E-02  0.9118800E+02  0.7818609E-02  0.1379984E+01
      -11   -1    0    0    0    0  0.00000000000E+00  0.00000000000E+00  0.35740347158E-01  0.35744000000E-01  0.51099999109E-03 0.  1.
       11   -1    0    0    0    0 -0.00000000000E+00 -0.00000000000E+00 -0.35740347158E-01  0.35744000000E-01  0.51099999109E-03 0. -1.
       22    1    1    2    0    0  0.67019032097E-02  0.79353682645E-02  0.34194268653E-01  0.35737005818E-01  0.00000000000E+00 0.  1.
  9000001    1    1    2    0    0 -0.67019032097E-02 -0.79353682645E-02 -0.34194268653E-01  0.35750994182E-01  0.10000000475E-02 0. -1.
</event>
<event>
 4   0  0.4892667E-02  0.9118800E+02  0.7818609E-02  0.1379984E+01
      -11   -1    0    0    0    0  0.00000000000E+00  0.00000000000E+00  0.35740347158E-01  0.35744000000E-01  0.51099999109E-03 0. -1.
       11   -1    0    0    0    0 -0.00000000000E+00 -0.00000000000E+00 -0.35740347158E-01  0.35744000000E-01  0.51099999109E-03 0.  1.
       22    1    1    2    0    0  0.15631392441E-01 -0.32023203907E-01 -0.27032511419E-02  0.35737005818E-01  0.00000000000E+00 0.  1.
  9000001    1    1    2    0    0 -0.15631392441E-01  0.32023203907E-01  0.27032511419E-02  0.35750994182E-01  0.10000000475E-02 0. -1.
</event>
<event>
 4   0  0.4892667E-02  0.9118800E+02  0.7818609E-02  0.1379984E+01
      -11   -1    0    0    0    0  0.00000000000E+00  0.00000000000E+00  0.35740347158E-01  0.35744000000E-01  0.51099999109E-03 0.  1.
       11   -1    0    0    0    0 -0.00000000000E+00 -0.00000000000E+00 -0.35740347158E-01  0.35744000000E-01  0.51099999109E-03 0. -1.
       22    1    1    2    0    0  0.29428344898E-02 -0.22346685848E-02 -0.35545457746E-01  0.35737005818E-01  0.00000000000E+00 0. -1.
  9000001    1    1    2    0    0 -0.29428344898E-02  0.22346685848E-02  0.35545457746E-01  0.35750994182E-01  0.10000000475E-02 0.  1.
</event>
<event>
 4   0  0.4892667E-02  0.9118800E+02  0.7818609E-02  0.1379984E+01
      -11   -1    0    0    0    0  0.00000000000E+00  0.00000000000E+00  0.35740347158E-01  0.35744000000E-01  0.51099999109E-03 0.  1.
       11   -1    0    0    0    0 -0.00000000000E+00 -0.00000000000E+00 -0.35740347158E-01  0.35744000000E-01  0.51099999109E-03 0. -1.
       22    1    1    2    0    0  0.22299558875E-01 -0.13116970986E-01  0.24653769104E-01  0.35737005818E-01  0.00000000000E+00 0.  1.
  9000001    1    1    2    0    0 -0.22299558875E-01  0.13116970986E-01 -0.24653769104E-01  0.35750994182E-01  0.10000000475E-02 0. -1.
</event>
<event>
 4   0  0.4892667E-02  0.9118800E+02  0.7818609E-02  0.1379984E+01
      -11   -1    0    0    0    0  0.00000000000E+00  0.00000000000E+00  0.35740347158E-01  0.35744000000E-01  0.51099999109E-03 0. -1.
       11   -1    0    0    0    0 -0.00000000000E+00 -0.00000000000E+00 -0.35740347158E-01  0.35744000000E-01  0.51099999109E-03 0.  1.
       22    1    1    2    0    0  0.14385784246E-01  0.19289590006E-01  0.26421478269E-01  0.35737005818E-01  0.00000000000E+00 0. -1.
  9000001    1    1    2    0    0 -0.14385784246E-01 -0.19289590006E-01 -0.26421478269E-01  0.35750994182E-01  0.10000000475E-02 0.  1.
</event>
<event>
 4   0  0.4892667E-02  0.9118800E+02  0.7818609E-02  0.1379984E+01
      -11   -1    0    0    0    0  0.00000000000E+00  0.00000000000E+00  0.35740347158E-01  0.35744000000E-01  0.51099999109E-03 0. -1.
       11   -1    0    0    0    0 -0.00000000000E+00 -0.00000000000E+00 -0.35740347158E-01  0.35744000000E-01  0.51099999109E-03 0.  1.
       22    1    1    2    0    0  0.10106508267E-01  0.38230787375E-02 -0.34064294275E-01  0.35737005818E-01  0.00000000000E+00 0.  1.
  9000001    1    1    2    0    0 -0.10106508267E-01 -0.38230787375E-02  0.34064294275E-01  0.35750994182E-01  0.10000000475E-02 0. -1.
</event>
<event>
 4   0  0.4892667E-02  0.9118800E+02  0.7818609E-02  0.1379984E+01
      -11   -1    0    0    0    0  0.00000000000E+00  0.00000000000E+00  0.35740347158E-01  0.35744000000E-01  0.51099999109E-03 0.  1.
       11   -1    0    0    0    0 -0.00000000000E+00 -0.00000000000E+00 -0.35740347158E-01  0.35744000000E-01  0.51099999109E-03 0. -1.
       22    1    1    2    0    0 -0.51982523424E-02 -0.25911162436E-01  0.24056670981E-01  0.35737005818E-01  0.00000000000E+00 0.  1.
  9000001    1    1    2    0    0  0.51982523424E-02  0.25911162436E-01 -0.24056670981E-01  0.35750994182E-01  0.10000000475E-02 0. -1.
</event>
<event>
 4   0  0.4892667E-02  0.9118800E+02  0.7818609E-02  0.1379984E+01
      -11   -1    0    0    0    0  0.00000000000E+00  0.00000000000E+00  0.35740347158E-01  0.35744000000E-01  0.51099999109E-03 0. -1.
       11   -1    0    0    0    0 -0.00000000000E+00 -0.00000000000E+00 -0.35740347158E-01  0.35744000000E-01  0.51099999109E-03 0.  1.
       22    1    1    2    0    0 -0.50088835364E-02  0.18102017465E-01  0.30403316173E-01  0.35737005818E-01  0.00000000000E+00 0. -1.
  9000001    1    1    2    0    0  0.50088835364E-02 -0.18102017465E-01 -0.30403316173E-01  0.35750994182E-01  0.10000000475E-02 0.  1.
</event>
<event>
 4   0  0.4892667E-02  0.9118800E+02  0.7818609E-02  0.1379984E+01
      -11   -1    0    0    0    0  0.00000000000E+00  0.00000000000E+00  0.35740347158E-01  0.35744000000E-01  0.51099999109E-03 0.  1.
       11   -1    0    0    0    0 -0.00000000000E+00 -0.00000000000E+00 -0.35740347158E-01  0.35744000000E-01  0.51099999109E-03 0. -1.
       22    1    1    2    0    0 -0.23683819785E-01  0.24468687257E-01 -0.10839446904E-01  0.35737005818E-01  0.00000000000E+00 0. -1.
  9000001    1    1    2    0    0  0.23683819785E-01 -0.24468687257E-01  0.10839446904E-01  0.35750994182E-01  0.10000000475E-02 0.  1.
</event>
<event>
 4   0  0.4892667E-02  0.9118800E+02  0.7818609E-02  0.1379984E+01
      -11   -1    0    0    0    0  0.00000000000E+00  0.00000000000E+00  0.35740347158E-01  0.35744000000E-01  0.51099999109E-03 0. -1.
       11   -1    0    0    0    0 -0.00000000000E+00 -0.00000000000E+00 -0.35740347158E-01  0.35744000000E-01  0.51099999109E-03 0.  1.
       22    1    1    2    0    0 -0.53607690058E-02 -0.35257327506E-01  0.23057748598E-02  0.35737005818E-01  0.00000000000E+00 0. -1.
  9000001    1    1    2    0    0  0.53607690058E-02  0.35257327506E-01 -0.23057748598E-02  0.35750994182E-01  0.10000000475E-02 0.  1.
</event>
<event>
 4   0  0.4892667E-02  0.9118800E+02  0.7818609E-02  0.1379984E+01
      -11   -1    0    0    0    0  0.00000000000E+00  0.00000000000E+00  0.35740347158E-01  0.35744000000E-01  0.51099999109E-03 0. -1.
       11   -1    0    0    0    0 -0.00000000000E+00 -0.00000000000E+00 -0.35740347158E-01  0.35744000000E-01  0.51099999109E-03 0.  1.
       22    1    1    2    0    0  0.11456573679E-01 -0.40821958267E-02 -0.33603812010E-01  0.35737005818E-01  0.00000000000E+00 0.  1.
  9000001    1    1    2    0    0 -0.11456573679E-01  0.40821958267E-02  0.33603812010E-01  0.35750994182E-01  0.10000000475E-02 0. -1.
</event>
<event>
 4   0  0.4892667E-02  0.9118800E+02  0.7818609E-02  0.1379984E+01
      -11   -1    0    0    0    0  0.00000000000E+00  0.00000000000E+00  0.35740347158E-01  0.35744000000E-01  0.51099999109E-03 0. -1.
       11   -1    0    0    0    0 -0.00000000000E+00 -0.00000000000E+00 -0.35740347158E-01  0.35744000000E-01  0.51099999109E-03 0.  1.
       22    1    1    2    0    0 -0.44504679653E-02 -0.69103236267E-02 -0.34778935394E-01  0.35737005818E-01  0.00000000000E+00 0.  1.
  9000001    1    1    2    0    0  0.44504679653E-02  0.69103236267E-02  0.34778935394E-01  0.35750994182E-01  0.10000000475E-02 0. -1.
</event>
<event>
 4   0  0.4892667E-02  0.9118800E+02  0.7818609E-02  0.1379984E+01
      -11   -1    0    0    0    0  0.00000000000E+00  0.00000000000E+00  0.35740347158E-01  0.35744000000E-01  0.51099999109E-03 0.  1.
       11   -1    0    0    0    0 -0.00000000000E+00 -0.00000000000E+00 -0.35740347158E-01  0.35744000000E-01  0.51099999109E-03 0. -1.
       22    1    1    2    0    0  0.77490824027E-02 -0.25444936144E-01 -0.23867143344E-01  0.35737005818E-01  0.00000000000E+00 0. -1.
  9000001    1    1    2    0    0 -0.77490824027E-02  0.25444936144E-01  0.23867143344E-01  0.35750994182E-01  0.10000000475E-02 0.  1.
</event>
<event>
 4   0  0.4892667E-02  0.9118800E+02  0.7818609E-02  0.1379984E+01
      -11   -1    0    0    0    0  0.00000000000E+00  0.00000000000E+00  0.35740347158E-01  0.35744000000E-01  0.51099999109E-03 0. -1.
       11   -1    0    0    0    0 -0.00000000000E+00 -0.00000000000E+00 -0.35740347158E-01  0.35744000000E-01  0.51099999109E-03 0.  1.
       22    1    1    2    0    0  0.26032001281E-01 -0.15035273755E-01  0.19323794588E-01  0.35737005818E-01  0.00000000000E+00 0. -1.
  9000001    1    1    2    0    0 -0.26032001281E-01  0.15035273755E-01 -0.19323794588E-01  0.35750994182E-01  0.10000000475E-02 0.  1.
</event>
<event>
 4   0  0.4892667E-02  0.9118800E+02  0.7818609E-02  0.1379984E+01
      -11   -1    0    0    0    0  0.00000000000E+00  0.00000000000E+00  0.35740347158E-01  0.35744000000E-01  0.51099999109E-03 0. -1.
       11   -1    0    0    0    0 -0.00000000000E+00 -0.00000000000E+00 -0.35740347158E-01  0.35744000000E-01  0.51099999109E-03 0.  1.
       22    1    1    2    0    0  0.28240650394E-01  0.11599299660E-01  0.18575669506E-01  0.35737005818E-01  0.00000000000E+00 0. -1.
  9000001    1    1    2    0    0 -0.28240650394E-01 -0.11599299660E-01 -0.18575669506E-01  0.35750994182E-01  0.10000000475E-02 0.  1.
</event>
<event>
 4   0  0.4892667E-02  0.9118800E+02  0.7818609E-02  0.1379984E+01
      -11   -1    0    0    0    0  0.00000000000E+00  0.00000000000E+00  0.35740347158E-01  0.35744000000E-01  0.51099999109E-03 0. -1.
       11   -1    0    0    0    0 -0.00000000000E+00 -0.00000000000E+00 -0.35740347158E-01  0.35744000000E-01  0.51099999109E-03 0.  1.
       22    1    1    2    0    0 -0.20914551094E-01 -0.25339451694E-01 -0.14057998622E-01  0.35737005818E-01  0.00000000000E+00 0.  1.
  9000001    1    1    2    0    0  0.20914551094E-01  0.25339451694E-01  0.14057998622E-01  0.35750994182E-01  0.10000000475E-02 0. -1.
</event>
<event>
 4   0  0.4892667E-02  0.9118800E+02  0.7818609E-02  0.1379984E+01
      -11   -1    0    0    0    0  0.00000000000E+00  0.00000000000E+00  0.35740347158E-01  0.35744000000E-01  0.51099999109E-03 0.  1.
       11   -1    0    0    0    0 -0.00000000000E+00 -0.00000000000E+00 -0.35740347158E-01  0.35744000000E-01  0.51099999109E-03 0. -1.
       22    1    1    2    0    0 -0.38228065943E-03  0.40196060757E-02 -0.35508171079E-01  0.35737005818E-01  0.00000000000E+00 0. -1.
  9000001    1    1    2    0    0  0.38228065943E-03 -0.40196060757E-02  0.35508171079E-01  0.35750994182E-01  0.10000000475E-02 0.  1.
</event>
<event>
 4   0  0.4892667E-02  0.9118800E+02  0.7818609E-02  0.1379984E+01
      -11   -1    0    0    0    0  0.00000000000E+00  0.00000000000E+00  0.35740347158E-01  0.35744000000E-01  0.51099999109E-03 0. -1.
       11   -1    0    0    0    0 -0.00000000000E+00 -0.00000000000E+00 -0.35740347158E-01  0.35744000000E-01  0.51099999109E-03 0.  1.
       22    1    1    2    0    0 -0.20592354698E-01 -0.19083867679E-01 -0.22110958986E-01  0.35737005818E-01  0.00000000000E+00 0.  1.
  9000001    1    1    2    0    0  0.20592354698E-01  0.19083867679E-01  0.22110958986E-01  0.35750994182E-01  0.10000000475E-02 0. -1.
</event>
<event>
 4   0  0.4892667E-02  0.9118800E+02  0.7818609E-02  0.1379984E+01
      -11   -1    0    0    0    0  0.00000000000E+00  0.00000000000E+00  0.35740347158E-01  0.35744000000E-01  0.51099999109E-03 0. -1.
       11   -1    0    0    0    0 -0.00000000000E+00 -0.00000000000E+00 -0.35740347158E-01  0.35744000000E-01  0.51099999109E-03 0.  1.
       22    1    1    2    0    0 -0.56698417530E-02 -0.42371166166E-02 -0.35029035416E-01  0.35737005818E-01  0.00000000000E+00 0.  1.
  9000001    1    1    2    0    0  0.56698417530E-02  0.42371166166E-02  0.35029035416E-01  0.35750994182E-01  0.10000000475E-02 0. -1.
</event>
<event>
 4   0  0.4892667E-02  0.9118800E+02  0.7818609E-02  0.1379984E+01
      -11   -1    0    0    0    0  0.00000000000E+00  0.00000000000E+00  0.35740347158E-01  0.35744000000E-01  0.51099999109E-03 0.  1.
       11   -1    0    0    0    0 -0.00000000000E+00 -0.00000000000E+00 -0.35740347158E-01  0.35744000000E-01  0.51099999109E-03 0. -1.
       22    1    1    2    0    0  0.19483236015E-03  0.31810486930E-02  0.35594614121E-01  0.35737005818E-01  0.00000000000E+00 0.  1.
  9000001    1    1    2    0    0 -0.19483236015E-03 -0.31810486930E-02 -0.35594614121E-01  0.35750994182E-01  0.10000000475E-02 0. -1.
</event>
<event>
 4   0  0.4892667E-02  0.9118800E+02  0.7818609E-02  0.1379984E+01
      -11   -1    0    0    0    0  0.00000000000E+00  0.00000000000E+00  0.35740347158E-01  0.35744000000E-01  0.51099999109E-03 0. -1.
       11   -1    0    0    0    0 -0.00000000000E+00 -0.00000000000E+00 -0.35740347158E-01  0.35744000000E-01  0.51099999109E-03 0.  1.
       22    1    1    2    0    0  0.97946590229E-02  0.71811533934E-02 -0.33609957980E-01  0.35737005818E-01  0.00000000000E+00 0.  1.
  9000001    1    1    2    0    0 -0.97946590229E-02 -0.71811533934E-02  0.33609957980E-01  0.35750994182E-01  0.10000000475E-02 0. -1.
</event>
<event>
 4   0  0.4892667E-02  0.9118800E+02  0.7818609E-02  0.1379984E+01
      -11   -1    0    0    0    0  0.00000000000E+00  0.00000000000E+00  0.35740347158E-01  0.35744000000E-01  0.51099999109E-03 0. -1.
       11   -1    0    0    0    0 -0.00000000000E+00 -0.00000000000E+00 -0.35740347158E-01  0.35744000000E-01  0.51099999109E-03 0.  1.
       22    1    1    2    0    0  0.58026555854E-02  0.38961508636E-02  0.35046865501E-01  0.35737005818E-01  0.00000000000E+00 0. -1.
  9000001    1    1    2    0    0 -0.58026555854E-02 -0.38961508636E-02 -0.35046865501E-01  0.35750994182E-01  0.10000000475E-02 0.  1.
</event>
<event>
 4   0  0.4892667E-02  0.9118800E+02  0.7818609E-02  0.1379984E+01
      -11   -1    0    0    0    0  0.00000000000E+00  0.00000000000E+00  0.35740347158E-01  0.35744000000E-01  0.51099999109E-03 0.  1.
       11   -1    0    0    0    0 -0.00000000000E+00 -0.00000000000E+00 -0.35740347158E-01  0.35744000000E-01  0.51099999109E-03 0. -1.
       22    1    1    2    0    0  0.60574022766E-03 -0.53786662264E-02  0.35324730902E-01  0.35737005818E-01  0.00000000000E+00 0.  1.
  9000001    1    1    2    0    0 -0.60574022766E-03  0.53786662264E-02 -0.35324730902E-01  0.35750994182E-01  0.10000000475E-02 0. -1.
</event>
<event>
 4   0  0.4892667E-02  0.9118800E+02  0.7818609E-02  0.1379984E+01
      -11   -1    0    0    0    0  0.00000000000E+00  0.00000000000E+00  0.35740347158E-01  0.35744000000E-01  0.51099999109E-03 0. -1.
       11   -1    0    0    0    0 -0.00000000000E+00 -0.00000000000E+00 -0.35740347158E-01  0.35744000000E-01  0.51099999109E-03 0.  1.
       22    1    1    2    0    0 -0.11463407207E-01  0.17018849957E-02 -0.33805731282E-01  0.35737005818E-01  0.00000000000E+00 0.  1.
  9000001    1    1    2    0    0  0.11463407207E-01 -0.17018849957E-02  0.33805731282E-01  0.35750994182E-01  0.10000000475E-02 0. -1.
</event>
<event>
 4   0  0.4892667E-02  0.9118800E+02  0.7818609E-02  0.1379984E+01
      -11   -1    0    0    0    0  0.00000000000E+00  0.00000000000E+00  0.35740347158E-01  0.35744000000E-01  0.51099999109E-03 0.  1.
       11   -1    0    0    0    0 -0.00000000000E+00 -0.00000000000E+00 -0.35740347158E-01  0.35744000000E-01  0.51099999109E-03 0. -1.
       22    1    1    2    0    0  0.64813459720E-02 -0.96216066289E-02 -0.33801633469E-01  0.35737005818E-01  0.00000000000E+00 0. -1.
  9000001    1    1    2    0    0 -0.64813459720E-02  0.96216066289E-02  0.33801633469E-01  0.35750994182E-01  0.10000000475E-02 0.  1.
</event>
<event>
 4   0  0.4892667E-02  0.9118800E+02  0.7818609E-02  0.1379984E+01
      -11   -1    0    0    0    0  0.00000000000E+00  0.00000000000E+00  0.35740347158E-01  0.35744000000E-01  0.51099999109E-03 0. -1.
       11   -1    0    0    0    0 -0.00000000000E+00 -0.00000000000E+00 -0.35740347158E-01  0.35744000000E-01  0.51099999109E-03 0.  1.
       22    1    1    2    0    0 -0.16801845463E-03 -0.89239542531E-02  0.34604456290E-01  0.35737005818E-01  0.00000000000E+00 0. -1.
  9000001    1    1    2    0    0  0.16801845463E-03  0.89239542531E-02 -0.34604456290E-01  0.35750994182E-01  0.10000000475E-02 0.  1.
</event>
<event>
 4   0  0.4892667E-02  0.9118800E+02  0.7818609E-02  0.1379984E+01
      -11   -1    0    0    0    0  0.00000000000E+00  0.00000000000E+00  0.35740347158E-01  0.35744000000E-01  0.51099999109E-03 0.  1.
       11   -1    0    0    0    0 -0.00000000000E+00 -0.00000000000E+00 -0.35740347158E-01  0.35744000000E-01  0.51099999109E-03 0. -1.
       22    1    1    2    0    0 -0.26204550188E-02  0.44265043842E-02  0.35364853447E-01  0.35737005818E-01  0.00000000000E+00 0.  1.
  9000001    1    1    2    0    0  0.26204550188E-02 -0.44265043842E-02 -0.35364853447E-01  0.35750994182E-01  0.10000000475E-02 0. -1.
</event>
<event>
 4   0  0.4892667E-02  0.9118800E+02  0.7818609E-02  0.1379984E+01
      -11   -1    0    0    0    0  0.00000000000E+00  0.00000000000E+00  0.35740347158E-01  0.35744000000E-01  0.51099999109E-03 0. -1.
       11   -1    0    0    0    0 -0.00000000000E+00 -0.00000000000E+00 -0.35740347158E-01  0.35744000000E-01  0.51099999109E-03 0.  1.
       22    1    1    2    0    0 -0.48318651990E-02  0.54143670926E-03 -0.35404710278E-01  0.35737005818E-01  0.00000000000E+00 0.  1.
  9000001    1    1    2    0    0  0.48318651990E-02 -0.54143670926E-03  0.35404710278E-01  0.35750994182E-01  0.10000000475E-02 0. -1.
</event>
<event>
 4   0  0.4892667E-02  0.9118800E+02  0.7818609E-02  0.1379984E+01
      -11   -1    0    0    0    0  0.00000000000E+00  0.00000000000E+00  0.35740347158E-01  0.35744000000E-01  0.51099999109E-03 0.  1.
       11   -1    0    0    0    0 -0.00000000000E+00 -0.00000000000E+00 -0.35740347158E-01  0.35744000000E-01  0.51099999109E-03 0. -1.
       22    1    1    2    0    0 -0.10669218768E-01 -0.14689169124E-01 -0.30781969823E-01  0.35737005818E-01  0.00000000000E+00 0. -1.
  9000001    1    1    2    0    0  0.10669218768E-01  0.14689169124E-01  0.30781969823E-01  0.35750994182E-01  0.10000000475E-02 0.  1.
</event>
<event>
 4   0  0.4892667E-02  0.9118800E+02  0.7818609E-02  0.1379984E+01
      -11   -1    0    0    0    0  0.00000000000E+00  0.00000000000E+00  0.35740347158E-01  0.35744000000E-01  0.51099999109E-03 0.  1.
       11   -1    0    0    0    0 -0.00000000000E+00 -0.00000000000E+00 -0.35740347158E-01  0.35744000000E-01  0.51099999109E-03 0. -1.
       22    1    1    2    0    0  0.19001503362E-01  0.11133691604E-03 -0.30266550166E-01  0.35737005818E-01  0.00000000000E+00 0. -1.
  9000001    1    1    2    0    0 -0.19001503362E-01 -0.11133691604E-03  0.30266550166E-01  0.35750994182E-01  0.10000000475E-02 0.  1.
</event>
<event>
 4   0  0.4892667E-02  0.9118800E+02  0.7818609E-02  0.1379984E+01
      -11   -1    0    0    0    0  0.00000000000E+00  0.00000000000E+00  0.35740347158E-01  0.35744000000E-01  0.51099999109E-03 0.  1.
       11   -1    0    0    0    0 -0.00000000000E+00 -0.00000000000E+00 -0.35740347158E-01  0.35744000000E-01  0.51099999109E-03 0. -1.
       22    1    1    2    0    0 -0.20808136019E-02 -0.31101837063E-02  0.35540548068E-01  0.35737005818E-01  0.00000000000E+00 0.  1.
  9000001    1    1    2    0    0  0.20808136019E-02  0.31101837063E-02 -0.35540548068E-01  0.35750994182E-01  0.10000000475E-02 0. -1.
</event>
<event>
 4   0  0.4892667E-02  0.9118800E+02  0.7818609E-02  0.1379984E+01
      -11   -1    0    0    0    0  0.00000000000E+00  0.00000000000E+00  0.35740347158E-01  0.35744000000E-01  0.51099999109E-03 0. -1.
       11   -1    0    0    0    0 -0.00000000000E+00 -0.00000000000E+00 -0.35740347158E-01  0.35744000000E-01  0.51099999109E-03 0.  1.
       22    1    1    2    0    0 -0.68401414515E-03  0.35369800686E-02 -0.35554964232E-01  0.35737005818E-01  0.00000000000E+00 0.  1.
  9000001    1    1    2    0    0  0.68401414515E-03 -0.35369800686E-02  0.35554964232E-01  0.35750994182E-01  0.10000000475E-02 0. -1.
</event>
<event>
 4   0  0.4892667E-02  0.9118800E+02  0.7818609E-02  0.1379984E+01
      -11   -1    0    0    0    0  0.00000000000E+00  0.00000000000E+00  0.35740347158E-01  0.35744000000E-01  0.51099999109E-03 0.  1.
       11   -1    0    0    0    0 -0.00000000000E+00 -0.00000000000E+00 -0.35740347158E-01  0.35744000000E-01  0.51099999109E-03 0. -1.
       22    1    1    2    0    0 -0.39055485250E-02  0.29045150241E-02 -0.35404012033E-01  0.35737005818E-01  0.00000000000E+00 0. -1.
  9000001    1    1    2    0    0  0.39055485250E-02 -0.29045150241E-02  0.35404012033E-01  0.35750994182E-01  0.10000000475E-02 0.  1.
</event>
<event>
 4   0  0.4892667E-02  0.9118800E+02  0.7818609E-02  0.1379984E+01
      -11   -1    0    0    0    0  0.00000000000E+00  0.00000000000E+00  0.35740347158E-01  0.35744000000E-01  0.51099999109E-03 0. -1.
       11   -1    0    0    0    0 -0.00000000000E+00 -0.00000000000E+00 -0.35740347158E-01  0.35744000000E-01  0.51099999109E-03 0.  1.
       22    1    1    2    0    0  0.38453417566E-02 -0.60830342674E-02  0.35004908595E-01  0.35737005818E-01  0.00000000000E+00 0. -1.
  9000001    1    1    2    0    0 -0.38453417566E-02  0.60830342674E-02 -0.35004908595E-01  0.35750994182E-01  0.10000000475E-02 0.  1.
</event>
<event>
 4   0  0.4892667E-02  0.9118800E+02  0.7818609E-02  0.1379984E+01
      -11   -1    0    0    0    0  0.00000000000E+00  0.00000000000E+00  0.35740347158E-01  0.35744000000E-01  0.51099999109E-03 0. -1.
       11   -1    0    0    0    0 -0.00000000000E+00 -0.00000000000E+00 -0.35740347158E-01  0.35744000000E-01  0.51099999109E-03 0.  1.
       22    1    1    2    0    0  0.20943981716E-01 -0.93943393221E-03  0.28941331666E-01  0.35737005818E-01  0.00000000000E+00 0. -1.
  9000001    1    1    2    0    0 -0.20943981716E-01  0.93943393221E-03 -0.28941331666E-01  0.35750994182E-01  0.10000000475E-02 0.  1.
</event>
<event>
 4   0  0.4892667E-02  0.9118800E+02  0.7818609E-02  0.1379984E+01
      -11   -1    0    0    0    0  0.00000000000E+00  0.00000000000E+00  0.35740347158E-01  0.35744000000E-01  0.51099999109E-03 0.  1.
       11   -1    0    0    0    0 -0.00000000000E+00 -0.00000000000E+00 -0.35740347158E-01  0.35744000000E-01  0.51099999109E-03 0. -1.
       22    1    1    2    0    0 -0.92475921315E-02 -0.12999937581E-01  0.31978387194E-01  0.35737005818E-01  0.00000000000E+00 0.  1.
  9000001    1    1    2    0    0  0.92475921315E-02  0.12999937581E-01 -0.31978387194E-01  0.35750994182E-01  0.10000000475E-02 0. -1.
</event>
<event>
 4   0  0.4892667E-02  0.9118800E+02  0.7818609E-02  0.1379984E+01
      -11   -1    0    0    0    0  0.00000000000E+00  0.00000000000E+00  0.35740347158E-01  0.35744000000E-01  0.51099999109E-03 0. -1.
       11   -1    0    0    0    0 -0.00000000000E+00 -0.00000000000E+00 -0.35740347158E-01  0.35744000000E-01  0.51099999109E-03 0.  1.
       22    1    1    2    0    0 -0.35544232978E-02 -0.37687871045E-02  0.35359523521E-01  0.35737005818E-01  0.00000000000E+00 0. -1.
  9000001    1    1    2    0    0  0.35544232978E-02  0.37687871045E-02 -0.35359523521E-01  0.35750994182E-01  0.10000000475E-02 0.  1.
</event>
<event>
 4   0  0.4892667E-02  0.9118800E+02  0.7818609E-02  0.1379984E+01
      -11   -1    0    0    0    0  0.00000000000E+00  0.00000000000E+00  0.35740347158E-01  0.35744000000E-01  0.51099999109E-03 0.  1.
       11   -1    0    0    0    0 -0.00000000000E+00 -0.00000000000E+00 -0.35740347158E-01  0.35744000000E-01  0.51099999109E-03 0. -1.
       22    1    1    2    0    0  0.19059413962E-01 -0.13822535098E-03  0.30230005261E-01  0.35737005818E-01  0.00000000000E+00 0.  1.
  9000001    1    1    2    0    0 -0.19059413962E-01  0.13822535098E-03 -0.30230005261E-01  0.35750994182E-01  0.10000000475E-02 0. -1.
</event>
<event>
 4   0  0.4892667E-02  0.9118800E+02  0.7818609E-02  0.1379984E+01
      -11   -1    0    0    0    0  0.00000000000E+00  0.00000000000E+00  0.35740347158E-01  0.35744000000E-01  0.51099999109E-03 0.  1.
       11   -1    0    0    0    0 -0.00000000000E+00 -0.00000000000E+00 -0.35740347158E-01  0.35744000000E-01  0.51099999109E-03 0. -1.
       22    1    1    2    0    0  0.53542149631E-03 -0.41002988669E-02  0.35496964066E-01  0.35737005818E-01  0.00000000000E+00 0.  1.
  9000001    1    1    2    0    0 -0.53542149631E-03  0.41002988669E-02 -0.35496964066E-01  0.35750994182E-01  0.10000000475E-02 0. -1.
</event>
<event>
 4   0  0.4892667E-02  0.9118800E+02  0.7818609E-02  0.1379984E+01
      -11   -1    0    0    0    0  0.00000000000E+00  0.00000000000E+00  0.35740347158E-01  0.35744000000E-01  0.51099999109E-03 0. -1.
       11   -1    0    0    0    0 -0.00000000000E+00 -0.00000000000E+00 -0.35740347158E-01  0.35744000000E-01  0.51099999109E-03 0.  1.
       22    1    1    2    0    0 -0.39202430976E-02 -0.77702945194E-02 -0.34661041560E-01  0.35737005818E-01  0.00000000000E+00 0.  1.
  9000001    1    1    2    0    0  0.39202430976E-02  0.77702945194E-02  0.34661041560E-01  0.35750994182E-01  0.10000000475E-02 0. -1.
</event>
<event>
 4   0  0.4892667E-02  0.9118800E+02  0.7818609E-02  0.1379984E+01
      -11   -1    0    0    0    0  0.00000000000E+00  0.00000000000E+00  0.35740347158E-01  0.35744000000E-01  0.51099999109E-03 0. -1.
       11   -1    0    0    0    0 -0.00000000000E+00 -0.00000000000E+00 -0.35740347158E-01  0.35744000000E-01  0.51099999109E-03 0.  1.
       22    1    1    2    0    0 -0.45373854062E-02  0.13103703720E-01  0.32936889157E-01  0.35737005818E-01  0.00000000000E+00 0. -1.
  9000001    1    1    2    0    0  0.45373854062E-02 -0.13103703720E-01 -0.32936889157E-01  0.35750994182E-01  0.10000000475E-02 0.  1.
</event>
<event>
 4   0  0.4892667E-02  0.9118800E+02  0.7818609E-02  0.1379984E+01
      -11   -1    0    0    0    0  0.00000000000E+00  0.00000000000E+00  0.35740347158E-01  0.35744000000E-01  0.51099999109E-03 0. -1.
       11   -1    0    0    0    0 -0.00000000000E+00 -0.00000000000E+00 -0.35740347158E-01  0.35744000000E-01  0.51099999109E-03 0.  1.
       22    1    1    2    0    0  0.82379647022E-02 -0.59243671290E-03  0.34769505909E-01  0.35737005818E-01  0.00000000000E+00 0. -1.
  9000001    1    1    2    0    0 -0.82379647022E-02  0.59243671290E-03 -0.34769505909E-01  0.35750994182E-01  0.10000000475E-02 0.  1.
</event>
<event>
 4   0  0.4892667E-02  0.9118800E+02  0.7818609E-02  0.1379984E+01
      -11   -1    0    0    0    0  0.00000000000E+00  0.00000000000E+00  0.35740347158E-01  0.35744000000E-01  0.51099999109E-03 0.  1.
       11   -1    0    0    0    0 -0.00000000000E+00 -0.00000000000E+00 -0.35740347158E-01  0.35744000000E-01  0.51099999109E-03 0. -1.
       22    1    1    2    0    0 -0.28018011820E-02 -0.20981320541E-02 -0.35565170278E-01  0.35737005818E-01  0.00000000000E+00 0. -1.
  9000001    1    1    2    0    0  0.28018011820E-02  0.20981320541E-02  0.35565170278E-01  0.35750994182E-01  0.10000000475E-02 0.  1.
</event>
<event>
 4   0  0.4892667E-02  0.9118800E+02  0.7818609E-02  0.1379984E+01
      -11   -1    0    0    0    0  0.00000000000E+00  0.00000000000E+00  0.35740347158E-01  0.35744000000E-01  0.51099999109E-03 0.  1.
       11   -1    0    0    0    0 -0.00000000000E+00 -0.00000000000E+00 -0.35740347158E-01  0.35744000000E-01  0.51099999109E-03 0. -1.
       22    1    1    2    0    0 -0.30500020309E-01 -0.54936905373E-02 -0.17796115034E-01  0.35737005818E-01  0.00000000000E+00 0. -1.
  9000001    1    1    2    0    0  0.30500020309E-01  0.54936905373E-02  0.17796115034E-01  0.35750994182E-01  0.10000000475E-02 0.  1.
</event>
<event>
 4   0  0.4892667E-02  0.9118800E+02  0.7818609E-02  0.1379984E+01
      -11   -1    0    0    0    0  0.00000000000E+00  0.00000000000E+00  0.35740347158E-01  0.35744000000E-01  0.51099999109E-03 0. -1.
       11   -1    0    0    0    0 -0.00000000000E+00 -0.00000000000E+00 -0.35740347158E-01  0.35744000000E-01  0.51099999109E-03 0.  1.
       22    1    1    2    0    0  0.20654808251E-02  0.33844244700E-02  0.35516377136E-01  0.35737005818E-01  0.00000000000E+00 0. -1.
  9000001    1    1    2    0    0 -0.20654808251E-02 -0.33844244700E-02 -0.35516377136E-01  0.35750994182E-01  0.10000000475E-02 0.  1.
</event>
<event>
 4   0  0.4892667E-02  0.9118800E+02  0.7818609E-02  0.1379984E+01
      -11   -1    0    0    0    0  0.00000000000E+00  0.00000000000E+00  0.35740347158E-01  0.35744000000E-01  0.51099999109E-03 0. -1.
       11   -1    0    0    0    0 -0.00000000000E+00 -0.00000000000E+00 -0.35740347158E-01  0.35744000000E-01  0.51099999109E-03 0.  1.
       22    1    1    2    0    0  0.27845389620E-01 -0.14737914885E-01 -0.16868957484E-01  0.35737005818E-01  0.00000000000E+00 0. -1.
  9000001    1    1    2    0    0 -0.27845389620E-01  0.14737914885E-01  0.16868957484E-01  0.35750994182E-01  0.10000000475E-02 0.  1.
</event>
<event>
 4   0  0.4892667E-02  0.9118800E+02  0.7818609E-02  0.1379984E+01
      -11   -1    0    0    0    0  0.00000000000E+00  0.00000000000E+00  0.35740347158E-01  0.35744000000E-01  0.51099999109E-03 0. -1.
       11   -1    0    0    0    0 -0.00000000000E+00 -0.00000000000E+00 -0.35740347158E-01  0.35744000000E-01  0.51099999109E-03 0.  1.
       22    1    1    2    0    0  0.13138371088E-02  0.31497206609E-02  0.35573679549E-01  0.35737005818E-01  0.00000000000E+00 0. -1.
  9000001    1    1    2    0    0 -0.13138371088E-02 -0.31497206609E-02 -0.35573679549E-01  0.35750994182E-01  0.10000000475E-02 0.  1.
</event>
<event>
 4   0  0.4892667E-02  0.9118800E+02  0.7818609E-02  0.1379984E+01
      -11   -1    0    0    0    0  0.00000000000E+00  0.00000000000E+00  0.35740347158E-01  0.35744000000E-01  0.51099999109E-03 0.  1.
       11   -1    0    0    0    0 -0.00000000000E+00 -0.00000000000E+00 -0.35740347158E-01  0.35744000000E-01  0.51099999109E-03 0. -1.
       22    1    1    2    0    0 -0.26000911043E-04 -0.50875292969E-02  0.35373011668E-01  0.35737005818E-01  0.00000000000E+00 0.  1.
  9000001    1    1    2    0    0  0.26000911043E-04  0.50875292969E-02 -0.35373011668E-01  0.35750994182E-01  0.10000000475E-02 0. -1.
</event>
<event>
 4   0  0.4892667E-02  0.9118800E+02  0.7818609E-02  0.1379984E+01
      -11   -1    0    0    0    0  0.00000000000E+00  0.00000000000E+00  0.35740347158E-01  0.35744000000E-01  0.51099999109E-03 0.  1.
       11   -1    0    0    0    0 -0.00000000000E+00 -0.00000000000E+00 -0.35740347158E-01  0.35744000000E-01  0.51099999109E-03 0. -1.
       22    1    1    2    0    0 -0.49081049422E-02  0.15011615082E-02 -0.35366518133E-01  0.35737005818E-01  0.00000000000E+00 0. -1.
  9000001    1    1    2    0    0  0.49081049422E-02 -0.15011615082E-02  0.35366518133E-01  0.35750994182E-01  0.10000000475E-02 0.  1.
</event>
<event>
 4   0  0.4892667E-02  0.9118800E+02  0.7818609E-02  0.1379984E+01
      -11   -1    0    0    0    0  0.00000000000E+00  0.00000000000E+00  0.35740347158E-01  0.35744000000E-01  0.51099999109E-03 0. -1.
       11   -1    0    0    0    0 -0.00000000000E+00 -0.00000000000E+00 -0.35740347158E-01  0.35744000000E-01  0.51099999109E-03 0.  1.
       22    1    1    2    0    0  0.21986829775E-01  0.15075577943E-01  0.23799996870E-01  0.35737005818E-01  0.00000000000E+00 0. -1.
  9000001    1    1    2    0    0 -0.21986829775E-01 -0.15075577943E-01 -0.23799996870E-01  0.35750994182E-01  0.10000000475E-02 0.  1.
</event>
<event>
 4   0  0.4892667E-02  0.9118800E+02  0.7818609E-02  0.1379984E+01
      -11   -1    0    0    0    0  0.00000000000E+00  0.00000000000E+00  0.35740347158E-01  0.35744000000E-01  0.51099999109E-03 0.  1.
       11   -1    0    0    0    0 -0.00000000000E+00 -0.00000000000E+00 -0.35740347158E-01  0.35744000000E-01  0.51099999109E-03 0. -1.
       22    1    1    2    0    0 -0.43224543536E-02 -0.15530384334E-02  0.35440627038E-01  0.35737005818E-01  0.00000000000E+00 0.  1.
  9000001    1    1    2    0    0  0.43224543536E-02  0.15530384334E-02 -0.35440627038E-01  0.35750994182E-01  0.10000000475E-02 0. -1.
</event>
<event>
 4   0  0.4892667E-02  0.9118800E+02  0.7818609E-02  0.1379984E+01
      -11   -1    0    0    0    0  0.00000000000E+00  0.00000000000E+00  0.35740347158E-01  0.35744000000E-01  0.51099999109E-03 0. -1.
       11   -1    0    0    0    0 -0.00000000000E+00 -0.00000000000E+00 -0.35740347158E-01  0.35744000000E-01  0.51099999109E-03 0.  1.
       22    1    1    2    0    0  0.23543216215E-01 -0.25404766580E-02  0.26765584871E-01  0.35737005818E-01  0.00000000000E+00 0. -1.
  9000001    1    1    2    0    0 -0.23543216215E-01  0.25404766580E-02 -0.26765584871E-01  0.35750994182E-01  0.10000000475E-02 0.  1.
</event>
