<event>
 4   0  0.4809415E-02  0.9118800E+02  0.7818609E-02  0.1379984E+01
      -11   -1    0    0    0    0  0.00000000000E+00  0.00000000000E+00  0.35740347158E-01  0.35744000000E-01  0.51099999109E-03 0.  1.
       11   -1    0    0    0    0 -0.00000000000E+00 -0.00000000000E+00 -0.35740347158E-01  0.35744000000E-01  0.51099999109E-03 0. -1.
       22    1    1    2    0    0 -0.73514583978E-02  0.47475891433E-02  0.34648954409E-01  0.35737005818E-01  0.00000000000E+00 0.  1.
  9000001    1    1    2    0    0  0.73514583978E-02 -0.47475891433E-02 -0.34648954409E-01  0.35750994182E-01  0.10000000475E-02 0. -1.
</event>
<event>
 4   0  0.4809415E-02  0.9118800E+02  0.7818609E-02  0.1379984E+01
      -11   -1    0    0    0    0  0.00000000000E+00  0.00000000000E+00  0.35740347158E-01  0.35744000000E-01  0.51099999109E-03 0. -1.
       11   -1    0    0    0    0 -0.00000000000E+00 -0.00000000000E+00 -0.35740347158E-01  0.35744000000E-01  0.51099999109E-03 0.  1.
       22    1    1    2    0    0 -0.92724101103E-02  0.25125065040E-01  0.23661933614E-01  0.35737005818E-01  0.00000000000E+00 0. -1.
  9000001    1    1    2    0    0  0.92724101103E-02 -0.25125065040E-01 -0.23661933614E-01  0.35750994182E-01  0.10000000475E-02 0.  1.
</event>
<event>
 4   0  0.4809415E-02  0.9118800E+02  0.7818609E-02  0.1379984E+01
      -11   -1    0    0    0    0  0.00000000000E+00  0.00000000000E+00  0.35740347158E-01  0.35744000000E-01  0.51099999109E-03 0.  1.
       11   -1    0    0    0    0 -0.00000000000E+00 -0.00000000000E+00 -0.35740347158E-01  0.35744000000E-01  0.51099999109E-03 0. -1.
       22    1    1    2    0    0 -0.18924371998E-01 -0.20723396556E-01  0.22125608795E-01  0.35737005818E-01  0.00000000000E+00 0.  1.
  9000001    1    1    2    0    0  0.18924371998E-01  0.20723396556E-01 -0.22125608795E-01  0.35750994182E-01  0.10000000475E-02 0. -1.
</event>
<event>
 4   0  0.4809415E-02  0.9118800E+02  0.7818609E-02  0.1379984E+01
      -11   -1    0    0    0    0  0.00000000000E+00  0.00000000000E+00  0.35740347158E-01  0.35744000000E-01  0.51099999109E-03 0.  1.
       11   -1    0    0    0    0 -0.00000000000E+00 -0.00000000000E+00 -0.35740347158E-01  0.35744000000E-01  0.51099999109E-03 0. -1.
       22    1    1    2    0    0 -0.75826266437E-02 -0.14029323741E-02 -0.34895116260E-01  0.35737005818E-01  0.00000000000E+00 0. -1.
  9000001    1    1    2    0    0  0.75826266437E-02  0.14029323741E-02  0.34895116260E-01  0.35750994182E-01  0.10000000475E-02 0.  1.
</event>
<event>
 4   0  0.4809415E-02  0.9118800E+02  0.7818609E-02  0.1379984E+01
      -11   -1    0    0    0    0  0.00000000000E+00  0.00000000000E+00  0.35740347158E-01  0.35744000000E-01  0.51099999109E-03 0.  1.
       11   -1    0    0    0    0 -0.00000000000E+00 -0.00000000000E+00 -0.35740347158E-01  0.35744000000E-01  0.51099999109E-03 0. -1.
       22    1    1    2    0    0 -0.28207288682E-02  0.59176751311E-02  0.35130587734E-01  0.35737005818E-01  0.00000000000E+00 0.  1.
  9000001    1    1    2    0    0  0.28207288682E-02 -0.59176751311E-02 -0.35130587734E-01  0.35750994182E-01  0.10000000475E-02 0. -1.
</event>
<event>
 4   0  0.4809415E-02  0.9118800E+02  0.7818609E-02  0.1379984E+01
      -11   -1    0    0    0    0  0.00000000000E+00  0.00000000000E+00  0.35740347158E-01  0.35744000000E-01  0.51099999109E-03 0. -1.
       11   -1    0    0    0    0 -0.00000000000E+00 -0.00000000000E+00 -0.35740347158E-01  0.35744000000E-01  0.51099999109E-03 0.  1.
       22    1    1    2    0    0  0.74140806196E-03  0.16630163882E-01  0.31623117307E-01  0.35737005818E-01  0.00000000000E+00 0. -1.
  9000001    1    1    2    0    0 -0.74140806196E-03 -0.16630163882E-01 -0.31623117307E-01  0.35750994182E-01  0.10000000475E-02 0.  1.
</event>
<event>
 4   0  0.4809415E-02  0.9118800E+02  0.7818609E-02  0.1379984E+01
      -11   -1    0    0    0    0  0.00000000000E+00  0.00000000000E+00  0.35740347158E-01  0.35744000000E-01  0.51099999109E-03 0.  1.
       11   -1    0    0    0    0 -0.00000000000E+00 -0.00000000000E+00 -0.35740347158E-01  0.35744000000E-01  0.51099999109E-03 0. -1.
       22    1    1    2    0    0 -0.10920357299E-01  0.74156720648E-02  0.33209745394E-01  0.35737005818E-01  0.00000000000E+00 0.  1.
  9000001    1    1    2    0    0  0.10920357299E-01 -0.74156720648E-02 -0.33209745394E-01  0.35750994182E-01  0.10000000475E-02 0. -1.
</event>
<event>
 4   0  0.4809415E-02  0.9118800E+02  0.7818609E-02  0.1379984E+01
      -11   -1    0    0    0    0  0.00000000000E+00  0.00000000000E+00  0.35740347158E-01  0.35744000000E-01  0.51099999109E-03 0. -1.
       11   -1    0    0    0    0 -0.00000000000E+00 -0.00000000000E+00 -0.35740347158E-01  0.35744000000E-01  0.51099999109E-03 0.  1.
       22    1    1    2    0    0 -0.25883101133E-02 -0.15557084229E-02  0.35609184306E-01  0.35737005818E-01  0.00000000000E+00 0. -1.
  9000001    1    1    2    0    0  0.25883101133E-02  0.15557084229E-02 -0.35609184306E-01  0.35750994182E-01  0.10000000475E-02 0.  1.
</event>
<event>
 4   0  0.4809415E-02  0.9118800E+02  0.7818609E-02  0.1379984E+01
      -11   -1    0    0    0    0  0.00000000000E+00  0.00000000000E+00  0.35740347158E-01  0.35744000000E-01  0.51099999109E-03 0. -1.
       11   -1    0    0    0    0 -0.00000000000E+00 -0.00000000000E+00 -0.35740347158E-01  0.35744000000E-01  0.51099999109E-03 0.  1.
       22    1    1    2    0    0  0.37933195581E-02 -0.39734188802E-02  0.35312267755E-01  0.35737005818E-01  0.00000000000E+00 0. -1.
  9000001    1    1    2    0    0 -0.37933195581E-02  0.39734188802E-02 -0.35312267755E-01  0.35750994182E-01  0.10000000475E-02 0.  1.
</event>
<event>
 4   0  0.4809415E-02  0.9118800E+02  0.7818609E-02  0.1379984E+01
      -11   -1    0    0    0    0  0.00000000000E+00  0.00000000000E+00  0.35740347158E-01  0.35744000000E-01  0.51099999109E-03 0.  1.
       11   -1    0    0    0    0 -0.00000000000E+00 -0.00000000000E+00 -0.35740347158E-01  0.35744000000E-01  0.51099999109E-03 0. -1.
       22    1    1    2    0    0 -0.18381137030E-02  0.96137247122E-02 -0.34370499270E-01  0.35737005818E-01  0.00000000000E+00 0. -1.
  9000001    1    1    2    0    0  0.18381137030E-02 -0.96137247122E-02  0.34370499270E-01  0.35750994182E-01  0.10000000475E-02 0.  1.
</event>
<event>
 4   0  0.4809415E-02  0.9118800E+02  0.7818609E-02  0.1379984E+01
      -11   -1    0    0    0    0  0.00000000000E+00  0.00000000000E+00  0.35740347158E-01  0.35744000000E-01  0.51099999109E-03 0.  1.
       11   -1    0    0    0    0 -0.00000000000E+00 -0.00000000000E+00 -0.35740347158E-01  0.35744000000E-01  0.51099999109E-03 0. -1.
       22    1    1    2    0    0  0.50652663119E-02  0.78048938914E-02 -0.34504496713E-01  0.35737005818E-01  0.00000000000E+00 0. -1.
  9000001    1    1    2    0    0 -0.50652663119E-02 -0.78048938914E-02  0.34504496713E-01  0.35750994182E-01  0.10000000475E-02 0.  1.
</event>
<event>
 4   0  0.4809415E-02  0.9118800E+02  0.7818609E-02  0.1379984E+01
      -11   -1    0    0    0    0  0.00000000000E+00  0.00000000000E+00  0.35740347158E-01  0.35744000000E-01  0.51099999109E-03 0.  1.
       11   -1    0    0    0    0 -0.00000000000E+00 -0.00000000000E+00 -0.35740347158E-01  0.35744000000E-01  0.51099999109E-03 0. -1.
       22    1    1    2    0    0  0.32103564692E-01  0.11984747358E-01  0.10142019013E-01  0.35737005818E-01  0.00000000000E+00 0.  1.
  9000001    1    1    2    0    0 -0.32103564692E-01 -0.11984747358E-01 -0.10142019013E-01  0.35750994182E-01  0.10000000475E-02 0. -1.
</event>
<event>
 4   0  0.4809415E-02  0.9118800E+02  0.7818609E-02  0.1379984E+01
      -11   -1    0    0    0    0  0.00000000000E+00  0.00000000000E+00  0.35740347158E-01  0.35744000000E-01  0.51099999109E-03 0.  1.
       11   -1    0    0    0    0 -0.00000000000E+00 -0.00000000000E+00 -0.35740347158E-01  0.35744000000E-01  0.51099999109E-03 0. -1.
       22    1    1    2    0    0 -0.32949265125E-02 -0.87641973064E-02  0.34488634211E-01  0.35737005818E-01  0.00000000000E+00 0.  1.
  9000001    1    1    2    0    0  0.32949265125E-02  0.87641973064E-02 -0.34488634211E-01  0.35750994182E-01  0.10000000475E-02 0. -1.
</event>
<event>
 4   0  0.4809415E-02  0.9118800E+02  0.7818609E-02  0.1379984E+01
      -11   -1    0    0    0    0  0.00000000000E+00  0.00000000000E+00  0.35740347158E-01  0.35744000000E-01  0.51099999109E-03 0.  1.
       11   -1    0    0    0    0 -0.00000000000E+00 -0.00000000000E+00 -0.35740347158E-01  0.35744000000E-01  0.51099999109E-03 0. -1.
       22    1    1    2    0    0  0.33775344805E-01 -0.21763822575E-02  0.11472707983E-01  0.35737005818E-01  0.00000000000E+00 0. -1.
  9000001    1    1    2    0    0 -0.33775344805E-01  0.21763822575E-02 -0.11472707983E-01  0.35750994182E-01  0.10000000475E-02 0.  1.
</event>
<event>
 4   0  0.4809415E-02  0.9118800E+02  0.7818609E-02  0.1379984E+01
      -11   -1    0    0    0    0  0.00000000000E+00  0.00000000000E+00  0.35740347158E-01  0.35744000000E-01  0.51099999109E-03 0.  1.
       11   -1    0    0    0    0 -0.00000000000E+00 -0.00000000000E+00 -0.35740347158E-01  0.35744000000E-01  0.51099999109E-03 0. -1.
       22    1    1    2    0    0  0.27685777394E-02 -0.17119359024E-02 -0.35588450902E-01  0.35737005818E-01  0.00000000000E+00 0. -1.
  9000001    1    1    2    0    0 -0.27685777394E-02  0.17119359024E-02  0.35588450902E-01  0.35750994182E-01  0.10000000475E-02 0.  1.
</event>
<event>
 4   0  0.4809415E-02  0.9118800E+02  0.7818609E-02  0.1379984E+01
      -11   -1    0    0    0    0  0.00000000000E+00  0.00000000000E+00  0.35740347158E-01  0.35744000000E-01  0.51099999109E-03 0. -1.
       11   -1    0    0    0    0 -0.00000000000E+00 -0.00000000000E+00 -0.35740347158E-01  0.35744000000E-01  0.51099999109E-03 0.  1.
       22    1    1    2    0    0 -0.34659191584E-02  0.32793329832E-02 -0.35417043418E-01  0.35737005818E-01  0.00000000000E+00 0.  1.
  9000001    1    1    2    0    0  0.34659191584E-02 -0.32793329832E-02  0.35417043418E-01  0.35750994182E-01  0.10000000475E-02 0. -1.
</event>
<event>
 4   0  0.4809415E-02  0.9118800E+02  0.7818609E-02  0.1379984E+01
      -11   -1    0    0    0    0  0.00000000000E+00  0.00000000000E+00  0.35740347158E-01  0.35744000000E-01  0.51099999109E-03 0.  1.
       11   -1    0    0    0    0 -0.00000000000E+00 -0.00000000000E+00 -0.35740347158E-01  0.35744000000E-01  0.51099999109E-03 0. -1.
       22    1    1    2    0    0 -0.87165236761E-02  0.90439748320E-03 -0.34645892470E-01  0.35737005818E-01  0.00000000000E+00 0. -1.
  9000001    1    1    2    0    0  0.87165236761E-02 -0.90439748320E-03  0.34645892470E-01  0.35750994182E-01  0.10000000475E-02 0.  1.
</event>
<event>
 4   0  0.4809415E-02  0.9118800E+02  0.7818609E-02  0.1379984E+01
      -11   -1    0    0    0    0  0.00000000000E+00  0.00000000000E+00  0.35740347158E-01  0.35744000000E-01  0.51099999109E-03 0.  1.
       11   -1    0    0    0    0 -0.00000000000E+00 -0.00000000000E+00 -0.35740347158E-01  0.35744000000E-01  0.51099999109E-03 0. -1.
       22    1    1    2    0    0  0.12896628352E-03 -0.35702273147E-01 -0.15699186874E-02  0.35737005818E-01  0.00000000000E+00 0. -1.
  9000001    1    1    2    0    0 -0.12896628352E-03  0.35702273147E-01  0.15699186874E-02  0.35750994182E-01  0.10000000475E-02 0.  1.
</event>
<event>
 4   0  0.4809415E-02  0.9118800E+02  0.7818609E-02  0.1379984E+01
      -11   -1    0    0    0    0  0.00000000000E+00  0.00000000000E+00  0.35740347158E-01  0.35744000000E-01  0.51099999109E-03 0. -1.
       11   -1    0    0    0    0 -0.00000000000E+00 -0.00000000000E+00 -0.35740347158E-01  0.35744000000E-01  0.51099999109E-03 0.  1.
       22    1    1    2    0    0  0.51287530286E-03 -0.41326375827E-02 -0.35493546602E-01  0.35737005818E-01  0.00000000000E+00 0.  1.
  9000001    1    1    2    0    0 -0.51287530286E-03  0.41326375827E-02  0.35493546602E-01  0.35750994182E-01  0.10000000475E-02 0. -1.
</event>
<event>
 4   0  0.4809415E-02  0.9118800E+02  0.7818609E-02  0.1379984E+01
      -11   -1    0    0    0    0  0.00000000000E+00  0.00000000000E+00  0.35740347158E-01  0.35744000000E-01  0.51099999109E-03 0. -1.
       11   -1    0    0    0    0 -0.00000000000E+00 -0.00000000000E+00 -0.35740347158E-01  0.35744000000E-01  0.51099999109E-03 0.  1.
       22    1    1    2    0    0 -0.11999003665E-02 -0.13016767471E-01 -0.33260450818E-01  0.35737005818E-01  0.00000000000E+00 0.  1.
  9000001    1    1    2    0    0  0.11999003665E-02  0.13016767471E-01  0.33260450818E-01  0.35750994182E-01  0.10000000475E-02 0. -1.
</event>
<event>
 4   0  0.4809415E-02  0.9118800E+02  0.7818609E-02  0.1379984E+01
      -11   -1    0    0    0    0  0.00000000000E+00  0.00000000000E+00  0.35740347158E-01  0.35744000000E-01  0.51099999109E-03 0.  1.
       11   -1    0    0    0    0 -0.00000000000E+00 -0.00000000000E+00 -0.35740347158E-01  0.35744000000E-01  0.51099999109E-03 0. -1.
       22    1    1    2    0    0 -0.24665073626E-01 -0.14309533876E-01  0.21540774548E-01  0.35737005818E-01  0.00000000000E+00 0.  1.
  9000001    1    1    2    0    0  0.24665073626E-01  0.14309533876E-01 -0.21540774548E-01  0.35750994182E-01  0.10000000475E-02 0. -1.
</event>
<event>
 4   0  0.4809415E-02  0.9118800E+02  0.7818609E-02  0.1379984E+01
      -11   -1    0    0    0    0  0.00000000000E+00  0.00000000000E+00  0.35740347158E-01  0.35744000000E-01  0.51099999109E-03 0.  1.
       11   -1    0    0    0    0 -0.00000000000E+00 -0.00000000000E+00 -0.35740347158E-01  0.35744000000E-01  0.51099999109E-03 0. -1.
       22    1    1    2    0    0 -0.22406286798E-01 -0.23665334715E-01 -0.14664372800E-01  0.35737005818E-01  0.00000000000E+00 0. -1.
  9000001    1    1    2    0    0  0.22406286798E-01  0.23665334715E-01  0.14664372800E-01  0.35750994182E-01  0.10000000475E-02 0.  1.
</event>
<event>
 4   0  0.4809415E-02  0.9118800E+02  0.7818609E-02  0.1379984E+01
      -11   -1    0    0    0    0  0.00000000000E+00  0.00000000000E+00  0.35740347158E-01  0.35744000000E-01  0.51099999109E-03 0.  1.
       11   -1    0    0    0    0 -0.00000000000E+00 -0.00000000000E+00 -0.35740347158E-01  0.35744000000E-01  0.51099999109E-03 0. -1.
       22    1    1    2    0    0 -0.25974003197E-01 -0.12564862767E-01  0.21085752689E-01  0.35737005818E-01  0.00000000000E+00 0.  1.
  9000001    1    1    2    0    0  0.25974003197E-01  0.12564862767E-01 -0.21085752689E-01  0.35750994182E-01  0.10000000475E-02 0. -1.
</event>
<event>
 4   0  0.4809415E-02  0.9118800E+02  0.7818609E-02  0.1379984E+01
      -11   -1    0    0    0    0  0.00000000000E+00  0.00000000000E+00  0.35740347158E-01  0.35744000000E-01  0.51099999109E-03 0. -1.
       11   -1    0    0    0    0 -0.00000000000E+00 -0.00000000000E+00 -0.35740347158E-01  0.35744000000E-01  0.51099999109E-03 0.  1.
       22    1    1    2    0    0  0.15933741900E-01 -0.11200272894E-01  0.29963366650E-01  0.35737005818E-01  0.00000000000E+00 0. -1.
  9000001    1    1    2    0    0 -0.15933741900E-01  0.11200272894E-01 -0.29963366650E-01  0.35750994182E-01  0.10000000475E-02 0.  1.
</event>
<event>
 4   0  0.4809415E-02  0.9118800E+02  0.7818609E-02  0.1379984E+01
      -11   -1    0    0    0    0  0.00000000000E+00  0.00000000000E+00  0.35740347158E-01  0.35744000000E-01  0.51099999109E-03 0. -1.
       11   -1    0    0    0    0 -0.00000000000E+00 -0.00000000000E+00 -0.35740347158E-01  0.35744000000E-01  0.51099999109E-03 0.  1.
       22    1    1    2    0    0 -0.74250851749E-02 -0.31205710641E-02 -0.34817577906E-01  0.35737005818E-01  0.00000000000E+00 0.  1.
  9000001    1    1    2    0    0  0.74250851749E-02  0.31205710641E-02  0.34817577906E-01  0.35750994182E-01  0.10000000475E-02 0. -1.
</event>
<event>
 4   0  0.4809415E-02  0.9118800E+02  0.7818609E-02  0.1379984E+01
      -11   -1    0    0    0    0  0.00000000000E+00  0.00000000000E+00  0.35740347158E-01  0.35744000000E-01  0.51099999109E-03 0. -1.
       11   -1    0    0    0    0 -0.00000000000E+00 -0.00000000000E+00 -0.35740347158E-01  0.35744000000E-01  0.51099999109E-03 0.  1.
       22    1    1    2    0    0 -0.12445186759E-01  0.65305459608E-02 -0.32857310919E-01  0.35737005818E-01  0.00000000000E+00 0.  1.
  9000001    1    1    2    0    0  0.12445186759E-01 -0.65305459608E-02  0.32857310919E-01  0.35750994182E-01  0.10000000475E-02 0. -1.
</event>
<event>
 4   0  0.4809415E-02  0.9118800E+02  0.7818609E-02  0.1379984E+01
      -11   -1    0    0    0    0  0.00000000000E+00  0.00000000000E+00  0.35740347158E-01  0.35744000000E-01  0.51099999109E-03 0.  1.
       11   -1    0    0    0    0 -0.00000000000E+00 -0.00000000000E+00 -0.35740347158E-01  0.35744000000E-01  0.51099999109E-03 0. -1.
       22    1    1    2    0    0 -0.34661861459E-02  0.25481890317E-02 -0.35477117571E-01  0.35737005818E-01  0.00000000000E+00 0. -1.
  9000001    1    1    2    0    0  0.34661861459E-02 -0.25481890317E-02  0.35477117571E-01  0.35750994182E-01  0.10000000475E-02 0.  1.
</event>
<event>
 4   0  0.4809415E-02  0.9118800E+02  0.7818609E-02  0.1379984E+01
      -11   -1    0    0    0    0  0.00000000000E+00  0.00000000000E+00  0.35740347158E-01  0.35744000000E-01  0.51099999109E-03 0. -1.
       11   -1    0    0    0    0 -0.00000000000E+00 -0.00000000000E+00 -0.35740347158E-01  0.35744000000E-01  0.51099999109E-03 0.  1.
       22    1    1    2    0    0  0.10715968675E-01 -0.33540564062E-01 -0.61100051254E-02  0.35737005818E-01  0.00000000000E+00 0. -1.
  9000001    1    1    2    0    0 -0.10715968675E-01  0.33540564062E-01  0.61100051254E-02  0.35750994182E-01  0.10000000475E-02 0.  1.
</event>
<event>
 4   0  0.4809415E-02  0.9118800E+02  0.7818609E-02  0.1379984E+01
      -11   -1    0    0    0    0  0.00000000000E+00  0.00000000000E+00  0.35740347158E-01  0.35744000000E-01  0.51099999109E-03 0. -1.
       11   -1    0    0    0    0 -0.00000000000E+00 -0.00000000000E+00 -0.35740347158E-01  0.35744000000E-01  0.51099999109E-03 0.  1.
       22    1    1    2    0    0 -0.35088985439E-02 -0.73732691747E-02  0.34791609873E-01  0.35737005818E-01  0.00000000000E+00 0. -1.
  9000001    1    1    2    0    0  0.35088985439E-02  0.73732691747E-02 -0.34791609873E-01  0.35750994182E-01  0.10000000475E-02 0.  1.
</event>
<event>
 4   0  0.4809415E-02  0.9118800E+02  0.7818609E-02  0.1379984E+01
      -11   -1    0    0    0    0  0.00000000000E+00  0.00000000000E+00  0.35740347158E-01  0.35744000000E-01  0.51099999109E-03 0. -1.
       11   -1    0    0    0    0 -0.00000000000E+00 -0.00000000000E+00 -0.35740347158E-01  0.35744000000E-01  0.51099999109E-03 0.  1.
       22    1    1    2    0    0 -0.51542869662E-02  0.18529360600E-01  0.30120254091E-01  0.35737005818E-01  0.00000000000E+00 0. -1.
  9000001    1    1    2    0    0  0.51542869662E-02 -0.18529360600E-01 -0.30120254091E-01  0.35750994182E-01  0.10000000475E-02 0.  1.
</event>
<event>
 4   0  0.4809415E-02  0.9118800E+02  0.7818609E-02  0.1379984E+01
      -11   -1    0    0    0    0  0.00000000000E+00  0.00000000000E+00  0.35740347158E-01  0.35744000000E-01  0.51099999109E-03 0.  1.
       11   -1    0    0    0    0 -0.00000000000E+00 -0.00000000000E+00 -0.35740347158E-01  0.35744000000E-01  0.51099999109E-03 0. -1.
       22    1    1    2    0    0 -0.20813177605E-02 -0.52050774520E-02 -0.35294601145E-01  0.35737005818E-01  0.00000000000E+00 0. -1.
  9000001    1    1    2    0    0  0.20813177605E-02  0.52050774520E-02  0.35294601145E-01  0.35750994182E-01  0.10000000475E-02 0.  1.
</event>
<event>
 4   0  0.4809415E-02  0.9118800E+02  0.7818609E-02  0.1379984E+01
      -11   -1    0    0    0    0  0.00000000000E+00  0.00000000000E+00  0.35740347158E-01  0.35744000000E-01  0.51099999109E-03 0. -1.
       11   -1    0    0    0    0 -0.00000000000E+00 -0.00000000000E+00 -0.35740347158E-01  0.35744000000E-01  0.51099999109E-03 0.  1.
       22    1    1    2    0    0 -0.34798702589E-01  0.61411570688E-02  0.53357354528E-02  0.35737005818E-01  0.00000000000E+00 0. -1.
  9000001    1    1    2    0    0  0.34798702589E-01 -0.61411570688E-02 -0.53357354528E-02  0.35750994182E-01  0.10000000475E-02 0.  1.
</event>
<event>
 4   0  0.4809415E-02  0.9118800E+02  0.7818609E-02  0.1379984E+01
      -11   -1    0    0    0    0  0.00000000000E+00  0.00000000000E+00  0.35740347158E-01  0.35744000000E-01  0.51099999109E-03 0.  1.
       11   -1    0    0    0    0 -0.00000000000E+00 -0.00000000000E+00 -0.35740347158E-01  0.35744000000E-01  0.51099999109E-03 0. -1.
       22    1    1    2    0    0  0.25879891149E-01  0.12991214276E-01  0.20942616136E-01  0.35737005818E-01  0.00000000000E+00 0.  1.
  9000001    1    1    2    0    0 -0.25879891149E-01 -0.12991214276E-01 -0.20942616136E-01  0.35750994182E-01  0.10000000475E-02 0. -1.
</event>
<event>
 4   0  0.4809415E-02  0.9118800E+02  0.7818609E-02  0.1379984E+01
      -11   -1    0    0    0    0  0.00000000000E+00  0.00000000000E+00  0.35740347158E-01  0.35744000000E-01  0.51099999109E-03 0. -1.
       11   -1    0    0    0    0 -0.00000000000E+00 -0.00000000000E+00 -0.35740347158E-01  0.35744000000E-01  0.51099999109E-03 0.  1.
       22    1    1    2    0    0  0.11633674243E-03 -0.54668894188E-02 -0.35316188508E-01  0.35737005818E-01  0.00000000000E+00 0.  1.
  9000001    1    1    2    0    0 -0.11633674243E-03  0.54668894188E-02  0.35316188508E-01  0.35750994182E-01  0.10000000475E-02 0. -1.
</event>
<event>
 4   0  0.4809415E-02  0.9118800E+02  0.7818609E-02  0.1379984E+01
      -11   -1    0    0    0    0  0.00000000000E+00  0.00000000000E+00  0.35740347158E-01  0.35744000000E-01  0.51099999109E-03 0. -1.
       11   -1    0    0    0    0 -0.00000000000E+00 -0.00000000000E+00 -0.35740347158E-01  0.35744000000E-01  0.51099999109E-03 0.  1.
       22    1    1    2    0    0  0.28527968183E-02 -0.13486877684E-02  0.35597418115E-01  0.35737005818E-01  0.00000000000E+00 0. -1.
  9000001    1    1    2    0    0 -0.28527968183E-02  0.13486877684E-02 -0.35597418115E-01  0.35750994182E-01  0.10000000475E-02 0.  1.
</event>
<event>
 4   0  0.4809415E-02  0.9118800E+02  0.7818609E-02  0.1379984E+01
      -11   -1    0    0    0    0  0.00000000000E+00  0.00000000000E+00  0.35740347158E-01  0.35744000000E-01  0.51099999109E-03 0. -1.
       11   -1    0    0    0    0 -0.00000000000E+00 -0.00000000000E+00 -0.35740347158E-01  0.35744000000E-01  0.51099999109E-03 0.  1.
       22    1    1    2    0    0  0.28489991822E-01  0.31968700488E-02  0.21336212708E-01  0.35737005818E-01  0.00000000000E+00 0. -1.
  9000001    1    1    2    0    0 -0.28489991822E-01 -0.31968700488E-02 -0.21336212708E-01  0.35750994182E-01  0.10000000475E-02 0.  1.
</event>
<event>
 4   0  0.4809415E-02  0.9118800E+02  0.7818609E-02  0.1379984E+01
      -11   -1    0    0    0    0  0.00000000000E+00  0.00000000000E+00  0.35740347158E-01  0.35744000000E-01  0.51099999109E-03 0. -1.
       11   -1    0    0    0    0 -0.00000000000E+00 -0.00000000000E+00 -0.35740347158E-01  0.35744000000E-01  0.51099999109E-03 0.  1.
       22    1    1    2    0    0  0.15769624834E-03  0.14175373041E-01 -0.32804992241E-01  0.35737005818E-01  0.00000000000E+00 0.  1.
  9000001    1    1    2    0    0 -0.15769624834E-03 -0.14175373041E-01  0.32804992241E-01  0.35750994182E-01  0.10000000475E-02 0. -1.
</event>
<event>
 4   0  0.4809415E-02  0.9118800E+02  0.7818609E-02  0.1379984E+01
      -11   -1    0    0    0    0  0.00000000000E+00  0.00000000000E+00  0.35740347158E-01  0.35744000000E-01  0.51099999109E-03 0.  1.
       11   -1    0    0    0    0 -0.00000000000E+00 -0.00000000000E+00 -0.35740347158E-01  0.35744000000E-01  0.51099999109E-03 0. -1.
       22    1    1    2    0    0 -0.12774856400E-01 -0.98909047737E-02  0.31876427522E-01  0.35737005818E-01  0.00000000000E+00 0.  1.
  9000001    1    1    2    0    0  0.12774856400E-01  0.98909047737E-02 -0.31876427522E-01  0.35750994182E-01  0.10000000475E-02 0. -1.
</event>
<event>
 4   0  0.4809415E-02  0.9118800E+02  0.7818609E-02  0.1379984E+01
      -11   -1    0    0    0    0  0.00000000000E+00  0.00000000000E+00  0.35740347158E-01  0.35744000000E-01  0.51099999109E-03 0. -1.
       11   -1    0    0    0    0 -0.00000000000E+00 -0.00000000000E+00 -0.35740347158E-01  0.35744000000E-01  0.51099999109E-03 0.  1.
       22    1    1    2    0    0  0.26237644127E-01  0.56804347083E-02 -0.23589240706E-01  0.35737005818E-01  0.00000000000E+00 0.  1.
  9000001    1    1    2    0    0 -0.26237644127E-01 -0.56804347083E-02  0.23589240706E-01  0.35750994182E-01  0.10000000475E-02 0. -1.
</event>
<event>
 4   0  0.4809415E-02  0.9118800E+02  0.7818609E-02  0.1379984E+01
      -11   -1    0    0    0    0  0.00000000000E+00  0.00000000000E+00  0.35740347158E-01  0.35744000000E-01  0.51099999109E-03 0. -1.
       11   -1    0    0    0    0 -0.00000000000E+00 -0.00000000000E+00 -0.35740347158E-01  0.35744000000E-01  0.51099999109E-03 0.  1.
       22    1    1    2    0    0  0.22605934305E-01  0.13496886349E-01 -0.24164837635E-01  0.35737005818E-01  0.00000000000E+00 0.  1.
  9000001    1    1    2    0    0 -0.22605934305E-01 -0.13496886349E-01  0.24164837635E-01  0.35750994182E-01  0.10000000475E-02 0. -1.
</event>
<event>
 4   0  0.4809415E-02  0.9118800E+02  0.7818609E-02  0.1379984E+01
      -11   -1    0    0    0    0  0.00000000000E+00  0.00000000000E+00  0.35740347158E-01  0.35744000000E-01  0.51099999109E-03 0. -1.
       11   -1    0    0    0    0 -0.00000000000E+00 -0.00000000000E+00 -0.35740347158E-01  0.35744000000E-01  0.51099999109E-03 0.  1.
       22    1    1    2    0    0 -0.26304937110E-01  0.24114183571E-01 -0.19209422746E-02  0.35737005818E-01  0.00000000000E+00 0. -1.
  9000001    1    1    2    0    0  0.26304937110E-01 -0.24114183571E-01  0.19209422746E-02  0.35750994182E-01  0.10000000475E-02 0.  1.
</event>
<event>
 4   0  0.4809415E-02  0.9118800E+02  0.7818609E-02  0.1379984E+01
      -11   -1    0    0    0    0  0.00000000000E+00  0.00000000000E+00  0.35740347158E-01  0.35744000000E-01  0.51099999109E-03 0.  1.
       11   -1    0    0    0    0 -0.00000000000E+00 -0.00000000000E+00 -0.35740347158E-01  0.35744000000E-01  0.51099999109E-03 0. -1.
       22    1    1    2    0    0  0.56787860682E-02 -0.43672340991E-02  0.35011601506E-01  0.35737005818E-01  0.00000000000E+00 0.  1.
  9000001    1    1    2    0    0 -0.56787860682E-02  0.43672340991E-02 -0.35011601506E-01  0.35750994182E-01  0.10000000475E-02 0. -1.
</event>
<event>
 4   0  0.4809415E-02  0.9118800E+02  0.7818609E-02  0.1379984E+01
      -11   -1    0    0    0    0  0.00000000000E+00  0.00000000000E+00  0.35740347158E-01  0.35744000000E-01  0.51099999109E-03 0.  1.
       11   -1    0    0    0    0 -0.00000000000E+00 -0.00000000000E+00 -0.35740347158E-01  0.35744000000E-01  0.51099999109E-03 0. -1.
       22    1    1    2    0    0  0.13928185993E-01 -0.29934716745E-02  0.32774660138E-01  0.35737005818E-01  0.00000000000E+00 0.  1.
  9000001    1    1    2    0    0 -0.13928185993E-01  0.29934716745E-02 -0.32774660138E-01  0.35750994182E-01  0.10000000475E-02 0. -1.
</event>
<event>
 4   0  0.4809415E-02  0.9118800E+02  0.7818609E-02  0.1379984E+01
      -11   -1    0    0    0    0  0.00000000000E+00  0.00000000000E+00  0.35740347158E-01  0.35744000000E-01  0.51099999109E-03 0. -1.
       11   -1    0    0    0    0 -0.00000000000E+00 -0.00000000000E+00 -0.35740347158E-01  0.35744000000E-01  0.51099999109E-03 0.  1.
       22    1    1    2    0    0 -0.51584076844E-02  0.52827075740E-02  0.34965946515E-01  0.35737005818E-01  0.00000000000E+00 0. -1.
  9000001    1    1    2    0    0  0.51584076844E-02 -0.52827075740E-02 -0.34965946515E-01  0.35750994182E-01  0.10000000475E-02 0.  1.
</event>
<event>
 4   0  0.4809415E-02  0.9118800E+02  0.7818609E-02  0.1379984E+01
      -11   -1    0    0    0    0  0.00000000000E+00  0.00000000000E+00  0.35740347158E-01  0.35744000000E-01  0.51099999109E-03 0. -1.
       11   -1    0    0    0    0 -0.00000000000E+00 -0.00000000000E+00 -0.35740347158E-01  0.35744000000E-01  0.51099999109E-03 0.  1.
       22    1    1    2    0    0 -0.16074056003E-01 -0.30770814202E-01  0.84802890167E-02  0.35737005818E-01  0.00000000000E+00 0.  1.
  9000001    1    1    2    0    0  0.16074056003E-01  0.30770814202E-01 -0.84802890167E-02  0.35750994182E-01  0.10000000475E-02 0. -1.
</event>
<event>
 4   0  0.4809415E-02  0.9118800E+02  0.7818609E-02  0.1379984E+01
      -11   -1    0    0    0    0  0.00000000000E+00  0.00000000000E+00  0.35740347158E-01  0.35744000000E-01  0.51099999109E-03 0. -1.
       11   -1    0    0    0    0 -0.00000000000E+00 -0.00000000000E+00 -0.35740347158E-01  0.35744000000E-01  0.51099999109E-03 0.  1.
       22    1    1    2    0    0 -0.49410679459E-02  0.23063800739E-01 -0.26847356069E-01  0.35737005818E-01  0.00000000000E+00 0.  1.
  9000001    1    1    2    0    0  0.49410679459E-02 -0.23063800739E-01  0.26847356069E-01  0.35750994182E-01  0.10000000475E-02 0. -1.
</event>
<event>
 4   0  0.4809415E-02  0.9118800E+02  0.7818609E-02  0.1379984E+01
      -11   -1    0    0    0    0  0.00000000000E+00  0.00000000000E+00  0.35740347158E-01  0.35744000000E-01  0.51099999109E-03 0.  1.
       11   -1    0    0    0    0 -0.00000000000E+00 -0.00000000000E+00 -0.35740347158E-01  0.35744000000E-01  0.51099999109E-03 0. -1.
       22    1    1    2    0    0 -0.31766880356E-01 -0.12858783509E-01 -0.10131662448E-01  0.35737005818E-01  0.00000000000E+00 0. -1.
  9000001    1    1    2    0    0  0.31766880356E-01  0.12858783509E-01  0.10131662448E-01  0.35750994182E-01  0.10000000475E-02 0.  1.
</event>
<event>
 4   0  0.4809415E-02  0.9118800E+02  0.7818609E-02  0.1379984E+01
      -11   -1    0    0    0    0  0.00000000000E+00  0.00000000000E+00  0.35740347158E-01  0.35744000000E-01  0.51099999109E-03 0.  1.
       11   -1    0    0    0    0 -0.00000000000E+00 -0.00000000000E+00 -0.35740347158E-01  0.35744000000E-01  0.51099999109E-03 0. -1.
       22    1    1    2    0    0 -0.15542613809E-02 -0.33208786485E-02  0.35548412362E-01  0.35737005818E-01  0.00000000000E+00 0.  1.
  9000001    1    1    2    0    0  0.15542613809E-02  0.33208786485E-02 -0.35548412362E-01  0.35750994182E-01  0.10000000475E-02 0. -1.
</event>
<event>
 4   0  0.4809415E-02  0.9118800E+02  0.7818609E-02  0.1379984E+01
      -11   -1    0    0    0    0  0.00000000000E+00  0.00000000000E+00  0.35740347158E-01  0.35744000000E-01  0.51099999109E-03 0. -1.
       11   -1    0    0    0    0 -0.00000000000E+00 -0.00000000000E+00 -0.35740347158E-01  0.35744000000E-01  0.51099999109E-03 0.  1.
       22    1    1    2    0    0 -0.31242428949E-02  0.11695088129E-01  0.33624360289E-01  0.35737005818E-01  0.00000000000E+00 0. -1.
  9000001    1    1    2    0    0  0.31242428949E-02 -0.11695088129E-01 -0.33624360289E-01  0.35750994182E-01  0.10000000475E-02 0.  1.
</event>
<event>
 4   0  0.4809415E-02  0.9118800E+02  0.7818609E-02  0.1379984E+01
      -11   -1    0    0    0    0  0.00000000000E+00  0.00000000000E+00  0.35740347158E-01  0.35744000000E-01  0.51099999109E-03 0. -1.
       11   -1    0    0    0    0 -0.00000000000E+00 -0.00000000000E+00 -0.35740347158E-01  0.35744000000E-01  0.51099999109E-03 0.  1.
       22    1    1    2    0    0 -0.59994417424E-03 -0.39366859810E-02  0.35514449951E-01  0.35737005818E-01  0.00000000000E+00 0. -1.
  9000001    1    1    2    0    0  0.59994417424E-03  0.39366859810E-02 -0.35514449951E-01  0.35750994182E-01  0.10000000475E-02 0.  1.
</event>
<event>
 4   0  0.4809415E-02  0.9118800E+02  0.7818609E-02  0.1379984E+01
      -11   -1    0    0    0    0  0.00000000000E+00  0.00000000000E+00  0.35740347158E-01  0.35744000000E-01  0.51099999109E-03 0.  1.
       11   -1    0    0    0    0 -0.00000000000E+00 -0.00000000000E+00 -0.35740347158E-01  0.35744000000E-01  0.51099999109E-03 0. -1.
       22    1    1    2    0    0  0.84630538190E-03  0.13176493957E-01  0.33208392901E-01  0.35737005818E-01  0.00000000000E+00 0.  1.
  9000001    1    1    2    0    0 -0.84630538190E-03 -0.13176493957E-01 -0.33208392901E-01  0.35750994182E-01  0.10000000475E-02 0. -1.
</event>
<event>
 4   0  0.4809415E-02  0.9118800E+02  0.7818609E-02  0.1379984E+01
      -11   -1    0    0    0    0  0.00000000000E+00  0.00000000000E+00  0.35740347158E-01  0.35744000000E-01  0.51099999109E-03 0.  1.
       11   -1    0    0    0    0 -0.00000000000E+00 -0.00000000000E+00 -0.35740347158E-01  0.35744000000E-01  0.51099999109E-03 0. -1.
       22    1    1    2    0    0  0.42552307426E-03 -0.59250871803E-02 -0.35239833383E-01  0.35737005818E-01  0.00000000000E+00 0. -1.
  9000001    1    1    2    0    0 -0.42552307426E-03  0.59250871803E-02  0.35239833383E-01  0.35750994182E-01  0.10000000475E-02 0.  1.
</event>
<event>
 4   0  0.4809415E-02  0.9118800E+02  0.7818609E-02  0.1379984E+01
      -11   -1    0    0    0    0  0.00000000000E+00  0.00000000000E+00  0.35740347158E-01  0.35744000000E-01  0.51099999109E-03 0.  1.
       11   -1    0    0    0    0 -0.00000000000E+00 -0.00000000000E+00 -0.35740347158E-01  0.35744000000E-01  0.51099999109E-03 0. -1.
       22    1    1    2    0    0  0.22477267588E-02  0.34547848842E-01 -0.88615715134E-02  0.35737005818E-01  0.00000000000E+00 0. -1.
  9000001    1    1    2    0    0 -0.22477267588E-02 -0.34547848842E-01  0.88615715134E-02  0.35750994182E-01  0.10000000475E-02 0.  1.
</event>
<event>
 4   0  0.4809415E-02  0.9118800E+02  0.7818609E-02  0.1379984E+01
      -11   -1    0    0    0    0  0.00000000000E+00  0.00000000000E+00  0.35740347158E-01  0.35744000000E-01  0.51099999109E-03 0. -1.
       11   -1    0    0    0    0 -0.00000000000E+00 -0.00000000000E+00 -0.35740347158E-01  0.35744000000E-01  0.51099999109E-03 0.  1.
       22    1    1    2    0    0  0.49432635591E-02  0.10709066957E-02  0.35377265145E-01  0.35737005818E-01  0.00000000000E+00 0. -1.
  9000001    1    1    2    0    0 -0.49432635591E-02 -0.10709066957E-02 -0.35377265145E-01  0.35750994182E-01  0.10000000475E-02 0.  1.
</event>
<event>
 4   0  0.4809415E-02  0.9118800E+02  0.7818609E-02  0.1379984E+01
      -11   -1    0    0    0    0  0.00000000000E+00  0.00000000000E+00  0.35740347158E-01  0.35744000000E-01  0.51099999109E-03 0.  1.
       11   -1    0    0    0    0 -0.00000000000E+00 -0.00000000000E+00 -0.35740347158E-01  0.35744000000E-01  0.51099999109E-03 0. -1.
       22    1    1    2    0    0  0.31614792098E-01 -0.10234952972E-01 -0.13148545285E-01  0.35737005818E-01  0.00000000000E+00 0.  1.
  9000001    1    1    2    0    0 -0.31614792098E-01  0.10234952972E-01  0.13148545285E-01  0.35750994182E-01  0.10000000475E-02 0. -1.
</event>
<event>
 4   0  0.4809415E-02  0.9118800E+02  0.7818609E-02  0.1379984E+01
      -11   -1    0    0    0    0  0.00000000000E+00  0.00000000000E+00  0.35740347158E-01  0.35744000000E-01  0.51099999109E-03 0. -1.
       11   -1    0    0    0    0 -0.00000000000E+00 -0.00000000000E+00 -0.35740347158E-01  0.35744000000E-01  0.51099999109E-03 0.  1.
       22    1    1    2    0    0  0.34876292878E-01  0.33696351160E-02 -0.70301734811E-02  0.35737005818E-01  0.00000000000E+00 0.  1.
  9000001    1    1    2    0    0 -0.34876292878E-01 -0.33696351160E-02  0.70301734811E-02  0.35750994182E-01  0.10000000475E-02 0. -1.
</event>
<event>
 4   0  0.4809415E-02  0.9118800E+02  0.7818609E-02  0.1379984E+01
      -11   -1    0    0    0    0  0.00000000000E+00  0.00000000000E+00  0.35740347158E-01  0.35744000000E-01  0.51099999109E-03 0.  1.
       11   -1    0    0    0    0 -0.00000000000E+00 -0.00000000000E+00 -0.35740347158E-01  0.35744000000E-01  0.51099999109E-03 0. -1.
       22    1    1    2    0    0  0.38693532773E-02 -0.24857879871E-01  0.25382031014E-01  0.35737005818E-01  0.00000000000E+00 0.  1.
  9000001    1    1    2    0    0 -0.38693532773E-02  0.24857879871E-01 -0.25382031014E-01  0.35750994182E-01  0.10000000475E-02 0. -1.
</event>
<event>
 4   0  0.4809415E-02  0.9118800E+02  0.7818609E-02  0.1379984E+01
      -11   -1    0    0    0    0  0.00000000000E+00  0.00000000000E+00  0.35740347158E-01  0.35744000000E-01  0.51099999109E-03 0. -1.
       11   -1    0    0    0    0 -0.00000000000E+00 -0.00000000000E+00 -0.35740347158E-01  0.35744000000E-01  0.51099999109E-03 0.  1.
       22    1    1    2    0    0 -0.10060835071E-01  0.46301229775E-02  0.33977568244E-01  0.35737005818E-01  0.00000000000E+00 0. -1.
  9000001    1    1    2    0    0  0.10060835071E-01 -0.46301229775E-02 -0.33977568244E-01  0.35750994182E-01  0.10000000475E-02 0.  1.
</event>
<event>
 4   0  0.4809415E-02  0.9118800E+02  0.7818609E-02  0.1379984E+01
      -11   -1    0    0    0    0  0.00000000000E+00  0.00000000000E+00  0.35740347158E-01  0.35744000000E-01  0.51099999109E-03 0. -1.
       11   -1    0    0    0    0 -0.00000000000E+00 -0.00000000000E+00 -0.35740347158E-01  0.35744000000E-01  0.51099999109E-03 0.  1.
       22    1    1    2    0    0 -0.50715867579E-02  0.13827584342E-01  0.32560873819E-01  0.35737005818E-01  0.00000000000E+00 0. -1.
  9000001    1    1    2    0    0  0.50715867579E-02 -0.13827584342E-01 -0.32560873819E-01  0.35750994182E-01  0.10000000475E-02 0.  1.
</event>
<event>
 4   0  0.4809415E-02  0.9118800E+02  0.7818609E-02  0.1379984E+01
      -11   -1    0    0    0    0  0.00000000000E+00  0.00000000000E+00  0.35740347158E-01  0.35744000000E-01  0.51099999109E-03 0.  1.
       11   -1    0    0    0    0 -0.00000000000E+00 -0.00000000000E+00 -0.35740347158E-01  0.35744000000E-01  0.51099999109E-03 0. -1.
       22    1    1    2    0    0  0.39110383769E-02  0.11386663598E-02  0.35504095575E-01  0.35737005818E-01  0.00000000000E+00 0.  1.
  9000001    1    1    2    0    0 -0.39110383769E-02 -0.11386663598E-02 -0.35504095575E-01  0.35750994182E-01  0.10000000475E-02 0. -1.
</event>
<event>
 4   0  0.4809415E-02  0.9118800E+02  0.7818609E-02  0.1379984E+01
      -11   -1    0    0    0    0  0.00000000000E+00  0.00000000000E+00  0.35740347158E-01  0.35744000000E-01  0.51099999109E-03 0.  1.
       11   -1    0    0    0    0 -0.00000000000E+00 -0.00000000000E+00 -0.35740347158E-01  0.35744000000E-01  0.51099999109E-03 0. -1.
       22    1    1    2    0    0  0.20054426721E-01 -0.86447424602E-02 -0.28288195092E-01  0.35737005818E-01  0.00000000000E+00 0. -1.
  9000001    1    1    2    0    0 -0.20054426721E-01  0.86447424602E-02  0.28288195092E-01  0.35750994182E-01  0.10000000475E-02 0.  1.
</event>
<event>
 4   0  0.4809415E-02  0.9118800E+02  0.7818609E-02  0.1379984E+01
      -11   -1    0    0    0    0  0.00000000000E+00  0.00000000000E+00  0.35740347158E-01  0.35744000000E-01  0.51099999109E-03 0.  1.
       11   -1    0    0    0    0 -0.00000000000E+00 -0.00000000000E+00 -0.35740347158E-01  0.35744000000E-01  0.51099999109E-03 0. -1.
       22    1    1    2    0    0 -0.35155608583E-02  0.15115875618E-01 -0.32191376501E-01  0.35737005818E-01  0.00000000000E+00 0. -1.
  9000001    1    1    2    0    0  0.35155608583E-02 -0.15115875618E-01  0.32191376501E-01  0.35750994182E-01  0.10000000475E-02 0.  1.
</event>
<event>
 4   0  0.4809415E-02  0.9118800E+02  0.7818609E-02  0.1379984E+01
      -11   -1    0    0    0    0  0.00000000000E+00  0.00000000000E+00  0.35740347158E-01  0.35744000000E-01  0.51099999109E-03 0.  1.
       11   -1    0    0    0    0 -0.00000000000E+00 -0.00000000000E+00 -0.35740347158E-01  0.35744000000E-01  0.51099999109E-03 0. -1.
       22    1    1    2    0    0 -0.27375062104E-01  0.92165714710E-02  0.21042679725E-01  0.35737005818E-01  0.00000000000E+00 0.  1.
  9000001    1    1    2    0    0  0.27375062104E-01 -0.92165714710E-02 -0.21042679725E-01  0.35750994182E-01  0.10000000475E-02 0. -1.
</event>
<event>
 4   0  0.4809415E-02  0.9118800E+02  0.7818609E-02  0.1379984E+01
      -11   -1    0    0    0    0  0.00000000000E+00  0.00000000000E+00  0.35740347158E-01  0.35744000000E-01  0.51099999109E-03 0.  1.
       11   -1    0    0    0    0 -0.00000000000E+00 -0.00000000000E+00 -0.35740347158E-01  0.35744000000E-01  0.51099999109E-03 0. -1.
       22    1    1    2    0    0 -0.21561263092E-02 -0.13049945827E-01  0.33199150864E-01  0.35737005818E-01  0.00000000000E+00 0.  1.
  9000001    1    1    2    0    0  0.21561263092E-02  0.13049945827E-01 -0.33199150864E-01  0.35750994182E-01  0.10000000475E-02 0. -1.
</event>
<event>
 4   0  0.4809415E-02  0.9118800E+02  0.7818609E-02  0.1379984E+01
      -11   -1    0    0    0    0  0.00000000000E+00  0.00000000000E+00  0.35740347158E-01  0.35744000000E-01  0.51099999109E-03 0.  1.
       11   -1    0    0    0    0 -0.00000000000E+00 -0.00000000000E+00 -0.35740347158E-01  0.35744000000E-01  0.51099999109E-03 0. -1.
       22    1    1    2    0    0 -0.14734322650E-01 -0.83217128525E-02  0.31476696398E-01  0.35737005818E-01  0.00000000000E+00 0.  1.
  9000001    1    1    2    0    0  0.14734322650E-01  0.83217128525E-02 -0.31476696398E-01  0.35750994182E-01  0.10000000475E-02 0. -1.
</event>
<event>
 4   0  0.4809415E-02  0.9118800E+02  0.7818609E-02  0.1379984E+01
      -11   -1    0    0    0    0  0.00000000000E+00  0.00000000000E+00  0.35740347158E-01  0.35744000000E-01  0.51099999109E-03 0.  1.
       11   -1    0    0    0    0 -0.00000000000E+00 -0.00000000000E+00 -0.35740347158E-01  0.35744000000E-01  0.51099999109E-03 0. -1.
       22    1    1    2    0    0 -0.41202405711E-02  0.84401615697E-03 -0.35488657896E-01  0.35737005818E-01  0.00000000000E+00 0. -1.
  9000001    1    1    2    0    0  0.41202405711E-02 -0.84401615697E-03  0.35488657896E-01  0.35750994182E-01  0.10000000475E-02 0.  1.
</event>
<event>
 4   0  0.4809415E-02  0.9118800E+02  0.7818609E-02  0.1379984E+01
      -11   -1    0    0    0    0  0.00000000000E+00  0.00000000000E+00  0.35740347158E-01  0.35744000000E-01  0.51099999109E-03 0. -1.
       11   -1    0    0    0    0 -0.00000000000E+00 -0.00000000000E+00 -0.35740347158E-01  0.35744000000E-01  0.51099999109E-03 0.  1.
       22    1    1    2    0    0  0.24782717552E-01  0.55449284473E-03 -0.25741853727E-01  0.35737005818E-01  0.00000000000E+00 0.  1.
  9000001    1    1    2    0    0 -0.24782717552E-01 -0.55449284473E-03  0.25741853727E-01  0.35750994182E-01  0.10000000475E-02 0. -1.
</event>
<event>
 4   0  0.4809415E-02  0.9118800E+02  0.7818609E-02  0.1379984E+01
      -11   -1    0    0    0    0  0.00000000000E+00  0.00000000000E+00  0.35740347158E-01  0.35744000000E-01  0.51099999109E-03 0.  1.
       11   -1    0    0    0    0 -0.00000000000E+00 -0.00000000000E+00 -0.35740347158E-01  0.35744000000E-01  0.51099999109E-03 0. -1.
       22    1    1    2    0    0  0.27251900893E-01 -0.19685262909E-01  0.12122619633E-01  0.35737005818E-01  0.00000000000E+00 0.  1.
  9000001    1    1    2    0    0 -0.27251900893E-01  0.19685262909E-01 -0.12122619633E-01  0.35750994182E-01  0.10000000475E-02 0. -1.
</event>
<event>
 4   0  0.4809415E-02  0.9118800E+02  0.7818609E-02  0.1379984E+01
      -11   -1    0    0    0    0  0.00000000000E+00  0.00000000000E+00  0.35740347158E-01  0.35744000000E-01  0.51099999109E-03 0.  1.
       11   -1    0    0    0    0 -0.00000000000E+00 -0.00000000000E+00 -0.35740347158E-01  0.35744000000E-01  0.51099999109E-03 0. -1.
       22    1    1    2    0    0  0.24243805574E-02 -0.52691671263E-02 -0.35263179686E-01  0.35737005818E-01  0.00000000000E+00 0. -1.
  9000001    1    1    2    0    0 -0.24243805574E-02  0.52691671263E-02  0.35263179686E-01  0.35750994182E-01  0.10000000475E-02 0.  1.
</event>
<event>
 4   0  0.4809415E-02  0.9118800E+02  0.7818609E-02  0.1379984E+01
      -11   -1    0    0    0    0  0.00000000000E+00  0.00000000000E+00  0.35740347158E-01  0.35744000000E-01  0.51099999109E-03 0.  1.
       11   -1    0    0    0    0 -0.00000000000E+00 -0.00000000000E+00 -0.35740347158E-01  0.35744000000E-01  0.51099999109E-03 0. -1.
       22    1    1    2    0    0  0.24501744591E-02 -0.19915539594E-02 -0.35597246281E-01  0.35737005818E-01  0.00000000000E+00 0. -1.
  9000001    1    1    2    0    0 -0.24501744591E-02  0.19915539594E-02  0.35597246281E-01  0.35750994182E-01  0.10000000475E-02 0.  1.
</event>
<event>
 4   0  0.4809415E-02  0.9118800E+02  0.7818609E-02  0.1379984E+01
      -11   -1    0    0    0    0  0.00000000000E+00  0.00000000000E+00  0.35740347158E-01  0.35744000000E-01  0.51099999109E-03 0. -1.
       11   -1    0    0    0    0 -0.00000000000E+00 -0.00000000000E+00 -0.35740347158E-01  0.35744000000E-01  0.51099999109E-03 0.  1.
       22    1    1    2    0    0  0.11223391639E-01 -0.39918022462E-02 -0.33693242347E-01  0.35737005818E-01  0.00000000000E+00 0.  1.
  9000001    1    1    2    0    0 -0.11223391639E-01  0.39918022462E-02  0.33693242347E-01  0.35750994182E-01  0.10000000475E-02 0. -1.
</event>
<event>
 4   0  0.4809415E-02  0.9118800E+02  0.7818609E-02  0.1379984E+01
      -11   -1    0    0    0    0  0.00000000000E+00  0.00000000000E+00  0.35740347158E-01  0.35744000000E-01  0.51099999109E-03 0. -1.
       11   -1    0    0    0    0 -0.00000000000E+00 -0.00000000000E+00 -0.35740347158E-01  0.35744000000E-01  0.51099999109E-03 0.  1.
       22    1    1    2    0    0  0.22660868149E-01  0.20833398958E-02  0.27555005616E-01  0.35737005818E-01  0.00000000000E+00 0. -1.
  9000001    1    1    2    0    0 -0.22660868149E-01 -0.20833398958E-02 -0.27555005616E-01  0.35750994182E-01  0.10000000475E-02 0.  1.
</event>
<event>
 4   0  0.4809415E-02  0.9118800E+02  0.7818609E-02  0.1379984E+01
      -11   -1    0    0    0    0  0.00000000000E+00  0.00000000000E+00  0.35740347158E-01  0.35744000000E-01  0.51099999109E-03 0.  1.
       11   -1    0    0    0    0 -0.00000000000E+00 -0.00000000000E+00 -0.35740347158E-01  0.35744000000E-01  0.51099999109E-03 0. -1.
       22    1    1    2    0    0 -0.34753048334E-02 -0.33262174326E-02  0.35411751140E-01  0.35737005818E-01  0.00000000000E+00 0.  1.
  9000001    1    1    2    0    0  0.34753048334E-02  0.33262174326E-02 -0.35411751140E-01  0.35750994182E-01  0.10000000475E-02 0. -1.
</event>
<event>
 4   0  0.4809415E-02  0.9118800E+02  0.7818609E-02  0.1379984E+01
      -11   -1    0    0    0    0  0.00000000000E+00  0.00000000000E+00  0.35740347158E-01  0.35744000000E-01  0.51099999109E-03 0.  1.
       11   -1    0    0    0    0 -0.00000000000E+00 -0.00000000000E+00 -0.35740347158E-01  0.35744000000E-01  0.51099999109E-03 0. -1.
       22    1    1    2    0    0  0.65490406421E-02 -0.18009493338E-02  0.35085612907E-01  0.35737005818E-01  0.00000000000E+00 0.  1.
  9000001    1    1    2    0    0 -0.65490406421E-02  0.18009493338E-02 -0.35085612907E-01  0.35750994182E-01  0.10000000475E-02 0. -1.
</event>
<event>
 4   0  0.4809415E-02  0.9118800E+02  0.7818609E-02  0.1379984E+01
      -11   -1    0    0    0    0  0.00000000000E+00  0.00000000000E+00  0.35740347158E-01  0.35744000000E-01  0.51099999109E-03 0.  1.
       11   -1    0    0    0    0 -0.00000000000E+00 -0.00000000000E+00 -0.35740347158E-01  0.35744000000E-01  0.51099999109E-03 0. -1.
       22    1    1    2    0    0 -0.43164398597E-02  0.11378058873E-02 -0.35457119589E-01  0.35737005818E-01  0.00000000000E+00 0. -1.
  9000001    1    1    2    0    0  0.43164398597E-02 -0.11378058873E-02  0.35457119589E-01  0.35750994182E-01  0.10000000475E-02 0.  1.
</event>
<event>
 4   0  0.4809415E-02  0.9118800E+02  0.7818609E-02  0.1379984E+01
      -11   -1    0    0    0    0  0.00000000000E+00  0.00000000000E+00  0.35740347158E-01  0.35744000000E-01  0.51099999109E-03 0. -1.
       11   -1    0    0    0    0 -0.00000000000E+00 -0.00000000000E+00 -0.35740347158E-01  0.35744000000E-01  0.51099999109E-03 0.  1.
       22    1    1    2    0    0  0.65869024275E-02  0.21104067629E-01  0.28077831661E-01  0.35737005818E-01  0.00000000000E+00 0. -1.
  9000001    1    1    2    0    0 -0.65869024275E-02 -0.21104067629E-01 -0.28077831661E-01  0.35750994182E-01  0.10000000475E-02 0.  1.
</event>
<event>
 4   0  0.4809415E-02  0.9118800E+02  0.7818609E-02  0.1379984E+01
      -11   -1    0    0    0    0  0.00000000000E+00  0.00000000000E+00  0.35740347158E-01  0.35744000000E-01  0.51099999109E-03 0. -1.
       11   -1    0    0    0    0 -0.00000000000E+00 -0.00000000000E+00 -0.35740347158E-01  0.35744000000E-01  0.51099999109E-03 0.  1.
       22    1    1    2    0    0  0.13189535608E-01 -0.59611543888E-02 -0.32674674806E-01  0.35737005818E-01  0.00000000000E+00 0.  1.
  9000001    1    1    2    0    0 -0.13189535608E-01  0.59611543888E-02  0.32674674806E-01  0.35750994182E-01  0.10000000475E-02 0. -1.
</event>
<event>
 4   0  0.4809415E-02  0.9118800E+02  0.7818609E-02  0.1379984E+01
      -11   -1    0    0    0    0  0.00000000000E+00  0.00000000000E+00  0.35740347158E-01  0.35744000000E-01  0.51099999109E-03 0. -1.
       11   -1    0    0    0    0 -0.00000000000E+00 -0.00000000000E+00 -0.35740347158E-01  0.35744000000E-01  0.51099999109E-03 0.  1.
       22    1    1    2    0    0  0.15252383202E-01 -0.10079153398E-01 -0.30706824295E-01  0.35737005818E-01  0.00000000000E+00 0.  1.
  9000001    1    1    2    0    0 -0.15252383202E-01  0.10079153398E-01  0.30706824295E-01  0.35750994182E-01  0.10000000475E-02 0. -1.
</event>
<event>
 4   0  0.4809415E-02  0.9118800E+02  0.7818609E-02  0.1379984E+01
      -11   -1    0    0    0    0  0.00000000000E+00  0.00000000000E+00  0.35740347158E-01  0.35744000000E-01  0.51099999109E-03 0. -1.
       11   -1    0    0    0    0 -0.00000000000E+00 -0.00000000000E+00 -0.35740347158E-01  0.35744000000E-01  0.51099999109E-03 0.  1.
       22    1    1    2    0    0  0.12360736207E-02 -0.30295620947E-02  0.35586900123E-01  0.35737005818E-01  0.00000000000E+00 0. -1.
  9000001    1    1    2    0    0 -0.12360736207E-02  0.30295620947E-02 -0.35586900123E-01  0.35750994182E-01  0.10000000475E-02 0.  1.
</event>
<event>
 4   0  0.4809415E-02  0.9118800E+02  0.7818609E-02  0.1379984E+01
      -11   -1    0    0    0    0  0.00000000000E+00  0.00000000000E+00  0.35740347158E-01  0.35744000000E-01  0.51099999109E-03 0.  1.
       11   -1    0    0    0    0 -0.00000000000E+00 -0.00000000000E+00 -0.35740347158E-01  0.35744000000E-01  0.51099999109E-03 0. -1.
       22    1    1    2    0    0  0.49457005914E-02  0.14491232056E-01 -0.32290522201E-01  0.35737005818E-01  0.00000000000E+00 0. -1.
  9000001    1    1    2    0    0 -0.49457005914E-02 -0.14491232056E-01  0.32290522201E-01  0.35750994182E-01  0.10000000475E-02 0.  1.
</event>
<event>
 4   0  0.4809415E-02  0.9118800E+02  0.7818609E-02  0.1379984E+01
      -11   -1    0    0    0    0  0.00000000000E+00  0.00000000000E+00  0.35740347158E-01  0.35744000000E-01  0.51099999109E-03 0.  1.
       11   -1    0    0    0    0 -0.00000000000E+00 -0.00000000000E+00 -0.35740347158E-01  0.35744000000E-01  0.51099999109E-03 0. -1.
       22    1    1    2    0    0 -0.49770411717E-02 -0.10035118234E-02  0.35374505086E-01  0.35737005818E-01  0.00000000000E+00 0.  1.
  9000001    1    1    2    0    0  0.49770411717E-02  0.10035118234E-02 -0.35374505086E-01  0.35750994182E-01  0.10000000475E-02 0. -1.
</event>
<event>
 4   0  0.4809415E-02  0.9118800E+02  0.7818609E-02  0.1379984E+01
      -11   -1    0    0    0    0  0.00000000000E+00  0.00000000000E+00  0.35740347158E-01  0.35744000000E-01  0.51099999109E-03 0. -1.
       11   -1    0    0    0    0 -0.00000000000E+00 -0.00000000000E+00 -0.35740347158E-01  0.35744000000E-01  0.51099999109E-03 0.  1.
       22    1    1    2    0    0  0.31027052978E-01  0.13117703025E-01  0.11932369243E-01  0.35737005818E-01  0.00000000000E+00 0.  1.
  9000001    1    1    2    0    0 -0.31027052978E-01 -0.13117703025E-01 -0.11932369243E-01  0.35750994182E-01  0.10000000475E-02 0. -1.
</event>
<event>
 4   0  0.4809415E-02  0.9118800E+02  0.7818609E-02  0.1379984E+01
      -11   -1    0    0    0    0  0.00000000000E+00  0.00000000000E+00  0.35740347158E-01  0.35744000000E-01  0.51099999109E-03 0. -1.
       11   -1    0    0    0    0 -0.00000000000E+00 -0.00000000000E+00 -0.35740347158E-01  0.35744000000E-01  0.51099999109E-03 0.  1.
       22    1    1    2    0    0  0.62541548752E-02  0.43278880481E-02  0.34918312054E-01  0.35737005818E-01  0.00000000000E+00 0. -1.
  9000001    1    1    2    0    0 -0.62541548752E-02 -0.43278880481E-02 -0.34918312054E-01  0.35750994182E-01  0.10000000475E-02 0.  1.
</event>
<event>
 4   0  0.4809415E-02  0.9118800E+02  0.7818609E-02  0.1379984E+01
      -11   -1    0    0    0    0  0.00000000000E+00  0.00000000000E+00  0.35740347158E-01  0.35744000000E-01  0.51099999109E-03 0. -1.
       11   -1    0    0    0    0 -0.00000000000E+00 -0.00000000000E+00 -0.35740347158E-01  0.35744000000E-01  0.51099999109E-03 0.  1.
       22    1    1    2    0    0 -0.41559044498E-02  0.80949255270E-03  0.35485303506E-01  0.35737005818E-01  0.00000000000E+00 0. -1.
  9000001    1    1    2    0    0  0.41559044498E-02 -0.80949255270E-03 -0.35485303506E-01  0.35750994182E-01  0.10000000475E-02 0.  1.
</event>
<event>
 4   0  0.4809415E-02  0.9118800E+02  0.7818609E-02  0.1379984E+01
      -11   -1    0    0    0    0  0.00000000000E+00  0.00000000000E+00  0.35740347158E-01  0.35744000000E-01  0.51099999109E-03 0.  1.
       11   -1    0    0    0    0 -0.00000000000E+00 -0.00000000000E+00 -0.35740347158E-01  0.35744000000E-01  0.51099999109E-03 0. -1.
       22    1    1    2    0    0  0.34516287450E-01 -0.75694358908E-02  0.53350844277E-02  0.35737005818E-01  0.00000000000E+00 0.  1.
  9000001    1    1    2    0    0 -0.34516287450E-01  0.75694358908E-02 -0.53350844277E-02  0.35750994182E-01  0.10000000475E-02 0. -1.
</event>
<event>
 4   0  0.4809415E-02  0.9118800E+02  0.7818609E-02  0.1379984E+01
      -11   -1    0    0    0    0  0.00000000000E+00  0.00000000000E+00  0.35740347158E-01  0.35744000000E-01  0.51099999109E-03 0. -1.
       11   -1    0    0    0    0 -0.00000000000E+00 -0.00000000000E+00 -0.35740347158E-01  0.35744000000E-01  0.51099999109E-03 0.  1.
       22    1    1    2    0    0  0.96919193919E-02 -0.49274692566E-02 -0.34042918942E-01  0.35737005818E-01  0.00000000000E+00 0.  1.
  9000001    1    1    2    0    0 -0.96919193919E-02  0.49274692566E-02  0.34042918942E-01  0.35750994182E-01  0.10000000475E-02 0. -1.
</event>
<event>
 4   0  0.4809415E-02  0.9118800E+02  0.7818609E-02  0.1379984E+01
      -11   -1    0    0    0    0  0.00000000000E+00  0.00000000000E+00  0.35740347158E-01  0.35744000000E-01  0.51099999109E-03 0. -1.
       11   -1    0    0    0    0 -0.00000000000E+00 -0.00000000000E+00 -0.35740347158E-01  0.35744000000E-01  0.51099999109E-03 0.  1.
       22    1    1    2    0    0  0.26684747432E-02 -0.56974488928E-02 -0.35178855916E-01  0.35737005818E-01  0.00000000000E+00 0.  1.
  9000001    1    1    2    0    0 -0.26684747432E-02  0.56974488928E-02  0.35178855916E-01  0.35750994182E-01  0.10000000475E-02 0. -1.
</event>
<event>
 4   0  0.4809415E-02  0.9118800E+02  0.7818609E-02  0.1379984E+01
      -11   -1    0    0    0    0  0.00000000000E+00  0.00000000000E+00  0.35740347158E-01  0.35744000000E-01  0.51099999109E-03 0.  1.
       11   -1    0    0    0    0 -0.00000000000E+00 -0.00000000000E+00 -0.35740347158E-01  0.35744000000E-01  0.51099999109E-03 0. -1.
       22    1    1    2    0    0 -0.30018352098E-02 -0.44663593586E-02  0.35329508974E-01  0.35737005818E-01  0.00000000000E+00 0.  1.
  9000001    1    1    2    0    0  0.30018352098E-02  0.44663593586E-02 -0.35329508974E-01  0.35750994182E-01  0.10000000475E-02 0. -1.
</event>
<event>
 4   0  0.4809415E-02  0.9118800E+02  0.7818609E-02  0.1379984E+01
      -11   -1    0    0    0    0  0.00000000000E+00  0.00000000000E+00  0.35740347158E-01  0.35744000000E-01  0.51099999109E-03 0.  1.
       11   -1    0    0    0    0 -0.00000000000E+00 -0.00000000000E+00 -0.35740347158E-01  0.35744000000E-01  0.51099999109E-03 0. -1.
       22    1    1    2    0    0 -0.20542546241E-01 -0.16420910788E-01 -0.24196922690E-01  0.35737005818E-01  0.00000000000E+00 0. -1.
  9000001    1    1    2    0    0  0.20542546241E-01  0.16420910788E-01  0.24196922690E-01  0.35750994182E-01  0.10000000475E-02 0.  1.
</event>
<event>
 4   0  0.4809415E-02  0.9118800E+02  0.7818609E-02  0.1379984E+01
      -11   -1    0    0    0    0  0.00000000000E+00  0.00000000000E+00  0.35740347158E-01  0.35744000000E-01  0.51099999109E-03 0. -1.
       11   -1    0    0    0    0 -0.00000000000E+00 -0.00000000000E+00 -0.35740347158E-01  0.35744000000E-01  0.51099999109E-03 0.  1.
       22    1    1    2    0    0 -0.85434178604E-02 -0.15754330526E-02  0.34664991084E-01  0.35737005818E-01  0.00000000000E+00 0. -1.
  9000001    1    1    2    0    0  0.85434178604E-02  0.15754330526E-02 -0.34664991084E-01  0.35750994182E-01  0.10000000475E-02 0.  1.
</event>
<event>
 4   0  0.4809415E-02  0.9118800E+02  0.7818609E-02  0.1379984E+01
      -11   -1    0    0    0    0  0.00000000000E+00  0.00000000000E+00  0.35740347158E-01  0.35744000000E-01  0.51099999109E-03 0. -1.
       11   -1    0    0    0    0 -0.00000000000E+00 -0.00000000000E+00 -0.35740347158E-01  0.35744000000E-01  0.51099999109E-03 0.  1.
       22    1    1    2    0    0 -0.86575222710E-03  0.14970720566E-01 -0.32438581715E-01  0.35737005818E-01  0.00000000000E+00 0.  1.
  9000001    1    1    2    0    0  0.86575222710E-03 -0.14970720566E-01  0.32438581715E-01  0.35750994182E-01  0.10000000475E-02 0. -1.
</event>
<event>
 4   0  0.4809415E-02  0.9118800E+02  0.7818609E-02  0.1379984E+01
      -11   -1    0    0    0    0  0.00000000000E+00  0.00000000000E+00  0.35740347158E-01  0.35744000000E-01  0.51099999109E-03 0.  1.
       11   -1    0    0    0    0 -0.00000000000E+00 -0.00000000000E+00 -0.35740347158E-01  0.35744000000E-01  0.51099999109E-03 0. -1.
       22    1    1    2    0    0  0.25149352515E-02  0.20303919369E-02  0.35590535176E-01  0.35737005818E-01  0.00000000000E+00 0.  1.
  9000001    1    1    2    0    0 -0.25149352515E-02 -0.20303919369E-02 -0.35590535176E-01  0.35750994182E-01  0.10000000475E-02 0. -1.
</event>
<event>
 4   0  0.4809415E-02  0.9118800E+02  0.7818609E-02  0.1379984E+01
      -11   -1    0    0    0    0  0.00000000000E+00  0.00000000000E+00  0.35740347158E-01  0.35744000000E-01  0.51099999109E-03 0.  1.
       11   -1    0    0    0    0 -0.00000000000E+00 -0.00000000000E+00 -0.35740347158E-01  0.35744000000E-01  0.51099999109E-03 0. -1.
       22    1    1    2    0    0 -0.15949652022E-01 -0.40352468774E-02 -0.31724737475E-01  0.35737005818E-01  0.00000000000E+00 0. -1.
  9000001    1    1    2    0    0  0.15949652022E-01  0.40352468774E-02  0.31724737475E-01  0.35750994182E-01  0.10000000475E-02 0.  1.
</event>
<event>
 4   0  0.4809415E-02  0.9118800E+02  0.7818609E-02  0.1379984E+01
      -11   -1    0    0    0    0  0.00000000000E+00  0.00000000000E+00  0.35740347158E-01  0.35744000000E-01  0.51099999109E-03 0.  1.
       11   -1    0    0    0    0 -0.00000000000E+00 -0.00000000000E+00 -0.35740347158E-01  0.35744000000E-01  0.51099999109E-03 0.  1.
       22    1    1    2    0    0 -0.15499738675E-01  0.10268952259E-01 -0.30519506965E-01  0.35737005818E-01  0.00000000000E+00 0.  1.
  9000001    1    1    2    0    0  0.15499738675E-01 -0.10268952259E-01  0.30519506965E-01  0.35750994182E-01  0.10000000475E-02 0.  1.
</event>
<event>
 4   0  0.4809415E-02  0.9118800E+02  0.7818609E-02  0.1379984E+01
      -11   -1    0    0    0    0  0.00000000000E+00  0.00000000000E+00  0.35740347158E-01  0.35744000000E-01  0.51099999109E-03 0. -1.
       11   -1    0    0    0    0 -0.00000000000E+00 -0.00000000000E+00 -0.35740347158E-01  0.35744000000E-01  0.51099999109E-03 0.  1.
       22    1    1    2    0    0 -0.23940789215E-02  0.94523812616E-02 -0.34381018884E-01  0.35737005818E-01  0.00000000000E+00 0.  1.
  9000001    1    1    2    0    0  0.23940789215E-02 -0.94523812616E-02  0.34381018884E-01  0.35750994182E-01  0.10000000475E-02 0. -1.
</event>
<event>
 4   0  0.4809415E-02  0.9118800E+02  0.7818609E-02  0.1379984E+01
      -11   -1    0    0    0    0  0.00000000000E+00  0.00000000000E+00  0.35740347158E-01  0.35744000000E-01  0.51099999109E-03 0.  1.
       11   -1    0    0    0    0 -0.00000000000E+00 -0.00000000000E+00 -0.35740347158E-01  0.35744000000E-01  0.51099999109E-03 0. -1.
       22    1    1    2    0    0 -0.15337289932E-01  0.12383329355E-01 -0.29808627551E-01  0.35737005818E-01  0.00000000000E+00 0. -1.
  9000001    1    1    2    0    0  0.15337289932E-01 -0.12383329355E-01  0.29808627551E-01  0.35750994182E-01  0.10000000475E-02 0.  1.
</event>
<event>
 4   0  0.4809415E-02  0.9118800E+02  0.7818609E-02  0.1379984E+01
      -11   -1    0    0    0    0  0.00000000000E+00  0.00000000000E+00  0.35740347158E-01  0.35744000000E-01  0.51099999109E-03 0.  1.
       11   -1    0    0    0    0 -0.00000000000E+00 -0.00000000000E+00 -0.35740347158E-01  0.35744000000E-01  0.51099999109E-03 0. -1.
       22    1    1    2    0    0 -0.28203025265E-02  0.41640434497E-02  0.35381354139E-01  0.35737005818E-01  0.00000000000E+00 0.  1.
  9000001    1    1    2    0    0  0.28203025265E-02 -0.41640434497E-02 -0.35381354139E-01  0.35750994182E-01  0.10000000475E-02 0. -1.
</event>
<event>
 4   0  0.4809415E-02  0.9118800E+02  0.7818609E-02  0.1379984E+01
      -11   -1    0    0    0    0  0.00000000000E+00  0.00000000000E+00  0.35740347158E-01  0.35744000000E-01  0.51099999109E-03 0.  1.
       11   -1    0    0    0    0 -0.00000000000E+00 -0.00000000000E+00 -0.35740347158E-01  0.35744000000E-01  0.51099999109E-03 0. -1.
       22    1    1    2    0    0  0.43338897585E-02  0.86681252091E-04  0.35473137313E-01  0.35737005818E-01  0.00000000000E+00 0.  1.
  9000001    1    1    2    0    0 -0.43338897585E-02 -0.86681252091E-04 -0.35473137313E-01  0.35750994182E-01  0.10000000475E-02 0. -1.
</event>
<event>
 4   0  0.4809415E-02  0.9118800E+02  0.7818609E-02  0.1379984E+01
      -11   -1    0    0    0    0  0.00000000000E+00  0.00000000000E+00  0.35740347158E-01  0.35744000000E-01  0.51099999109E-03 0.  1.
       11   -1    0    0    0    0 -0.00000000000E+00 -0.00000000000E+00 -0.35740347158E-01  0.35744000000E-01  0.51099999109E-03 0. -1.
       22    1    1    2    0    0 -0.10879514491E-02  0.53267261769E-02  0.35321040964E-01  0.35737005818E-01  0.00000000000E+00 0.  1.
  9000001    1    1    2    0    0  0.10879514491E-02 -0.53267261769E-02 -0.35321040964E-01  0.35750994182E-01  0.10000000475E-02 0. -1.
</event>
<event>
 4   0  0.4809415E-02  0.9118800E+02  0.7818609E-02  0.1379984E+01
      -11   -1    0    0    0    0  0.00000000000E+00  0.00000000000E+00  0.35740347158E-01  0.35744000000E-01  0.51099999109E-03 0.  1.
       11   -1    0    0    0    0 -0.00000000000E+00 -0.00000000000E+00 -0.35740347158E-01  0.35744000000E-01  0.51099999109E-03 0. -1.
       22    1    1    2    0    0 -0.76305067405E-02  0.51208068220E-02 -0.34535290490E-01  0.35737005818E-01  0.00000000000E+00 0. -1.
  9000001    1    1    2    0    0  0.76305067405E-02 -0.51208068220E-02  0.34535290490E-01  0.35750994182E-01  0.10000000475E-02 0.  1.
</event>
<event>
 4   0  0.4809415E-02  0.9118800E+02  0.7818609E-02  0.1379984E+01
      -11   -1    0    0    0    0  0.00000000000E+00  0.00000000000E+00  0.35740347158E-01  0.35744000000E-01  0.51099999109E-03 0.  1.
       11   -1    0    0    0    0 -0.00000000000E+00 -0.00000000000E+00 -0.35740347158E-01  0.35744000000E-01  0.51099999109E-03 0. -1.
       22    1    1    2    0    0  0.67587137442E-02  0.12617575811E-01 -0.32745231012E-01  0.35737005818E-01  0.00000000000E+00 0. -1.
  9000001    1    1    2    0    0 -0.67587137442E-02 -0.12617575811E-01  0.32745231012E-01  0.35750994182E-01  0.10000000475E-02 0.  1.
</event>
<event>
 4   0  0.4809415E-02  0.9118800E+02  0.7818609E-02  0.1379984E+01
      -11   -1    0    0    0    0  0.00000000000E+00  0.00000000000E+00  0.35740347158E-01  0.35744000000E-01  0.51099999109E-03 0.  1.
       11   -1    0    0    0    0 -0.00000000000E+00 -0.00000000000E+00 -0.35740347158E-01  0.35744000000E-01  0.51099999109E-03 0. -1.
       22    1    1    2    0    0 -0.34367171806E-02 -0.47184129089E-03  0.35568243219E-01  0.35737005818E-01  0.00000000000E+00 0.  1.
  9000001    1    1    2    0    0  0.34367171806E-02  0.47184129089E-03 -0.35568243219E-01  0.35750994182E-01  0.10000000475E-02 0. -1.
</event>
<event>
 4   0  0.4809415E-02  0.9118800E+02  0.7818609E-02  0.1379984E+01
      -11   -1    0    0    0    0  0.00000000000E+00  0.00000000000E+00  0.35740347158E-01  0.35744000000E-01  0.51099999109E-03 0. -1.
       11   -1    0    0    0    0 -0.00000000000E+00 -0.00000000000E+00 -0.35740347158E-01  0.35744000000E-01  0.51099999109E-03 0.  1.
       22    1    1    2    0    0  0.41871298024E-02  0.32831299162E-01 -0.13479885913E-01  0.35737005818E-01  0.00000000000E+00 0.  1.
  9000001    1    1    2    0    0 -0.41871298024E-02 -0.32831299162E-01  0.13479885913E-01  0.35750994182E-01  0.10000000475E-02 0. -1.
</event>
<event>
 4   0  0.4809415E-02  0.9118800E+02  0.7818609E-02  0.1379984E+01
      -11   -1    0    0    0    0  0.00000000000E+00  0.00000000000E+00  0.35740347158E-01  0.35744000000E-01  0.51099999109E-03 0.  1.
       11   -1    0    0    0    0 -0.00000000000E+00 -0.00000000000E+00 -0.35740347158E-01  0.35744000000E-01  0.51099999109E-03 0. -1.
       22    1    1    2    0    0  0.11743593528E-01 -0.16166231934E-02 -0.33713619286E-01  0.35737005818E-01  0.00000000000E+00 0. -1.
  9000001    1    1    2    0    0 -0.11743593528E-01  0.16166231934E-02  0.33713619286E-01  0.35750994182E-01  0.10000000475E-02 0.  1.
</event>
<event>
 4   0  0.4809415E-02  0.9118800E+02  0.7818609E-02  0.1379984E+01
      -11   -1    0    0    0    0  0.00000000000E+00  0.00000000000E+00  0.35740347158E-01  0.35744000000E-01  0.51099999109E-03 0.  1.
       11   -1    0    0    0    0 -0.00000000000E+00 -0.00000000000E+00 -0.35740347158E-01  0.35744000000E-01  0.51099999109E-03 0. -1.
       22    1    1    2    0    0  0.50778629866E-02  0.34303133466E-01 -0.86396716824E-02  0.35737005818E-01  0.00000000000E+00 0. -1.
  9000001    1    1    2    0    0 -0.50778629866E-02 -0.34303133466E-01  0.86396716824E-02  0.35750994182E-01  0.10000000475E-02 0.  1.
</event>
<event>
 4   0  0.4809415E-02  0.9118800E+02  0.7818609E-02  0.1379984E+01
      -11   -1    0    0    0    0  0.00000000000E+00  0.00000000000E+00  0.35740347158E-01  0.35744000000E-01  0.51099999109E-03 0. -1.
       11   -1    0    0    0    0 -0.00000000000E+00 -0.00000000000E+00 -0.35740347158E-01  0.35744000000E-01  0.51099999109E-03 0.  1.
       22    1    1    2    0    0  0.27727563961E-04 -0.42221333054E-02  0.35486707461E-01  0.35737005818E-01  0.00000000000E+00 0. -1.
  9000001    1    1    2    0    0 -0.27727563961E-04  0.42221333054E-02 -0.35486707461E-01  0.35750994182E-01  0.10000000475E-02 0.  1.
</event>
<event>
 4   0  0.4809415E-02  0.9118800E+02  0.7818609E-02  0.1379984E+01
      -11   -1    0    0    0    0  0.00000000000E+00  0.00000000000E+00  0.35740347158E-01  0.35744000000E-01  0.51099999109E-03 0.  1.
       11   -1    0    0    0    0 -0.00000000000E+00 -0.00000000000E+00 -0.35740347158E-01  0.35744000000E-01  0.51099999109E-03 0. -1.
       22    1    1    2    0    0 -0.18690820274E-02 -0.30315677946E-02  0.35559101703E-01  0.35737005818E-01  0.00000000000E+00 0.  1.
  9000001    1    1    2    0    0  0.18690820274E-02  0.30315677946E-02 -0.35559101703E-01  0.35750994182E-01  0.10000000475E-02 0. -1.
</event>
<event>
 4   0  0.4809415E-02  0.9118800E+02  0.7818609E-02  0.1379984E+01
      -11   -1    0    0    0    0  0.00000000000E+00  0.00000000000E+00  0.35740347158E-01  0.35744000000E-01  0.51099999109E-03 0.  1.
       11   -1    0    0    0    0 -0.00000000000E+00 -0.00000000000E+00 -0.35740347158E-01  0.35744000000E-01  0.51099999109E-03 0. -1.
       22    1    1    2    0    0  0.12239690826E-01 -0.24630252176E-02 -0.33485176723E-01  0.35737005818E-01  0.00000000000E+00 0. -1.
  9000001    1    1    2    0    0 -0.12239690826E-01  0.24630252176E-02  0.33485176723E-01  0.35750994182E-01  0.10000000475E-02 0.  1.
</event>
<event>
 4   0  0.4809415E-02  0.9118800E+02  0.7818609E-02  0.1379984E+01
      -11   -1    0    0    0    0  0.00000000000E+00  0.00000000000E+00  0.35740347158E-01  0.35744000000E-01  0.51099999109E-03 0. -1.
       11   -1    0    0    0    0 -0.00000000000E+00 -0.00000000000E+00 -0.35740347158E-01  0.35744000000E-01  0.51099999109E-03 0.  1.
       22    1    1    2    0    0 -0.70122236738E-03  0.39275305851E-02  0.35513608315E-01  0.35737005818E-01  0.00000000000E+00 0. -1.
  9000001    1    1    2    0    0  0.70122236738E-03 -0.39275305851E-02 -0.35513608315E-01  0.35750994182E-01  0.10000000475E-02 0.  1.
</event>
<event>
 4   0  0.4809415E-02  0.9118800E+02  0.7818609E-02  0.1379984E+01
      -11   -1    0    0    0    0  0.00000000000E+00  0.00000000000E+00  0.35740347158E-01  0.35744000000E-01  0.51099999109E-03 0.  1.
       11   -1    0    0    0    0 -0.00000000000E+00 -0.00000000000E+00 -0.35740347158E-01  0.35744000000E-01  0.51099999109E-03 0. -1.
       22    1    1    2    0    0 -0.10915099326E-01  0.21907473644E-01  0.26039523615E-01  0.35737005818E-01  0.00000000000E+00 0.  1.
  9000001    1    1    2    0    0  0.10915099326E-01 -0.21907473644E-01 -0.26039523615E-01  0.35750994182E-01  0.10000000475E-02 0. -1.
</event>
<event>
 4   0  0.4809415E-02  0.9118800E+02  0.7818609E-02  0.1379984E+01
      -11   -1    0    0    0    0  0.00000000000E+00  0.00000000000E+00  0.35740347158E-01  0.35744000000E-01  0.51099999109E-03 0.  1.
       11   -1    0    0    0    0 -0.00000000000E+00 -0.00000000000E+00 -0.35740347158E-01  0.35744000000E-01  0.51099999109E-03 0. -1.
       22    1    1    2    0    0  0.10897157989E-01 -0.19294030627E-01  0.28037937064E-01  0.35737005818E-01  0.00000000000E+00 0.  1.
  9000001    1    1    2    0    0 -0.10897157989E-01  0.19294030627E-01 -0.28037937064E-01  0.35750994182E-01  0.10000000475E-02 0. -1.
</event>
<event>
 4   0  0.4809415E-02  0.9118800E+02  0.7818609E-02  0.1379984E+01
      -11   -1    0    0    0    0  0.00000000000E+00  0.00000000000E+00  0.35740347158E-01  0.35744000000E-01  0.51099999109E-03 0. -1.
       11   -1    0    0    0    0 -0.00000000000E+00 -0.00000000000E+00 -0.35740347158E-01  0.35744000000E-01  0.51099999109E-03 0.  1.
       22    1    1    2    0    0  0.14650444174E-02 -0.40739070217E-02  0.35473800350E-01  0.35737005818E-01  0.00000000000E+00 0. -1.
  9000001    1    1    2    0    0 -0.14650444174E-02  0.40739070217E-02 -0.35473800350E-01  0.35750994182E-01  0.10000000475E-02 0.  1.
</event>
<event>
 4   0  0.4809415E-02  0.9118800E+02  0.7818609E-02  0.1379984E+01
      -11   -1    0    0    0    0  0.00000000000E+00  0.00000000000E+00  0.35740347158E-01  0.35744000000E-01  0.51099999109E-03 0. -1.
       11   -1    0    0    0    0 -0.00000000000E+00 -0.00000000000E+00 -0.35740347158E-01  0.35744000000E-01  0.51099999109E-03 0.  1.
       22    1    1    2    0    0 -0.69308049971E-02  0.58777978187E-02  0.34562248477E-01  0.35737005818E-01  0.00000000000E+00 0. -1.
  9000001    1    1    2    0    0  0.69308049971E-02 -0.58777978187E-02 -0.34562248477E-01  0.35750994182E-01  0.10000000475E-02 0.  1.
</event>
<event>
 4   0  0.4809415E-02  0.9118800E+02  0.7818609E-02  0.1379984E+01
      -11   -1    0    0    0    0  0.00000000000E+00  0.00000000000E+00  0.35740347158E-01  0.35744000000E-01  0.51099999109E-03 0.  1.
       11   -1    0    0    0    0 -0.00000000000E+00 -0.00000000000E+00 -0.35740347158E-01  0.35744000000E-01  0.51099999109E-03 0. -1.
       22    1    1    2    0    0 -0.38145576016E-02 -0.35587779985E-02  0.35354177042E-01  0.35737005818E-01  0.00000000000E+00 0.  1.
  9000001    1    1    2    0    0  0.38145576016E-02  0.35587779985E-02 -0.35354177042E-01  0.35750994182E-01  0.10000000475E-02 0. -1.
</event>
<event>
 4   0  0.4809415E-02  0.9118800E+02  0.7818609E-02  0.1379984E+01
      -11   -1    0    0    0    0  0.00000000000E+00  0.00000000000E+00  0.35740347158E-01  0.35744000000E-01  0.51099999109E-03 0.  1.
       11   -1    0    0    0    0 -0.00000000000E+00 -0.00000000000E+00 -0.35740347158E-01  0.35744000000E-01  0.51099999109E-03 0. -1.
       22    1    1    2    0    0 -0.73066276234E-02 -0.62981613019E-02 -0.34410462680E-01  0.35737005818E-01  0.00000000000E+00 0. -1.
  9000001    1    1    2    0    0  0.73066276234E-02  0.62981613019E-02  0.34410462680E-01  0.35750994182E-01  0.10000000475E-02 0.  1.
</event>
<event>
 4   0  0.4809415E-02  0.9118800E+02  0.7818609E-02  0.1379984E+01
      -11   -1    0    0    0    0  0.00000000000E+00  0.00000000000E+00  0.35740347158E-01  0.35744000000E-01  0.51099999109E-03 0. -1.
       11   -1    0    0    0    0 -0.00000000000E+00 -0.00000000000E+00 -0.35740347158E-01  0.35744000000E-01  0.51099999109E-03 0.  1.
       22    1    1    2    0    0 -0.15221198468E-01 -0.69371116775E-02  0.31580455723E-01  0.35737005818E-01  0.00000000000E+00 0. -1.
  9000001    1    1    2    0    0  0.15221198468E-01  0.69371116775E-02 -0.31580455723E-01  0.35750994182E-01  0.10000000475E-02 0.  1.
</event>
<event>
 4   0  0.4809415E-02  0.9118800E+02  0.7818609E-02  0.1379984E+01
      -11   -1    0    0    0    0  0.00000000000E+00  0.00000000000E+00  0.35740347158E-01  0.35744000000E-01  0.51099999109E-03 0. -1.
       11   -1    0    0    0    0 -0.00000000000E+00 -0.00000000000E+00 -0.35740347158E-01  0.35744000000E-01  0.51099999109E-03 0.  1.
       22    1    1    2    0    0  0.36568401022E-02 -0.24542874918E-02  0.35464596124E-01  0.35737005818E-01  0.00000000000E+00 0. -1.
  9000001    1    1    2    0    0 -0.36568401022E-02  0.24542874918E-02 -0.35464596124E-01  0.35750994182E-01  0.10000000475E-02 0.  1.
</event>
<event>
 4   0  0.4809415E-02  0.9118800E+02  0.7818609E-02  0.1379984E+01
      -11   -1    0    0    0    0  0.00000000000E+00  0.00000000000E+00  0.35740347158E-01  0.35744000000E-01  0.51099999109E-03 0. -1.
       11   -1    0    0    0    0 -0.00000000000E+00 -0.00000000000E+00 -0.35740347158E-01  0.35744000000E-01  0.51099999109E-03 0.  1.
       22    1    1    2    0    0 -0.35904962549E-02  0.47904103484E-02  0.35232000940E-01  0.35737005818E-01  0.00000000000E+00 0. -1.
  9000001    1    1    2    0    0  0.35904962549E-02 -0.47904103484E-02 -0.35232000940E-01  0.35750994182E-01  0.10000000475E-02 0.  1.
</event>
<event>
 4   0  0.4809415E-02  0.9118800E+02  0.7818609E-02  0.1379984E+01
      -11   -1    0    0    0    0  0.00000000000E+00  0.00000000000E+00  0.35740347158E-01  0.35744000000E-01  0.51099999109E-03 0. -1.
       11   -1    0    0    0    0 -0.00000000000E+00 -0.00000000000E+00 -0.35740347158E-01  0.35744000000E-01  0.51099999109E-03 0.  1.
       22    1    1    2    0    0 -0.24985956062E-03 -0.11552577986E-01 -0.33817289911E-01  0.35737005818E-01  0.00000000000E+00 0.  1.
  9000001    1    1    2    0    0  0.24985956062E-03  0.11552577986E-01  0.33817289911E-01  0.35750994182E-01  0.10000000475E-02 0. -1.
</event>
<event>
 4   0  0.4809415E-02  0.9118800E+02  0.7818609E-02  0.1379984E+01
      -11   -1    0    0    0    0  0.00000000000E+00  0.00000000000E+00  0.35740347158E-01  0.35744000000E-01  0.51099999109E-03 0.  1.
       11   -1    0    0    0    0 -0.00000000000E+00 -0.00000000000E+00 -0.35740347158E-01  0.35744000000E-01  0.51099999109E-03 0. -1.
       22    1    1    2    0    0 -0.21856645414E-02  0.26319960585E-02 -0.35572869608E-01  0.35737005818E-01  0.00000000000E+00 0. -1.
  9000001    1    1    2    0    0  0.21856645414E-02 -0.26319960585E-02  0.35572869608E-01  0.35750994182E-01  0.10000000475E-02 0.  1.
</event>
<event>
 4   0  0.4809415E-02  0.9118800E+02  0.7818609E-02  0.1379984E+01
      -11   -1    0    0    0    0  0.00000000000E+00  0.00000000000E+00  0.35740347158E-01  0.35744000000E-01  0.51099999109E-03 0. -1.
       11   -1    0    0    0    0 -0.00000000000E+00 -0.00000000000E+00 -0.35740347158E-01  0.35744000000E-01  0.51099999109E-03 0.  1.
       22    1    1    2    0    0 -0.30625849246E-01 -0.12091011266E-01 -0.13892386023E-01  0.35737005818E-01  0.00000000000E+00 0.  1.
  9000001    1    1    2    0    0  0.30625849246E-01  0.12091011266E-01  0.13892386023E-01  0.35750994182E-01  0.10000000475E-02 0. -1.
</event>
<event>
 4   0  0.4809415E-02  0.9118800E+02  0.7818609E-02  0.1379984E+01
      -11   -1    0    0    0    0  0.00000000000E+00  0.00000000000E+00  0.35740347158E-01  0.35744000000E-01  0.51099999109E-03 0. -1.
       11   -1    0    0    0    0 -0.00000000000E+00 -0.00000000000E+00 -0.35740347158E-01  0.35744000000E-01  0.51099999109E-03 0.  1.
       22    1    1    2    0    0  0.16823882732E-01 -0.29465134735E-01 -0.11220356043E-01  0.35737005818E-01  0.00000000000E+00 0. -1.
  9000001    1    1    2    0    0 -0.16823882732E-01  0.29465134735E-01  0.11220356043E-01  0.35750994182E-01  0.10000000475E-02 0.  1.
</event>
<event>
 4   0  0.4809415E-02  0.9118800E+02  0.7818609E-02  0.1379984E+01
      -11   -1    0    0    0    0  0.00000000000E+00  0.00000000000E+00  0.35740347158E-01  0.35744000000E-01  0.51099999109E-03 0.  1.
       11   -1    0    0    0    0 -0.00000000000E+00 -0.00000000000E+00 -0.35740347158E-01  0.35744000000E-01  0.51099999109E-03 0. -1.
       22    1    1    2    0    0  0.31930878831E-02  0.94263495602E-02  0.34323194907E-01  0.35737005818E-01  0.00000000000E+00 0.  1.
  9000001    1    1    2    0    0 -0.31930878831E-02 -0.94263495602E-02 -0.34323194907E-01  0.35750994182E-01  0.10000000475E-02 0. -1.
</event>
<event>
 4   0  0.4809415E-02  0.9118800E+02  0.7818609E-02  0.1379984E+01
      -11   -1    0    0    0    0  0.00000000000E+00  0.00000000000E+00  0.35740347158E-01  0.35744000000E-01  0.51099999109E-03 0.  1.
       11   -1    0    0    0    0 -0.00000000000E+00 -0.00000000000E+00 -0.35740347158E-01  0.35744000000E-01  0.51099999109E-03 0. -1.
       22    1    1    2    0    0 -0.77165972766E-02  0.10953534459E-01  0.33130164415E-01  0.35737005818E-01  0.00000000000E+00 0.  1.
  9000001    1    1    2    0    0  0.77165972766E-02 -0.10953534459E-01 -0.33130164415E-01  0.35750994182E-01  0.10000000475E-02 0. -1.
</event>
<event>
 4   0  0.4809415E-02  0.9118800E+02  0.7818609E-02  0.1379984E+01
      -11   -1    0    0    0    0  0.00000000000E+00  0.00000000000E+00  0.35740347158E-01  0.35744000000E-01  0.51099999109E-03 0.  1.
       11   -1    0    0    0    0 -0.00000000000E+00 -0.00000000000E+00 -0.35740347158E-01  0.35744000000E-01  0.51099999109E-03 0. -1.
       22    1    1    2    0    0  0.35513924946E-02 -0.44067377976E-03  0.35557376209E-01  0.35737005818E-01  0.00000000000E+00 0.  1.
  9000001    1    1    2    0    0 -0.35513924946E-02  0.44067377976E-03 -0.35557376209E-01  0.35750994182E-01  0.10000000475E-02 0. -1.
</event>
<event>
 4   0  0.4809415E-02  0.9118800E+02  0.7818609E-02  0.1379984E+01
      -11   -1    0    0    0    0  0.00000000000E+00  0.00000000000E+00  0.35740347158E-01  0.35744000000E-01  0.51099999109E-03 0. -1.
       11   -1    0    0    0    0 -0.00000000000E+00 -0.00000000000E+00 -0.35740347158E-01  0.35744000000E-01  0.51099999109E-03 0.  1.
       22    1    1    2    0    0  0.64898536247E-02  0.17522061915E-02  0.35099076316E-01  0.35737005818E-01  0.00000000000E+00 0. -1.
  9000001    1    1    2    0    0 -0.64898536247E-02 -0.17522061915E-02 -0.35099076316E-01  0.35750994182E-01  0.10000000475E-02 0.  1.
</event>
<event>
 4   0  0.4809415E-02  0.9118800E+02  0.7818609E-02  0.1379984E+01
      -11   -1    0    0    0    0  0.00000000000E+00  0.00000000000E+00  0.35740347158E-01  0.35744000000E-01  0.51099999109E-03 0.  1.
       11   -1    0    0    0    0 -0.00000000000E+00 -0.00000000000E+00 -0.35740347158E-01  0.35744000000E-01  0.51099999109E-03 0. -1.
       22    1    1    2    0    0 -0.17265771803E-01 -0.28104495586E-01 -0.13753691751E-01  0.35737005818E-01  0.00000000000E+00 0. -1.
  9000001    1    1    2    0    0  0.17265771803E-01  0.28104495586E-01  0.13753691751E-01  0.35750994182E-01  0.10000000475E-02 0.  1.
</event>
<event>
 4   0  0.4809415E-02  0.9118800E+02  0.7818609E-02  0.1379984E+01
      -11   -1    0    0    0    0  0.00000000000E+00  0.00000000000E+00  0.35740347158E-01  0.35744000000E-01  0.51099999109E-03 0.  1.
       11   -1    0    0    0    0 -0.00000000000E+00 -0.00000000000E+00 -0.35740347158E-01  0.35744000000E-01  0.51099999109E-03 0. -1.
       22    1    1    2    0    0 -0.34940192829E-02 -0.27310228341E-03 -0.35564741378E-01  0.35737005818E-01  0.00000000000E+00 0. -1.
  9000001    1    1    2    0    0  0.34940192829E-02  0.27310228341E-03  0.35564741378E-01  0.35750994182E-01  0.10000000475E-02 0.  1.
</event>
<event>
 4   0  0.4809415E-02  0.9118800E+02  0.7818609E-02  0.1379984E+01
      -11   -1    0    0    0    0  0.00000000000E+00  0.00000000000E+00  0.35740347158E-01  0.35744000000E-01  0.51099999109E-03 0. -1.
       11   -1    0    0    0    0 -0.00000000000E+00 -0.00000000000E+00 -0.35740347158E-01  0.35744000000E-01  0.51099999109E-03 0.  1.
       22    1    1    2    0    0  0.90198415419E-02  0.47725444338E-02  0.34249070981E-01  0.35737005818E-01  0.00000000000E+00 0. -1.
  9000001    1    1    2    0    0 -0.90198415419E-02 -0.47725444338E-02 -0.34249070981E-01  0.35750994182E-01  0.10000000475E-02 0.  1.
</event>
<event>
 4   0  0.4809415E-02  0.9118800E+02  0.7818609E-02  0.1379984E+01
      -11   -1    0    0    0    0  0.00000000000E+00  0.00000000000E+00  0.35740347158E-01  0.35744000000E-01  0.51099999109E-03 0. -1.
       11   -1    0    0    0    0 -0.00000000000E+00 -0.00000000000E+00 -0.35740347158E-01  0.35744000000E-01  0.51099999109E-03 0.  1.
       22    1    1    2    0    0  0.13148785741E-01  0.29137441457E-02  0.33102161764E-01  0.35737005818E-01  0.00000000000E+00 0. -1.
  9000001    1    1    2    0    0 -0.13148785741E-01 -0.29137441457E-02 -0.33102161764E-01  0.35750994182E-01  0.10000000475E-02 0.  1.
</event>
<event>
 4   0  0.4809415E-02  0.9118800E+02  0.7818609E-02  0.1379984E+01
      -11   -1    0    0    0    0  0.00000000000E+00  0.00000000000E+00  0.35740347158E-01  0.35744000000E-01  0.51099999109E-03 0.  1.
       11   -1    0    0    0    0 -0.00000000000E+00 -0.00000000000E+00 -0.35740347158E-01  0.35744000000E-01  0.51099999109E-03 0. -1.
       22    1    1    2    0    0  0.49677138732E-02 -0.14419002292E-01 -0.32319464362E-01  0.35737005818E-01  0.00000000000E+00 0. -1.
  9000001    1    1    2    0    0 -0.49677138732E-02  0.14419002292E-01  0.32319464362E-01  0.35750994182E-01  0.10000000475E-02 0.  1.
</event>
<event>
 4   0  0.4809415E-02  0.9118800E+02  0.7818609E-02  0.1379984E+01
      -11   -1    0    0    0    0  0.00000000000E+00  0.00000000000E+00  0.35740347158E-01  0.35744000000E-01  0.51099999109E-03 0.  1.
       11   -1    0    0    0    0 -0.00000000000E+00 -0.00000000000E+00 -0.35740347158E-01  0.35744000000E-01  0.51099999109E-03 0. -1.
       22    1    1    2    0    0  0.33316112057E-02 -0.12995500242E-01 -0.33123268636E-01  0.35737005818E-01  0.00000000000E+00 0. -1.
  9000001    1    1    2    0    0 -0.33316112057E-02  0.12995500242E-01  0.33123268636E-01  0.35750994182E-01  0.10000000475E-02 0.  1.
</event>
<event>
 4   0  0.4809415E-02  0.9118800E+02  0.7818609E-02  0.1379984E+01
      -11   -1    0    0    0    0  0.00000000000E+00  0.00000000000E+00  0.35740347158E-01  0.35744000000E-01  0.51099999109E-03 0.  1.
       11   -1    0    0    0    0 -0.00000000000E+00 -0.00000000000E+00 -0.35740347158E-01  0.35744000000E-01  0.51099999109E-03 0. -1.
       22    1    1    2    0    0  0.16541915649E-01  0.64429912698E-02 -0.31015906807E-01  0.35737005818E-01  0.00000000000E+00 0. -1.
  9000001    1    1    2    0    0 -0.16541915649E-01 -0.64429912698E-02  0.31015906807E-01  0.35750994182E-01  0.10000000475E-02 0.  1.
</event>
<event>
 4   0  0.4809415E-02  0.9118800E+02  0.7818609E-02  0.1379984E+01
      -11   -1    0    0    0    0  0.00000000000E+00  0.00000000000E+00  0.35740347158E-01  0.35744000000E-01  0.51099999109E-03 0.  1.
       11   -1    0    0    0    0 -0.00000000000E+00 -0.00000000000E+00 -0.35740347158E-01  0.35744000000E-01  0.51099999109E-03 0. -1.
       22    1    1    2    0    0 -0.78261893416E-02  0.65316518083E-02 -0.34252326489E-01  0.35737005818E-01  0.00000000000E+00 0. -1.
  9000001    1    1    2    0    0  0.78261893416E-02 -0.65316518083E-02  0.34252326489E-01  0.35750994182E-01  0.10000000475E-02 0.  1.
</event>
<event>
 4   0  0.4809415E-02  0.9118800E+02  0.7818609E-02  0.1379984E+01
      -11   -1    0    0    0    0  0.00000000000E+00  0.00000000000E+00  0.35740347158E-01  0.35744000000E-01  0.51099999109E-03 0. -1.
       11   -1    0    0    0    0 -0.00000000000E+00 -0.00000000000E+00 -0.35740347158E-01  0.35744000000E-01  0.51099999109E-03 0.  1.
       22    1    1    2    0    0 -0.25028139717E-02 -0.23967511493E-02 -0.35568596979E-01  0.35737005818E-01  0.00000000000E+00 0.  1.
  9000001    1    1    2    0    0  0.25028139717E-02  0.23967511493E-02  0.35568596979E-01  0.35750994182E-01  0.10000000475E-02 0. -1.
</event>
<event>
 4   0  0.4809415E-02  0.9118800E+02  0.7818609E-02  0.1379984E+01
      -11   -1    0    0    0    0  0.00000000000E+00  0.00000000000E+00  0.35740347158E-01  0.35744000000E-01  0.51099999109E-03 0. -1.
       11   -1    0    0    0    0 -0.00000000000E+00 -0.00000000000E+00 -0.35740347158E-01  0.35744000000E-01  0.51099999109E-03 0.  1.
       22    1    1    2    0    0 -0.22149846701E-02 -0.22350964632E-01 -0.27796794920E-01  0.35737005818E-01  0.00000000000E+00 0.  1.
  9000001    1    1    2    0    0  0.22149846701E-02  0.22350964632E-01  0.27796794920E-01  0.35750994182E-01  0.10000000475E-02 0. -1.
</event>
<event>
 4   0  0.4809415E-02  0.9118800E+02  0.7818609E-02  0.1379984E+01
      -11   -1    0    0    0    0  0.00000000000E+00  0.00000000000E+00  0.35740347158E-01  0.35744000000E-01  0.51099999109E-03 0. -1.
       11   -1    0    0    0    0 -0.00000000000E+00 -0.00000000000E+00 -0.35740347158E-01  0.35744000000E-01  0.51099999109E-03 0.  1.
       22    1    1    2    0    0  0.10182788342E-02 -0.28589150787E-02  0.35607910605E-01  0.35737005818E-01  0.00000000000E+00 0. -1.
  9000001    1    1    2    0    0 -0.10182788342E-02  0.28589150787E-02 -0.35607910605E-01  0.35750994182E-01  0.10000000475E-02 0.  1.
</event>
<event>
 4   0  0.4809415E-02  0.9118800E+02  0.7818609E-02  0.1379984E+01
      -11   -1    0    0    0    0  0.00000000000E+00  0.00000000000E+00  0.35740347158E-01  0.35744000000E-01  0.51099999109E-03 0.  1.
       11   -1    0    0    0    0 -0.00000000000E+00 -0.00000000000E+00 -0.35740347158E-01  0.35744000000E-01  0.51099999109E-03 0. -1.
       22    1    1    2    0    0  0.24356689679E-01  0.78462898425E-02  0.24946362229E-01  0.35737005818E-01  0.00000000000E+00 0.  1.
  9000001    1    1    2    0    0 -0.24356689679E-01 -0.78462898425E-02 -0.24946362229E-01  0.35750994182E-01  0.10000000475E-02 0. -1.
</event>
<event>
 4   0  0.4809415E-02  0.9118800E+02  0.7818609E-02  0.1379984E+01
      -11   -1    0    0    0    0  0.00000000000E+00  0.00000000000E+00  0.35740347158E-01  0.35744000000E-01  0.51099999109E-03 0.  1.
       11   -1    0    0    0    0 -0.00000000000E+00 -0.00000000000E+00 -0.35740347158E-01  0.35744000000E-01  0.51099999109E-03 0. -1.
       22    1    1    2    0    0  0.19238804359E-01  0.13029401690E-02 -0.30088275767E-01  0.35737005818E-01  0.00000000000E+00 0. -1.
  9000001    1    1    2    0    0 -0.19238804359E-01 -0.13029401690E-02  0.30088275767E-01  0.35750994182E-01  0.10000000475E-02 0.  1.
</event>
<event>
 4   0  0.4809415E-02  0.9118800E+02  0.7818609E-02  0.1379984E+01
      -11   -1    0    0    0    0  0.00000000000E+00  0.00000000000E+00  0.35740347158E-01  0.35744000000E-01  0.51099999109E-03 0.  1.
       11   -1    0    0    0    0 -0.00000000000E+00 -0.00000000000E+00 -0.35740347158E-01  0.35744000000E-01  0.51099999109E-03 0. -1.
       22    1    1    2    0    0 -0.91263141222E-03  0.23746896159E-01  0.26690552853E-01  0.35737005818E-01  0.00000000000E+00 0.  1.
  9000001    1    1    2    0    0  0.91263141222E-03 -0.23746896159E-01 -0.26690552853E-01  0.35750994182E-01  0.10000000475E-02 0. -1.
</event>
<event>
 4   0  0.4809415E-02  0.9118800E+02  0.7818609E-02  0.1379984E+01
      -11   -1    0    0    0    0  0.00000000000E+00  0.00000000000E+00  0.35740347158E-01  0.35744000000E-01  0.51099999109E-03 0.  1.
       11   -1    0    0    0    0 -0.00000000000E+00 -0.00000000000E+00 -0.35740347158E-01  0.35744000000E-01  0.51099999109E-03 0. -1.
       22    1    1    2    0    0 -0.95590008702E-02  0.23531207484E-02  0.34354357947E-01  0.35737005818E-01  0.00000000000E+00 0.  1.
  9000001    1    1    2    0    0  0.95590008702E-02 -0.23531207484E-02 -0.34354357947E-01  0.35750994182E-01  0.10000000475E-02 0. -1.
</event>
<event>
 4   0  0.4809415E-02  0.9118800E+02  0.7818609E-02  0.1379984E+01
      -11   -1    0    0    0    0  0.00000000000E+00  0.00000000000E+00  0.35740347158E-01  0.35744000000E-01  0.51099999109E-03 0. -1.
       11   -1    0    0    0    0 -0.00000000000E+00 -0.00000000000E+00 -0.35740347158E-01  0.35744000000E-01  0.51099999109E-03 0.  1.
       22    1    1    2    0    0  0.55923605715E-02 -0.17905483895E-02  0.35251284013E-01  0.35737005818E-01  0.00000000000E+00 0. -1.
  9000001    1    1    2    0    0 -0.55923605715E-02  0.17905483895E-02 -0.35251284013E-01  0.35750994182E-01  0.10000000475E-02 0.  1.
</event>
<event>
 4   0  0.4809415E-02  0.9118800E+02  0.7818609E-02  0.1379984E+01
      -11   -1    0    0    0    0  0.00000000000E+00  0.00000000000E+00  0.35740347158E-01  0.35744000000E-01  0.51099999109E-03 0. -1.
       11   -1    0    0    0    0 -0.00000000000E+00 -0.00000000000E+00 -0.35740347158E-01  0.35744000000E-01  0.51099999109E-03 0.  1.
       22    1    1    2    0    0  0.15927222428E-02 -0.13592896302E-01 -0.33012573224E-01  0.35737005818E-01  0.00000000000E+00 0.  1.
  9000001    1    1    2    0    0 -0.15927222428E-02  0.13592896302E-01  0.33012573224E-01  0.35750994182E-01  0.10000000475E-02 0. -1.
</event>
<event>
 4   0  0.4809415E-02  0.9118800E+02  0.7818609E-02  0.1379984E+01
      -11   -1    0    0    0    0  0.00000000000E+00  0.00000000000E+00  0.35740347158E-01  0.35744000000E-01  0.51099999109E-03 0.  1.
       11   -1    0    0    0    0 -0.00000000000E+00 -0.00000000000E+00 -0.35740347158E-01  0.35744000000E-01  0.51099999109E-03 0. -1.
       22    1    1    2    0    0  0.50098757712E-02 -0.96404152662E-02  0.34045515463E-01  0.35737005818E-01  0.00000000000E+00 0.  1.
  9000001    1    1    2    0    0 -0.50098757712E-02  0.96404152662E-02 -0.34045515463E-01  0.35750994182E-01  0.10000000475E-02 0. -1.
</event>
<event>
 4   0  0.4809415E-02  0.9118800E+02  0.7818609E-02  0.1379984E+01
      -11   -1    0    0    0    0  0.00000000000E+00  0.00000000000E+00  0.35740347158E-01  0.35744000000E-01  0.51099999109E-03 0. -1.
       11   -1    0    0    0    0 -0.00000000000E+00 -0.00000000000E+00 -0.35740347158E-01  0.35744000000E-01  0.51099999109E-03 0.  1.
       22    1    1    2    0    0 -0.34362911100E-01  0.29791965653E-02 -0.93513802960E-02  0.35737005818E-01  0.00000000000E+00 0.  1.
  9000001    1    1    2    0    0  0.34362911100E-01 -0.29791965653E-02  0.93513802960E-02  0.35750994182E-01  0.10000000475E-02 0. -1.
</event>
<event>
 4   0  0.4809415E-02  0.9118800E+02  0.7818609E-02  0.1379984E+01
      -11   -1    0    0    0    0  0.00000000000E+00  0.00000000000E+00  0.35740347158E-01  0.35744000000E-01  0.51099999109E-03 0.  1.
       11   -1    0    0    0    0 -0.00000000000E+00 -0.00000000000E+00 -0.35740347158E-01  0.35744000000E-01  0.51099999109E-03 0. -1.
       22    1    1    2    0    0  0.20457428596E-02  0.60530094477E-02 -0.35161194486E-01  0.35737005818E-01  0.00000000000E+00 0. -1.
  9000001    1    1    2    0    0 -0.20457428596E-02 -0.60530094477E-02  0.35161194486E-01  0.35750994182E-01  0.10000000475E-02 0.  1.
</event>
<event>
 4   0  0.4809415E-02  0.9118800E+02  0.7818609E-02  0.1379984E+01
      -11   -1    0    0    0    0  0.00000000000E+00  0.00000000000E+00  0.35740347158E-01  0.35744000000E-01  0.51099999109E-03 0.  1.
       11   -1    0    0    0    0 -0.00000000000E+00 -0.00000000000E+00 -0.35740347158E-01  0.35744000000E-01  0.51099999109E-03 0. -1.
       22    1    1    2    0    0  0.19777221434E-01  0.29586139223E-01 -0.32642706773E-02  0.35737005818E-01  0.00000000000E+00 0.  1.
  9000001    1    1    2    0    0 -0.19777221434E-01 -0.29586139223E-01  0.32642706773E-02  0.35750994182E-01  0.10000000475E-02 0. -1.
</event>
<event>
 4   0  0.4809415E-02  0.9118800E+02  0.7818609E-02  0.1379984E+01
      -11   -1    0    0    0    0  0.00000000000E+00  0.00000000000E+00  0.35740347158E-01  0.35744000000E-01  0.51099999109E-03 0. -1.
       11   -1    0    0    0    0 -0.00000000000E+00 -0.00000000000E+00 -0.35740347158E-01  0.35744000000E-01  0.51099999109E-03 0.  1.
       22    1    1    2    0    0 -0.10510962185E-01 -0.15598349787E-01 -0.30386588205E-01  0.35737005818E-01  0.00000000000E+00 0.  1.
  9000001    1    1    2    0    0  0.10510962185E-01  0.15598349787E-01  0.30386588205E-01  0.35750994182E-01  0.10000000475E-02 0. -1.
</event>
<event>
 4   0  0.4809415E-02  0.9118800E+02  0.7818609E-02  0.1379984E+01
      -11   -1    0    0    0    0  0.00000000000E+00  0.00000000000E+00  0.35740347158E-01  0.35744000000E-01  0.51099999109E-03 0. -1.
       11   -1    0    0    0    0 -0.00000000000E+00 -0.00000000000E+00 -0.35740347158E-01  0.35744000000E-01  0.51099999109E-03 0.  1.
       22    1    1    2    0    0 -0.24947610634E-02 -0.30664411734E-02  0.35517695458E-01  0.35737005818E-01  0.00000000000E+00 0. -1.
  9000001    1    1    2    0    0  0.24947610634E-02  0.30664411734E-02 -0.35517695458E-01  0.35750994182E-01  0.10000000475E-02 0.  1.
</event>
<event>
 4   0  0.4809415E-02  0.9118800E+02  0.7818609E-02  0.1379984E+01
      -11   -1    0    0    0    0  0.00000000000E+00  0.00000000000E+00  0.35740347158E-01  0.35744000000E-01  0.51099999109E-03 0. -1.
       11   -1    0    0    0    0 -0.00000000000E+00 -0.00000000000E+00 -0.35740347158E-01  0.35744000000E-01  0.51099999109E-03 0.  1.
       22    1    1    2    0    0  0.44207872199E-02  0.35433132046E-01  0.14433913631E-02  0.35737005818E-01  0.00000000000E+00 0.  1.
  9000001    1    1    2    0    0 -0.44207872199E-02 -0.35433132046E-01 -0.14433913631E-02  0.35750994182E-01  0.10000000475E-02 0. -1.
</event>
<event>
 4   0  0.4809415E-02  0.9118800E+02  0.7818609E-02  0.1379984E+01
      -11   -1    0    0    0    0  0.00000000000E+00  0.00000000000E+00  0.35740347158E-01  0.35744000000E-01  0.51099999109E-03 0. -1.
       11   -1    0    0    0    0 -0.00000000000E+00 -0.00000000000E+00 -0.35740347158E-01  0.35744000000E-01  0.51099999109E-03 0.  1.
       22    1    1    2    0    0  0.32216869164E-04  0.43763716922E-02  0.35468012599E-01  0.35737005818E-01  0.00000000000E+00 0. -1.
  9000001    1    1    2    0    0 -0.32216869164E-04 -0.43763716922E-02 -0.35468012599E-01  0.35750994182E-01  0.10000000475E-02 0.  1.
</event>
<event>
 4   0  0.4809415E-02  0.9118800E+02  0.7818609E-02  0.1379984E+01
      -11   -1    0    0    0    0  0.00000000000E+00  0.00000000000E+00  0.35740347158E-01  0.35744000000E-01  0.51099999109E-03 0.  1.
       11   -1    0    0    0    0 -0.00000000000E+00 -0.00000000000E+00 -0.35740347158E-01  0.35744000000E-01  0.51099999109E-03 0. -1.
       22    1    1    2    0    0  0.18507856628E-02 -0.18486757694E-01 -0.30527822838E-01  0.35737005818E-01  0.00000000000E+00 0. -1.
  9000001    1    1    2    0    0 -0.18507856628E-02  0.18486757694E-01  0.30527822838E-01  0.35750994182E-01  0.10000000475E-02 0.  1.
</event>
<event>
 4   0  0.4809415E-02  0.9118800E+02  0.7818609E-02  0.1379984E+01
      -11   -1    0    0    0    0  0.00000000000E+00  0.00000000000E+00  0.35740347158E-01  0.35744000000E-01  0.51099999109E-03 0. -1.
       11   -1    0    0    0    0 -0.00000000000E+00 -0.00000000000E+00 -0.35740347158E-01  0.35744000000E-01  0.51099999109E-03 0.  1.
       22    1    1    2    0    0 -0.29079263942E-01  0.14604608636E-01 -0.14772792562E-01  0.35737005818E-01  0.00000000000E+00 0. -1.
  9000001    1    1    2    0    0  0.29079263942E-01 -0.14604608636E-01  0.14772792562E-01  0.35750994182E-01  0.10000000475E-02 0.  1.
</event>
<event>
 4   0  0.4809415E-02  0.9118800E+02  0.7818609E-02  0.1379984E+01
      -11   -1    0    0    0    0  0.00000000000E+00  0.00000000000E+00  0.35740347158E-01  0.35744000000E-01  0.51099999109E-03 0.  1.
       11   -1    0    0    0    0 -0.00000000000E+00 -0.00000000000E+00 -0.35740347158E-01  0.35744000000E-01  0.51099999109E-03 0. -1.
       22    1    1    2    0    0 -0.45626547350E-02  0.34238527907E-02 -0.35278789643E-01  0.35737005818E-01  0.00000000000E+00 0. -1.
  9000001    1    1    2    0    0  0.45626547350E-02 -0.34238527907E-02  0.35278789643E-01  0.35750994182E-01  0.10000000475E-02 0.  1.
</event>
<event>
 4   0  0.4809415E-02  0.9118800E+02  0.7818609E-02  0.1379984E+01
      -11   -1    0    0    0    0  0.00000000000E+00  0.00000000000E+00  0.35740347158E-01  0.35744000000E-01  0.51099999109E-03 0.  1.
       11   -1    0    0    0    0 -0.00000000000E+00 -0.00000000000E+00 -0.35740347158E-01  0.35744000000E-01  0.51099999109E-03 0. -1.
       22    1    1    2    0    0 -0.33137038606E-02  0.71478167664E-04 -0.35582971243E-01  0.35737005818E-01  0.00000000000E+00 0. -1.
  9000001    1    1    2    0    0  0.33137038606E-02 -0.71478167664E-04  0.35582971243E-01  0.35750994182E-01  0.10000000475E-02 0.  1.
</event>
<event>
 4   0  0.4809415E-02  0.9118800E+02  0.7818609E-02  0.1379984E+01
      -11   -1    0    0    0    0  0.00000000000E+00  0.00000000000E+00  0.35740347158E-01  0.35744000000E-01  0.51099999109E-03 0. -1.
       11   -1    0    0    0    0 -0.00000000000E+00 -0.00000000000E+00 -0.35740347158E-01  0.35744000000E-01  0.51099999109E-03 0.  1.
       22    1    1    2    0    0 -0.46898305510E-02  0.24014190188E-02  0.35346460374E-01  0.35737005818E-01  0.00000000000E+00 0. -1.
  9000001    1    1    2    0    0  0.46898305510E-02 -0.24014190188E-02 -0.35346460374E-01  0.35750994182E-01  0.10000000475E-02 0.  1.
</event>
<event>
 4   0  0.4809415E-02  0.9118800E+02  0.7818609E-02  0.1379984E+01
      -11   -1    0    0    0    0  0.00000000000E+00  0.00000000000E+00  0.35740347158E-01  0.35744000000E-01  0.51099999109E-03 0. -1.
       11   -1    0    0    0    0 -0.00000000000E+00 -0.00000000000E+00 -0.35740347158E-01  0.35744000000E-01  0.51099999109E-03 0.  1.
       22    1    1    2    0    0 -0.17094771815E-02 -0.32577380122E-02  0.35547129500E-01  0.35737005818E-01  0.00000000000E+00 0. -1.
  9000001    1    1    2    0    0  0.17094771815E-02  0.32577380122E-02 -0.35547129500E-01  0.35750994182E-01  0.10000000475E-02 0.  1.
</event>
<event>
 4   0  0.4809415E-02  0.9118800E+02  0.7818609E-02  0.1379984E+01
      -11   -1    0    0    0    0  0.00000000000E+00  0.00000000000E+00  0.35740347158E-01  0.35744000000E-01  0.51099999109E-03 0. -1.
       11   -1    0    0    0    0 -0.00000000000E+00 -0.00000000000E+00 -0.35740347158E-01  0.35744000000E-01  0.51099999109E-03 0.  1.
       22    1    1    2    0    0 -0.21347078012E-01  0.32860631404E-02 -0.28471698830E-01  0.35737005818E-01  0.00000000000E+00 0.  1.
  9000001    1    1    2    0    0  0.21347078012E-01 -0.32860631404E-02  0.28471698830E-01  0.35750994182E-01  0.10000000475E-02 0. -1.
</event>
<event>
 4   0  0.4809415E-02  0.9118800E+02  0.7818609E-02  0.1379984E+01
      -11   -1    0    0    0    0  0.00000000000E+00  0.00000000000E+00  0.35740347158E-01  0.35744000000E-01  0.51099999109E-03 0. -1.
       11   -1    0    0    0    0 -0.00000000000E+00 -0.00000000000E+00 -0.35740347158E-01  0.35744000000E-01  0.51099999109E-03 0.  1.
       22    1    1    2    0    0 -0.63077632730E-02 -0.16009345515E-03 -0.35175560798E-01  0.35737005818E-01  0.00000000000E+00 0.  1.
  9000001    1    1    2    0    0  0.63077632730E-02  0.16009345515E-03  0.35175560798E-01  0.35750994182E-01  0.10000000475E-02 0. -1.
</event>
<event>
 4   0  0.4809415E-02  0.9118800E+02  0.7818609E-02  0.1379984E+01
      -11   -1    0    0    0    0  0.00000000000E+00  0.00000000000E+00  0.35740347158E-01  0.35744000000E-01  0.51099999109E-03 0.  1.
       11   -1    0    0    0    0 -0.00000000000E+00 -0.00000000000E+00 -0.35740347158E-01  0.35744000000E-01  0.51099999109E-03 0. -1.
       22    1    1    2    0    0 -0.70240647730E-03  0.45802583505E-02  0.35435313509E-01  0.35737005818E-01  0.00000000000E+00 0.  1.
  9000001    1    1    2    0    0  0.70240647730E-03 -0.45802583505E-02 -0.35435313509E-01  0.35750994182E-01  0.10000000475E-02 0. -1.
</event>
<event>
 4   0  0.4809415E-02  0.9118800E+02  0.7818609E-02  0.1379984E+01
      -11   -1    0    0    0    0  0.00000000000E+00  0.00000000000E+00  0.35740347158E-01  0.35744000000E-01  0.51099999109E-03 0.  1.
       11   -1    0    0    0    0 -0.00000000000E+00 -0.00000000000E+00 -0.35740347158E-01  0.35744000000E-01  0.51099999109E-03 0. -1.
       22    1    1    2    0    0 -0.22328248691E-03  0.86667394244E-02  0.34669458570E-01  0.35737005818E-01  0.00000000000E+00 0.  1.
  9000001    1    1    2    0    0  0.22328248691E-03 -0.86667394244E-02 -0.34669458570E-01  0.35750994182E-01  0.10000000475E-02 0. -1.
</event>
<event>
 4   0  0.4809415E-02  0.9118800E+02  0.7818609E-02  0.1379984E+01
      -11   -1    0    0    0    0  0.00000000000E+00  0.00000000000E+00  0.35740347158E-01  0.35744000000E-01  0.51099999109E-03 0. -1.
       11   -1    0    0    0    0 -0.00000000000E+00 -0.00000000000E+00 -0.35740347158E-01  0.35744000000E-01  0.51099999109E-03 0.  1.
       22    1    1    2    0    0  0.12879350278E-01  0.21999918574E-01  0.25045149311E-01  0.35737005818E-01  0.00000000000E+00 0. -1.
  9000001    1    1    2    0    0 -0.12879350278E-01 -0.21999918574E-01 -0.25045149311E-01  0.35750994182E-01  0.10000000475E-02 0.  1.
</event>
<event>
 4   0  0.4809415E-02  0.9118800E+02  0.7818609E-02  0.1379984E+01
      -11   -1    0    0    0    0  0.00000000000E+00  0.00000000000E+00  0.35740347158E-01  0.35744000000E-01  0.51099999109E-03 0. -1.
       11   -1    0    0    0    0 -0.00000000000E+00 -0.00000000000E+00 -0.35740347158E-01  0.35744000000E-01  0.51099999109E-03 0.  1.
       22    1    1    2    0    0 -0.29838032196E-01 -0.16385588149E-01 -0.10878323424E-01  0.35737005818E-01  0.00000000000E+00 0. -1.
  9000001    1    1    2    0    0  0.29838032196E-01  0.16385588149E-01  0.10878323424E-01  0.35750994182E-01  0.10000000475E-02 0.  1.
</event>
<event>
 4   0  0.4809415E-02  0.9118800E+02  0.7818609E-02  0.1379984E+01
      -11   -1    0    0    0    0  0.00000000000E+00  0.00000000000E+00  0.35740347158E-01  0.35744000000E-01  0.51099999109E-03 0. -1.
       11   -1    0    0    0    0 -0.00000000000E+00 -0.00000000000E+00 -0.35740347158E-01  0.35744000000E-01  0.51099999109E-03 0.  1.
       22    1    1    2    0    0 -0.25851985459E-01 -0.16736426509E-01  0.18130098190E-01  0.35737005818E-01  0.00000000000E+00 0. -1.
  9000001    1    1    2    0    0  0.25851985459E-01  0.16736426509E-01 -0.18130098190E-01  0.35750994182E-01  0.10000000475E-02 0.  1.
</event>
<event>
 4   0  0.4809415E-02  0.9118800E+02  0.7818609E-02  0.1379984E+01
      -11   -1    0    0    0    0  0.00000000000E+00  0.00000000000E+00  0.35740347158E-01  0.35744000000E-01  0.51099999109E-03 0. -1.
       11   -1    0    0    0    0 -0.00000000000E+00 -0.00000000000E+00 -0.35740347158E-01  0.35744000000E-01  0.51099999109E-03 0.  1.
       22    1    1    2    0    0  0.45303955737E-02  0.11767967417E-01 -0.33438361857E-01  0.35737005818E-01  0.00000000000E+00 0.  1.
  9000001    1    1    2    0    0 -0.45303955737E-02 -0.11767967417E-01  0.33438361857E-01  0.35750994182E-01  0.10000000475E-02 0. -1.
</event>
<event>
 4   0  0.4809415E-02  0.9118800E+02  0.7818609E-02  0.1379984E+01
      -11   -1    0    0    0    0  0.00000000000E+00  0.00000000000E+00  0.35740347158E-01  0.35744000000E-01  0.51099999109E-03 0.  1.
       11   -1    0    0    0    0 -0.00000000000E+00 -0.00000000000E+00 -0.35740347158E-01  0.35744000000E-01  0.51099999109E-03 0. -1.
       22    1    1    2    0    0 -0.18992265929E-02 -0.50955044943E-02  0.35320848761E-01  0.35737005818E-01  0.00000000000E+00 0.  1.
  9000001    1    1    2    0    0  0.18992265929E-02  0.50955044943E-02 -0.35320848761E-01  0.35750994182E-01  0.10000000475E-02 0. -1.
</event>
<event>
 4   0  0.4809415E-02  0.9118800E+02  0.7818609E-02  0.1379984E+01
      -11   -1    0    0    0    0  0.00000000000E+00  0.00000000000E+00  0.35740347158E-01  0.35744000000E-01  0.51099999109E-03 0.  1.
       11   -1    0    0    0    0 -0.00000000000E+00 -0.00000000000E+00 -0.35740347158E-01  0.35744000000E-01  0.51099999109E-03 0. -1.
       22    1    1    2    0    0 -0.17636309677E-01  0.26941004045E-01  0.15500853748E-01  0.35737005818E-01  0.00000000000E+00 0.  1.
  9000001    1    1    2    0    0  0.17636309677E-01 -0.26941004045E-01 -0.15500853748E-01  0.35750994182E-01  0.10000000475E-02 0. -1.
</event>
<event>
 4   0  0.4809415E-02  0.9118800E+02  0.7818609E-02  0.1379984E+01
      -11   -1    0    0    0    0  0.00000000000E+00  0.00000000000E+00  0.35740347158E-01  0.35744000000E-01  0.51099999109E-03 0. -1.
       11   -1    0    0    0    0 -0.00000000000E+00 -0.00000000000E+00 -0.35740347158E-01  0.35744000000E-01  0.51099999109E-03 0.  1.
       22    1    1    2    0    0 -0.94940513948E-02  0.34334532480E-01  0.28524467352E-02  0.35737005818E-01  0.00000000000E+00 0. -1.
  9000001    1    1    2    0    0  0.94940513948E-02 -0.34334532480E-01 -0.28524467352E-02  0.35750994182E-01  0.10000000475E-02 0.  1.
</event>
<event>
 4   0  0.4809415E-02  0.9118800E+02  0.7818609E-02  0.1379984E+01
      -11   -1    0    0    0    0  0.00000000000E+00  0.00000000000E+00  0.35740347158E-01  0.35744000000E-01  0.51099999109E-03 0.  1.
       11   -1    0    0    0    0 -0.00000000000E+00 -0.00000000000E+00 -0.35740347158E-01  0.35744000000E-01  0.51099999109E-03 0. -1.
       22    1    1    2    0    0 -0.14016979928E-02  0.83292153367E-02 -0.34724530227E-01  0.35737005818E-01  0.00000000000E+00 0. -1.
  9000001    1    1    2    0    0  0.14016979928E-02 -0.83292153367E-02  0.34724530227E-01  0.35750994182E-01  0.10000000475E-02 0.  1.
</event>
<event>
 4   0  0.4809415E-02  0.9118800E+02  0.7818609E-02  0.1379984E+01
      -11   -1    0    0    0    0  0.00000000000E+00  0.00000000000E+00  0.35740347158E-01  0.35744000000E-01  0.51099999109E-03 0. -1.
       11   -1    0    0    0    0 -0.00000000000E+00 -0.00000000000E+00 -0.35740347158E-01  0.35744000000E-01  0.51099999109E-03 0.  1.
       22    1    1    2    0    0  0.16292281280E-01  0.26958811413E-01  0.16879503628E-01  0.35737005818E-01  0.00000000000E+00 0. -1.
  9000001    1    1    2    0    0 -0.16292281280E-01 -0.26958811413E-01 -0.16879503628E-01  0.35750994182E-01  0.10000000475E-02 0.  1.
</event>
<event>
 4   0  0.4809415E-02  0.9118800E+02  0.7818609E-02  0.1379984E+01
      -11   -1    0    0    0    0  0.00000000000E+00  0.00000000000E+00  0.35740347158E-01  0.35744000000E-01  0.51099999109E-03 0.  1.
       11   -1    0    0    0    0 -0.00000000000E+00 -0.00000000000E+00 -0.35740347158E-01  0.35744000000E-01  0.51099999109E-03 0. -1.
       22    1    1    2    0    0  0.41468805440E-02 -0.61596987069E-02 -0.34957046192E-01  0.35737005818E-01  0.00000000000E+00 0. -1.
  9000001    1    1    2    0    0 -0.41468805440E-02  0.61596987069E-02  0.34957046192E-01  0.35750994182E-01  0.10000000475E-02 0.  1.
</event>
<event>
 4   0  0.4809415E-02  0.9118800E+02  0.7818609E-02  0.1379984E+01
      -11   -1    0    0    0    0  0.00000000000E+00  0.00000000000E+00  0.35740347158E-01  0.35744000000E-01  0.51099999109E-03 0. -1.
       11   -1    0    0    0    0 -0.00000000000E+00 -0.00000000000E+00 -0.35740347158E-01  0.35744000000E-01  0.51099999109E-03 0.  1.
       22    1    1    2    0    0  0.21812096701E-01 -0.11997320133E-01 -0.25640404287E-01  0.35737005818E-01  0.00000000000E+00 0.  1.
  9000001    1    1    2    0    0 -0.21812096701E-01  0.11997320133E-01  0.25640404287E-01  0.35750994182E-01  0.10000000475E-02 0. -1.
</event>
<event>
 4   0  0.4809415E-02  0.9118800E+02  0.7818609E-02  0.1379984E+01
      -11   -1    0    0    0    0  0.00000000000E+00  0.00000000000E+00  0.35740347158E-01  0.35744000000E-01  0.51099999109E-03 0. -1.
       11   -1    0    0    0    0 -0.00000000000E+00 -0.00000000000E+00 -0.35740347158E-01  0.35744000000E-01  0.51099999109E-03 0.  1.
       22    1    1    2    0    0 -0.61126584551E-02  0.78526074696E-02  0.34323542175E-01  0.35737005818E-01  0.00000000000E+00 0. -1.
  9000001    1    1    2    0    0  0.61126584551E-02 -0.78526074696E-02 -0.34323542175E-01  0.35750994182E-01  0.10000000475E-02 0.  1.
</event>
<event>
 4   0  0.4809415E-02  0.9118800E+02  0.7818609E-02  0.1379984E+01
      -11   -1    0    0    0    0  0.00000000000E+00  0.00000000000E+00  0.35740347158E-01  0.35744000000E-01  0.51099999109E-03 0.  1.
       11   -1    0    0    0    0 -0.00000000000E+00 -0.00000000000E+00 -0.35740347158E-01  0.35744000000E-01  0.51099999109E-03 0. -1.
       22    1    1    2    0    0 -0.29468406345E-01  0.61354415854E-02  0.19264033038E-01  0.35737005818E-01  0.00000000000E+00 0.  1.
  9000001    1    1    2    0    0  0.29468406345E-01 -0.61354415854E-02 -0.19264033038E-01  0.35750994182E-01  0.10000000475E-02 0. -1.
</event>
<event>
 4   0  0.4809415E-02  0.9118800E+02  0.7818609E-02  0.1379984E+01
      -11   -1    0    0    0    0  0.00000000000E+00  0.00000000000E+00  0.35740347158E-01  0.35744000000E-01  0.51099999109E-03 0. -1.
       11   -1    0    0    0    0 -0.00000000000E+00 -0.00000000000E+00 -0.35740347158E-01  0.35744000000E-01  0.51099999109E-03 0.  1.
       22    1    1    2    0    0 -0.11962509498E-01 -0.12605178962E-01 -0.31227254358E-01  0.35737005818E-01  0.00000000000E+00 0.  1.
  9000001    1    1    2    0    0  0.11962509498E-01  0.12605178962E-01  0.31227254358E-01  0.35750994182E-01  0.10000000475E-02 0. -1.
</event>
<event>
 4   0  0.4809415E-02  0.9118800E+02  0.7818609E-02  0.1379984E+01
      -11   -1    0    0    0    0  0.00000000000E+00  0.00000000000E+00  0.35740347158E-01  0.35744000000E-01  0.51099999109E-03 0. -1.
       11   -1    0    0    0    0 -0.00000000000E+00 -0.00000000000E+00 -0.35740347158E-01  0.35744000000E-01  0.51099999109E-03 0.  1.
       22    1    1    2    0    0 -0.20908313137E-01  0.27746782576E-01  0.83721014892E-02  0.35737005818E-01  0.00000000000E+00 0. -1.
  9000001    1    1    2    0    0  0.20908313137E-01 -0.27746782576E-01 -0.83721014892E-02  0.35750994182E-01  0.10000000475E-02 0.  1.
</event>
<event>
 4   0  0.4809415E-02  0.9118800E+02  0.7818609E-02  0.1379984E+01
      -11   -1    0    0    0    0  0.00000000000E+00  0.00000000000E+00  0.35740347158E-01  0.35744000000E-01  0.51099999109E-03 0.  1.
       11   -1    0    0    0    0 -0.00000000000E+00 -0.00000000000E+00 -0.35740347158E-01  0.35744000000E-01  0.51099999109E-03 0. -1.
       22    1    1    2    0    0  0.15532643861E-02  0.49553745896E-02  0.35357675508E-01  0.35737005818E-01  0.00000000000E+00 0.  1.
  9000001    1    1    2    0    0 -0.15532643861E-02 -0.49553745896E-02 -0.35357675508E-01  0.35750994182E-01  0.10000000475E-02 0. -1.
</event>
<event>
 4   0  0.4809415E-02  0.9118800E+02  0.7818609E-02  0.1379984E+01
      -11   -1    0    0    0    0  0.00000000000E+00  0.00000000000E+00  0.35740347158E-01  0.35744000000E-01  0.51099999109E-03 0.  1.
       11   -1    0    0    0    0 -0.00000000000E+00 -0.00000000000E+00 -0.35740347158E-01  0.35744000000E-01  0.51099999109E-03 0. -1.
       22    1    1    2    0    0  0.28789404399E-02  0.15909055750E-02  0.35585310260E-01  0.35737005818E-01  0.00000000000E+00 0.  1.
  9000001    1    1    2    0    0 -0.28789404399E-02 -0.15909055750E-02 -0.35585310260E-01  0.35750994182E-01  0.10000000475E-02 0. -1.
</event>
<event>
 4   0  0.4809415E-02  0.9118800E+02  0.7818609E-02  0.1379984E+01
      -11   -1    0    0    0    0  0.00000000000E+00  0.00000000000E+00  0.35740347158E-01  0.35744000000E-01  0.51099999109E-03 0. -1.
       11   -1    0    0    0    0 -0.00000000000E+00 -0.00000000000E+00 -0.35740347158E-01  0.35744000000E-01  0.51099999109E-03 0.  1.
       22    1    1    2    0    0 -0.13418615859E-01 -0.49635879225E-02  0.32748085871E-01  0.35737005818E-01  0.00000000000E+00 0. -1.
  9000001    1    1    2    0    0  0.13418615859E-01  0.49635879225E-02 -0.32748085871E-01  0.35750994182E-01  0.10000000475E-02 0.  1.
</event>
<event>
 4   0  0.4809415E-02  0.9118800E+02  0.7818609E-02  0.1379984E+01
      -11   -1    0    0    0    0  0.00000000000E+00  0.00000000000E+00  0.35740347158E-01  0.35744000000E-01  0.51099999109E-03 0.  1.
       11   -1    0    0    0    0 -0.00000000000E+00 -0.00000000000E+00 -0.35740347158E-01  0.35744000000E-01  0.51099999109E-03 0. -1.
       22    1    1    2    0    0  0.27315322915E-01 -0.11605558727E-01  0.19907730296E-01  0.35737005818E-01  0.00000000000E+00 0.  1.
  9000001    1    1    2    0    0 -0.27315322915E-01  0.11605558727E-01 -0.19907730296E-01  0.35750994182E-01  0.10000000475E-02 0. -1.
</event>
<event>
 4   0  0.4809415E-02  0.9118800E+02  0.7818609E-02  0.1379984E+01
      -11   -1    0    0    0    0  0.00000000000E+00  0.00000000000E+00  0.35740347158E-01  0.35744000000E-01  0.51099999109E-03 0.  1.
       11   -1    0    0    0    0 -0.00000000000E+00 -0.00000000000E+00 -0.35740347158E-01  0.35744000000E-01  0.51099999109E-03 0. -1.
       22    1    1    2    0    0 -0.31874412190E-02  0.24486146047E-01 -0.25834133527E-01  0.35737005818E-01  0.00000000000E+00 0. -1.
  9000001    1    1    2    0    0  0.31874412190E-02 -0.24486146047E-01  0.25834133527E-01  0.35750994182E-01  0.10000000475E-02 0.  1.
</event>
<event>
 4   0  0.4809415E-02  0.9118800E+02  0.7818609E-02  0.1379984E+01
      -11   -1    0    0    0    0  0.00000000000E+00  0.00000000000E+00  0.35740347158E-01  0.35744000000E-01  0.51099999109E-03 0. -1.
       11   -1    0    0    0    0 -0.00000000000E+00 -0.00000000000E+00 -0.35740347158E-01  0.35744000000E-01  0.51099999109E-03 0.  1.
       22    1    1    2    0    0  0.26933942308E-02  0.27870318306E-01 -0.22206408307E-01  0.35737005818E-01  0.00000000000E+00 0.  1.
  9000001    1    1    2    0    0 -0.26933942308E-02 -0.27870318306E-01  0.22206408307E-01  0.35750994182E-01  0.10000000475E-02 0. -1.
</event>
<event>
 4   0  0.4809415E-02  0.9118800E+02  0.7818609E-02  0.1379984E+01
      -11   -1    0    0    0    0  0.00000000000E+00  0.00000000000E+00  0.35740347158E-01  0.35744000000E-01  0.51099999109E-03 0. -1.
       11   -1    0    0    0    0 -0.00000000000E+00 -0.00000000000E+00 -0.35740347158E-01  0.35744000000E-01  0.51099999109E-03 0.  1.
       22    1    1    2    0    0 -0.62222223904E-02  0.99734566872E-02  0.33748299144E-01  0.35737005818E-01  0.00000000000E+00 0. -1.
  9000001    1    1    2    0    0  0.62222223904E-02 -0.99734566872E-02 -0.33748299144E-01  0.35750994182E-01  0.10000000475E-02 0.  1.
</event>
<event>
 4   0  0.4809415E-02  0.9118800E+02  0.7818609E-02  0.1379984E+01
      -11   -1    0    0    0    0  0.00000000000E+00  0.00000000000E+00  0.35740347158E-01  0.35744000000E-01  0.51099999109E-03 0.  1.
       11   -1    0    0    0    0 -0.00000000000E+00 -0.00000000000E+00 -0.35740347158E-01  0.35744000000E-01  0.51099999109E-03 0. -1.
       22    1    1    2    0    0  0.25431167865E-02 -0.20942519413E-02 -0.35584831750E-01  0.35737005818E-01  0.00000000000E+00 0. -1.
  9000001    1    1    2    0    0 -0.25431167865E-02  0.20942519413E-02  0.35584831750E-01  0.35750994182E-01  0.10000000475E-02 0.  1.
</event>
<event>
 4   0  0.4809415E-02  0.9118800E+02  0.7818609E-02  0.1379984E+01
      -11   -1    0    0    0    0  0.00000000000E+00  0.00000000000E+00  0.35740347158E-01  0.35744000000E-01  0.51099999109E-03 0.  1.
       11   -1    0    0    0    0 -0.00000000000E+00 -0.00000000000E+00 -0.35740347158E-01  0.35744000000E-01  0.51099999109E-03 0. -1.
       22    1    1    2    0    0 -0.73736460790E-02  0.38374240319E-02 -0.34756828181E-01  0.35737005818E-01  0.00000000000E+00 0. -1.
  9000001    1    1    2    0    0  0.73736460790E-02 -0.38374240319E-02  0.34756828181E-01  0.35750994182E-01  0.10000000475E-02 0.  1.
</event>
<event>
 4   0  0.4809415E-02  0.9118800E+02  0.7818609E-02  0.1379984E+01
      -11   -1    0    0    0    0  0.00000000000E+00  0.00000000000E+00  0.35740347158E-01  0.35744000000E-01  0.51099999109E-03 0. -1.
       11   -1    0    0    0    0 -0.00000000000E+00 -0.00000000000E+00 -0.35740347158E-01  0.35744000000E-01  0.51099999109E-03 0. -1.
       22    1    1    2    0    0 -0.38912802107E-02 -0.29950425131E-02 -0.35398040109E-01  0.35737005818E-01  0.00000000000E+00 0. -1.
  9000001    1    1    2    0    0  0.38912802107E-02  0.29950425131E-02  0.35398040109E-01  0.35750994182E-01  0.10000000475E-02 0. -1.
</event>
<event>
 4   0  0.4809415E-02  0.9118800E+02  0.7818609E-02  0.1379984E+01
      -11   -1    0    0    0    0  0.00000000000E+00  0.00000000000E+00  0.35740347158E-01  0.35744000000E-01  0.51099999109E-03 0. -1.
       11   -1    0    0    0    0 -0.00000000000E+00 -0.00000000000E+00 -0.35740347158E-01  0.35744000000E-01  0.51099999109E-03 0.  1.
       22    1    1    2    0    0  0.61687599328E-02 -0.38189267815E-02  0.34992796173E-01  0.35737005818E-01  0.00000000000E+00 0. -1.
  9000001    1    1    2    0    0 -0.61687599328E-02  0.38189267815E-02 -0.34992796173E-01  0.35750994182E-01  0.10000000475E-02 0.  1.
</event>
<event>
 4   0  0.4809415E-02  0.9118800E+02  0.7818609E-02  0.1379984E+01
      -11   -1    0    0    0    0  0.00000000000E+00  0.00000000000E+00  0.35740347158E-01  0.35744000000E-01  0.51099999109E-03 0.  1.
       11   -1    0    0    0    0 -0.00000000000E+00 -0.00000000000E+00 -0.35740347158E-01  0.35744000000E-01  0.51099999109E-03 0. -1.
       22    1    1    2    0    0  0.12745182085E-01  0.93051146031E-02 -0.32064135116E-01  0.35737005818E-01  0.00000000000E+00 0. -1.
  9000001    1    1    2    0    0 -0.12745182085E-01 -0.93051146031E-02  0.32064135116E-01  0.35750994182E-01  0.10000000475E-02 0.  1.
</event>
<event>
 4   0  0.4809415E-02  0.9118800E+02  0.7818609E-02  0.1379984E+01
      -11   -1    0    0    0    0  0.00000000000E+00  0.00000000000E+00  0.35740347158E-01  0.35744000000E-01  0.51099999109E-03 0.  1.
       11   -1    0    0    0    0 -0.00000000000E+00 -0.00000000000E+00 -0.35740347158E-01  0.35744000000E-01  0.51099999109E-03 0. -1.
       22    1    1    2    0    0  0.41789156320E-02 -0.18142629646E-01  0.30504347863E-01  0.35737005818E-01  0.00000000000E+00 0.  1.
  9000001    1    1    2    0    0 -0.41789156320E-02  0.18142629646E-01 -0.30504347863E-01  0.35750994182E-01  0.10000000475E-02 0. -1.
</event>
<event>
 4   0  0.4809415E-02  0.9118800E+02  0.7818609E-02  0.1379984E+01
      -11   -1    0    0    0    0  0.00000000000E+00  0.00000000000E+00  0.35740347158E-01  0.35744000000E-01  0.51099999109E-03 0. -1.
       11   -1    0    0    0    0 -0.00000000000E+00 -0.00000000000E+00 -0.35740347158E-01  0.35744000000E-01  0.51099999109E-03 0.  1.
       22    1    1    2    0    0 -0.23669042142E-01  0.96858375935E-02 -0.24961862492E-01  0.35737005818E-01  0.00000000000E+00 0.  1.
  9000001    1    1    2    0    0  0.23669042142E-01 -0.96858375935E-02  0.24961862492E-01  0.35750994182E-01  0.10000000475E-02 0. -1.
</event>
<event>
 4   0  0.4809415E-02  0.9118800E+02  0.7818609E-02  0.1379984E+01
      -11   -1    0    0    0    0  0.00000000000E+00  0.00000000000E+00  0.35740347158E-01  0.35744000000E-01  0.51099999109E-03 0. -1.
       11   -1    0    0    0    0 -0.00000000000E+00 -0.00000000000E+00 -0.35740347158E-01  0.35744000000E-01  0.51099999109E-03 0.  1.
       22    1    1    2    0    0 -0.65111771309E-02 -0.31054737603E-02  0.35001345545E-01  0.35737005818E-01  0.00000000000E+00 0. -1.
  9000001    1    1    2    0    0  0.65111771309E-02  0.31054737603E-02 -0.35001345545E-01  0.35750994182E-01  0.10000000475E-02 0.  1.
</event>
<event>
 4   0  0.4809415E-02  0.9118800E+02  0.7818609E-02  0.1379984E+01
      -11   -1    0    0    0    0  0.00000000000E+00  0.00000000000E+00  0.35740347158E-01  0.35744000000E-01  0.51099999109E-03 0.  1.
       11   -1    0    0    0    0 -0.00000000000E+00 -0.00000000000E+00 -0.35740347158E-01  0.35744000000E-01  0.51099999109E-03 0. -1.
       22    1    1    2    0    0  0.98341011010E-02  0.23415400143E-03  0.34356501747E-01  0.35737005818E-01  0.00000000000E+00 0.  1.
  9000001    1    1    2    0    0 -0.98341011010E-02 -0.23415400143E-03 -0.34356501747E-01  0.35750994182E-01  0.10000000475E-02 0. -1.
</event>
<event>
 4   0  0.4809415E-02  0.9118800E+02  0.7818609E-02  0.1379984E+01
      -11   -1    0    0    0    0  0.00000000000E+00  0.00000000000E+00  0.35740347158E-01  0.35744000000E-01  0.51099999109E-03 0.  1.
       11   -1    0    0    0    0 -0.00000000000E+00 -0.00000000000E+00 -0.35740347158E-01  0.35744000000E-01  0.51099999109E-03 0. -1.
       22    1    1    2    0    0  0.56308646161E-02  0.13265287245E-01 -0.32702585569E-01  0.35737005818E-01  0.00000000000E+00 0. -1.
  9000001    1    1    2    0    0 -0.56308646161E-02 -0.13265287245E-01  0.32702585569E-01  0.35750994182E-01  0.10000000475E-02 0.  1.
</event>
<event>
 4   0  0.4809415E-02  0.9118800E+02  0.7818609E-02  0.1379984E+01
      -11   -1    0    0    0    0  0.00000000000E+00  0.00000000000E+00  0.35740347158E-01  0.35744000000E-01  0.51099999109E-03 0.  1.
       11   -1    0    0    0    0 -0.00000000000E+00 -0.00000000000E+00 -0.35740347158E-01  0.35744000000E-01  0.51099999109E-03 0. -1.
       22    1    1    2    0    0  0.69775247473E-02  0.14275825715E-01  0.32010131731E-01  0.35737005818E-01  0.00000000000E+00 0.  1.
  9000001    1    1    2    0    0 -0.69775247473E-02 -0.14275825715E-01 -0.32010131731E-01  0.35750994182E-01  0.10000000475E-02 0. -1.
</event>
<event>
 4   0  0.4809415E-02  0.9118800E+02  0.7818609E-02  0.1379984E+01
      -11   -1    0    0    0    0  0.00000000000E+00  0.00000000000E+00  0.35740347158E-01  0.35744000000E-01  0.51099999109E-03 0. -1.
       11   -1    0    0    0    0 -0.00000000000E+00 -0.00000000000E+00 -0.35740347158E-01  0.35744000000E-01  0.51099999109E-03 0.  1.
       22    1    1    2    0    0  0.11630276692E-01 -0.24056077872E-01 -0.23731316153E-01  0.35737005818E-01  0.00000000000E+00 0.  1.
  9000001    1    1    2    0    0 -0.11630276692E-01  0.24056077872E-01  0.23731316153E-01  0.35750994182E-01  0.10000000475E-02 0. -1.
</event>
<event>
 4   0  0.4809415E-02  0.9118800E+02  0.7818609E-02  0.1379984E+01
      -11   -1    0    0    0    0  0.00000000000E+00  0.00000000000E+00  0.35740347158E-01  0.35744000000E-01  0.51099999109E-03 0. -1.
       11   -1    0    0    0    0 -0.00000000000E+00 -0.00000000000E+00 -0.35740347158E-01  0.35744000000E-01  0.51099999109E-03 0.  1.
       22    1    1    2    0    0 -0.14560874524E-01 -0.37828167590E-02  0.32416119684E-01  0.35737005818E-01  0.00000000000E+00 0. -1.
  9000001    1    1    2    0    0  0.14560874524E-01  0.37828167590E-02 -0.32416119684E-01  0.35750994182E-01  0.10000000475E-02 0.  1.
</event>
<event>
 4   0  0.4809415E-02  0.9118800E+02  0.7818609E-02  0.1379984E+01
      -11   -1    0    0    0    0  0.00000000000E+00  0.00000000000E+00  0.35740347158E-01  0.35744000000E-01  0.51099999109E-03 0. -1.
       11   -1    0    0    0    0 -0.00000000000E+00 -0.00000000000E+00 -0.35740347158E-01  0.35744000000E-01  0.51099999109E-03 0.  1.
       22    1    1    2    0    0  0.42947199227E-02 -0.11382269558E-01 -0.33602572898E-01  0.35737005818E-01  0.00000000000E+00 0.  1.
  9000001    1    1    2    0    0 -0.42947199227E-02  0.11382269558E-01  0.33602572898E-01  0.35750994182E-01  0.10000000475E-02 0. -1.
</event>
<event>
 4   0  0.4809415E-02  0.9118800E+02  0.7818609E-02  0.1379984E+01
      -11   -1    0    0    0    0  0.00000000000E+00  0.00000000000E+00  0.35740347158E-01  0.35744000000E-01  0.51099999109E-03 0.  1.
       11   -1    0    0    0    0 -0.00000000000E+00 -0.00000000000E+00 -0.35740347158E-01  0.35744000000E-01  0.51099999109E-03 0. -1.
       22    1    1    2    0    0  0.30832451827E-02  0.34334654960E-02 -0.35437811709E-01  0.35737005818E-01  0.00000000000E+00 0. -1.
  9000001    1    1    2    0    0 -0.30832451827E-02 -0.34334654960E-02  0.35437811709E-01  0.35750994182E-01  0.10000000475E-02 0.  1.
</event>
<event>
 4   0  0.4809415E-02  0.9118800E+02  0.7818609E-02  0.1379984E+01
      -11   -1    0    0    0    0  0.00000000000E+00  0.00000000000E+00  0.35740347158E-01  0.35744000000E-01  0.51099999109E-03 0. -1.
       11   -1    0    0    0    0 -0.00000000000E+00 -0.00000000000E+00 -0.35740347158E-01  0.35744000000E-01  0.51099999109E-03 0.  1.
       22    1    1    2    0    0  0.51291049827E-02 -0.36323267195E-02  0.35179995303E-01  0.35737005818E-01  0.00000000000E+00 0. -1.
  9000001    1    1    2    0    0 -0.51291049827E-02  0.36323267195E-02 -0.35179995303E-01  0.35750994182E-01  0.10000000475E-02 0.  1.
</event>
<event>
 4   0  0.4809415E-02  0.9118800E+02  0.7818609E-02  0.1379984E+01
      -11   -1    0    0    0    0  0.00000000000E+00  0.00000000000E+00  0.35740347158E-01  0.35744000000E-01  0.51099999109E-03 0.  1.
       11   -1    0    0    0    0 -0.00000000000E+00 -0.00000000000E+00 -0.35740347158E-01  0.35744000000E-01  0.51099999109E-03 0. -1.
       22    1    1    2    0    0  0.19766963649E-01 -0.17875124809E-02  0.29718774068E-01  0.35737005818E-01  0.00000000000E+00 0.  1.
  9000001    1    1    2    0    0 -0.19766963649E-01  0.17875124809E-02 -0.29718774068E-01  0.35750994182E-01  0.10000000475E-02 0. -1.
</event>
<event>
 4   0  0.4809415E-02  0.9118800E+02  0.7818609E-02  0.1379984E+01
      -11   -1    0    0    0    0  0.00000000000E+00  0.00000000000E+00  0.35740347158E-01  0.35744000000E-01  0.51099999109E-03 0.  1.
       11   -1    0    0    0    0 -0.00000000000E+00 -0.00000000000E+00 -0.35740347158E-01  0.35744000000E-01  0.51099999109E-03 0. -1.
       22    1    1    2    0    0  0.48490255520E-02 -0.69184852641E-02 -0.34723984474E-01  0.35737005818E-01  0.00000000000E+00 0. -1.
  9000001    1    1    2    0    0 -0.48490255520E-02  0.69184852641E-02  0.34723984474E-01  0.35750994182E-01  0.10000000475E-02 0.  1.
</event>
<event>
 4   0  0.4809415E-02  0.9118800E+02  0.7818609E-02  0.1379984E+01
      -11   -1    0    0    0    0  0.00000000000E+00  0.00000000000E+00  0.35740347158E-01  0.35744000000E-01  0.51099999109E-03 0.  1.
       11   -1    0    0    0    0 -0.00000000000E+00 -0.00000000000E+00 -0.35740347158E-01  0.35744000000E-01  0.51099999109E-03 0. -1.
       22    1    1    2    0    0 -0.54786433737E-02 -0.34577759737E-02 -0.35144869284E-01  0.35737005818E-01  0.00000000000E+00 0. -1.
  9000001    1    1    2    0    0  0.54786433737E-02  0.34577759737E-02  0.35144869284E-01  0.35750994182E-01  0.10000000475E-02 0.  1.
</event>
<event>
 4   0  0.4809415E-02  0.9118800E+02  0.7818609E-02  0.1379984E+01
      -11   -1    0    0    0    0  0.00000000000E+00  0.00000000000E+00  0.35740347158E-01  0.35744000000E-01  0.51099999109E-03 0. -1.
       11   -1    0    0    0    0 -0.00000000000E+00 -0.00000000000E+00 -0.35740347158E-01  0.35744000000E-01  0.51099999109E-03 0.  1.
       22    1    1    2    0    0  0.82441741141E-02  0.37908902922E-02  0.34565826026E-01  0.35737005818E-01  0.00000000000E+00 0. -1.
  9000001    1    1    2    0    0 -0.82441741141E-02 -0.37908902922E-02 -0.34565826026E-01  0.35750994182E-01  0.10000000475E-02 0.  1.
</event>
<event>
 4   0  0.4809415E-02  0.9118800E+02  0.7818609E-02  0.1379984E+01
      -11   -1    0    0    0    0  0.00000000000E+00  0.00000000000E+00  0.35740347158E-01  0.35744000000E-01  0.51099999109E-03 0. -1.
       11   -1    0    0    0    0 -0.00000000000E+00 -0.00000000000E+00 -0.35740347158E-01  0.35744000000E-01  0.51099999109E-03 0.  1.
       22    1    1    2    0    0  0.28413096385E-01 -0.18188325505E-01 -0.11790434852E-01  0.35737005818E-01  0.00000000000E+00 0.  1.
  9000001    1    1    2    0    0 -0.28413096385E-01  0.18188325505E-01  0.11790434852E-01  0.35750994182E-01  0.10000000475E-02 0. -1.
</event>
<event>
 4   0  0.4809415E-02  0.9118800E+02  0.7818609E-02  0.1379984E+01
      -11   -1    0    0    0    0  0.00000000000E+00  0.00000000000E+00  0.35740347158E-01  0.35744000000E-01  0.51099999109E-03 0. -1.
       11   -1    0    0    0    0 -0.00000000000E+00 -0.00000000000E+00 -0.35740347158E-01  0.35744000000E-01  0.51099999109E-03 0.  1.
       22    1    1    2    0    0 -0.44809973027E-02  0.43475028492E-02  0.35187404949E-01  0.35737005818E-01  0.00000000000E+00 0. -1.
  9000001    1    1    2    0    0  0.44809973027E-02 -0.43475028492E-02 -0.35187404949E-01  0.35750994182E-01  0.10000000475E-02 0.  1.
</event>
<event>
 4   0  0.4809415E-02  0.9118800E+02  0.7818609E-02  0.1379984E+01
      -11   -1    0    0    0    0  0.00000000000E+00  0.00000000000E+00  0.35740347158E-01  0.35744000000E-01  0.51099999109E-03 0.  1.
       11   -1    0    0    0    0 -0.00000000000E+00 -0.00000000000E+00 -0.35740347158E-01  0.35744000000E-01  0.51099999109E-03 0. -1.
       22    1    1    2    0    0  0.10978094673E-01 -0.87974060141E-02 -0.32851494177E-01  0.35737005818E-01  0.00000000000E+00 0. -1.
  9000001    1    1    2    0    0 -0.10978094673E-01  0.87974060141E-02  0.32851494177E-01  0.35750994182E-01  0.10000000475E-02 0.  1.
</event>
<event>
 4   0  0.4809415E-02  0.9118800E+02  0.7818609E-02  0.1379984E+01
      -11   -1    0    0    0    0  0.00000000000E+00  0.00000000000E+00  0.35740347158E-01  0.35744000000E-01  0.51099999109E-03 0.  1.
       11   -1    0    0    0    0 -0.00000000000E+00 -0.00000000000E+00 -0.35740347158E-01  0.35744000000E-01  0.51099999109E-03 0. -1.
       22    1    1    2    0    0  0.13149644239E-01  0.28281641069E-02 -0.33109242351E-01  0.35737005818E-01  0.00000000000E+00 0. -1.
  9000001    1    1    2    0    0 -0.13149644239E-01 -0.28281641069E-02  0.33109242351E-01  0.35750994182E-01  0.10000000475E-02 0.  1.
</event>
<event>
 4   0  0.4809415E-02  0.9118800E+02  0.7818609E-02  0.1379984E+01
      -11   -1    0    0    0    0  0.00000000000E+00  0.00000000000E+00  0.35740347158E-01  0.35744000000E-01  0.51099999109E-03 0.  1.
       11   -1    0    0    0    0 -0.00000000000E+00 -0.00000000000E+00 -0.35740347158E-01  0.35744000000E-01  0.51099999109E-03 0. -1.
       22    1    1    2    0    0  0.20911165275E-02 -0.19287800501E-01  0.30012356928E-01  0.35737005818E-01  0.00000000000E+00 0.  1.
  9000001    1    1    2    0    0 -0.20911165275E-02  0.19287800501E-01 -0.30012356928E-01  0.35750994182E-01  0.10000000475E-02 0. -1.
</event>
<event>
 4   0  0.4809415E-02  0.9118800E+02  0.7818609E-02  0.1379984E+01
      -11   -1    0    0    0    0  0.00000000000E+00  0.00000000000E+00  0.35740347158E-01  0.35744000000E-01  0.51099999109E-03 0.  1.
       11   -1    0    0    0    0 -0.00000000000E+00 -0.00000000000E+00 -0.35740347158E-01  0.35744000000E-01  0.51099999109E-03 0. -1.
       22    1    1    2    0    0 -0.32321915528E-01 -0.14898893099E-02  0.15172593427E-01  0.35737005818E-01  0.00000000000E+00 0.  1.
  9000001    1    1    2    0    0  0.32321915528E-01  0.14898893099E-02 -0.15172593427E-01  0.35750994182E-01  0.10000000475E-02 0. -1.
</event>
<event>
 4   0  0.4809415E-02  0.9118800E+02  0.7818609E-02  0.1379984E+01
      -11   -1    0    0    0    0  0.00000000000E+00  0.00000000000E+00  0.35740347158E-01  0.35744000000E-01  0.51099999109E-03 0.  1.
       11   -1    0    0    0    0 -0.00000000000E+00 -0.00000000000E+00 -0.35740347158E-01  0.35744000000E-01  0.51099999109E-03 0. -1.
       22    1    1    2    0    0  0.99277854592E-03  0.54137344498E-02 -0.35310613913E-01  0.35737005818E-01  0.00000000000E+00 0. -1.
  9000001    1    1    2    0    0 -0.99277854592E-03 -0.54137344498E-02  0.35310613913E-01  0.35750994182E-01  0.10000000475E-02 0.  1.
</event>
<event>
 4   0  0.4809415E-02  0.9118800E+02  0.7818609E-02  0.1379984E+01
      -11   -1    0    0    0    0  0.00000000000E+00  0.00000000000E+00  0.35740347158E-01  0.35744000000E-01  0.51099999109E-03 0.  1.
       11   -1    0    0    0    0 -0.00000000000E+00 -0.00000000000E+00 -0.35740347158E-01  0.35744000000E-01  0.51099999109E-03 0. -1.
       22    1    1    2    0    0 -0.19952393007E-01 -0.12037211542E-02 -0.29624089076E-01  0.35737005818E-01  0.00000000000E+00 0. -1.
  9000001    1    1    2    0    0  0.19952393007E-01  0.12037211542E-02  0.29624089076E-01  0.35750994182E-01  0.10000000475E-02 0.  1.
</event>
<event>
 4   0  0.4809415E-02  0.9118800E+02  0.7818609E-02  0.1379984E+01
      -11   -1    0    0    0    0  0.00000000000E+00  0.00000000000E+00  0.35740347158E-01  0.35744000000E-01  0.51099999109E-03 0.  1.
       11   -1    0    0    0    0 -0.00000000000E+00 -0.00000000000E+00 -0.35740347158E-01  0.35744000000E-01  0.51099999109E-03 0. -1.
       22    1    1    2    0    0 -0.73847046382E-02  0.13602042198E-02 -0.34939226762E-01  0.35737005818E-01  0.00000000000E+00 0. -1.
  9000001    1    1    2    0    0  0.73847046382E-02 -0.13602042198E-02  0.34939226762E-01  0.35750994182E-01  0.10000000475E-02 0.  1.
</event>
<event>
 4   0  0.4809415E-02  0.9118800E+02  0.7818609E-02  0.1379984E+01
      -11   -1    0    0    0    0  0.00000000000E+00  0.00000000000E+00  0.35740347158E-01  0.35744000000E-01  0.51099999109E-03 0. -1.
       11   -1    0    0    0    0 -0.00000000000E+00 -0.00000000000E+00 -0.35740347158E-01  0.35744000000E-01  0.51099999109E-03 0.  1.
       22    1    1    2    0    0 -0.22543988069E-01 -0.63361195090E-02 -0.26995476961E-01  0.35737005818E-01  0.00000000000E+00 0.  1.
  9000001    1    1    2    0    0  0.22543988069E-01  0.63361195090E-02  0.26995476961E-01  0.35750994182E-01  0.10000000475E-02 0. -1.
</event>
<event>
 4   0  0.4809415E-02  0.9118800E+02  0.7818609E-02  0.1379984E+01
      -11   -1    0    0    0    0  0.00000000000E+00  0.00000000000E+00  0.35740347158E-01  0.35744000000E-01  0.51099999109E-03 0. -1.
       11   -1    0    0    0    0 -0.00000000000E+00 -0.00000000000E+00 -0.35740347158E-01  0.35744000000E-01  0.51099999109E-03 0.  1.
       22    1    1    2    0    0  0.21120366783E-01  0.26367162435E-01 -0.11654888972E-01  0.35737005818E-01  0.00000000000E+00 0. -1.
  9000001    1    1    2    0    0 -0.21120366783E-01 -0.26367162435E-01  0.11654888972E-01  0.35750994182E-01  0.10000000475E-02 0.  1.
</event>
<event>
 4   0  0.4809415E-02  0.9118800E+02  0.7818609E-02  0.1379984E+01
      -11   -1    0    0    0    0  0.00000000000E+00  0.00000000000E+00  0.35740347158E-01  0.35744000000E-01  0.51099999109E-03 0.  1.
       11   -1    0    0    0    0 -0.00000000000E+00 -0.00000000000E+00 -0.35740347158E-01  0.35744000000E-01  0.51099999109E-03 0. -1.
       22    1    1    2    0    0  0.12228505495E-01  0.21618585490E-01 -0.25695018965E-01  0.35737005818E-01  0.00000000000E+00 0. -1.
  9000001    1    1    2    0    0 -0.12228505495E-01 -0.21618585490E-01  0.25695018965E-01  0.35750994182E-01  0.10000000475E-02 0.  1.
</event>
<event>
 4   0  0.4809415E-02  0.9118800E+02  0.7818609E-02  0.1379984E+01
      -11   -1    0    0    0    0  0.00000000000E+00  0.00000000000E+00  0.35740347158E-01  0.35744000000E-01  0.51099999109E-03 0.  1.
       11   -1    0    0    0    0 -0.00000000000E+00 -0.00000000000E+00 -0.35740347158E-01  0.35744000000E-01  0.51099999109E-03 0. -1.
       22    1    1    2    0    0  0.33570598254E-02  0.87786764511E-02 -0.34478958423E-01  0.35737005818E-01  0.00000000000E+00 0. -1.
  9000001    1    1    2    0    0 -0.33570598254E-02 -0.87786764511E-02  0.34478958423E-01  0.35750994182E-01  0.10000000475E-02 0.  1.
</event>
<event>
 4   0  0.4809415E-02  0.9118800E+02  0.7818609E-02  0.1379984E+01
      -11   -1    0    0    0    0  0.00000000000E+00  0.00000000000E+00  0.35740347158E-01  0.35744000000E-01  0.51099999109E-03 0. -1.
       11   -1    0    0    0    0 -0.00000000000E+00 -0.00000000000E+00 -0.35740347158E-01  0.35744000000E-01  0.51099999109E-03 0.  1.
       22    1    1    2    0    0 -0.25367249356E-01  0.23457007681E-01 -0.91326357441E-02  0.35737005818E-01  0.00000000000E+00 0. -1.
  9000001    1    1    2    0    0  0.25367249356E-01 -0.23457007681E-01  0.91326357441E-02  0.35750994182E-01  0.10000000475E-02 0.  1.
</event>
<event>
 4   0  0.4809415E-02  0.9118800E+02  0.7818609E-02  0.1379984E+01
      -11   -1    0    0    0    0  0.00000000000E+00  0.00000000000E+00  0.35740347158E-01  0.35744000000E-01  0.51099999109E-03 0.  1.
       11   -1    0    0    0    0 -0.00000000000E+00 -0.00000000000E+00 -0.35740347158E-01  0.35744000000E-01  0.51099999109E-03 0. -1.
       22    1    1    2    0    0  0.18680612891E-02 -0.27683445601E-02  0.35580615513E-01  0.35737005818E-01  0.00000000000E+00 0.  1.
  9000001    1    1    2    0    0 -0.18680612891E-02  0.27683445601E-02 -0.35580615513E-01  0.35750994182E-01  0.10000000475E-02 0. -1.
</event>
<event>
 4   0  0.4809415E-02  0.9118800E+02  0.7818609E-02  0.1379984E+01
      -11   -1    0    0    0    0  0.00000000000E+00  0.00000000000E+00  0.35740347158E-01  0.35744000000E-01  0.51099999109E-03 0.  1.
       11   -1    0    0    0    0 -0.00000000000E+00 -0.00000000000E+00 -0.35740347158E-01  0.35744000000E-01  0.51099999109E-03 0. -1.
       22    1    1    2    0    0 -0.33620369413E-02  0.32909742228E-02  0.35425976079E-01  0.35737005818E-01  0.00000000000E+00 0.  1.
  9000001    1    1    2    0    0  0.33620369413E-02 -0.32909742228E-02 -0.35425976079E-01  0.35750994182E-01  0.10000000475E-02 0. -1.
</event>
<event>
 4   0  0.4809415E-02  0.9118800E+02  0.7818609E-02  0.1379984E+01
      -11   -1    0    0    0    0  0.00000000000E+00  0.00000000000E+00  0.35740347158E-01  0.35744000000E-01  0.51099999109E-03 0.  1.
       11   -1    0    0    0    0 -0.00000000000E+00 -0.00000000000E+00 -0.35740347158E-01  0.35744000000E-01  0.51099999109E-03 0. -1.
       22    1    1    2    0    0 -0.26809144650E-02 -0.23652129853E-02  0.35557728415E-01  0.35737005818E-01  0.00000000000E+00 0.  1.
  9000001    1    1    2    0    0  0.26809144650E-02  0.23652129853E-02 -0.35557728415E-01  0.35750994182E-01  0.10000000475E-02 0. -1.
</event>
<event>
 4   0  0.4809415E-02  0.9118800E+02  0.7818609E-02  0.1379984E+01
      -11   -1    0    0    0    0  0.00000000000E+00  0.00000000000E+00  0.35740347158E-01  0.35744000000E-01  0.51099999109E-03 0. -1.
       11   -1    0    0    0    0 -0.00000000000E+00 -0.00000000000E+00 -0.35740347158E-01  0.35744000000E-01  0.51099999109E-03 0.  1.
       22    1    1    2    0    0 -0.12084200780E-03 -0.16845011899E-01 -0.31517686403E-01  0.35737005818E-01  0.00000000000E+00 0.  1.
  9000001    1    1    2    0    0  0.12084200780E-03  0.16845011899E-01  0.31517686403E-01  0.35750994182E-01  0.10000000475E-02 0. -1.
</event>
<event>
 4   0  0.4809415E-02  0.9118800E+02  0.7818609E-02  0.1379984E+01
      -11   -1    0    0    0    0  0.00000000000E+00  0.00000000000E+00  0.35740347158E-01  0.35744000000E-01  0.51099999109E-03 0.  1.
       11   -1    0    0    0    0 -0.00000000000E+00 -0.00000000000E+00 -0.35740347158E-01  0.35744000000E-01  0.51099999109E-03 0. -1.
       22    1    1    2    0    0  0.36579730041E-02 -0.80118435584E-03 -0.35540271834E-01  0.35737005818E-01  0.00000000000E+00 0. -1.
  9000001    1    1    2    0    0 -0.36579730041E-02  0.80118435584E-03  0.35540271834E-01  0.35750994182E-01  0.10000000475E-02 0.  1.
</event>
<event>
 4   0  0.4809415E-02  0.9118800E+02  0.7818609E-02  0.1379984E+01
      -11   -1    0    0    0    0  0.00000000000E+00  0.00000000000E+00  0.35740347158E-01  0.35744000000E-01  0.51099999109E-03 0.  1.
       11   -1    0    0    0    0 -0.00000000000E+00 -0.00000000000E+00 -0.35740347158E-01  0.35744000000E-01  0.51099999109E-03 0. -1.
       22    1    1    2    0    0 -0.17237049783E-02  0.13507035814E-01  0.33041222882E-01  0.35737005818E-01  0.00000000000E+00 0.  1.
  9000001    1    1    2    0    0  0.17237049783E-02 -0.13507035814E-01 -0.33041222882E-01  0.35750994182E-01  0.10000000475E-02 0. -1.
</event>
<event>
 4   0  0.4809415E-02  0.9118800E+02  0.7818609E-02  0.1379984E+01
      -11   -1    0    0    0    0  0.00000000000E+00  0.00000000000E+00  0.35740347158E-01  0.35744000000E-01  0.51099999109E-03 0.  1.
       11   -1    0    0    0    0 -0.00000000000E+00 -0.00000000000E+00 -0.35740347158E-01  0.35744000000E-01  0.51099999109E-03 0. -1.
       22    1    1    2    0    0  0.41349851888E-02 -0.15307077561E-02 -0.35463959397E-01  0.35737005818E-01  0.00000000000E+00 0. -1.
  9000001    1    1    2    0    0 -0.41349851888E-02  0.15307077561E-02  0.35463959397E-01  0.35750994182E-01  0.10000000475E-02 0.  1.
</event>
<event>
 4   0  0.4809415E-02  0.9118800E+02  0.7818609E-02  0.1379984E+01
      -11   -1    0    0    0    0  0.00000000000E+00  0.00000000000E+00  0.35740347158E-01  0.35744000000E-01  0.51099999109E-03 0. -1.
       11   -1    0    0    0    0 -0.00000000000E+00 -0.00000000000E+00 -0.35740347158E-01  0.35744000000E-01  0.51099999109E-03 0.  1.
       22    1    1    2    0    0  0.37448220260E-02  0.26441468449E-01 -0.23747813354E-01  0.35737005818E-01  0.00000000000E+00 0.  1.
  9000001    1    1    2    0    0 -0.37448220260E-02 -0.26441468449E-01  0.23747813354E-01  0.35750994182E-01  0.10000000475E-02 0. -1.
</event>
<event>
 4   0  0.4809415E-02  0.9118800E+02  0.7818609E-02  0.1379984E+01
      -11   -1    0    0    0    0  0.00000000000E+00  0.00000000000E+00  0.35740347158E-01  0.35744000000E-01  0.51099999109E-03 0.  1.
       11   -1    0    0    0    0 -0.00000000000E+00 -0.00000000000E+00 -0.35740347158E-01  0.35744000000E-01  0.51099999109E-03 0. -1.
       22    1    1    2    0    0  0.12012171354E-01 -0.88450341841E-02  0.32474708536E-01  0.35737005818E-01  0.00000000000E+00 0.  1.
  9000001    1    1    2    0    0 -0.12012171354E-01  0.88450341841E-02 -0.32474708536E-01  0.35750994182E-01  0.10000000475E-02 0. -1.
</event>
<event>
 4   0  0.4809415E-02  0.9118800E+02  0.7818609E-02  0.1379984E+01
      -11   -1    0    0    0    0  0.00000000000E+00  0.00000000000E+00  0.35740347158E-01  0.35744000000E-01  0.51099999109E-03 0.  1.
       11   -1    0    0    0    0 -0.00000000000E+00 -0.00000000000E+00 -0.35740347158E-01  0.35744000000E-01  0.51099999109E-03 0. -1.
       22    1    1    2    0    0  0.19746162270E-01 -0.16260813969E-01  0.24956133306E-01  0.35737005818E-01  0.00000000000E+00 0.  1.
  9000001    1    1    2    0    0 -0.19746162270E-01  0.16260813969E-01 -0.24956133306E-01  0.35750994182E-01  0.10000000475E-02 0. -1.
</event>
<event>
 4   0  0.4809415E-02  0.9118800E+02  0.7818609E-02  0.1379984E+01
      -11   -1    0    0    0    0  0.00000000000E+00  0.00000000000E+00  0.35740347158E-01  0.35744000000E-01  0.51099999109E-03 0.  1.
       11   -1    0    0    0    0 -0.00000000000E+00 -0.00000000000E+00 -0.35740347158E-01  0.35744000000E-01  0.51099999109E-03 0. -1.
       22    1    1    2    0    0  0.33867634725E-02  0.43207410430E-03  0.35573539745E-01  0.35737005818E-01  0.00000000000E+00 0.  1.
  9000001    1    1    2    0    0 -0.33867634725E-02 -0.43207410430E-03 -0.35573539745E-01  0.35750994182E-01  0.10000000475E-02 0. -1.
</event>
<event>
 4   0  0.4809415E-02  0.9118800E+02  0.7818609E-02  0.1379984E+01
      -11   -1    0    0    0    0  0.00000000000E+00  0.00000000000E+00  0.35740347158E-01  0.35744000000E-01  0.51099999109E-03 0. -1.
       11   -1    0    0    0    0 -0.00000000000E+00 -0.00000000000E+00 -0.35740347158E-01  0.35744000000E-01  0.51099999109E-03 0.  1.
       22    1    1    2    0    0 -0.33834829094E-02 -0.60927215933E-02  0.35050882612E-01  0.35737005818E-01  0.00000000000E+00 0. -1.
  9000001    1    1    2    0    0  0.33834829094E-02  0.60927215933E-02 -0.35050882612E-01  0.35750994182E-01  0.10000000475E-02 0.  1.
</event>
<event>
 4   0  0.4809415E-02  0.9118800E+02  0.7818609E-02  0.1379984E+01
      -11   -1    0    0    0    0  0.00000000000E+00  0.00000000000E+00  0.35740347158E-01  0.35744000000E-01  0.51099999109E-03 0. -1.
       11   -1    0    0    0    0 -0.00000000000E+00 -0.00000000000E+00 -0.35740347158E-01  0.35744000000E-01  0.51099999109E-03 0.  1.
       22    1    1    2    0    0 -0.14430923618E-01 -0.15648320025E-01  0.28705611103E-01  0.35737005818E-01  0.00000000000E+00 0. -1.
  9000001    1    1    2    0    0  0.14430923618E-01  0.15648320025E-01 -0.28705611103E-01  0.35750994182E-01  0.10000000475E-02 0.  1.
</event>
<event>
 4   0  0.4809415E-02  0.9118800E+02  0.7818609E-02  0.1379984E+01
      -11   -1    0    0    0    0  0.00000000000E+00  0.00000000000E+00  0.35740347158E-01  0.35744000000E-01  0.51099999109E-03 0. -1.
       11   -1    0    0    0    0 -0.00000000000E+00 -0.00000000000E+00 -0.35740347158E-01  0.35744000000E-01  0.51099999109E-03 0.  1.
       22    1    1    2    0    0 -0.37383939903E-02 -0.20325957165E-01 -0.29154990320E-01  0.35737005818E-01  0.00000000000E+00 0.  1.
  9000001    1    1    2    0    0  0.37383939903E-02  0.20325957165E-01  0.29154990320E-01  0.35750994182E-01  0.10000000475E-02 0. -1.
</event>
<event>
 4   0  0.4809415E-02  0.9118800E+02  0.7818609E-02  0.1379984E+01
      -11   -1    0    0    0    0  0.00000000000E+00  0.00000000000E+00  0.35740347158E-01  0.35744000000E-01  0.51099999109E-03 0. -1.
       11   -1    0    0    0    0 -0.00000000000E+00 -0.00000000000E+00 -0.35740347158E-01  0.35744000000E-01  0.51099999109E-03 0.  1.
       22    1    1    2    0    0  0.28435465308E-01  0.64870475833E-02 -0.20651298052E-01  0.35737005818E-01  0.00000000000E+00 0.  1.
  9000001    1    1    2    0    0 -0.28435465308E-01 -0.64870475833E-02  0.20651298052E-01  0.35750994182E-01  0.10000000475E-02 0. -1.
</event>
<event>
 4   0  0.4809415E-02  0.9118800E+02  0.7818609E-02  0.1379984E+01
      -11   -1    0    0    0    0  0.00000000000E+00  0.00000000000E+00  0.35740347158E-01  0.35744000000E-01  0.51099999109E-03 0.  1.
       11   -1    0    0    0    0 -0.00000000000E+00 -0.00000000000E+00 -0.35740347158E-01  0.35744000000E-01  0.51099999109E-03 0. -1.
       22    1    1    2    0    0 -0.89977099303E-02 -0.86123306861E-02 -0.33496306678E-01  0.35737005818E-01  0.00000000000E+00 0. -1.
  9000001    1    1    2    0    0  0.89977099303E-02  0.86123306861E-02  0.33496306678E-01  0.35750994182E-01  0.10000000475E-02 0.  1.
</event>
<event>
 4   0  0.4809415E-02  0.9118800E+02  0.7818609E-02  0.1379984E+01
      -11   -1    0    0    0    0  0.00000000000E+00  0.00000000000E+00  0.35740347158E-01  0.35744000000E-01  0.51099999109E-03 0. -1.
       11   -1    0    0    0    0 -0.00000000000E+00 -0.00000000000E+00 -0.35740347158E-01  0.35744000000E-01  0.51099999109E-03 0.  1.
       22    1    1    2    0    0  0.23436617628E-03  0.36547148360E-02  0.35548863791E-01  0.35737005818E-01  0.00000000000E+00 0. -1.
  9000001    1    1    2    0    0 -0.23436617628E-03 -0.36547148360E-02 -0.35548863791E-01  0.35750994182E-01  0.10000000475E-02 0.  1.
</event>
<event>
 4   0  0.4809415E-02  0.9118800E+02  0.7818609E-02  0.1379984E+01
      -11   -1    0    0    0    0  0.00000000000E+00  0.00000000000E+00  0.35740347158E-01  0.35744000000E-01  0.51099999109E-03 0. -1.
       11   -1    0    0    0    0 -0.00000000000E+00 -0.00000000000E+00 -0.35740347158E-01  0.35744000000E-01  0.51099999109E-03 0.  1.
       22    1    1    2    0    0 -0.33871674301E-02 -0.30040600095E-02 -0.35449066351E-01  0.35737005818E-01  0.00000000000E+00 0.  1.
  9000001    1    1    2    0    0  0.33871674301E-02  0.30040600095E-02  0.35449066351E-01  0.35750994182E-01  0.10000000475E-02 0. -1.
</event>
<event>
 4   0  0.4809415E-02  0.9118800E+02  0.7818609E-02  0.1379984E+01
      -11   -1    0    0    0    0  0.00000000000E+00  0.00000000000E+00  0.35740347158E-01  0.35744000000E-01  0.51099999109E-03 0.  1.
       11   -1    0    0    0    0 -0.00000000000E+00 -0.00000000000E+00 -0.35740347158E-01  0.35744000000E-01  0.51099999109E-03 0. -1.
       22    1    1    2    0    0 -0.50137939615E-03 -0.43377585822E-02 -0.35469226860E-01  0.35737005818E-01  0.00000000000E+00 0. -1.
  9000001    1    1    2    0    0  0.50137939615E-03  0.43377585822E-02  0.35469226860E-01  0.35750994182E-01  0.10000000475E-02 0.  1.
</event>
<event>
 4   0  0.4809415E-02  0.9118800E+02  0.7818609E-02  0.1379984E+01
      -11   -1    0    0    0    0  0.00000000000E+00  0.00000000000E+00  0.35740347158E-01  0.35744000000E-01  0.51099999109E-03 0. -1.
       11   -1    0    0    0    0 -0.00000000000E+00 -0.00000000000E+00 -0.35740347158E-01  0.35744000000E-01  0.51099999109E-03 0.  1.
       22    1    1    2    0    0 -0.23037810338E-02 -0.19974701953E-02  0.35606688847E-01  0.35737005818E-01  0.00000000000E+00 0. -1.
  9000001    1    1    2    0    0  0.23037810338E-02  0.19974701953E-02 -0.35606688847E-01  0.35750994182E-01  0.10000000475E-02 0.  1.
</event>
<event>
 4   0  0.4809415E-02  0.9118800E+02  0.7818609E-02  0.1379984E+01
      -11   -1    0    0    0    0  0.00000000000E+00  0.00000000000E+00  0.35740347158E-01  0.35744000000E-01  0.51099999109E-03 0.  1.
       11   -1    0    0    0    0 -0.00000000000E+00 -0.00000000000E+00 -0.35740347158E-01  0.35744000000E-01  0.51099999109E-03 0. -1.
       22    1    1    2    0    0 -0.28579034050E-02 -0.23847242421E-01 -0.26462709648E-01  0.35737005818E-01  0.00000000000E+00 0. -1.
  9000001    1    1    2    0    0  0.28579034050E-02  0.23847242421E-01  0.26462709648E-01  0.35750994182E-01  0.10000000475E-02 0.  1.
</event>
<event>
 4   0  0.4809415E-02  0.9118800E+02  0.7818609E-02  0.1379984E+01
      -11   -1    0    0    0    0  0.00000000000E+00  0.00000000000E+00  0.35740347158E-01  0.35744000000E-01  0.51099999109E-03 0. -1.
       11   -1    0    0    0    0 -0.00000000000E+00 -0.00000000000E+00 -0.35740347158E-01  0.35744000000E-01  0.51099999109E-03 0.  1.
       22    1    1    2    0    0  0.53951992400E-02 -0.66212696735E-02 -0.34701357293E-01  0.35737005818E-01  0.00000000000E+00 0.  1.
  9000001    1    1    2    0    0 -0.53951992400E-02  0.66212696735E-02  0.34701357293E-01  0.35750994182E-01  0.10000000475E-02 0. -1.
</event>
<event>
 4   0  0.4809415E-02  0.9118800E+02  0.7818609E-02  0.1379984E+01
      -11   -1    0    0    0    0  0.00000000000E+00  0.00000000000E+00  0.35740347158E-01  0.35744000000E-01  0.51099999109E-03 0. -1.
       11   -1    0    0    0    0 -0.00000000000E+00 -0.00000000000E+00 -0.35740347158E-01  0.35744000000E-01  0.51099999109E-03 0.  1.
       22    1    1    2    0    0 -0.60745455121E-02 -0.10041403090E-01  0.33755054520E-01  0.35737005818E-01  0.00000000000E+00 0. -1.
  9000001    1    1    2    0    0  0.60745455121E-02  0.10041403090E-01 -0.33755054520E-01  0.35750994182E-01  0.10000000475E-02 0.  1.
</event>
<event>
 4   0  0.4809415E-02  0.9118800E+02  0.7818609E-02  0.1379984E+01
      -11   -1    0    0    0    0  0.00000000000E+00  0.00000000000E+00  0.35740347158E-01  0.35744000000E-01  0.51099999109E-03 0. -1.
       11   -1    0    0    0    0 -0.00000000000E+00 -0.00000000000E+00 -0.35740347158E-01  0.35744000000E-01  0.51099999109E-03 0.  1.
       22    1    1    2    0    0 -0.29691760164E-02 -0.12160358414E-01 -0.33473022898E-01  0.35737005818E-01  0.00000000000E+00 0.  1.
  9000001    1    1    2    0    0  0.29691760164E-02  0.12160358414E-01  0.33473022898E-01  0.35750994182E-01  0.10000000475E-02 0. -1.
</event>
<event>
 4   0  0.4809415E-02  0.9118800E+02  0.7818609E-02  0.1379984E+01
      -11   -1    0    0    0    0  0.00000000000E+00  0.00000000000E+00  0.35740347158E-01  0.35744000000E-01  0.51099999109E-03 0. -1.
       11   -1    0    0    0    0 -0.00000000000E+00 -0.00000000000E+00 -0.35740347158E-01  0.35744000000E-01  0.51099999109E-03 0.  1.
       22    1    1    2    0    0 -0.31225365032E-01  0.53112427957E-02 -0.16549950558E-01  0.35737005818E-01  0.00000000000E+00 0.  1.
  9000001    1    1    2    0    0  0.31225365032E-01 -0.53112427957E-02  0.16549950558E-01  0.35750994182E-01  0.10000000475E-02 0. -1.
</event>
<event>
 4   0  0.4809415E-02  0.9118800E+02  0.7818609E-02  0.1379984E+01
      -11   -1    0    0    0    0  0.00000000000E+00  0.00000000000E+00  0.35740347158E-01  0.35744000000E-01  0.51099999109E-03 0. -1.
       11   -1    0    0    0    0 -0.00000000000E+00 -0.00000000000E+00 -0.35740347158E-01  0.35744000000E-01  0.51099999109E-03 0.  1.
       22    1    1    2    0    0 -0.14707826987E-02 -0.84977859514E-02  0.34680801851E-01  0.35737005818E-01  0.00000000000E+00 0. -1.
  9000001    1    1    2    0    0  0.14707826987E-02  0.84977859514E-02 -0.34680801851E-01  0.35750994182E-01  0.10000000475E-02 0.  1.
</event>
<event>
 4   0  0.4809415E-02  0.9118800E+02  0.7818609E-02  0.1379984E+01
      -11   -1    0    0    0    0  0.00000000000E+00  0.00000000000E+00  0.35740347158E-01  0.35744000000E-01  0.51099999109E-03 0.  1.
       11   -1    0    0    0    0 -0.00000000000E+00 -0.00000000000E+00 -0.35740347158E-01  0.35744000000E-01  0.51099999109E-03 0. -1.
       22    1    1    2    0    0 -0.58634563885E-02 -0.21545423242E-01  0.27902476618E-01  0.35737005818E-01  0.00000000000E+00 0.  1.
  9000001    1    1    2    0    0  0.58634563885E-02  0.21545423242E-01 -0.27902476618E-01  0.35750994182E-01  0.10000000475E-02 0. -1.
</event>
<event>
 4   0  0.4809415E-02  0.9118800E+02  0.7818609E-02  0.1379984E+01
      -11   -1    0    0    0    0  0.00000000000E+00  0.00000000000E+00  0.35740347158E-01  0.35744000000E-01  0.51099999109E-03 0. -1.
       11   -1    0    0    0    0 -0.00000000000E+00 -0.00000000000E+00 -0.35740347158E-01  0.35744000000E-01  0.51099999109E-03 0.  1.
       22    1    1    2    0    0  0.20325110193E-01  0.12376619640E-01  0.26661634736E-01  0.35737005818E-01  0.00000000000E+00 0. -1.
  9000001    1    1    2    0    0 -0.20325110193E-01 -0.12376619640E-01 -0.26661634736E-01  0.35750994182E-01  0.10000000475E-02 0.  1.
</event>
<event>
 4   0  0.4809415E-02  0.9118800E+02  0.7818609E-02  0.1379984E+01
      -11   -1    0    0    0    0  0.00000000000E+00  0.00000000000E+00  0.35740347158E-01  0.35744000000E-01  0.51099999109E-03 0.  1.
       11   -1    0    0    0    0 -0.00000000000E+00 -0.00000000000E+00 -0.35740347158E-01  0.35744000000E-01  0.51099999109E-03 0. -1.
       22    1    1    2    0    0  0.16128090317E-01 -0.21716779317E-02 -0.31816695343E-01  0.35737005818E-01  0.00000000000E+00 0. -1.
  9000001    1    1    2    0    0 -0.16128090317E-01  0.21716779317E-02  0.31816695343E-01  0.35750994182E-01  0.10000000475E-02 0.  1.
</event>
<event>
 4   0  0.4809415E-02  0.9118800E+02  0.7818609E-02  0.1379984E+01
      -11   -1    0    0    0    0  0.00000000000E+00  0.00000000000E+00  0.35740347158E-01  0.35744000000E-01  0.51099999109E-03 0. -1.
       11   -1    0    0    0    0 -0.00000000000E+00 -0.00000000000E+00 -0.35740347158E-01  0.35744000000E-01  0.51099999109E-03 0.  1.
       22    1    1    2    0    0 -0.17159213307E-01 -0.44243989324E-02  0.31034169517E-01  0.35737005818E-01  0.00000000000E+00 0. -1.
  9000001    1    1    2    0    0  0.17159213307E-01  0.44243989324E-02 -0.31034169517E-01  0.35750994182E-01  0.10000000475E-02 0.  1.
</event>
<event>
 4   0  0.4809415E-02  0.9118800E+02  0.7818609E-02  0.1379984E+01
      -11   -1    0    0    0    0  0.00000000000E+00  0.00000000000E+00  0.35740347158E-01  0.35744000000E-01  0.51099999109E-03 0.  1.
       11   -1    0    0    0    0 -0.00000000000E+00 -0.00000000000E+00 -0.35740347158E-01  0.35744000000E-01  0.51099999109E-03 0. -1.
       22    1    1    2    0    0  0.19894276873E-01  0.56756637425E-02  0.29139975526E-01  0.35737005818E-01  0.00000000000E+00 0.  1.
  9000001    1    1    2    0    0 -0.19894276873E-01 -0.56756637425E-02 -0.29139975526E-01  0.35750994182E-01  0.10000000475E-02 0. -1.
</event>
<event>
 4   0  0.4809415E-02  0.9118800E+02  0.7818609E-02  0.1379984E+01
      -11   -1    0    0    0    0  0.00000000000E+00  0.00000000000E+00  0.35740347158E-01  0.35744000000E-01  0.51099999109E-03 0. -1.
       11   -1    0    0    0    0 -0.00000000000E+00 -0.00000000000E+00 -0.35740347158E-01  0.35744000000E-01  0.51099999109E-03 0.  1.
       22    1    1    2    0    0  0.11945037450E-01 -0.11652678130E-01 -0.31601657514E-01  0.35737005818E-01  0.00000000000E+00 0.  1.
  9000001    1    1    2    0    0 -0.11945037450E-01  0.11652678130E-01  0.31601657514E-01  0.35750994182E-01  0.10000000475E-02 0. -1.
</event>
<event>
 4   0  0.4809415E-02  0.9118800E+02  0.7818609E-02  0.1379984E+01
      -11   -1    0    0    0    0  0.00000000000E+00  0.00000000000E+00  0.35740347158E-01  0.35744000000E-01  0.51099999109E-03 0. -1.
       11   -1    0    0    0    0 -0.00000000000E+00 -0.00000000000E+00 -0.35740347158E-01  0.35744000000E-01  0.51099999109E-03 0.  1.
       22    1    1    2    0    0  0.77217839752E-02 -0.75356649009E-02  0.34069361479E-01  0.35737005818E-01  0.00000000000E+00 0. -1.
  9000001    1    1    2    0    0 -0.77217839752E-02  0.75356649009E-02 -0.34069361479E-01  0.35750994182E-01  0.10000000475E-02 0.  1.
</event>
<event>
 4   0  0.4809415E-02  0.9118800E+02  0.7818609E-02  0.1379984E+01
      -11   -1    0    0    0    0  0.00000000000E+00  0.00000000000E+00  0.35740347158E-01  0.35744000000E-01  0.51099999109E-03 0. -1.
       11   -1    0    0    0    0 -0.00000000000E+00 -0.00000000000E+00 -0.35740347158E-01  0.35744000000E-01  0.51099999109E-03 0.  1.
       22    1    1    2    0    0  0.18404354850E-02  0.52831809003E-02  0.35296379158E-01  0.35737005818E-01  0.00000000000E+00 0. -1.
  9000001    1    1    2    0    0 -0.18404354850E-02 -0.52831809003E-02 -0.35296379158E-01  0.35750994182E-01  0.10000000475E-02 0.  1.
</event>
<event>
 4   0  0.4809415E-02  0.9118800E+02  0.7818609E-02  0.1379984E+01
      -11   -1    0    0    0    0  0.00000000000E+00  0.00000000000E+00  0.35740347158E-01  0.35744000000E-01  0.51099999109E-03 0.  1.
       11   -1    0    0    0    0 -0.00000000000E+00 -0.00000000000E+00 -0.35740347158E-01  0.35744000000E-01  0.51099999109E-03 0. -1.
       22    1    1    2    0    0 -0.56709541489E-02 -0.86838138983E-03 -0.35273499652E-01  0.35737005818E-01  0.00000000000E+00 0. -1.
  9000001    1    1    2    0    0  0.56709541489E-02  0.86838138983E-03  0.35273499652E-01  0.35750994182E-01  0.10000000475E-02 0.  1.
</event>
<event>
 4   0  0.4809415E-02  0.9118800E+02  0.7818609E-02  0.1379984E+01
      -11   -1    0    0    0    0  0.00000000000E+00  0.00000000000E+00  0.35740347158E-01  0.35744000000E-01  0.51099999109E-03 0.  1.
       11   -1    0    0    0    0 -0.00000000000E+00 -0.00000000000E+00 -0.35740347158E-01  0.35744000000E-01  0.51099999109E-03 0. -1.
       22    1    1    2    0    0 -0.27472661640E-02  0.35534265321E-02 -0.35453621442E-01  0.35737005818E-01  0.00000000000E+00 0. -1.
  9000001    1    1    2    0    0  0.27472661640E-02 -0.35534265321E-02  0.35453621442E-01  0.35750994182E-01  0.10000000475E-02 0.  1.
</event>
<event>
 4   0  0.4809415E-02  0.9118800E+02  0.7818609E-02  0.1379984E+01
      -11   -1    0    0    0    0  0.00000000000E+00  0.00000000000E+00  0.35740347158E-01  0.35744000000E-01  0.51099999109E-03 0.  1.
       11   -1    0    0    0    0 -0.00000000000E+00 -0.00000000000E+00 -0.35740347158E-01  0.35744000000E-01  0.51099999109E-03 0. -1.
       22    1    1    2    0    0 -0.20767699998E-01  0.21620804623E-01  0.19451915821E-01  0.35737005818E-01  0.00000000000E+00 0.  1.
  9000001    1    1    2    0    0  0.20767699998E-01 -0.21620804623E-01 -0.19451915821E-01  0.35750994182E-01  0.10000000475E-02 0. -1.
</event>
<event>
 4   0  0.4809415E-02  0.9118800E+02  0.7818609E-02  0.1379984E+01
      -11   -1    0    0    0    0  0.00000000000E+00  0.00000000000E+00  0.35740347158E-01  0.35744000000E-01  0.51099999109E-03 0.  1.
       11   -1    0    0    0    0 -0.00000000000E+00 -0.00000000000E+00 -0.35740347158E-01  0.35744000000E-01  0.51099999109E-03 0. -1.
       22    1    1    2    0    0 -0.23437377818E-01 -0.24950207909E-01  0.10262067588E-01  0.35737005818E-01  0.00000000000E+00 0.  1.
  9000001    1    1    2    0    0  0.23437377818E-01  0.24950207909E-01 -0.10262067588E-01  0.35750994182E-01  0.10000000475E-02 0. -1.
</event>
<event>
 4   0  0.4809415E-02  0.9118800E+02  0.7818609E-02  0.1379984E+01
      -11   -1    0    0    0    0  0.00000000000E+00  0.00000000000E+00  0.35740347158E-01  0.35744000000E-01  0.51099999109E-03 0.  1.
       11   -1    0    0    0    0 -0.00000000000E+00 -0.00000000000E+00 -0.35740347158E-01  0.35744000000E-01  0.51099999109E-03 0. -1.
       22    1    1    2    0    0 -0.90620371121E-02 -0.18412554365E-02 -0.34519890595E-01  0.35737005818E-01  0.00000000000E+00 0. -1.
  9000001    1    1    2    0    0  0.90620371121E-02  0.18412554365E-02  0.34519890595E-01  0.35750994182E-01  0.10000000475E-02 0.  1.
</event>
<event>
 4   0  0.4809415E-02  0.9118800E+02  0.7818609E-02  0.1379984E+01
      -11   -1    0    0    0    0  0.00000000000E+00  0.00000000000E+00  0.35740347158E-01  0.35744000000E-01  0.51099999109E-03 0. -1.
       11   -1    0    0    0    0 -0.00000000000E+00 -0.00000000000E+00 -0.35740347158E-01  0.35744000000E-01  0.51099999109E-03 0.  1.
       22    1    1    2    0    0  0.47002559017E-02  0.17899285282E-02  0.35381313362E-01  0.35737005818E-01  0.00000000000E+00 0. -1.
  9000001    1    1    2    0    0 -0.47002559017E-02 -0.17899285282E-02 -0.35381313362E-01  0.35750994182E-01  0.10000000475E-02 0.  1.
</event>
<event>
 4   0  0.4809415E-02  0.9118800E+02  0.7818609E-02  0.1379984E+01
      -11   -1    0    0    0    0  0.00000000000E+00  0.00000000000E+00  0.35740347158E-01  0.35744000000E-01  0.51099999109E-03 0. -1.
       11   -1    0    0    0    0 -0.00000000000E+00 -0.00000000000E+00 -0.35740347158E-01  0.35744000000E-01  0.51099999109E-03 0.  1.
       22    1    1    2    0    0  0.94298166077E-02  0.28363590921E-02 -0.34353561835E-01  0.35737005818E-01  0.00000000000E+00 0.  1.
  9000001    1    1    2    0    0 -0.94298166077E-02 -0.28363590921E-02  0.34353561835E-01  0.35750994182E-01  0.10000000475E-02 0. -1.
</event>
<event>
 4   0  0.4809415E-02  0.9118800E+02  0.7818609E-02  0.1379984E+01
      -11   -1    0    0    0    0  0.00000000000E+00  0.00000000000E+00  0.35740347158E-01  0.35744000000E-01  0.51099999109E-03 0. -1.
       11   -1    0    0    0    0 -0.00000000000E+00 -0.00000000000E+00 -0.35740347158E-01  0.35744000000E-01  0.51099999109E-03 0.  1.
       22    1    1    2    0    0 -0.41446649988E-02  0.50551435648E-02  0.35134041334E-01  0.35737005818E-01  0.00000000000E+00 0. -1.
  9000001    1    1    2    0    0  0.41446649988E-02 -0.50551435648E-02 -0.35134041334E-01  0.35750994182E-01  0.10000000475E-02 0.  1.
</event>
<event>
 4   0  0.4809415E-02  0.9118800E+02  0.7818609E-02  0.1379984E+01
      -11   -1    0    0    0    0  0.00000000000E+00  0.00000000000E+00  0.35740347158E-01  0.35744000000E-01  0.51099999109E-03 0.  1.
       11   -1    0    0    0    0 -0.00000000000E+00 -0.00000000000E+00 -0.35740347158E-01  0.35744000000E-01  0.51099999109E-03 0. -1.
       22    1    1    2    0    0  0.12306792138E-01 -0.33137602075E-01 -0.52512646882E-02  0.35737005818E-01  0.00000000000E+00 0.  1.
  9000001    1    1    2    0    0 -0.12306792138E-01  0.33137602075E-01  0.52512646882E-02  0.35750994182E-01  0.10000000475E-02 0. -1.
</event>
<event>
 4   0  0.4809415E-02  0.9118800E+02  0.7818609E-02  0.1379984E+01
      -11   -1    0    0    0    0  0.00000000000E+00  0.00000000000E+00  0.35740347158E-01  0.35744000000E-01  0.51099999109E-03 0. -1.
       11   -1    0    0    0    0 -0.00000000000E+00 -0.00000000000E+00 -0.35740347158E-01  0.35744000000E-01  0.51099999109E-03 0.  1.
       22    1    1    2    0    0 -0.14294177516E-01  0.13188912778E-01  0.29981038237E-01  0.35737005818E-01  0.00000000000E+00 0. -1.
  9000001    1    1    2    0    0  0.14294177516E-01 -0.13188912778E-01 -0.29981038237E-01  0.35750994182E-01  0.10000000475E-02 0.  1.
</event>
<event>
 4   0  0.4809415E-02  0.9118800E+02  0.7818609E-02  0.1379984E+01
      -11   -1    0    0    0    0  0.00000000000E+00  0.00000000000E+00  0.35740347158E-01  0.35744000000E-01  0.51099999109E-03 0. -1.
       11   -1    0    0    0    0 -0.00000000000E+00 -0.00000000000E+00 -0.35740347158E-01  0.35744000000E-01  0.51099999109E-03 0.  1.
       22    1    1    2    0    0 -0.84203510733E-02  0.28222953717E-02 -0.34615977836E-01  0.35737005818E-01  0.00000000000E+00 0.  1.
  9000001    1    1    2    0    0  0.84203510733E-02 -0.28222953717E-02  0.34615977836E-01  0.35750994182E-01  0.10000000475E-02 0. -1.
</event>
<event>
 4   0  0.4809415E-02  0.9118800E+02  0.7818609E-02  0.1379984E+01
      -11   -1    0    0    0    0  0.00000000000E+00  0.00000000000E+00  0.35740347158E-01  0.35744000000E-01  0.51099999109E-03 0. -1.
       11   -1    0    0    0    0 -0.00000000000E+00 -0.00000000000E+00 -0.35740347158E-01  0.35744000000E-01  0.51099999109E-03 0.  1.
       22    1    1    2    0    0 -0.12503779466E-02 -0.61710515653E-02 -0.35177951368E-01  0.35737005818E-01  0.00000000000E+00 0.  1.
  9000001    1    1    2    0    0  0.12503779466E-02  0.61710515653E-02  0.35177951368E-01  0.35750994182E-01  0.10000000475E-02 0. -1.
</event>
<event>
 4   0  0.4809415E-02  0.9118800E+02  0.7818609E-02  0.1379984E+01
      -11   -1    0    0    0    0  0.00000000000E+00  0.00000000000E+00  0.35740347158E-01  0.35744000000E-01  0.51099999109E-03 0.  1.
       11   -1    0    0    0    0 -0.00000000000E+00 -0.00000000000E+00 -0.35740347158E-01  0.35744000000E-01  0.51099999109E-03 0. -1.
       22    1    1    2    0    0  0.35466068788E-02  0.46978727243E-04 -0.35560553392E-01  0.35737005818E-01  0.00000000000E+00 0. -1.
  9000001    1    1    2    0    0 -0.35466068788E-02 -0.46978727243E-04  0.35560553392E-01  0.35750994182E-01  0.10000000475E-02 0.  1.
</event>
<event>
 4   0  0.4809415E-02  0.9118800E+02  0.7818609E-02  0.1379984E+01
      -11   -1    0    0    0    0  0.00000000000E+00  0.00000000000E+00  0.35740347158E-01  0.35744000000E-01  0.51099999109E-03 0.  1.
       11   -1    0    0    0    0 -0.00000000000E+00 -0.00000000000E+00 -0.35740347158E-01  0.35744000000E-01  0.51099999109E-03 0. -1.
       22    1    1    2    0    0 -0.20916621738E-01 -0.30665294739E-03  0.28974721464E-01  0.35737005818E-01  0.00000000000E+00 0.  1.
  9000001    1    1    2    0    0  0.20916621738E-01  0.30665294739E-03 -0.28974721464E-01  0.35750994182E-01  0.10000000475E-02 0. -1.
</event>
<event>
 4   0  0.4809415E-02  0.9118800E+02  0.7818609E-02  0.1379984E+01
      -11   -1    0    0    0    0  0.00000000000E+00  0.00000000000E+00  0.35740347158E-01  0.35744000000E-01  0.51099999109E-03 0.  1.
       11   -1    0    0    0    0 -0.00000000000E+00 -0.00000000000E+00 -0.35740347158E-01  0.35744000000E-01  0.51099999109E-03 0. -1.
       22    1    1    2    0    0 -0.74228743810E-02 -0.58182664415E-02 -0.34470020255E-01  0.35737005818E-01  0.00000000000E+00 0. -1.
  9000001    1    1    2    0    0  0.74228743810E-02  0.58182664415E-02  0.34470020255E-01  0.35750994182E-01  0.10000000475E-02 0.  1.
</event>
<event>
 4   0  0.4809415E-02  0.9118800E+02  0.7818609E-02  0.1379984E+01
      -11   -1    0    0    0    0  0.00000000000E+00  0.00000000000E+00  0.35740347158E-01  0.35744000000E-01  0.51099999109E-03 0. -1.
       11   -1    0    0    0    0 -0.00000000000E+00 -0.00000000000E+00 -0.35740347158E-01  0.35744000000E-01  0.51099999109E-03 0.  1.
       22    1    1    2    0    0  0.52828759228E-02  0.17673596488E-01 -0.30608312499E-01  0.35737005818E-01  0.00000000000E+00 0.  1.
  9000001    1    1    2    0    0 -0.52828759228E-02 -0.17673596488E-01  0.30608312499E-01  0.35750994182E-01  0.10000000475E-02 0. -1.
</event>
<event>
 4   0  0.4809415E-02  0.9118800E+02  0.7818609E-02  0.1379984E+01
      -11   -1    0    0    0    0  0.00000000000E+00  0.00000000000E+00  0.35740347158E-01  0.35744000000E-01  0.51099999109E-03 0.  1.
       11   -1    0    0    0    0 -0.00000000000E+00 -0.00000000000E+00 -0.35740347158E-01  0.35744000000E-01  0.51099999109E-03 0. -1.
       22    1    1    2    0    0 -0.37202597317E-02  0.32272733012E-02  0.35396016152E-01  0.35737005818E-01  0.00000000000E+00 0.  1.
  9000001    1    1    2    0    0  0.37202597317E-02 -0.32272733012E-02 -0.35396016152E-01  0.35750994182E-01  0.10000000475E-02 0. -1.
</event>
<event>
 4   0  0.4809415E-02  0.9118800E+02  0.7818609E-02  0.1379984E+01
      -11   -1    0    0    0    0  0.00000000000E+00  0.00000000000E+00  0.35740347158E-01  0.35744000000E-01  0.51099999109E-03 0. -1.
       11   -1    0    0    0    0 -0.00000000000E+00 -0.00000000000E+00 -0.35740347158E-01  0.35744000000E-01  0.51099999109E-03 0.  1.
       22    1    1    2    0    0 -0.91439199710E-02 -0.17892137026E-01 -0.29553235780E-01  0.35737005818E-01  0.00000000000E+00 0.  1.
  9000001    1    1    2    0    0  0.91439199710E-02  0.17892137026E-01  0.29553235780E-01  0.35750994182E-01  0.10000000475E-02 0. -1.
</event>
<event>
 4   0  0.4809415E-02  0.9118800E+02  0.7818609E-02  0.1379984E+01
      -11   -1    0    0    0    0  0.00000000000E+00  0.00000000000E+00  0.35740347158E-01  0.35744000000E-01  0.51099999109E-03 0.  1.
       11   -1    0    0    0    0 -0.00000000000E+00 -0.00000000000E+00 -0.35740347158E-01  0.35744000000E-01  0.51099999109E-03 0. -1.
       22    1    1    2    0    0  0.19149321839E-02 -0.65386237080E-02  0.35081519631E-01  0.35737005818E-01  0.00000000000E+00 0.  1.
  9000001    1    1    2    0    0 -0.19149321839E-02  0.65386237080E-02 -0.35081519631E-01  0.35750994182E-01  0.10000000475E-02 0. -1.
</event>
<event>
 4   0  0.4809415E-02  0.9118800E+02  0.7818609E-02  0.1379984E+01
      -11   -1    0    0    0    0  0.00000000000E+00  0.00000000000E+00  0.35740347158E-01  0.35744000000E-01  0.51099999109E-03 0.  1.
       11   -1    0    0    0    0 -0.00000000000E+00 -0.00000000000E+00 -0.35740347158E-01  0.35744000000E-01  0.51099999109E-03 0. -1.
       22    1    1    2    0    0 -0.82181970868E-03  0.68563244177E-02 -0.35063499721E-01  0.35737005818E-01  0.00000000000E+00 0. -1.
  9000001    1    1    2    0    0  0.82181970868E-03 -0.68563244177E-02  0.35063499721E-01  0.35750994182E-01  0.10000000475E-02 0.  1.
</event>
<event>
 4   0  0.4809415E-02  0.9118800E+02  0.7818609E-02  0.1379984E+01
      -11   -1    0    0    0    0  0.00000000000E+00  0.00000000000E+00  0.35740347158E-01  0.35744000000E-01  0.51099999109E-03 0. -1.
       11   -1    0    0    0    0 -0.00000000000E+00 -0.00000000000E+00 -0.35740347158E-01  0.35744000000E-01  0.51099999109E-03 0.  1.
       22    1    1    2    0    0 -0.14035918545E-01  0.12768567271E-01  0.30283498235E-01  0.35737005818E-01  0.00000000000E+00 0. -1.
  9000001    1    1    2    0    0  0.14035918545E-01 -0.12768567271E-01 -0.30283498235E-01  0.35750994182E-01  0.10000000475E-02 0.  1.
</event>
<event>
 4   0  0.4809415E-02  0.9118800E+02  0.7818609E-02  0.1379984E+01
      -11   -1    0    0    0    0  0.00000000000E+00  0.00000000000E+00  0.35740347158E-01  0.35744000000E-01  0.51099999109E-03 0. -1.
       11   -1    0    0    0    0 -0.00000000000E+00 -0.00000000000E+00 -0.35740347158E-01  0.35744000000E-01  0.51099999109E-03 0.  1.
       22    1    1    2    0    0 -0.27265655457E-02  0.65420198155E-02 -0.35027152353E-01  0.35737005818E-01  0.00000000000E+00 0.  1.
  9000001    1    1    2    0    0  0.27265655457E-02 -0.65420198155E-02  0.35027152353E-01  0.35750994182E-01  0.10000000475E-02 0. -1.
</event>
<event>
 4   0  0.4809415E-02  0.9118800E+02  0.7818609E-02  0.1379984E+01
      -11   -1    0    0    0    0  0.00000000000E+00  0.00000000000E+00  0.35740347158E-01  0.35744000000E-01  0.51099999109E-03 0.  1.
       11   -1    0    0    0    0 -0.00000000000E+00 -0.00000000000E+00 -0.35740347158E-01  0.35744000000E-01  0.51099999109E-03 0. -1.
       22    1    1    2    0    0 -0.13379818255E-02 -0.35814602593E-02 -0.35531908644E-01  0.35737005818E-01  0.00000000000E+00 0. -1.
  9000001    1    1    2    0    0  0.13379818255E-02  0.35814602593E-02  0.35531908644E-01  0.35750994182E-01  0.10000000475E-02 0.  1.
</event>
<event>
 4   0  0.4809415E-02  0.9118800E+02  0.7818609E-02  0.1379984E+01
      -11   -1    0    0    0    0  0.00000000000E+00  0.00000000000E+00  0.35740347158E-01  0.35744000000E-01  0.51099999109E-03 0. -1.
       11   -1    0    0    0    0 -0.00000000000E+00 -0.00000000000E+00 -0.35740347158E-01  0.35744000000E-01  0.51099999109E-03 0.  1.
       22    1    1    2    0    0  0.56185739240E-02  0.31053952354E-02 -0.35155678522E-01  0.35737005818E-01  0.00000000000E+00 0.  1.
  9000001    1    1    2    0    0 -0.56185739240E-02 -0.31053952354E-02  0.35155678522E-01  0.35750994182E-01  0.10000000475E-02 0. -1.
</event>
<event>
 4   0  0.4809415E-02  0.9118800E+02  0.7818609E-02  0.1379984E+01
      -11   -1    0    0    0    0  0.00000000000E+00  0.00000000000E+00  0.35740347158E-01  0.35744000000E-01  0.51099999109E-03 0. -1.
       11   -1    0    0    0    0 -0.00000000000E+00 -0.00000000000E+00 -0.35740347158E-01  0.35744000000E-01  0.51099999109E-03 0.  1.
       22    1    1    2    0    0 -0.10026298900E-01  0.49292804546E-03  0.34298162300E-01  0.35737005818E-01  0.00000000000E+00 0. -1.
  9000001    1    1    2    0    0  0.10026298900E-01 -0.49292804546E-03 -0.34298162300E-01  0.35750994182E-01  0.10000000475E-02 0.  1.
</event>
<event>
 4   0  0.4809415E-02  0.9118800E+02  0.7818609E-02  0.1379984E+01
      -11   -1    0    0    0    0  0.00000000000E+00  0.00000000000E+00  0.35740347158E-01  0.35744000000E-01  0.51099999109E-03 0. -1.
       11   -1    0    0    0    0 -0.00000000000E+00 -0.00000000000E+00 -0.35740347158E-01  0.35744000000E-01  0.51099999109E-03 0.  1.
       22    1    1    2    0    0 -0.45516062130E-02 -0.13109491244E-01  0.32932623720E-01  0.35737005818E-01  0.00000000000E+00 0. -1.
  9000001    1    1    2    0    0  0.45516062130E-02  0.13109491244E-01 -0.32932623720E-01  0.35750994182E-01  0.10000000475E-02 0.  1.
</event>
<event>
 4   0  0.4809415E-02  0.9118800E+02  0.7818609E-02  0.1379984E+01
      -11   -1    0    0    0    0  0.00000000000E+00  0.00000000000E+00  0.35740347158E-01  0.35744000000E-01  0.51099999109E-03 0. -1.
       11   -1    0    0    0    0 -0.00000000000E+00 -0.00000000000E+00 -0.35740347158E-01  0.35744000000E-01  0.51099999109E-03 0.  1.
       22    1    1    2    0    0  0.11903702806E-01  0.32135372163E-02 -0.33542638879E-01  0.35737005818E-01  0.00000000000E+00 0.  1.
  9000001    1    1    2    0    0 -0.11903702806E-01 -0.32135372163E-02  0.33542638879E-01  0.35750994182E-01  0.10000000475E-02 0. -1.
</event>
<event>
 4   0  0.4809415E-02  0.9118800E+02  0.7818609E-02  0.1379984E+01
      -11   -1    0    0    0    0  0.00000000000E+00  0.00000000000E+00  0.35740347158E-01  0.35744000000E-01  0.51099999109E-03 0. -1.
       11   -1    0    0    0    0 -0.00000000000E+00 -0.00000000000E+00 -0.35740347158E-01  0.35744000000E-01  0.51099999109E-03 0.  1.
       22    1    1    2    0    0 -0.87763704216E-02  0.13447832456E-01  0.31925925348E-01  0.35737005818E-01  0.00000000000E+00 0. -1.
  9000001    1    1    2    0    0  0.87763704216E-02 -0.13447832456E-01 -0.31925925348E-01  0.35750994182E-01  0.10000000475E-02 0.  1.
</event>
<event>
 4   0  0.4809415E-02  0.9118800E+02  0.7818609E-02  0.1379984E+01
      -11   -1    0    0    0    0  0.00000000000E+00  0.00000000000E+00  0.35740347158E-01  0.35744000000E-01  0.51099999109E-03 0. -1.
       11   -1    0    0    0    0 -0.00000000000E+00 -0.00000000000E+00 -0.35740347158E-01  0.35744000000E-01  0.51099999109E-03 0.  1.
       22    1    1    2    0    0  0.30767030722E-02  0.27219026262E-02 -0.35500122946E-01  0.35737005818E-01  0.00000000000E+00 0.  1.
  9000001    1    1    2    0    0 -0.30767030722E-02 -0.27219026262E-02  0.35500122946E-01  0.35750994182E-01  0.10000000475E-02 0. -1.
</event>
<event>
 4   0  0.4809415E-02  0.9118800E+02  0.7818609E-02  0.1379984E+01
      -11   -1    0    0    0    0  0.00000000000E+00  0.00000000000E+00  0.35740347158E-01  0.35744000000E-01  0.51099999109E-03 0. -1.
       11   -1    0    0    0    0 -0.00000000000E+00 -0.00000000000E+00 -0.35740347158E-01  0.35744000000E-01  0.51099999109E-03 0.  1.
       22    1    1    2    0    0 -0.10044782431E-02  0.58601463410E-02 -0.35238945688E-01  0.35737005818E-01  0.00000000000E+00 0.  1.
  9000001    1    1    2    0    0  0.10044782431E-02 -0.58601463410E-02  0.35238945688E-01  0.35750994182E-01  0.10000000475E-02 0. -1.
</event>
<event>
 4   0  0.4809415E-02  0.9118800E+02  0.7818609E-02  0.1379984E+01
      -11   -1    0    0    0    0  0.00000000000E+00  0.00000000000E+00  0.35740347158E-01  0.35744000000E-01  0.51099999109E-03 0. -1.
       11   -1    0    0    0    0 -0.00000000000E+00 -0.00000000000E+00 -0.35740347158E-01  0.35744000000E-01  0.51099999109E-03 0.  1.
       22    1    1    2    0    0  0.81506219662E-02 -0.19283293766E-02  0.34741653562E-01  0.35737005818E-01  0.00000000000E+00 0. -1.
  9000001    1    1    2    0    0 -0.81506219662E-02  0.19283293766E-02 -0.34741653562E-01  0.35750994182E-01  0.10000000475E-02 0.  1.
</event>
<event>
 4   0  0.4809415E-02  0.9118800E+02  0.7818609E-02  0.1379984E+01
      -11   -1    0    0    0    0  0.00000000000E+00  0.00000000000E+00  0.35740347158E-01  0.35744000000E-01  0.51099999109E-03 0. -1.
       11   -1    0    0    0    0 -0.00000000000E+00 -0.00000000000E+00 -0.35740347158E-01  0.35744000000E-01  0.51099999109E-03 0.  1.
       22    1    1    2    0    0 -0.11691025936E-01  0.80508519757E-02 -0.32796909609E-01  0.35737005818E-01  0.00000000000E+00 0.  1.
  9000001    1    1    2    0    0  0.11691025936E-01 -0.80508519757E-02  0.32796909609E-01  0.35750994182E-01  0.10000000475E-02 0. -1.
</event>
<event>
 4   0  0.4809415E-02  0.9118800E+02  0.7818609E-02  0.1379984E+01
      -11   -1    0    0    0    0  0.00000000000E+00  0.00000000000E+00  0.35740347158E-01  0.35744000000E-01  0.51099999109E-03 0.  1.
       11   -1    0    0    0    0 -0.00000000000E+00 -0.00000000000E+00 -0.35740347158E-01  0.35744000000E-01  0.51099999109E-03 0. -1.
       22    1    1    2    0    0  0.62178519836E-02  0.65062616871E-02  0.34585263631E-01  0.35737005818E-01  0.00000000000E+00 0.  1.
  9000001    1    1    2    0    0 -0.62178519836E-02 -0.65062616871E-02 -0.34585263631E-01  0.35750994182E-01  0.10000000475E-02 0. -1.
</event>
<event>
 4   0  0.4809415E-02  0.9118800E+02  0.7818609E-02  0.1379984E+01
      -11   -1    0    0    0    0  0.00000000000E+00  0.00000000000E+00  0.35740347158E-01  0.35744000000E-01  0.51099999109E-03 0.  1.
       11   -1    0    0    0    0 -0.00000000000E+00 -0.00000000000E+00 -0.35740347158E-01  0.35744000000E-01  0.51099999109E-03 0. -1.
       22    1    1    2    0    0  0.37214830042E-02  0.10161215416E-01 -0.34059269669E-01  0.35737005818E-01  0.00000000000E+00 0. -1.
  9000001    1    1    2    0    0 -0.37214830042E-02 -0.10161215416E-01  0.34059269669E-01  0.35750994182E-01  0.10000000475E-02 0.  1.
</event>
<event>
 4   0  0.4809415E-02  0.9118800E+02  0.7818609E-02  0.1379984E+01
      -11   -1    0    0    0    0  0.00000000000E+00  0.00000000000E+00  0.35740347158E-01  0.35744000000E-01  0.51099999109E-03 0.  1.
       11   -1    0    0    0    0 -0.00000000000E+00 -0.00000000000E+00 -0.35740347158E-01  0.35744000000E-01  0.51099999109E-03 0. -1.
       22    1    1    2    0    0  0.74220538067E-02  0.89933307067E-02  0.33781159023E-01  0.35737005818E-01  0.00000000000E+00 0.  1.
  9000001    1    1    2    0    0 -0.74220538067E-02 -0.89933307067E-02 -0.33781159023E-01  0.35750994182E-01  0.10000000475E-02 0. -1.
</event>
<event>
 4   0  0.4809415E-02  0.9118800E+02  0.7818609E-02  0.1379984E+01
      -11   -1    0    0    0    0  0.00000000000E+00  0.00000000000E+00  0.35740347158E-01  0.35744000000E-01  0.51099999109E-03 0.  1.
       11   -1    0    0    0    0 -0.00000000000E+00 -0.00000000000E+00 -0.35740347158E-01  0.35744000000E-01  0.51099999109E-03 0. -1.
       22    1    1    2    0    0  0.41438938791E-02 -0.44722887921E-03  0.35493122076E-01  0.35737005818E-01  0.00000000000E+00 0.  1.
  9000001    1    1    2    0    0 -0.41438938791E-02  0.44722887921E-03 -0.35493122076E-01  0.35750994182E-01  0.10000000475E-02 0. -1.
</event>
<event>
 4   0  0.4809415E-02  0.9118800E+02  0.7818609E-02  0.1379984E+01
      -11   -1    0    0    0    0  0.00000000000E+00  0.00000000000E+00  0.35740347158E-01  0.35744000000E-01  0.51099999109E-03 0.  1.
       11   -1    0    0    0    0 -0.00000000000E+00 -0.00000000000E+00 -0.35740347158E-01  0.35744000000E-01  0.51099999109E-03 0. -1.
       22    1    1    2    0    0  0.75266655196E-02  0.10918924544E-02  0.34918342771E-01  0.35737005818E-01  0.00000000000E+00 0.  1.
  9000001    1    1    2    0    0 -0.75266655196E-02 -0.10918924544E-02 -0.34918342771E-01  0.35750994182E-01  0.10000000475E-02 0. -1.
</event>
<event>
 4   0  0.4809415E-02  0.9118800E+02  0.7818609E-02  0.1379984E+01
      -11   -1    0    0    0    0  0.00000000000E+00  0.00000000000E+00  0.35740347158E-01  0.35744000000E-01  0.51099999109E-03 0. -1.
       11   -1    0    0    0    0 -0.00000000000E+00 -0.00000000000E+00 -0.35740347158E-01  0.35744000000E-01  0.51099999109E-03 0.  1.
       22    1    1    2    0    0  0.83722623042E-02 -0.12526712412E-02 -0.34719873611E-01  0.35737005818E-01  0.00000000000E+00 0.  1.
  9000001    1    1    2    0    0 -0.83722623042E-02  0.12526712412E-02  0.34719873611E-01  0.35750994182E-01  0.10000000475E-02 0. -1.
</event>
<event>
 4   0  0.4809415E-02  0.9118800E+02  0.7818609E-02  0.1379984E+01
      -11   -1    0    0    0    0  0.00000000000E+00  0.00000000000E+00  0.35740347158E-01  0.35744000000E-01  0.51099999109E-03 0.  1.
       11   -1    0    0    0    0 -0.00000000000E+00 -0.00000000000E+00 -0.35740347158E-01  0.35744000000E-01  0.51099999109E-03 0. -1.
       22    1    1    2    0    0  0.20048573741E-02 -0.26780239486E-02  0.35580083186E-01  0.35737005818E-01  0.00000000000E+00 0.  1.
  9000001    1    1    2    0    0 -0.20048573741E-02  0.26780239486E-02 -0.35580083186E-01  0.35750994182E-01  0.10000000475E-02 0. -1.
</event>
<event>
 4   0  0.4809415E-02  0.9118800E+02  0.7818609E-02  0.1379984E+01
      -11   -1    0    0    0    0  0.00000000000E+00  0.00000000000E+00  0.35740347158E-01  0.35744000000E-01  0.51099999109E-03 0.  1.
       11   -1    0    0    0    0 -0.00000000000E+00 -0.00000000000E+00 -0.35740347158E-01  0.35744000000E-01  0.51099999109E-03 0. -1.
       22    1    1    2    0    0 -0.24496104902E-02 -0.81258373974E-02  0.34714604418E-01  0.35737005818E-01  0.00000000000E+00 0.  1.
  9000001    1    1    2    0    0  0.24496104902E-02  0.81258373974E-02 -0.34714604418E-01  0.35750994182E-01  0.10000000475E-02 0. -1.
</event>
<event>
 4   0  0.4809415E-02  0.9118800E+02  0.7818609E-02  0.1379984E+01
      -11   -1    0    0    0    0  0.00000000000E+00  0.00000000000E+00  0.35740347158E-01  0.35744000000E-01  0.51099999109E-03 0. -1.
       11   -1    0    0    0    0 -0.00000000000E+00 -0.00000000000E+00 -0.35740347158E-01  0.35744000000E-01  0.51099999109E-03 0.  1.
       22    1    1    2    0    0 -0.74345049410E-02  0.44180687702E-02  0.34674809149E-01  0.35737005818E-01  0.00000000000E+00 0. -1.
  9000001    1    1    2    0    0  0.74345049410E-02 -0.44180687702E-02 -0.34674809149E-01  0.35750994182E-01  0.10000000475E-02 0.  1.
</event>
<event>
 4   0  0.4809415E-02  0.9118800E+02  0.7818609E-02  0.1379984E+01
      -11   -1    0    0    0    0  0.00000000000E+00  0.00000000000E+00  0.35740347158E-01  0.35744000000E-01  0.51099999109E-03 0.  1.
       11   -1    0    0    0    0 -0.00000000000E+00 -0.00000000000E+00 -0.35740347158E-01  0.35744000000E-01  0.51099999109E-03 0. -1.
       22    1    1    2    0    0 -0.21379700036E-01 -0.73613994706E-03 -0.28626912324E-01  0.35737005818E-01  0.00000000000E+00 0. -1.
  9000001    1    1    2    0    0  0.21379700036E-01  0.73613994706E-03  0.28626912324E-01  0.35750994182E-01  0.10000000475E-02 0.  1.
</event>
<event>
 4   0  0.4809415E-02  0.9118800E+02  0.7818609E-02  0.1379984E+01
      -11   -1    0    0    0    0  0.00000000000E+00  0.00000000000E+00  0.35740347158E-01  0.35744000000E-01  0.51099999109E-03 0. -1.
       11   -1    0    0    0    0 -0.00000000000E+00 -0.00000000000E+00 -0.35740347158E-01  0.35744000000E-01  0.51099999109E-03 0.  1.
       22    1    1    2    0    0  0.15499703572E-01 -0.20753084476E-01 -0.24621175008E-01  0.35737005818E-01  0.00000000000E+00 0.  1.
  9000001    1    1    2    0    0 -0.15499703572E-01  0.20753084476E-01  0.24621175008E-01  0.35750994182E-01  0.10000000475E-02 0. -1.
</event>
<event>
 4   0  0.4809415E-02  0.9118800E+02  0.7818609E-02  0.1379984E+01
      -11   -1    0    0    0    0  0.00000000000E+00  0.00000000000E+00  0.35740347158E-01  0.35744000000E-01  0.51099999109E-03 0. -1.
       11   -1    0    0    0    0 -0.00000000000E+00 -0.00000000000E+00 -0.35740347158E-01  0.35744000000E-01  0.51099999109E-03 0.  1.
       22    1    1    2    0    0  0.94445753093E-02 -0.18282055629E-01 -0.29218145459E-01  0.35737005818E-01  0.00000000000E+00 0.  1.
  9000001    1    1    2    0    0 -0.94445753093E-02  0.18282055629E-01  0.29218145459E-01  0.35750994182E-01  0.10000000475E-02 0. -1.
</event>
<event>
 4   0  0.4809415E-02  0.9118800E+02  0.7818609E-02  0.1379984E+01
      -11   -1    0    0    0    0  0.00000000000E+00  0.00000000000E+00  0.35740347158E-01  0.35744000000E-01  0.51099999109E-03 0.  1.
       11   -1    0    0    0    0 -0.00000000000E+00 -0.00000000000E+00 -0.35740347158E-01  0.35744000000E-01  0.51099999109E-03 0. -1.
       22    1    1    2    0    0 -0.34503334748E-02 -0.15999499261E-03 -0.35569694761E-01  0.35737005818E-01  0.00000000000E+00 0. -1.
  9000001    1    1    2    0    0  0.34503334748E-02  0.15999499261E-03  0.35569694761E-01  0.35750994182E-01  0.10000000475E-02 0.  1.
</event>
<event>
 4   0  0.4809415E-02  0.9118800E+02  0.7818609E-02  0.1379984E+01
      -11   -1    0    0    0    0  0.00000000000E+00  0.00000000000E+00  0.35740347158E-01  0.35744000000E-01  0.51099999109E-03 0. -1.
       11   -1    0    0    0    0 -0.00000000000E+00 -0.00000000000E+00 -0.35740347158E-01  0.35744000000E-01  0.51099999109E-03 0.  1.
       22    1    1    2    0    0 -0.36163979678E-02 -0.22493880374E-02  0.35482326644E-01  0.35737005818E-01  0.00000000000E+00 0. -1.
  9000001    1    1    2    0    0  0.36163979678E-02  0.22493880374E-02 -0.35482326644E-01  0.35750994182E-01  0.10000000475E-02 0.  1.
</event>
<event>
 4   0  0.4809415E-02  0.9118800E+02  0.7818609E-02  0.1379984E+01
      -11   -1    0    0    0    0  0.00000000000E+00  0.00000000000E+00  0.35740347158E-01  0.35744000000E-01  0.51099999109E-03 0. -1.
       11   -1    0    0    0    0 -0.00000000000E+00 -0.00000000000E+00 -0.35740347158E-01  0.35744000000E-01  0.51099999109E-03 0.  1.
       22    1    1    2    0    0 -0.29490423869E-01  0.10677431385E-01 -0.17130118036E-01  0.35737005818E-01  0.00000000000E+00 0.  1.
  9000001    1    1    2    0    0  0.29490423869E-01 -0.10677431385E-01  0.17130118036E-01  0.35750994182E-01  0.10000000475E-02 0. -1.
</event>
<event>
 4   0  0.4809415E-02  0.9118800E+02  0.7818609E-02  0.1379984E+01
      -11   -1    0    0    0    0  0.00000000000E+00  0.00000000000E+00  0.35740347158E-01  0.35744000000E-01  0.51099999109E-03 0.  1.
       11   -1    0    0    0    0 -0.00000000000E+00 -0.00000000000E+00 -0.35740347158E-01  0.35744000000E-01  0.51099999109E-03 0. -1.
       22    1    1    2    0    0 -0.87953814996E-02 -0.24469135176E-03 -0.34636901930E-01  0.35737005818E-01  0.00000000000E+00 0. -1.
  9000001    1    1    2    0    0  0.87953814996E-02  0.24469135176E-03  0.34636901930E-01  0.35750994182E-01  0.10000000475E-02 0.  1.
</event>
<event>
 4   0  0.4809415E-02  0.9118800E+02  0.7818609E-02  0.1379984E+01
      -11   -1    0    0    0    0  0.00000000000E+00  0.00000000000E+00  0.35740347158E-01  0.35744000000E-01  0.51099999109E-03 0. -1.
       11   -1    0    0    0    0 -0.00000000000E+00 -0.00000000000E+00 -0.35740347158E-01  0.35744000000E-01  0.51099999109E-03 0.  1.
       22    1    1    2    0    0  0.18192153485E-01  0.19523928700E-01  0.23769630720E-01  0.35737005818E-01  0.00000000000E+00 0. -1.
  9000001    1    1    2    0    0 -0.18192153485E-01 -0.19523928700E-01 -0.23769630720E-01  0.35750994182E-01  0.10000000475E-02 0.  1.
</event>
<event>
 4   0  0.4809415E-02  0.9118800E+02  0.7818609E-02  0.1379984E+01
      -11   -1    0    0    0    0  0.00000000000E+00  0.00000000000E+00  0.35740347158E-01  0.35744000000E-01  0.51099999109E-03 0. -1.
       11   -1    0    0    0    0 -0.00000000000E+00 -0.00000000000E+00 -0.35740347158E-01  0.35744000000E-01  0.51099999109E-03 0.  1.
       22    1    1    2    0    0  0.15311121584E-02  0.29098464488E-01 -0.20689819836E-01  0.35737005818E-01  0.00000000000E+00 0.  1.
  9000001    1    1    2    0    0 -0.15311121584E-02 -0.29098464488E-01  0.20689819836E-01  0.35750994182E-01  0.10000000475E-02 0. -1.
</event>
<event>
 4   0  0.4809415E-02  0.9118800E+02  0.7818609E-02  0.1379984E+01
      -11   -1    0    0    0    0  0.00000000000E+00  0.00000000000E+00  0.35740347158E-01  0.35744000000E-01  0.51099999109E-03 0. -1.
       11   -1    0    0    0    0 -0.00000000000E+00 -0.00000000000E+00 -0.35740347158E-01  0.35744000000E-01  0.51099999109E-03 0.  1.
       22    1    1    2    0    0 -0.73337666744E-03  0.42608617827E-02 -0.35474509164E-01  0.35737005818E-01  0.00000000000E+00 0.  1.
  9000001    1    1    2    0    0  0.73337666744E-03 -0.42608617827E-02  0.35474509164E-01  0.35750994182E-01  0.10000000475E-02 0. -1.
</event>
<event>
 4   0  0.4809415E-02  0.9118800E+02  0.7818609E-02  0.1379984E+01
      -11   -1    0    0    0    0  0.00000000000E+00  0.00000000000E+00  0.35740347158E-01  0.35744000000E-01  0.51099999109E-03 0. -1.
       11   -1    0    0    0    0 -0.00000000000E+00 -0.00000000000E+00 -0.35740347158E-01  0.35744000000E-01  0.51099999109E-03 0.  1.
       22    1    1    2    0    0 -0.22593416884E-02  0.84295739655E-02  0.34655031998E-01  0.35737005818E-01  0.00000000000E+00 0. -1.
  9000001    1    1    2    0    0  0.22593416884E-02 -0.84295739655E-02 -0.34655031998E-01  0.35750994182E-01  0.10000000475E-02 0.  1.
</event>
<event>
 4   0  0.4809415E-02  0.9118800E+02  0.7818609E-02  0.1379984E+01
      -11   -1    0    0    0    0  0.00000000000E+00  0.00000000000E+00  0.35740347158E-01  0.35744000000E-01  0.51099999109E-03 0. -1.
       11   -1    0    0    0    0 -0.00000000000E+00 -0.00000000000E+00 -0.35740347158E-01  0.35744000000E-01  0.51099999109E-03 0.  1.
       22    1    1    2    0    0 -0.60876337026E-02 -0.25249647784E-01  0.24546478110E-01  0.35737005818E-01  0.00000000000E+00 0. -1.
  9000001    1    1    2    0    0  0.60876337026E-02  0.25249647784E-01 -0.24546478110E-01  0.35750994182E-01  0.10000000475E-02 0.  1.
</event>
<event>
 4   0  0.4809415E-02  0.9118800E+02  0.7818609E-02  0.1379984E+01
      -11   -1    0    0    0    0  0.00000000000E+00  0.00000000000E+00  0.35740347158E-01  0.35744000000E-01  0.51099999109E-03 0.  1.
       11   -1    0    0    0    0 -0.00000000000E+00 -0.00000000000E+00 -0.35740347158E-01  0.35744000000E-01  0.51099999109E-03 0. -1.
       22    1    1    2    0    0 -0.21368789344E-01  0.13103681556E-01  0.25471591167E-01  0.35737005818E-01  0.00000000000E+00 0.  1.
  9000001    1    1    2    0    0  0.21368789344E-01 -0.13103681556E-01 -0.25471591167E-01  0.35750994182E-01  0.10000000475E-02 0. -1.
</event>
<event>
 4   0  0.4809415E-02  0.9118800E+02  0.7818609E-02  0.1379984E+01
      -11   -1    0    0    0    0  0.00000000000E+00  0.00000000000E+00  0.35740347158E-01  0.35744000000E-01  0.51099999109E-03 0. -1.
       11   -1    0    0    0    0 -0.00000000000E+00 -0.00000000000E+00 -0.35740347158E-01  0.35744000000E-01  0.51099999109E-03 0.  1.
       22    1    1    2    0    0  0.83185415090E-02 -0.13363497469E-03 -0.34755108887E-01  0.35737005818E-01  0.00000000000E+00 0.  1.
  9000001    1    1    2    0    0 -0.83185415090E-02  0.13363497469E-03  0.34755108887E-01  0.35750994182E-01  0.10000000475E-02 0. -1.
</event>
<event>
 4   0  0.4809415E-02  0.9118800E+02  0.7818609E-02  0.1379984E+01
      -11   -1    0    0    0    0  0.00000000000E+00  0.00000000000E+00  0.35740347158E-01  0.35744000000E-01  0.51099999109E-03 0. -1.
       11   -1    0    0    0    0 -0.00000000000E+00 -0.00000000000E+00 -0.35740347158E-01  0.35744000000E-01  0.51099999109E-03 0.  1.
       22    1    1    2    0    0  0.26210097891E-02  0.89446000649E-02 -0.34500116264E-01  0.35737005818E-01  0.00000000000E+00 0.  1.
  9000001    1    1    2    0    0 -0.26210097891E-02 -0.89446000649E-02  0.34500116264E-01  0.35750994182E-01  0.10000000475E-02 0. -1.
</event>
<event>
 4   0  0.4809415E-02  0.9118800E+02  0.7818609E-02  0.1379984E+01
      -11   -1    0    0    0    0  0.00000000000E+00  0.00000000000E+00  0.35740347158E-01  0.35744000000E-01  0.51099999109E-03 0. -1.
       11   -1    0    0    0    0 -0.00000000000E+00 -0.00000000000E+00 -0.35740347158E-01  0.35744000000E-01  0.51099999109E-03 0.  1.
       22    1    1    2    0    0  0.25979137736E-01 -0.37481078469E-02 -0.24252209692E-01  0.35737005818E-01  0.00000000000E+00 0.  1.
  9000001    1    1    2    0    0 -0.25979137736E-01  0.37481078469E-02  0.24252209692E-01  0.35750994182E-01  0.10000000475E-02 0. -1.
</event>
<event>
 4   0  0.4809415E-02  0.9118800E+02  0.7818609E-02  0.1379984E+01
      -11   -1    0    0    0    0  0.00000000000E+00  0.00000000000E+00  0.35740347158E-01  0.35744000000E-01  0.51099999109E-03 0.  1.
       11   -1    0    0    0    0 -0.00000000000E+00 -0.00000000000E+00 -0.35740347158E-01  0.35744000000E-01  0.51099999109E-03 0. -1.
       22    1    1    2    0    0  0.14890312222E-02 -0.32609084061E-02 -0.35556755297E-01  0.35737005818E-01  0.00000000000E+00 0. -1.
  9000001    1    1    2    0    0 -0.14890312222E-02  0.32609084061E-02  0.35556755297E-01  0.35750994182E-01  0.10000000475E-02 0.  1.
</event>
<event>
 4   0  0.4809415E-02  0.9118800E+02  0.7818609E-02  0.1379984E+01
      -11   -1    0    0    0    0  0.00000000000E+00  0.00000000000E+00  0.35740347158E-01  0.35744000000E-01  0.51099999109E-03 0. -1.
       11   -1    0    0    0    0 -0.00000000000E+00 -0.00000000000E+00 -0.35740347158E-01  0.35744000000E-01  0.51099999109E-03 0.  1.
       22    1    1    2    0    0 -0.30297911555E-01  0.92389471482E-02 -0.16547265510E-01  0.35737005818E-01  0.00000000000E+00 0. -1.
  9000001    1    1    2    0    0  0.30297911555E-01 -0.92389471482E-02  0.16547265510E-01  0.35750994182E-01  0.10000000475E-02 0.  1.
</event>
<event>
 4   0  0.4809415E-02  0.9118800E+02  0.7818609E-02  0.1379984E+01
      -11   -1    0    0    0    0  0.00000000000E+00  0.00000000000E+00  0.35740347158E-01  0.35744000000E-01  0.51099999109E-03 0. -1.
       11   -1    0    0    0    0 -0.00000000000E+00 -0.00000000000E+00 -0.35740347158E-01  0.35744000000E-01  0.51099999109E-03 0.  1.
       22    1    1    2    0    0 -0.31124981400E-02  0.10560393322E-01 -0.33998882821E-01  0.35737005818E-01  0.00000000000E+00 0.  1.
  9000001    1    1    2    0    0  0.31124981400E-02 -0.10560393322E-01  0.33998882821E-01  0.35750994182E-01  0.10000000475E-02 0. -1.
</event>
<event>
 4   0  0.4809415E-02  0.9118800E+02  0.7818609E-02  0.1379984E+01
      -11   -1    0    0    0    0  0.00000000000E+00  0.00000000000E+00  0.35740347158E-01  0.35744000000E-01  0.51099999109E-03 0. -1.
       11   -1    0    0    0    0 -0.00000000000E+00 -0.00000000000E+00 -0.35740347158E-01  0.35744000000E-01  0.51099999109E-03 0.  1.
       22    1    1    2    0    0  0.11612813343E-01 -0.31816836049E-01 -0.11400223461E-01  0.35737005818E-01  0.00000000000E+00 0.  1.
  9000001    1    1    2    0    0 -0.11612813343E-01  0.31816836049E-01  0.11400223461E-01  0.35750994182E-01  0.10000000475E-02 0. -1.
</event>
<event>
 4   0  0.4809415E-02  0.9118800E+02  0.7818609E-02  0.1379984E+01
      -11   -1    0    0    0    0  0.00000000000E+00  0.00000000000E+00  0.35740347158E-01  0.35744000000E-01  0.51099999109E-03 0. -1.
       11   -1    0    0    0    0 -0.00000000000E+00 -0.00000000000E+00 -0.35740347158E-01  0.35744000000E-01  0.51099999109E-03 0.  1.
       22    1    1    2    0    0 -0.11759725050E-02  0.34542366540E-02 -0.35550230979E-01  0.35737005818E-01  0.00000000000E+00 0.  1.
  9000001    1    1    2    0    0  0.11759725050E-02 -0.34542366540E-02  0.35550230979E-01  0.35750994182E-01  0.10000000475E-02 0. -1.
</event>
<event>
 4   0  0.4809415E-02  0.9118800E+02  0.7818609E-02  0.1379984E+01
      -11   -1    0    0    0    0  0.00000000000E+00  0.00000000000E+00  0.35740347158E-01  0.35744000000E-01  0.51099999109E-03 0. -1.
       11   -1    0    0    0    0 -0.00000000000E+00 -0.00000000000E+00 -0.35740347158E-01  0.35744000000E-01  0.51099999109E-03 0.  1.
       22    1    1    2    0    0  0.11574854585E-01  0.17440683199E-02  0.33765582357E-01  0.35737005818E-01  0.00000000000E+00 0. -1.
  9000001    1    1    2    0    0 -0.11574854585E-01 -0.17440683199E-02 -0.33765582357E-01  0.35750994182E-01  0.10000000475E-02 0.  1.
</event>
<event>
 4   0  0.4809415E-02  0.9118800E+02  0.7818609E-02  0.1379984E+01
      -11   -1    0    0    0    0  0.00000000000E+00  0.00000000000E+00  0.35740347158E-01  0.35744000000E-01  0.51099999109E-03 0.  1.
       11   -1    0    0    0    0 -0.00000000000E+00 -0.00000000000E+00 -0.35740347158E-01  0.35744000000E-01  0.51099999109E-03 0. -1.
       22    1    1    2    0    0  0.87299552126E-02  0.23047671297E-02  0.34577586893E-01  0.35737005818E-01  0.00000000000E+00 0.  1.
  9000001    1    1    2    0    0 -0.87299552126E-02 -0.23047671297E-02 -0.34577586893E-01  0.35750994182E-01  0.10000000475E-02 0. -1.
</event>
<event>
 4   0  0.4809415E-02  0.9118800E+02  0.7818609E-02  0.1379984E+01
      -11   -1    0    0    0    0  0.00000000000E+00  0.00000000000E+00  0.35740347158E-01  0.35744000000E-01  0.51099999109E-03 0. -1.
       11   -1    0    0    0    0 -0.00000000000E+00 -0.00000000000E+00 -0.35740347158E-01  0.35744000000E-01  0.51099999109E-03 0.  1.
       22    1    1    2    0    0  0.20297743118E-02 -0.41177986826E-02 -0.35440899186E-01  0.35737005818E-01  0.00000000000E+00 0.  1.
  9000001    1    1    2    0    0 -0.20297743118E-02  0.41177986826E-02  0.35440899186E-01  0.35750994182E-01  0.10000000475E-02 0. -1.
</event>
<event>
 4   0  0.4809415E-02  0.9118800E+02  0.7818609E-02  0.1379984E+01
      -11   -1    0    0    0    0  0.00000000000E+00  0.00000000000E+00  0.35740347158E-01  0.35744000000E-01  0.51099999109E-03 0. -1.
       11   -1    0    0    0    0 -0.00000000000E+00 -0.00000000000E+00 -0.35740347158E-01  0.35744000000E-01  0.51099999109E-03 0.  1.
       22    1    1    2    0    0  0.25180037131E-02  0.40274768489E-02 -0.35419947380E-01  0.35737005818E-01  0.00000000000E+00 0.  1.
  9000001    1    1    2    0    0 -0.25180037131E-02 -0.40274768489E-02  0.35419947380E-01  0.35750994182E-01  0.10000000475E-02 0. -1.
</event>
<event>
 4   0  0.4809415E-02  0.9118800E+02  0.7818609E-02  0.1379984E+01
      -11   -1    0    0    0    0  0.00000000000E+00  0.00000000000E+00  0.35740347158E-01  0.35744000000E-01  0.51099999109E-03 0. -1.
       11   -1    0    0    0    0 -0.00000000000E+00 -0.00000000000E+00 -0.35740347158E-01  0.35744000000E-01  0.51099999109E-03 0.  1.
       22    1    1    2    0    0  0.14820753915E-01 -0.63723586632E-02  0.31888428674E-01  0.35737005818E-01  0.00000000000E+00 0. -1.
  9000001    1    1    2    0    0 -0.14820753915E-01  0.63723586632E-02 -0.31888428674E-01  0.35750994182E-01  0.10000000475E-02 0.  1.
</event>
<event>
 4   0  0.4809415E-02  0.9118800E+02  0.7818609E-02  0.1379984E+01
      -11   -1    0    0    0    0  0.00000000000E+00  0.00000000000E+00  0.35740347158E-01  0.35744000000E-01  0.51099999109E-03 0.  1.
       11   -1    0    0    0    0 -0.00000000000E+00 -0.00000000000E+00 -0.35740347158E-01  0.35744000000E-01  0.51099999109E-03 0. -1.
       22    1    1    2    0    0  0.34217163094E-02 -0.30355278708E-02 -0.35443067205E-01  0.35737005818E-01  0.00000000000E+00 0. -1.
  9000001    1    1    2    0    0 -0.34217163094E-02  0.30355278708E-02  0.35443067205E-01  0.35750994182E-01  0.10000000475E-02 0.  1.
</event>
<event>
 4   0  0.4809415E-02  0.9118800E+02  0.7818609E-02  0.1379984E+01
      -11   -1    0    0    0    0  0.00000000000E+00  0.00000000000E+00  0.35740347158E-01  0.35744000000E-01  0.51099999109E-03 0.  1.
       11   -1    0    0    0    0 -0.00000000000E+00 -0.00000000000E+00 -0.35740347158E-01  0.35744000000E-01  0.51099999109E-03 0. -1.
       22    1    1    2    0    0  0.98003790423E-02 -0.51535458445E-02  0.33978333107E-01  0.35737005818E-01  0.00000000000E+00 0.  1.
  9000001    1    1    2    0    0 -0.98003790423E-02  0.51535458445E-02 -0.33978333107E-01  0.35750994182E-01  0.10000000475E-02 0. -1.
</event>
<event>
 4   0  0.4809415E-02  0.9118800E+02  0.7818609E-02  0.1379984E+01
      -11   -1    0    0    0    0  0.00000000000E+00  0.00000000000E+00  0.35740347158E-01  0.35744000000E-01  0.51099999109E-03 0.  1.
       11   -1    0    0    0    0 -0.00000000000E+00 -0.00000000000E+00 -0.35740347158E-01  0.35744000000E-01  0.51099999109E-03 0. -1.
       22    1    1    2    0    0  0.45567028856E-02 -0.11361331242E-02 -0.35427097612E-01  0.35737005818E-01  0.00000000000E+00 0. -1.
  9000001    1    1    2    0    0 -0.45567028856E-02  0.11361331242E-02  0.35427097612E-01  0.35750994182E-01  0.10000000475E-02 0.  1.
</event>
<event>
 4   0  0.4809415E-02  0.9118800E+02  0.7818609E-02  0.1379984E+01
      -11   -1    0    0    0    0  0.00000000000E+00  0.00000000000E+00  0.35740347158E-01  0.35744000000E-01  0.51099999109E-03 0.  1.
       11   -1    0    0    0    0 -0.00000000000E+00 -0.00000000000E+00 -0.35740347158E-01  0.35744000000E-01  0.51099999109E-03 0. -1.
       22    1    1    2    0    0 -0.27587288000E-02 -0.25306617023E-02  0.35540381985E-01  0.35737005818E-01  0.00000000000E+00 0.  1.
  9000001    1    1    2    0    0  0.27587288000E-02  0.25306617023E-02 -0.35540381985E-01  0.35750994182E-01  0.10000000475E-02 0. -1.
</event>
<event>
 4   0  0.4809415E-02  0.9118800E+02  0.7818609E-02  0.1379984E+01
      -11   -1    0    0    0    0  0.00000000000E+00  0.00000000000E+00  0.35740347158E-01  0.35744000000E-01  0.51099999109E-03 0.  1.
       11   -1    0    0    0    0 -0.00000000000E+00 -0.00000000000E+00 -0.35740347158E-01  0.35744000000E-01  0.51099999109E-03 0. -1.
       22    1    1    2    0    0  0.26689880660E-01  0.15418667597E-01  0.18084483536E-01  0.35737005818E-01  0.00000000000E+00 0.  1.
  9000001    1    1    2    0    0 -0.26689880660E-01 -0.15418667597E-01 -0.18084483536E-01  0.35750994182E-01  0.10000000475E-02 0. -1.
</event>
<event>
 4   0  0.4809415E-02  0.9118800E+02  0.7818609E-02  0.1379984E+01
      -11   -1    0    0    0    0  0.00000000000E+00  0.00000000000E+00  0.35740347158E-01  0.35744000000E-01  0.51099999109E-03 0.  1.
       11   -1    0    0    0    0 -0.00000000000E+00 -0.00000000000E+00 -0.35740347158E-01  0.35744000000E-01  0.51099999109E-03 0. -1.
       22    1    1    2    0    0 -0.16748938803E-01  0.64443137902E-02 -0.30904327425E-01  0.35737005818E-01  0.00000000000E+00 0. -1.
  9000001    1    1    2    0    0  0.16748938803E-01 -0.64443137902E-02  0.30904327425E-01  0.35750994182E-01  0.10000000475E-02 0.  1.
</event>
<event>
 4   0  0.4809415E-02  0.9118800E+02  0.7818609E-02  0.1379984E+01
      -11   -1    0    0    0    0  0.00000000000E+00  0.00000000000E+00  0.35740347158E-01  0.35744000000E-01  0.51099999109E-03 0. -1.
       11   -1    0    0    0    0 -0.00000000000E+00 -0.00000000000E+00 -0.35740347158E-01  0.35744000000E-01  0.51099999109E-03 0.  1.
       22    1    1    2    0    0  0.60968101252E-02 -0.18707616076E-01 -0.29832659820E-01  0.35737005818E-01  0.00000000000E+00 0.  1.
  9000001    1    1    2    0    0 -0.60968101252E-02  0.18707616076E-01  0.29832659820E-01  0.35750994182E-01  0.10000000475E-02 0. -1.
</event>
<event>
 4   0  0.4809415E-02  0.9118800E+02  0.7818609E-02  0.1379984E+01
      -11   -1    0    0    0    0  0.00000000000E+00  0.00000000000E+00  0.35740347158E-01  0.35744000000E-01  0.51099999109E-03 0. -1.
       11   -1    0    0    0    0 -0.00000000000E+00 -0.00000000000E+00 -0.35740347158E-01  0.35744000000E-01  0.51099999109E-03 0.  1.
       22    1    1    2    0    0  0.39530970012E-02  0.10317774963E-01  0.33986028435E-01  0.35737005818E-01  0.00000000000E+00 0. -1.
  9000001    1    1    2    0    0 -0.39530970012E-02 -0.10317774963E-01 -0.33986028435E-01  0.35750994182E-01  0.10000000475E-02 0.  1.
</event>
<event>
 4   0  0.4809415E-02  0.9118800E+02  0.7818609E-02  0.1379984E+01
      -11   -1    0    0    0    0  0.00000000000E+00  0.00000000000E+00  0.35740347158E-01  0.35744000000E-01  0.51099999109E-03 0.  1.
       11   -1    0    0    0    0 -0.00000000000E+00 -0.00000000000E+00 -0.35740347158E-01  0.35744000000E-01  0.51099999109E-03 0. -1.
       22    1    1    2    0    0 -0.85365938640E-02 -0.48540876217E-02 -0.34361286114E-01  0.35737005818E-01  0.00000000000E+00 0. -1.
  9000001    1    1    2    0    0  0.85365938640E-02  0.48540876217E-02  0.34361286114E-01  0.35750994182E-01  0.10000000475E-02 0.  1.
</event>
<event>
 4   0  0.4809415E-02  0.9118800E+02  0.7818609E-02  0.1379984E+01
      -11   -1    0    0    0    0  0.00000000000E+00  0.00000000000E+00  0.35740347158E-01  0.35744000000E-01  0.51099999109E-03 0. -1.
       11   -1    0    0    0    0 -0.00000000000E+00 -0.00000000000E+00 -0.35740347158E-01  0.35744000000E-01  0.51099999109E-03 0.  1.
       22    1    1    2    0    0  0.34238929864E-02  0.23692085527E-02  0.35493624674E-01  0.35737005818E-01  0.00000000000E+00 0. -1.
  9000001    1    1    2    0    0 -0.34238929864E-02 -0.23692085527E-02 -0.35493624674E-01  0.35750994182E-01  0.10000000475E-02 0.  1.
</event>
<event>
 4   0  0.4809415E-02  0.9118800E+02  0.7818609E-02  0.1379984E+01
      -11   -1    0    0    0    0  0.00000000000E+00  0.00000000000E+00  0.35740347158E-01  0.35744000000E-01  0.51099999109E-03 0.  1.
       11   -1    0    0    0    0 -0.00000000000E+00 -0.00000000000E+00 -0.35740347158E-01  0.35744000000E-01  0.51099999109E-03 0. -1.
       22    1    1    2    0    0  0.70229814703E-02  0.14867100676E-02  0.35008584794E-01  0.35737005818E-01  0.00000000000E+00 0.  1.
  9000001    1    1    2    0    0 -0.70229814703E-02 -0.14867100676E-02 -0.35008584794E-01  0.35750994182E-01  0.10000000475E-02 0. -1.
</event>
<event>
 4   0  0.4809415E-02  0.9118800E+02  0.7818609E-02  0.1379984E+01
      -11   -1    0    0    0    0  0.00000000000E+00  0.00000000000E+00  0.35740347158E-01  0.35744000000E-01  0.51099999109E-03 0. -1.
       11   -1    0    0    0    0 -0.00000000000E+00 -0.00000000000E+00 -0.35740347158E-01  0.35744000000E-01  0.51099999109E-03 0.  1.
       22    1    1    2    0    0  0.11980899244E-02 -0.35999506012E-02 -0.35535032307E-01  0.35737005818E-01  0.00000000000E+00 0.  1.
  9000001    1    1    2    0    0 -0.11980899244E-02  0.35999506012E-02  0.35535032307E-01  0.35750994182E-01  0.10000000475E-02 0. -1.
</event>
<event>
 4   0  0.4809415E-02  0.9118800E+02  0.7818609E-02  0.1379984E+01
      -11   -1    0    0    0    0  0.00000000000E+00  0.00000000000E+00  0.35740347158E-01  0.35744000000E-01  0.51099999109E-03 0.  1.
       11   -1    0    0    0    0 -0.00000000000E+00 -0.00000000000E+00 -0.35740347158E-01  0.35744000000E-01  0.51099999109E-03 0. -1.
       22    1    1    2    0    0  0.17167749798E-02 -0.54672432543E-02 -0.35274573275E-01  0.35737005818E-01  0.00000000000E+00 0. -1.
  9000001    1    1    2    0    0 -0.17167749798E-02  0.54672432543E-02  0.35274573275E-01  0.35750994182E-01  0.10000000475E-02 0.  1.
</event>
<event>
 4   0  0.4809415E-02  0.9118800E+02  0.7818609E-02  0.1379984E+01
      -11   -1    0    0    0    0  0.00000000000E+00  0.00000000000E+00  0.35740347158E-01  0.35744000000E-01  0.51099999109E-03 0.  1.
       11   -1    0    0    0    0 -0.00000000000E+00 -0.00000000000E+00 -0.35740347158E-01  0.35744000000E-01  0.51099999109E-03 0. -1.
       22    1    1    2    0    0 -0.25837552910E-02 -0.86060436340E-02  0.34588926067E-01  0.35737005818E-01  0.00000000000E+00 0.  1.
  9000001    1    1    2    0    0  0.25837552910E-02  0.86060436340E-02 -0.34588926067E-01  0.35750994182E-01  0.10000000475E-02 0. -1.
</event>
<event>
 4   0  0.4809415E-02  0.9118800E+02  0.7818609E-02  0.1379984E+01
      -11   -1    0    0    0    0  0.00000000000E+00  0.00000000000E+00  0.35740347158E-01  0.35744000000E-01  0.51099999109E-03 0. -1.
       11   -1    0    0    0    0 -0.00000000000E+00 -0.00000000000E+00 -0.35740347158E-01  0.35744000000E-01  0.51099999109E-03 0.  1.
       22    1    1    2    0    0  0.48588852416E-02 -0.10879114153E-02  0.35388434097E-01  0.35737005818E-01  0.00000000000E+00 0. -1.
  9000001    1    1    2    0    0 -0.48588852416E-02  0.10879114153E-02 -0.35388434097E-01  0.35750994182E-01  0.10000000475E-02 0.  1.
</event>
<event>
 4   0  0.4809415E-02  0.9118800E+02  0.7818609E-02  0.1379984E+01
      -11   -1    0    0    0    0  0.00000000000E+00  0.00000000000E+00  0.35740347158E-01  0.35744000000E-01  0.51099999109E-03 0.  1.
       11   -1    0    0    0    0 -0.00000000000E+00 -0.00000000000E+00 -0.35740347158E-01  0.35744000000E-01  0.51099999109E-03 0. -1.
       22    1    1    2    0    0  0.23735248545E-01  0.26552960031E-01  0.29515885565E-02  0.35737005818E-01  0.00000000000E+00 0.  1.
  9000001    1    1    2    0    0 -0.23735248545E-01 -0.26552960031E-01 -0.29515885565E-02  0.35750994182E-01  0.10000000475E-02 0. -1.
</event>
<event>
 4   0  0.4809415E-02  0.9118800E+02  0.7818609E-02  0.1379984E+01
      -11   -1    0    0    0    0  0.00000000000E+00  0.00000000000E+00  0.35740347158E-01  0.35744000000E-01  0.51099999109E-03 0.  1.
       11   -1    0    0    0    0 -0.00000000000E+00 -0.00000000000E+00 -0.35740347158E-01  0.35744000000E-01  0.51099999109E-03 0. -1.
       22    1    1    2    0    0  0.26730457384E-02  0.26934001358E-02 -0.35534968792E-01  0.35737005818E-01  0.00000000000E+00 0. -1.
  9000001    1    1    2    0    0 -0.26730457384E-02 -0.26934001358E-02  0.35534968792E-01  0.35750994182E-01  0.10000000475E-02 0.  1.
</event>
<event>
 4   0  0.4809415E-02  0.9118800E+02  0.7818609E-02  0.1379984E+01
      -11   -1    0    0    0    0  0.00000000000E+00  0.00000000000E+00  0.35740347158E-01  0.35744000000E-01  0.51099999109E-03 0.  1.
       11   -1    0    0    0    0 -0.00000000000E+00 -0.00000000000E+00 -0.35740347158E-01  0.35744000000E-01  0.51099999109E-03 0. -1.
       22    1    1    2    0    0  0.20665163717E-02  0.25834591768E-01  0.24605628688E-01  0.35737005818E-01  0.00000000000E+00 0.  1.
  9000001    1    1    2    0    0 -0.20665163717E-02 -0.25834591768E-01 -0.24605628688E-01  0.35750994182E-01  0.10000000475E-02 0. -1.
</event>
<event>
 4   0  0.4809415E-02  0.9118800E+02  0.7818609E-02  0.1379984E+01
      -11   -1    0    0    0    0  0.00000000000E+00  0.00000000000E+00  0.35740347158E-01  0.35744000000E-01  0.51099999109E-03 0. -1.
       11   -1    0    0    0    0 -0.00000000000E+00 -0.00000000000E+00 -0.35740347158E-01  0.35744000000E-01  0.51099999109E-03 0.  1.
       22    1    1    2    0    0 -0.57291863164E-02 -0.10919812958E-02 -0.35257872679E-01  0.35737005818E-01  0.00000000000E+00 0.  1.
  9000001    1    1    2    0    0  0.57291863164E-02  0.10919812958E-02  0.35257872679E-01  0.35750994182E-01  0.10000000475E-02 0. -1.
</event>
<event>
 4   0  0.4809415E-02  0.9118800E+02  0.7818609E-02  0.1379984E+01
      -11   -1    0    0    0    0  0.00000000000E+00  0.00000000000E+00  0.35740347158E-01  0.35744000000E-01  0.51099999109E-03 0. -1.
       11   -1    0    0    0    0 -0.00000000000E+00 -0.00000000000E+00 -0.35740347158E-01  0.35744000000E-01  0.51099999109E-03 0.  1.
       22    1    1    2    0    0  0.17279810485E-02  0.28804246537E-01 -0.21082292281E-01  0.35737005818E-01  0.00000000000E+00 0. -1.
  9000001    1    1    2    0    0 -0.17279810485E-02 -0.28804246537E-01  0.21082292281E-01  0.35750994182E-01  0.10000000475E-02 0.  1.
</event>
<event>
 4   0  0.4809415E-02  0.9118800E+02  0.7818609E-02  0.1379984E+01
      -11   -1    0    0    0    0  0.00000000000E+00  0.00000000000E+00  0.35740347158E-01  0.35744000000E-01  0.51099999109E-03 0.  1.
       11   -1    0    0    0    0 -0.00000000000E+00 -0.00000000000E+00 -0.35740347158E-01  0.35744000000E-01  0.51099999109E-03 0. -1.
       22    1    1    2    0    0 -0.12058605388E-01 -0.11759017582E-01  0.31519028007E-01  0.35737005818E-01  0.00000000000E+00 0.  1.
  9000001    1    1    2    0    0  0.12058605388E-01  0.11759017582E-01 -0.31519028007E-01  0.35750994182E-01  0.10000000475E-02 0. -1.
</event>
<event>
 4   0  0.4809415E-02  0.9118800E+02  0.7818609E-02  0.1379984E+01
      -11   -1    0    0    0    0  0.00000000000E+00  0.00000000000E+00  0.35740347158E-01  0.35744000000E-01  0.51099999109E-03 0.  1.
       11   -1    0    0    0    0 -0.00000000000E+00 -0.00000000000E+00 -0.35740347158E-01  0.35744000000E-01  0.51099999109E-03 0. -1.
       22    1    1    2    0    0 -0.19769009373E-02 -0.61045028275E-02  0.35156229786E-01  0.35737005818E-01  0.00000000000E+00 0.  1.
  9000001    1    1    2    0    0  0.19769009373E-02  0.61045028275E-02 -0.35156229786E-01  0.35750994182E-01  0.10000000475E-02 0. -1.
</event>
<event>
 4   0  0.4809415E-02  0.9118800E+02  0.7818609E-02  0.1379984E+01
      -11   -1    0    0    0    0  0.00000000000E+00  0.00000000000E+00  0.35740347158E-01  0.35744000000E-01  0.51099999109E-03 0.  1.
       11   -1    0    0    0    0 -0.00000000000E+00 -0.00000000000E+00 -0.35740347158E-01  0.35744000000E-01  0.51099999109E-03 0. -1.
       22    1    1    2    0    0  0.34936258012E-02 -0.41967760300E-02  0.35317350334E-01  0.35737005818E-01  0.00000000000E+00 0.  1.
  9000001    1    1    2    0    0 -0.34936258012E-02  0.41967760300E-02 -0.35317350334E-01  0.35750994182E-01  0.10000000475E-02 0. -1.
</event>
<event>
 4   0  0.4809415E-02  0.9118800E+02  0.7818609E-02  0.1379984E+01
      -11   -1    0    0    0    0  0.00000000000E+00  0.00000000000E+00  0.35740347158E-01  0.35744000000E-01  0.51099999109E-03 0. -1.
       11   -1    0    0    0    0 -0.00000000000E+00 -0.00000000000E+00 -0.35740347158E-01  0.35744000000E-01  0.51099999109E-03 0.  1.
       22    1    1    2    0    0 -0.26259446251E-02  0.19253427190E-02  0.35588355611E-01  0.35737005818E-01  0.00000000000E+00 0. -1.
  9000001    1    1    2    0    0  0.26259446251E-02 -0.19253427190E-02 -0.35588355611E-01  0.35750994182E-01  0.10000000475E-02 0.  1.
</event>
<event>
 4   0  0.4809415E-02  0.9118800E+02  0.7818609E-02  0.1379984E+01
      -11   -1    0    0    0    0  0.00000000000E+00  0.00000000000E+00  0.35740347158E-01  0.35744000000E-01  0.51099999109E-03 0. -1.
       11   -1    0    0    0    0 -0.00000000000E+00 -0.00000000000E+00 -0.35740347158E-01  0.35744000000E-01  0.51099999109E-03 0.  1.
       22    1    1    2    0    0 -0.47563011723E-02 -0.58888454803E-03 -0.35414183585E-01  0.35737005818E-01  0.00000000000E+00 0.  1.
  9000001    1    1    2    0    0  0.47563011723E-02  0.58888454803E-03  0.35414183585E-01  0.35750994182E-01  0.10000000475E-02 0. -1.
</event>
<event>
 4   0  0.4809415E-02  0.9118800E+02  0.7818609E-02  0.1379984E+01
      -11   -1    0    0    0    0  0.00000000000E+00  0.00000000000E+00  0.35740347158E-01  0.35744000000E-01  0.51099999109E-03 0. -1.
       11   -1    0    0    0    0 -0.00000000000E+00 -0.00000000000E+00 -0.35740347158E-01  0.35744000000E-01  0.51099999109E-03 0.  1.
       22    1    1    2    0    0  0.12923574673E-01 -0.10112578725E-01  0.31746662093E-01  0.35737005818E-01  0.00000000000E+00 0. -1.
  9000001    1    1    2    0    0 -0.12923574673E-01  0.10112578725E-01 -0.31746662093E-01  0.35750994182E-01  0.10000000475E-02 0.  1.
</event>
<event>
 4   0  0.4809415E-02  0.9118800E+02  0.7818609E-02  0.1379984E+01
      -11   -1    0    0    0    0  0.00000000000E+00  0.00000000000E+00  0.35740347158E-01  0.35744000000E-01  0.51099999109E-03 0. -1.
       11   -1    0    0    0    0 -0.00000000000E+00 -0.00000000000E+00 -0.35740347158E-01  0.35744000000E-01  0.51099999109E-03 0.  1.
       22    1    1    2    0    0 -0.28706490604E-02 -0.36612559547E-02 -0.35432868409E-01  0.35737005818E-01  0.00000000000E+00 0.  1.
  9000001    1    1    2    0    0  0.28706490604E-02  0.36612559547E-02  0.35432868409E-01  0.35750994182E-01  0.10000000475E-02 0. -1.
</event>
<event>
 4   0  0.4809415E-02  0.9118800E+02  0.7818609E-02  0.1379984E+01
      -11   -1    0    0    0    0  0.00000000000E+00  0.00000000000E+00  0.35740347158E-01  0.35744000000E-01  0.51099999109E-03 0.  1.
       11   -1    0    0    0    0 -0.00000000000E+00 -0.00000000000E+00 -0.35740347158E-01  0.35744000000E-01  0.51099999109E-03 0. -1.
       22    1    1    2    0    0  0.22223820420E-02 -0.47611064811E-02 -0.35348641671E-01  0.35737005818E-01  0.00000000000E+00 0. -1.
  9000001    1    1    2    0    0 -0.22223820420E-02  0.47611064811E-02  0.35348641671E-01  0.35750994182E-01  0.10000000475E-02 0.  1.
</event>
<event>
 4   0  0.4809415E-02  0.9118800E+02  0.7818609E-02  0.1379984E+01
      -11   -1    0    0    0    0  0.00000000000E+00  0.00000000000E+00  0.35740347158E-01  0.35744000000E-01  0.51099999109E-03 0. -1.
       11   -1    0    0    0    0 -0.00000000000E+00 -0.00000000000E+00 -0.35740347158E-01  0.35744000000E-01  0.51099999109E-03 0.  1.
       22    1    1    2    0    0 -0.46562096344E-02  0.49998535886E-02  0.35077838599E-01  0.35737005818E-01  0.00000000000E+00 0. -1.
  9000001    1    1    2    0    0  0.46562096344E-02 -0.49998535886E-02 -0.35077838599E-01  0.35750994182E-01  0.10000000475E-02 0.  1.
</event>
<event>
 4   0  0.4809415E-02  0.9118800E+02  0.7818609E-02  0.1379984E+01
      -11   -1    0    0    0    0  0.00000000000E+00  0.00000000000E+00  0.35740347158E-01  0.35744000000E-01  0.51099999109E-03 0. -1.
       11   -1    0    0    0    0 -0.00000000000E+00 -0.00000000000E+00 -0.35740347158E-01  0.35744000000E-01  0.51099999109E-03 0.  1.
       22    1    1    2    0    0 -0.98285719312E-02 -0.96914715665E-02 -0.32963739738E-01  0.35737005818E-01  0.00000000000E+00 0.  1.
  9000001    1    1    2    0    0  0.98285719312E-02  0.96914715665E-02  0.32963739738E-01  0.35750994182E-01  0.10000000475E-02 0. -1.
</event>
<event>
 4   0  0.4809415E-02  0.9118800E+02  0.7818609E-02  0.1379984E+01
      -11   -1    0    0    0    0  0.00000000000E+00  0.00000000000E+00  0.35740347158E-01  0.35744000000E-01  0.51099999109E-03 0. -1.
       11   -1    0    0    0    0 -0.00000000000E+00 -0.00000000000E+00 -0.35740347158E-01  0.35744000000E-01  0.51099999109E-03 0.  1.
       22    1    1    2    0    0  0.51977807517E-02  0.35383497494E-02 -0.35179493191E-01  0.35737005818E-01  0.00000000000E+00 0.  1.
  9000001    1    1    2    0    0 -0.51977807517E-02 -0.35383497494E-02  0.35179493191E-01  0.35750994182E-01  0.10000000475E-02 0. -1.
</event>
<event>
 4   0  0.4809415E-02  0.9118800E+02  0.7818609E-02  0.1379984E+01
      -11   -1    0    0    0    0  0.00000000000E+00  0.00000000000E+00  0.35740347158E-01  0.35744000000E-01  0.51099999109E-03 0.  1.
       11   -1    0    0    0    0 -0.00000000000E+00 -0.00000000000E+00 -0.35740347158E-01  0.35744000000E-01  0.51099999109E-03 0. -1.
       22    1    1    2    0    0 -0.21746018020E-02  0.75056277175E-02  0.34872198733E-01  0.35737005818E-01  0.00000000000E+00 0.  1.
  9000001    1    1    2    0    0  0.21746018020E-02 -0.75056277175E-02 -0.34872198733E-01  0.35750994182E-01  0.10000000475E-02 0. -1.
</event>
<event>
 4   0  0.4809415E-02  0.9118800E+02  0.7818609E-02  0.1379984E+01
      -11   -1    0    0    0    0  0.00000000000E+00  0.00000000000E+00  0.35740347158E-01  0.35744000000E-01  0.51099999109E-03 0. -1.
       11   -1    0    0    0    0 -0.00000000000E+00 -0.00000000000E+00 -0.35740347158E-01  0.35744000000E-01  0.51099999109E-03 0.  1.
       22    1    1    2    0    0 -0.66140313327E-03 -0.48455016366E-02 -0.35400808531E-01  0.35737005818E-01  0.00000000000E+00 0.  1.
  9000001    1    1    2    0    0  0.66140313327E-03  0.48455016366E-02  0.35400808531E-01  0.35750994182E-01  0.10000000475E-02 0. -1.
</event>
<event>
 4   0  0.4809415E-02  0.9118800E+02  0.7818609E-02  0.1379984E+01
      -11   -1    0    0    0    0  0.00000000000E+00  0.00000000000E+00  0.35740347158E-01  0.35744000000E-01  0.51099999109E-03 0.  1.
       11   -1    0    0    0    0 -0.00000000000E+00 -0.00000000000E+00 -0.35740347158E-01  0.35744000000E-01  0.51099999109E-03 0. -1.
       22    1    1    2    0    0  0.15044976094E-01 -0.29486776799E-01 -0.13465224589E-01  0.35737005818E-01  0.00000000000E+00 0. -1.
  9000001    1    1    2    0    0 -0.15044976094E-01  0.29486776799E-01  0.13465224589E-01  0.35750994182E-01  0.10000000475E-02 0.  1.
</event>
<event>
 4   0  0.4809415E-02  0.9118800E+02  0.7818609E-02  0.1379984E+01
      -11   -1    0    0    0    0  0.00000000000E+00  0.00000000000E+00  0.35740347158E-01  0.35744000000E-01  0.51099999109E-03 0. -1.
       11   -1    0    0    0    0 -0.00000000000E+00 -0.00000000000E+00 -0.35740347158E-01  0.35744000000E-01  0.51099999109E-03 0.  1.
       22    1    1    2    0    0  0.33465282213E-02 -0.62537237193E-02  0.35026065628E-01  0.35737005818E-01  0.00000000000E+00 0. -1.
  9000001    1    1    2    0    0 -0.33465282213E-02  0.62537237193E-02 -0.35026065628E-01  0.35750994182E-01  0.10000000475E-02 0.  1.
</event>
<event>
 4   0  0.4809415E-02  0.9118800E+02  0.7818609E-02  0.1379984E+01
      -11   -1    0    0    0    0  0.00000000000E+00  0.00000000000E+00  0.35740347158E-01  0.35744000000E-01  0.51099999109E-03 0.  1.
       11   -1    0    0    0    0 -0.00000000000E+00 -0.00000000000E+00 -0.35740347158E-01  0.35744000000E-01  0.51099999109E-03 0. -1.
       22    1    1    2    0    0  0.14253890878E-01  0.91080093201E-02 -0.31480221504E-01  0.35737005818E-01  0.00000000000E+00 0. -1.
  9000001    1    1    2    0    0 -0.14253890878E-01 -0.91080093201E-02  0.31480221504E-01  0.35750994182E-01  0.10000000475E-02 0.  1.
</event>
<event>
 4   0  0.4809415E-02  0.9118800E+02  0.7818609E-02  0.1379984E+01
      -11   -1    0    0    0    0  0.00000000000E+00  0.00000000000E+00  0.35740347158E-01  0.35744000000E-01  0.51099999109E-03 0.  1.
       11   -1    0    0    0    0 -0.00000000000E+00 -0.00000000000E+00 -0.35740347158E-01  0.35744000000E-01  0.51099999109E-03 0. -1.
       22    1    1    2    0    0 -0.25785276722E-01  0.16407703693E-01  0.18521348460E-01  0.35737005818E-01  0.00000000000E+00 0.  1.
  9000001    1    1    2    0    0  0.25785276722E-01 -0.16407703693E-01 -0.18521348460E-01  0.35750994182E-01  0.10000000475E-02 0. -1.
</event>
<event>
 4   0  0.4809415E-02  0.9118800E+02  0.7818609E-02  0.1379984E+01
      -11   -1    0    0    0    0  0.00000000000E+00  0.00000000000E+00  0.35740347158E-01  0.35744000000E-01  0.51099999109E-03 0. -1.
       11   -1    0    0    0    0 -0.00000000000E+00 -0.00000000000E+00 -0.35740347158E-01  0.35744000000E-01  0.51099999109E-03 0.  1.
       22    1    1    2    0    0  0.36560152170E-02  0.57239587311E-02 -0.35085658524E-01  0.35737005818E-01  0.00000000000E+00 0.  1.
  9000001    1    1    2    0    0 -0.36560152170E-02 -0.57239587311E-02  0.35085658524E-01  0.35750994182E-01  0.10000000475E-02 0. -1.
</event>
<event>
 4   0  0.4809415E-02  0.9118800E+02  0.7818609E-02  0.1379984E+01
      -11   -1    0    0    0    0  0.00000000000E+00  0.00000000000E+00  0.35740347158E-01  0.35744000000E-01  0.51099999109E-03 0. -1.
       11   -1    0    0    0    0 -0.00000000000E+00 -0.00000000000E+00 -0.35740347158E-01  0.35744000000E-01  0.51099999109E-03 0.  1.
       22    1    1    2    0    0  0.38012564967E-02  0.97496558419E-02 -0.34170575718E-01  0.35737005818E-01  0.00000000000E+00 0.  1.
  9000001    1    1    2    0    0 -0.38012564967E-02 -0.97496558419E-02  0.34170575718E-01  0.35750994182E-01  0.10000000475E-02 0. -1.
</event>
<event>
 4   0  0.4809415E-02  0.9118800E+02  0.7818609E-02  0.1379984E+01
      -11   -1    0    0    0    0  0.00000000000E+00  0.00000000000E+00  0.35740347158E-01  0.35744000000E-01  0.51099999109E-03 0.  1.
       11   -1    0    0    0    0 -0.00000000000E+00 -0.00000000000E+00 -0.35740347158E-01  0.35744000000E-01  0.51099999109E-03 0. -1.
       22    1    1    2    0    0 -0.29868425427E-01 -0.14083962550E-01  0.13662091578E-01  0.35737005818E-01  0.00000000000E+00 0.  1.
  9000001    1    1    2    0    0  0.29868425427E-01  0.14083962550E-01 -0.13662091578E-01  0.35750994182E-01  0.10000000475E-02 0. -1.
</event>
<event>
 4   0  0.4809415E-02  0.9118800E+02  0.7818609E-02  0.1379984E+01
      -11   -1    0    0    0    0  0.00000000000E+00  0.00000000000E+00  0.35740347158E-01  0.35744000000E-01  0.51099999109E-03 0. -1.
       11   -1    0    0    0    0 -0.00000000000E+00 -0.00000000000E+00 -0.35740347158E-01  0.35744000000E-01  0.51099999109E-03 0.  1.
       22    1    1    2    0    0  0.10266512710E-01  0.10309825596E-01 -0.32641075317E-01  0.35737005818E-01  0.00000000000E+00 0.  1.
  9000001    1    1    2    0    0 -0.10266512710E-01 -0.10309825596E-01  0.32641075317E-01  0.35750994182E-01  0.10000000475E-02 0. -1.
</event>
<event>
 4   0  0.4809415E-02  0.9118800E+02  0.7818609E-02  0.1379984E+01
      -11   -1    0    0    0    0  0.00000000000E+00  0.00000000000E+00  0.35740347158E-01  0.35744000000E-01  0.51099999109E-03 0. -1.
       11   -1    0    0    0    0 -0.00000000000E+00 -0.00000000000E+00 -0.35740347158E-01  0.35744000000E-01  0.51099999109E-03 0.  1.
       22    1    1    2    0    0  0.24948464486E-01  0.16608693242E-01  0.19464301001E-01  0.35737005818E-01  0.00000000000E+00 0. -1.
  9000001    1    1    2    0    0 -0.24948464486E-01 -0.16608693242E-01 -0.19464301001E-01  0.35750994182E-01  0.10000000475E-02 0.  1.
</event>
<event>
 4   0  0.4809415E-02  0.9118800E+02  0.7818609E-02  0.1379984E+01
      -11   -1    0    0    0    0  0.00000000000E+00  0.00000000000E+00  0.35740347158E-01  0.35744000000E-01  0.51099999109E-03 0.  1.
       11   -1    0    0    0    0 -0.00000000000E+00 -0.00000000000E+00 -0.35740347158E-01  0.35744000000E-01  0.51099999109E-03 0. -1.
       22    1    1    2    0    0  0.37817461408E-02 -0.21181707554E-02 -0.35473163570E-01  0.35737005818E-01  0.00000000000E+00 0. -1.
  9000001    1    1    2    0    0 -0.37817461408E-02  0.21181707554E-02  0.35473163570E-01  0.35750994182E-01  0.10000000475E-02 0.  1.
</event>
<event>
 4   0  0.4809415E-02  0.9118800E+02  0.7818609E-02  0.1379984E+01
      -11   -1    0    0    0    0  0.00000000000E+00  0.00000000000E+00  0.35740347158E-01  0.35744000000E-01  0.51099999109E-03 0. -1.
       11   -1    0    0    0    0 -0.00000000000E+00 -0.00000000000E+00 -0.35740347158E-01  0.35744000000E-01  0.51099999109E-03 0.  1.
       22    1    1    2    0    0  0.10256159084E-01  0.81753662081E-02  0.33243167314E-01  0.35737005818E-01  0.00000000000E+00 0. -1.
  9000001    1    1    2    0    0 -0.10256159084E-01 -0.81753662081E-02 -0.33243167314E-01  0.35750994182E-01  0.10000000475E-02 0.  1.
</event>
<event>
 4   0  0.4809415E-02  0.9118800E+02  0.7818609E-02  0.1379984E+01
      -11   -1    0    0    0    0  0.00000000000E+00  0.00000000000E+00  0.35740347158E-01  0.35744000000E-01  0.51099999109E-03 0. -1.
       11   -1    0    0    0    0 -0.00000000000E+00 -0.00000000000E+00 -0.35740347158E-01  0.35744000000E-01  0.51099999109E-03 0.  1.
       22    1    1    2    0    0 -0.18025229571E-01 -0.22969614481E-01  0.20606345974E-01  0.35737005818E-01  0.00000000000E+00 0. -1.
  9000001    1    1    2    0    0  0.18025229571E-01  0.22969614481E-01 -0.20606345974E-01  0.35750994182E-01  0.10000000475E-02 0.  1.
</event>
<event>
 4   0  0.4809415E-02  0.9118800E+02  0.7818609E-02  0.1379984E+01
      -11   -1    0    0    0    0  0.00000000000E+00  0.00000000000E+00  0.35740347158E-01  0.35744000000E-01  0.51099999109E-03 0.  1.
       11   -1    0    0    0    0 -0.00000000000E+00 -0.00000000000E+00 -0.35740347158E-01  0.35744000000E-01  0.51099999109E-03 0. -1.
       22    1    1    2    0    0 -0.23462925314E-01 -0.20761386854E-01 -0.17192717542E-01  0.35737005818E-01  0.00000000000E+00 0. -1.
  9000001    1    1    2    0    0  0.23462925314E-01  0.20761386854E-01  0.17192717542E-01  0.35750994182E-01  0.10000000475E-02 0.  1.
</event>
<event>
 4   0  0.4809415E-02  0.9118800E+02  0.7818609E-02  0.1379984E+01
      -11   -1    0    0    0    0  0.00000000000E+00  0.00000000000E+00  0.35740347158E-01  0.35744000000E-01  0.51099999109E-03 0.  1.
       11   -1    0    0    0    0 -0.00000000000E+00 -0.00000000000E+00 -0.35740347158E-01  0.35744000000E-01  0.51099999109E-03 0. -1.
       22    1    1    2    0    0  0.74984067050E-02 -0.25892675206E-02  0.34845418285E-01  0.35737005818E-01  0.00000000000E+00 0.  1.
  9000001    1    1    2    0    0 -0.74984067050E-02  0.25892675206E-02 -0.34845418285E-01  0.35750994182E-01  0.10000000475E-02 0. -1.
</event>
<event>
 4   0  0.4809415E-02  0.9118800E+02  0.7818609E-02  0.1379984E+01
      -11   -1    0    0    0    0  0.00000000000E+00  0.00000000000E+00  0.35740347158E-01  0.35744000000E-01  0.51099999109E-03 0.  1.
       11   -1    0    0    0    0 -0.00000000000E+00 -0.00000000000E+00 -0.35740347158E-01  0.35744000000E-01  0.51099999109E-03 0. -1.
       22    1    1    2    0    0 -0.64966284584E-02  0.18569151946E-02  0.35092438922E-01  0.35737005818E-01  0.00000000000E+00 0.  1.
  9000001    1    1    2    0    0  0.64966284584E-02 -0.18569151946E-02 -0.35092438922E-01  0.35750994182E-01  0.10000000475E-02 0. -1.
</event>
<event>
 4   0  0.4809415E-02  0.9118800E+02  0.7818609E-02  0.1379984E+01
      -11   -1    0    0    0    0  0.00000000000E+00  0.00000000000E+00  0.35740347158E-01  0.35744000000E-01  0.51099999109E-03 0.  1.
       11   -1    0    0    0    0 -0.00000000000E+00 -0.00000000000E+00 -0.35740347158E-01  0.35744000000E-01  0.51099999109E-03 0. -1.
       22    1    1    2    0    0 -0.17492159633E-01  0.85386832273E-03 -0.31151706938E-01  0.35737005818E-01  0.00000000000E+00 0. -1.
  9000001    1    1    2    0    0  0.17492159633E-01 -0.85386832273E-03  0.31151706938E-01  0.35750994182E-01  0.10000000475E-02 0.  1.
</event>
<event>
 4   0  0.4809415E-02  0.9118800E+02  0.7818609E-02  0.1379984E+01
      -11   -1    0    0    0    0  0.00000000000E+00  0.00000000000E+00  0.35740347158E-01  0.35744000000E-01  0.51099999109E-03 0. -1.
       11   -1    0    0    0    0 -0.00000000000E+00 -0.00000000000E+00 -0.35740347158E-01  0.35744000000E-01  0.51099999109E-03 0.  1.
       22    1    1    2    0    0 -0.11866982398E-02 -0.12471993891E-01 -0.33469011048E-01  0.35737005818E-01  0.00000000000E+00 0.  1.
  9000001    1    1    2    0    0  0.11866982398E-02  0.12471993891E-01  0.33469011048E-01  0.35750994182E-01  0.10000000475E-02 0. -1.
</event>
<event>
 4   0  0.4809415E-02  0.9118800E+02  0.7818609E-02  0.1379984E+01
      -11   -1    0    0    0    0  0.00000000000E+00  0.00000000000E+00  0.35740347158E-01  0.35744000000E-01  0.51099999109E-03 0.  1.
       11   -1    0    0    0    0 -0.00000000000E+00 -0.00000000000E+00 -0.35740347158E-01  0.35744000000E-01  0.51099999109E-03 0. -1.
       22    1    1    2    0    0 -0.43095513508E-02 -0.83725032026E-02  0.34474085081E-01  0.35737005818E-01  0.00000000000E+00 0.  1.
  9000001    1    1    2    0    0  0.43095513508E-02  0.83725032026E-02 -0.34474085081E-01  0.35750994182E-01  0.10000000475E-02 0. -1.
</event>
<event>
 4   0  0.4809415E-02  0.9118800E+02  0.7818609E-02  0.1379984E+01
      -11   -1    0    0    0    0  0.00000000000E+00  0.00000000000E+00  0.35740347158E-01  0.35744000000E-01  0.51099999109E-03 0. -1.
       11   -1    0    0    0    0 -0.00000000000E+00 -0.00000000000E+00 -0.35740347158E-01  0.35744000000E-01  0.51099999109E-03 0.  1.
       22    1    1    2    0    0  0.76891313730E-02  0.58732931414E-02 -0.34402256776E-01  0.35737005818E-01  0.00000000000E+00 0.  1.
  9000001    1    1    2    0    0 -0.76891313730E-02 -0.58732931414E-02  0.34402256776E-01  0.35750994182E-01  0.10000000475E-02 0. -1.
</event>
<event>
 4   0  0.4809415E-02  0.9118800E+02  0.7818609E-02  0.1379984E+01
      -11   -1    0    0    0    0  0.00000000000E+00  0.00000000000E+00  0.35740347158E-01  0.35744000000E-01  0.51099999109E-03 0. -1.
       11   -1    0    0    0    0 -0.00000000000E+00 -0.00000000000E+00 -0.35740347158E-01  0.35744000000E-01  0.51099999109E-03 0.  1.
       22    1    1    2    0    0 -0.59151197215E-03 -0.63986108858E-02 -0.35154537078E-01  0.35737005818E-01  0.00000000000E+00 0.  1.
  9000001    1    1    2    0    0  0.59151197215E-03  0.63986108858E-02  0.35154537078E-01  0.35750994182E-01  0.10000000475E-02 0. -1.
</event>
<event>
 4   0  0.4809415E-02  0.9118800E+02  0.7818609E-02  0.1379984E+01
      -11   -1    0    0    0    0  0.00000000000E+00  0.00000000000E+00  0.35740347158E-01  0.35744000000E-01  0.51099999109E-03 0. -1.
       11   -1    0    0    0    0 -0.00000000000E+00 -0.00000000000E+00 -0.35740347158E-01  0.35744000000E-01  0.51099999109E-03 0.  1.
       22    1    1    2    0    0 -0.22157214220E-01 -0.55392191772E-02  0.27486514763E-01  0.35737005818E-01  0.00000000000E+00 0. -1.
  9000001    1    1    2    0    0  0.22157214220E-01  0.55392191772E-02 -0.27486514763E-01  0.35750994182E-01  0.10000000475E-02 0.  1.
</event>
<event>
 4   0  0.4809415E-02  0.9118800E+02  0.7818609E-02  0.1379984E+01
      -11   -1    0    0    0    0  0.00000000000E+00  0.00000000000E+00  0.35740347158E-01  0.35744000000E-01  0.51099999109E-03 0. -1.
       11   -1    0    0    0    0 -0.00000000000E+00 -0.00000000000E+00 -0.35740347158E-01  0.35744000000E-01  0.51099999109E-03 0.  1.
       22    1    1    2    0    0 -0.35222213966E-02  0.70040015767E-02  0.34866481085E-01  0.35737005818E-01  0.00000000000E+00 0. -1.
  9000001    1    1    2    0    0  0.35222213966E-02 -0.70040015767E-02 -0.34866481085E-01  0.35750994182E-01  0.10000000475E-02 0.  1.
</event>
<event>
 4   0  0.4809415E-02  0.9118800E+02  0.7818609E-02  0.1379984E+01
      -11   -1    0    0    0    0  0.00000000000E+00  0.00000000000E+00  0.35740347158E-01  0.35744000000E-01  0.51099999109E-03 0. -1.
       11   -1    0    0    0    0 -0.00000000000E+00 -0.00000000000E+00 -0.35740347158E-01  0.35744000000E-01  0.51099999109E-03 0.  1.
       22    1    1    2    0    0  0.23859575162E-02 -0.29615969097E-02  0.35534064436E-01  0.35737005818E-01  0.00000000000E+00 0. -1.
  9000001    1    1    2    0    0 -0.23859575162E-02  0.29615969097E-02 -0.35534064436E-01  0.35750994182E-01  0.10000000475E-02 0.  1.
</event>
<event>
 4   0  0.4809415E-02  0.9118800E+02  0.7818609E-02  0.1379984E+01
      -11   -1    0    0    0    0  0.00000000000E+00  0.00000000000E+00  0.35740347158E-01  0.35744000000E-01  0.51099999109E-03 0.  1.
       11   -1    0    0    0    0 -0.00000000000E+00 -0.00000000000E+00 -0.35740347158E-01  0.35744000000E-01  0.51099999109E-03 0. -1.
       22    1    1    2    0    0  0.16557533588E-01  0.44370969492E-02  0.31357516436E-01  0.35737005818E-01  0.00000000000E+00 0.  1.
  9000001    1    1    2    0    0 -0.16557533588E-01 -0.44370969492E-02 -0.31357516436E-01  0.35750994182E-01  0.10000000475E-02 0. -1.
</event>
<event>
 4   0  0.4809415E-02  0.9118800E+02  0.7818609E-02  0.1379984E+01
      -11   -1    0    0    0    0  0.00000000000E+00  0.00000000000E+00  0.35740347158E-01  0.35744000000E-01  0.51099999109E-03 0.  1.
       11   -1    0    0    0    0 -0.00000000000E+00 -0.00000000000E+00 -0.35740347158E-01  0.35744000000E-01  0.51099999109E-03 0. -1.
       22    1    1    2    0    0 -0.35175153131E-01  0.70223016679E-03  0.62728828973E-02  0.35737005818E-01  0.00000000000E+00 0.  1.
  9000001    1    1    2    0    0  0.35175153131E-01 -0.70223016679E-03 -0.62728828973E-02  0.35750994182E-01  0.10000000475E-02 0. -1.
</event>
<event>
 4   0  0.4809415E-02  0.9118800E+02  0.7818609E-02  0.1379984E+01
      -11   -1    0    0    0    0  0.00000000000E+00  0.00000000000E+00  0.35740347158E-01  0.35744000000E-01  0.51099999109E-03 0. -1.
       11   -1    0    0    0    0 -0.00000000000E+00 -0.00000000000E+00 -0.35740347158E-01  0.35744000000E-01  0.51099999109E-03 0.  1.
       22    1    1    2    0    0  0.21350398036E-01  0.91137923533E-02 -0.27170441246E-01  0.35737005818E-01  0.00000000000E+00 0.  1.
  9000001    1    1    2    0    0 -0.21350398036E-01 -0.91137923533E-02  0.27170441246E-01  0.35750994182E-01  0.10000000475E-02 0. -1.
</event>
<event>
 4   0  0.4809415E-02  0.9118800E+02  0.7818609E-02  0.1379984E+01
      -11   -1    0    0    0    0  0.00000000000E+00  0.00000000000E+00  0.35740347158E-01  0.35744000000E-01  0.51099999109E-03 0. -1.
       11   -1    0    0    0    0 -0.00000000000E+00 -0.00000000000E+00 -0.35740347158E-01  0.35744000000E-01  0.51099999109E-03 0.  1.
       22    1    1    2    0    0 -0.13769758282E-01 -0.12981910223E-01  0.30314969053E-01  0.35737005818E-01  0.00000000000E+00 0. -1.
  9000001    1    1    2    0    0  0.13769758282E-01  0.12981910223E-01 -0.30314969053E-01  0.35750994182E-01  0.10000000475E-02 0.  1.
</event>
<event>
 4   0  0.4809415E-02  0.9118800E+02  0.7818609E-02  0.1379984E+01
      -11   -1    0    0    0    0  0.00000000000E+00  0.00000000000E+00  0.35740347158E-01  0.35744000000E-01  0.51099999109E-03 0. -1.
       11   -1    0    0    0    0 -0.00000000000E+00 -0.00000000000E+00 -0.35740347158E-01  0.35744000000E-01  0.51099999109E-03 0.  1.
       22    1    1    2    0    0  0.11430554778E-01 -0.33139893212E-02 -0.33697084104E-01  0.35737005818E-01  0.00000000000E+00 0.  1.
  9000001    1    1    2    0    0 -0.11430554778E-01  0.33139893212E-02  0.33697084104E-01  0.35750994182E-01  0.10000000475E-02 0. -1.
</event>
<event>
 4   0  0.4809415E-02  0.9118800E+02  0.7818609E-02  0.1379984E+01
      -11   -1    0    0    0    0  0.00000000000E+00  0.00000000000E+00  0.35740347158E-01  0.35744000000E-01  0.51099999109E-03 0.  1.
       11   -1    0    0    0    0 -0.00000000000E+00 -0.00000000000E+00 -0.35740347158E-01  0.35744000000E-01  0.51099999109E-03 0. -1.
       22    1    1    2    0    0  0.50179529466E-02 -0.48831744887E-02 -0.35044376725E-01  0.35737005818E-01  0.00000000000E+00 0. -1.
  9000001    1    1    2    0    0 -0.50179529466E-02  0.48831744887E-02  0.35044376725E-01  0.35750994182E-01  0.10000000475E-02 0.  1.
</event>
<event>
 4   0  0.4809415E-02  0.9118800E+02  0.7818609E-02  0.1379984E+01
      -11   -1    0    0    0    0  0.00000000000E+00  0.00000000000E+00  0.35740347158E-01  0.35744000000E-01  0.51099999109E-03 0. -1.
       11   -1    0    0    0    0 -0.00000000000E+00 -0.00000000000E+00 -0.35740347158E-01  0.35744000000E-01  0.51099999109E-03 0.  1.
       22    1    1    2    0    0  0.46302730087E-02  0.71552549729E-03  0.35428550351E-01  0.35737005818E-01  0.00000000000E+00 0. -1.
  9000001    1    1    2    0    0 -0.46302730087E-02 -0.71552549729E-03 -0.35428550351E-01  0.35750994182E-01  0.10000000475E-02 0.  1.
</event>
<event>
 4   0  0.4809415E-02  0.9118800E+02  0.7818609E-02  0.1379984E+01
      -11   -1    0    0    0    0  0.00000000000E+00  0.00000000000E+00  0.35740347158E-01  0.35744000000E-01  0.51099999109E-03 0. -1.
       11   -1    0    0    0    0 -0.00000000000E+00 -0.00000000000E+00 -0.35740347158E-01  0.35744000000E-01  0.51099999109E-03 0.  1.
       22    1    1    2    0    0 -0.40366494164E-02  0.36140173849E-02  0.35323900191E-01  0.35737005818E-01  0.00000000000E+00 0. -1.
  9000001    1    1    2    0    0  0.40366494164E-02 -0.36140173849E-02 -0.35323900191E-01  0.35750994182E-01  0.10000000475E-02 0.  1.
</event>
<event>
 4   0  0.4809415E-02  0.9118800E+02  0.7818609E-02  0.1379984E+01
      -11   -1    0    0    0    0  0.00000000000E+00  0.00000000000E+00  0.35740347158E-01  0.35744000000E-01  0.51099999109E-03 0. -1.
       11   -1    0    0    0    0 -0.00000000000E+00 -0.00000000000E+00 -0.35740347158E-01  0.35744000000E-01  0.51099999109E-03 0.  1.
       22    1    1    2    0    0  0.92214202700E-02  0.13118147506E-02 -0.34501856981E-01  0.35737005818E-01  0.00000000000E+00 0.  1.
  9000001    1    1    2    0    0 -0.92214202700E-02 -0.13118147506E-02  0.34501856981E-01  0.35750994182E-01  0.10000000475E-02 0. -1.
</event>
<event>
 4   0  0.4809415E-02  0.9118800E+02  0.7818609E-02  0.1379984E+01
      -11   -1    0    0    0    0  0.00000000000E+00  0.00000000000E+00  0.35740347158E-01  0.35744000000E-01  0.51099999109E-03 0. -1.
       11   -1    0    0    0    0 -0.00000000000E+00 -0.00000000000E+00 -0.35740347158E-01  0.35744000000E-01  0.51099999109E-03 0.  1.
       22    1    1    2    0    0  0.24530604146E-02  0.18377939311E-01  0.30551062603E-01  0.35737005818E-01  0.00000000000E+00 0. -1.
  9000001    1    1    2    0    0 -0.24530604146E-02 -0.18377939311E-01 -0.30551062603E-01  0.35750994182E-01  0.10000000475E-02 0.  1.
</event>
<event>
 4   0  0.4809415E-02  0.9118800E+02  0.7818609E-02  0.1379984E+01
      -11   -1    0    0    0    0  0.00000000000E+00  0.00000000000E+00  0.35740347158E-01  0.35744000000E-01  0.51099999109E-03 0.  1.
       11   -1    0    0    0    0 -0.00000000000E+00 -0.00000000000E+00 -0.35740347158E-01  0.35744000000E-01  0.51099999109E-03 0. -1.
       22    1    1    2    0    0  0.10015376096E-02 -0.31702340221E-02  0.35582019666E-01  0.35737005818E-01  0.00000000000E+00 0.  1.
  9000001    1    1    2    0    0 -0.10015376096E-02  0.31702340221E-02 -0.35582019666E-01  0.35750994182E-01  0.10000000475E-02 0. -1.
</event>
<event>
 4   0  0.4809415E-02  0.9118800E+02  0.7818609E-02  0.1379984E+01
      -11   -1    0    0    0    0  0.00000000000E+00  0.00000000000E+00  0.35740347158E-01  0.35744000000E-01  0.51099999109E-03 0.  1.
       11   -1    0    0    0    0 -0.00000000000E+00 -0.00000000000E+00 -0.35740347158E-01  0.35744000000E-01  0.51099999109E-03 0. -1.
       22    1    1    2    0    0  0.56416827100E-02 -0.63305978136E-02 -0.34716401490E-01  0.35737005818E-01  0.00000000000E+00 0. -1.
  9000001    1    1    2    0    0 -0.56416827100E-02  0.63305978136E-02  0.34716401490E-01  0.35750994182E-01  0.10000000475E-02 0.  1.
</event>
<event>
 4   0  0.4809415E-02  0.9118800E+02  0.7818609E-02  0.1379984E+01
      -11   -1    0    0    0    0  0.00000000000E+00  0.00000000000E+00  0.35740347158E-01  0.35744000000E-01  0.51099999109E-03 0.  1.
       11   -1    0    0    0    0 -0.00000000000E+00 -0.00000000000E+00 -0.35740347158E-01  0.35744000000E-01  0.51099999109E-03 0. -1.
       22    1    1    2    0    0 -0.79734910978E-02 -0.73001159182E-02  0.34062667719E-01  0.35737005818E-01  0.00000000000E+00 0.  1.
  9000001    1    1    2    0    0  0.79734910978E-02  0.73001159182E-02 -0.34062667719E-01  0.35750994182E-01  0.10000000475E-02 0. -1.
</event>
<event>
 4   0  0.4809415E-02  0.9118800E+02  0.7818609E-02  0.1379984E+01
      -11   -1    0    0    0    0  0.00000000000E+00  0.00000000000E+00  0.35740347158E-01  0.35744000000E-01  0.51099999109E-03 0.  1.
       11   -1    0    0    0    0 -0.00000000000E+00 -0.00000000000E+00 -0.35740347158E-01  0.35744000000E-01  0.51099999109E-03 0. -1.
       22    1    1    2    0    0  0.16344863312E-01  0.41300994807E-02 -0.31510653857E-01  0.35737005818E-01  0.00000000000E+00 0. -1.
  9000001    1    1    2    0    0 -0.16344863312E-01 -0.41300994807E-02  0.31510653857E-01  0.35750994182E-01  0.10000000475E-02 0.  1.
</event>
<event>
 4   0  0.4809415E-02  0.9118800E+02  0.7818609E-02  0.1379984E+01
      -11   -1    0    0    0    0  0.00000000000E+00  0.00000000000E+00  0.35740347158E-01  0.35744000000E-01  0.51099999109E-03 0. -1.
       11   -1    0    0    0    0 -0.00000000000E+00 -0.00000000000E+00 -0.35740347158E-01  0.35744000000E-01  0.51099999109E-03 0.  1.
       22    1    1    2    0    0 -0.98104693783E-02  0.56518239104E-02 -0.33896093609E-01  0.35737005818E-01  0.00000000000E+00 0.  1.
  9000001    1    1    2    0    0  0.98104693783E-02 -0.56518239104E-02  0.33896093609E-01  0.35750994182E-01  0.10000000475E-02 0. -1.
</event>
<event>
 4   0  0.4809415E-02  0.9118800E+02  0.7818609E-02  0.1379984E+01
      -11   -1    0    0    0    0  0.00000000000E+00  0.00000000000E+00  0.35740347158E-01  0.35744000000E-01  0.51099999109E-03 0. -1.
       11   -1    0    0    0    0 -0.00000000000E+00 -0.00000000000E+00 -0.35740347158E-01  0.35744000000E-01  0.51099999109E-03 0.  1.
       22    1    1    2    0    0  0.49794846208E-02  0.63597838858E-02 -0.34812231567E-01  0.35737005818E-01  0.00000000000E+00 0.  1.
  9000001    1    1    2    0    0 -0.49794846208E-02 -0.63597838858E-02  0.34812231567E-01  0.35750994182E-01  0.10000000475E-02 0. -1.
</event>
<event>
 4   0  0.4809415E-02  0.9118800E+02  0.7818609E-02  0.1379984E+01
      -11   -1    0    0    0    0  0.00000000000E+00  0.00000000000E+00  0.35740347158E-01  0.35744000000E-01  0.51099999109E-03 0.  1.
       11   -1    0    0    0    0 -0.00000000000E+00 -0.00000000000E+00 -0.35740347158E-01  0.35744000000E-01  0.51099999109E-03 0. -1.
       22    1    1    2    0    0 -0.63547521683E-03 -0.11504321980E-01  0.33828690958E-01  0.35737005818E-01  0.00000000000E+00 0.  1.
  9000001    1    1    2    0    0  0.63547521683E-03  0.11504321980E-01 -0.33828690958E-01  0.35750994182E-01  0.10000000475E-02 0. -1.
</event>
<event>
 4   0  0.4809415E-02  0.9118800E+02  0.7818609E-02  0.1379984E+01
      -11   -1    0    0    0    0  0.00000000000E+00  0.00000000000E+00  0.35740347158E-01  0.35744000000E-01  0.51099999109E-03 0.  1.
       11   -1    0    0    0    0 -0.00000000000E+00 -0.00000000000E+00 -0.35740347158E-01  0.35744000000E-01  0.51099999109E-03 0. -1.
       22    1    1    2    0    0  0.34921254401E-01  0.16629388790E-03  0.75902517933E-02  0.35737005818E-01  0.00000000000E+00 0. -1.
  9000001    1    1    2    0    0 -0.34921254401E-01 -0.16629388790E-03 -0.75902517933E-02  0.35750994182E-01  0.10000000475E-02 0.  1.
</event>
<event>
 4   0  0.4809415E-02  0.9118800E+02  0.7818609E-02  0.1379984E+01
      -11   -1    0    0    0    0  0.00000000000E+00  0.00000000000E+00  0.35740347158E-01  0.35744000000E-01  0.51099999109E-03 0.  1.
       11   -1    0    0    0    0 -0.00000000000E+00 -0.00000000000E+00 -0.35740347158E-01  0.35744000000E-01  0.51099999109E-03 0. -1.
       22    1    1    2    0    0  0.75768250788E-03  0.49514409676E-02  0.35384215894E-01  0.35737005818E-01  0.00000000000E+00 0.  1.
  9000001    1    1    2    0    0 -0.75768250788E-03 -0.49514409676E-02 -0.35384215894E-01  0.35750994182E-01  0.10000000475E-02 0. -1.
</event>
<event>
 4   0  0.4809415E-02  0.9118800E+02  0.7818609E-02  0.1379984E+01
      -11   -1    0    0    0    0  0.00000000000E+00  0.00000000000E+00  0.35740347158E-01  0.35744000000E-01  0.51099999109E-03 0.  1.
       11   -1    0    0    0    0 -0.00000000000E+00 -0.00000000000E+00 -0.35740347158E-01  0.35744000000E-01  0.51099999109E-03 0. -1.
       22    1    1    2    0    0 -0.29775069014E-01  0.98549810102E-02  0.17130621687E-01  0.35737005818E-01  0.00000000000E+00 0.  1.
  9000001    1    1    2    0    0  0.29775069014E-01 -0.98549810102E-02 -0.17130621687E-01  0.35750994182E-01  0.10000000475E-02 0. -1.
</event>
<event>
 4   0  0.4809415E-02  0.9118800E+02  0.7818609E-02  0.1379984E+01
      -11   -1    0    0    0    0  0.00000000000E+00  0.00000000000E+00  0.35740347158E-01  0.35744000000E-01  0.51099999109E-03 0. -1.
       11   -1    0    0    0    0 -0.00000000000E+00 -0.00000000000E+00 -0.35740347158E-01  0.35744000000E-01  0.51099999109E-03 0.  1.
       22    1    1    2    0    0  0.31580357186E-01  0.15446435718E-01 -0.64204554710E-02  0.35737005818E-01  0.00000000000E+00 0.  1.
  9000001    1    1    2    0    0 -0.31580357186E-01 -0.15446435718E-01  0.64204554710E-02  0.35750994182E-01  0.10000000475E-02 0. -1.
</event>
<event>
 4   0  0.4809415E-02  0.9118800E+02  0.7818609E-02  0.1379984E+01
      -11   -1    0    0    0    0  0.00000000000E+00  0.00000000000E+00  0.35740347158E-01  0.35744000000E-01  0.51099999109E-03 0.  1.
       11   -1    0    0    0    0 -0.00000000000E+00 -0.00000000000E+00 -0.35740347158E-01  0.35744000000E-01  0.51099999109E-03 0. -1.
       22    1    1    2    0    0 -0.33159900202E-02 -0.25383945456E-02  0.35492173055E-01  0.35737005818E-01  0.00000000000E+00 0.  1.
  9000001    1    1    2    0    0  0.33159900202E-02  0.25383945456E-02 -0.35492173055E-01  0.35750994182E-01  0.10000000475E-02 0. -1.
</event>
<event>
 4   0  0.4809415E-02  0.9118800E+02  0.7818609E-02  0.1379984E+01
      -11   -1    0    0    0    0  0.00000000000E+00  0.00000000000E+00  0.35740347158E-01  0.35744000000E-01  0.51099999109E-03 0. -1.
       11   -1    0    0    0    0 -0.00000000000E+00 -0.00000000000E+00 -0.35740347158E-01  0.35744000000E-01  0.51099999109E-03 0.  1.
       22    1    1    2    0    0 -0.30926511464E-02  0.20180715022E-01 -0.29331004670E-01  0.35737005818E-01  0.00000000000E+00 0.  1.
  9000001    1    1    2    0    0  0.30926511464E-02 -0.20180715022E-01  0.29331004670E-01  0.35750994182E-01  0.10000000475E-02 0. -1.
</event>
<event>
 4   0  0.4809415E-02  0.9118800E+02  0.7818609E-02  0.1379984E+01
      -11   -1    0    0    0    0  0.00000000000E+00  0.00000000000E+00  0.35740347158E-01  0.35744000000E-01  0.51099999109E-03 0.  1.
       11   -1    0    0    0    0 -0.00000000000E+00 -0.00000000000E+00 -0.35740347158E-01  0.35744000000E-01  0.51099999109E-03 0. -1.
       22    1    1    2    0    0  0.85548596620E-04  0.26460816950E-01  0.24019813335E-01  0.35737005818E-01  0.00000000000E+00 0.  1.
  9000001    1    1    2    0    0 -0.85548596620E-04 -0.26460816950E-01 -0.24019813335E-01  0.35750994182E-01  0.10000000475E-02 0. -1.
</event>
<event>
 4   0  0.4809415E-02  0.9118800E+02  0.7818609E-02  0.1379984E+01
      -11   -1    0    0    0    0  0.00000000000E+00  0.00000000000E+00  0.35740347158E-01  0.35744000000E-01  0.51099999109E-03 0.  1.
       11   -1    0    0    0    0 -0.00000000000E+00 -0.00000000000E+00 -0.35740347158E-01  0.35744000000E-01  0.51099999109E-03 0. -1.
       22    1    1    2    0    0  0.19377981079E-01 -0.21549882783E-01  0.20910045103E-01  0.35737005818E-01  0.00000000000E+00 0.  1.
  9000001    1    1    2    0    0 -0.19377981079E-01  0.21549882783E-01 -0.20910045103E-01  0.35750994182E-01  0.10000000475E-02 0. -1.
</event>
<event>
 4   0  0.4809415E-02  0.9118800E+02  0.7818609E-02  0.1379984E+01
      -11   -1    0    0    0    0  0.00000000000E+00  0.00000000000E+00  0.35740347158E-01  0.35744000000E-01  0.51099999109E-03 0.  1.
       11   -1    0    0    0    0 -0.00000000000E+00 -0.00000000000E+00 -0.35740347158E-01  0.35744000000E-01  0.51099999109E-03 0. -1.
       22    1    1    2    0    0 -0.13217484901E-02  0.70012398440E-02  0.35019554629E-01  0.35737005818E-01  0.00000000000E+00 0.  1.
  9000001    1    1    2    0    0  0.13217484901E-02 -0.70012398440E-02 -0.35019554629E-01  0.35750994182E-01  0.10000000475E-02 0. -1.
</event>
<event>
 4   0  0.4809415E-02  0.9118800E+02  0.7818609E-02  0.1379984E+01
      -11   -1    0    0    0    0  0.00000000000E+00  0.00000000000E+00  0.35740347158E-01  0.35744000000E-01  0.51099999109E-03 0. -1.
       11   -1    0    0    0    0 -0.00000000000E+00 -0.00000000000E+00 -0.35740347158E-01  0.35744000000E-01  0.51099999109E-03 0.  1.
       22    1    1    2    0    0 -0.27597007161E-02 -0.27850526291E-02  0.35521276986E-01  0.35737005818E-01  0.00000000000E+00 0. -1.
  9000001    1    1    2    0    0  0.27597007161E-02  0.27850526291E-02 -0.35521276986E-01  0.35750994182E-01  0.10000000475E-02 0.  1.
</event>
<event>
 4   0  0.4809415E-02  0.9118800E+02  0.7818609E-02  0.1379984E+01
      -11   -1    0    0    0    0  0.00000000000E+00  0.00000000000E+00  0.35740347158E-01  0.35744000000E-01  0.51099999109E-03 0. -1.
       11   -1    0    0    0    0 -0.00000000000E+00 -0.00000000000E+00 -0.35740347158E-01  0.35744000000E-01  0.51099999109E-03 0.  1.
       22    1    1    2    0    0  0.84635728214E-02  0.92020726767E-02  0.33478700369E-01  0.35737005818E-01  0.00000000000E+00 0. -1.
  9000001    1    1    2    0    0 -0.84635728214E-02 -0.92020726767E-02 -0.33478700369E-01  0.35750994182E-01  0.10000000475E-02 0.  1.
</event>
<event>
 4   0  0.4809415E-02  0.9118800E+02  0.7818609E-02  0.1379984E+01
      -11   -1    0    0    0    0  0.00000000000E+00  0.00000000000E+00  0.35740347158E-01  0.35744000000E-01  0.51099999109E-03 0. -1.
       11   -1    0    0    0    0 -0.00000000000E+00 -0.00000000000E+00 -0.35740347158E-01  0.35744000000E-01  0.51099999109E-03 0.  1.
       22    1    1    2    0    0 -0.44853438639E-02 -0.25736159421E-01 -0.24385761698E-01  0.35737005818E-01  0.00000000000E+00 0.  1.
  9000001    1    1    2    0    0  0.44853438639E-02  0.25736159421E-01  0.24385761698E-01  0.35750994182E-01  0.10000000475E-02 0. -1.
</event>
<event>
 4   0  0.4809415E-02  0.9118800E+02  0.7818609E-02  0.1379984E+01
      -11   -1    0    0    0    0  0.00000000000E+00  0.00000000000E+00  0.35740347158E-01  0.35744000000E-01  0.51099999109E-03 0. -1.
       11   -1    0    0    0    0 -0.00000000000E+00 -0.00000000000E+00 -0.35740347158E-01  0.35744000000E-01  0.51099999109E-03 0.  1.
       22    1    1    2    0    0 -0.10570984357E-01  0.74408537509E-02 -0.33316986209E-01  0.35737005818E-01  0.00000000000E+00 0.  1.
  9000001    1    1    2    0    0  0.10570984357E-01 -0.74408537509E-02  0.33316986209E-01  0.35750994182E-01  0.10000000475E-02 0. -1.
</event>
<event>
 4   0  0.4809415E-02  0.9118800E+02  0.7818609E-02  0.1379984E+01
      -11   -1    0    0    0    0  0.00000000000E+00  0.00000000000E+00  0.35740347158E-01  0.35744000000E-01  0.51099999109E-03 0. -1.
       11   -1    0    0    0    0 -0.00000000000E+00 -0.00000000000E+00 -0.35740347158E-01  0.35744000000E-01  0.51099999109E-03 0.  1.
       22    1    1    2    0    0  0.25077581237E-02 -0.39147248540E-02  0.35433312904E-01  0.35737005818E-01  0.00000000000E+00 0. -1.
  9000001    1    1    2    0    0 -0.25077581237E-02  0.39147248540E-02 -0.35433312904E-01  0.35750994182E-01  0.10000000475E-02 0.  1.
</event>
<event>
 4   0  0.4809415E-02  0.9118800E+02  0.7818609E-02  0.1379984E+01
      -11   -1    0    0    0    0  0.00000000000E+00  0.00000000000E+00  0.35740347158E-01  0.35744000000E-01  0.51099999109E-03 0.  1.
       11   -1    0    0    0    0 -0.00000000000E+00 -0.00000000000E+00 -0.35740347158E-01  0.35744000000E-01  0.51099999109E-03 0. -1.
       22    1    1    2    0    0  0.41792519268E-02  0.39983399262E-02  0.35265857654E-01  0.35737005818E-01  0.00000000000E+00 0.  1.
  9000001    1    1    2    0    0 -0.41792519268E-02 -0.39983399262E-02 -0.35265857654E-01  0.35750994182E-01  0.10000000475E-02 0. -1.
</event>
<event>
 4   0  0.4809415E-02  0.9118800E+02  0.7818609E-02  0.1379984E+01
      -11   -1    0    0    0    0  0.00000000000E+00  0.00000000000E+00  0.35740347158E-01  0.35744000000E-01  0.51099999109E-03 0. -1.
       11   -1    0    0    0    0 -0.00000000000E+00 -0.00000000000E+00 -0.35740347158E-01  0.35744000000E-01  0.51099999109E-03 0.  1.
       22    1    1    2    0    0  0.11320412927E-01  0.23990866802E-02 -0.33811628460E-01  0.35737005818E-01  0.00000000000E+00 0.  1.
  9000001    1    1    2    0    0 -0.11320412927E-01 -0.23990866802E-02  0.33811628460E-01  0.35750994182E-01  0.10000000475E-02 0. -1.
</event>
<event>
 4   0  0.4809415E-02  0.9118800E+02  0.7818609E-02  0.1379984E+01
      -11   -1    0    0    0    0  0.00000000000E+00  0.00000000000E+00  0.35740347158E-01  0.35744000000E-01  0.51099999109E-03 0. -1.
       11   -1    0    0    0    0 -0.00000000000E+00 -0.00000000000E+00 -0.35740347158E-01  0.35744000000E-01  0.51099999109E-03 0.  1.
       22    1    1    2    0    0  0.30602483344E-01  0.54503417028E-02  0.17632792557E-01  0.35737005818E-01  0.00000000000E+00 0. -1.
  9000001    1    1    2    0    0 -0.30602483344E-01 -0.54503417028E-02 -0.17632792557E-01  0.35750994182E-01  0.10000000475E-02 0.  1.
</event>
<event>
 4   0  0.4809415E-02  0.9118800E+02  0.7818609E-02  0.1379984E+01
      -11   -1    0    0    0    0  0.00000000000E+00  0.00000000000E+00  0.35740347158E-01  0.35744000000E-01  0.51099999109E-03 0.  1.
       11   -1    0    0    0    0 -0.00000000000E+00 -0.00000000000E+00 -0.35740347158E-01  0.35744000000E-01  0.51099999109E-03 0. -1.
       22    1    1    2    0    0  0.17665855142E-02 -0.24686353267E-02 -0.35607844643E-01  0.35737005818E-01  0.00000000000E+00 0. -1.
  9000001    1    1    2    0    0 -0.17665855142E-02  0.24686353267E-02  0.35607844643E-01  0.35750994182E-01  0.10000000475E-02 0.  1.
</event>
<event>
 4   0  0.4809415E-02  0.9118800E+02  0.7818609E-02  0.1379984E+01
      -11   -1    0    0    0    0  0.00000000000E+00  0.00000000000E+00  0.35740347158E-01  0.35744000000E-01  0.51099999109E-03 0. -1.
       11   -1    0    0    0    0 -0.00000000000E+00 -0.00000000000E+00 -0.35740347158E-01  0.35744000000E-01  0.51099999109E-03 0.  1.
       22    1    1    2    0    0  0.49972308615E-02  0.12105335593E-01  0.33250896511E-01  0.35737005818E-01  0.00000000000E+00 0. -1.
  9000001    1    1    2    0    0 -0.49972308615E-02 -0.12105335593E-01 -0.33250896511E-01  0.35750994182E-01  0.10000000475E-02 0.  1.
</event>
<event>
 4   0  0.4809415E-02  0.9118800E+02  0.7818609E-02  0.1379984E+01
      -11   -1    0    0    0    0  0.00000000000E+00  0.00000000000E+00  0.35740347158E-01  0.35744000000E-01  0.51099999109E-03 0. -1.
       11   -1    0    0    0    0 -0.00000000000E+00 -0.00000000000E+00 -0.35740347158E-01  0.35744000000E-01  0.51099999109E-03 0.  1.
       22    1    1    2    0    0 -0.15610234163E-01 -0.22913908967E-01  0.22547881277E-01  0.35737005818E-01  0.00000000000E+00 0. -1.
  9000001    1    1    2    0    0  0.15610234163E-01  0.22913908967E-01 -0.22547881277E-01  0.35750994182E-01  0.10000000475E-02 0.  1.
</event>
<event>
 4   0  0.4809415E-02  0.9118800E+02  0.7818609E-02  0.1379984E+01
      -11   -1    0    0    0    0  0.00000000000E+00  0.00000000000E+00  0.35740347158E-01  0.35744000000E-01  0.51099999109E-03 0. -1.
       11   -1    0    0    0    0 -0.00000000000E+00 -0.00000000000E+00 -0.35740347158E-01  0.35744000000E-01  0.51099999109E-03 0.  1.
       22    1    1    2    0    0 -0.14251137318E-01  0.12296753002E-01 -0.30378093021E-01  0.35737005818E-01  0.00000000000E+00 0.  1.
  9000001    1    1    2    0    0  0.14251137318E-01 -0.12296753002E-01  0.30378093021E-01  0.35750994182E-01  0.10000000475E-02 0. -1.
</event>
<event>
 4   0  0.4809415E-02  0.9118800E+02  0.7818609E-02  0.1379984E+01
      -11   -1    0    0    0    0  0.00000000000E+00  0.00000000000E+00  0.35740347158E-01  0.35744000000E-01  0.51099999109E-03 0.  1.
       11   -1    0    0    0    0 -0.00000000000E+00 -0.00000000000E+00 -0.35740347158E-01  0.35744000000E-01  0.51099999109E-03 0. -1.
       22    1    1    2    0    0 -0.33391309650E-02 -0.41170990432E-03  0.35578283885E-01  0.35737005818E-01  0.00000000000E+00 0.  1.
  9000001    1    1    2    0    0  0.33391309650E-02  0.41170990432E-03 -0.35578283885E-01  0.35750994182E-01  0.10000000475E-02 0. -1.
</event>
<event>
 4   0  0.4809415E-02  0.9118800E+02  0.7818609E-02  0.1379984E+01
      -11   -1    0    0    0    0  0.00000000000E+00  0.00000000000E+00  0.35740347158E-01  0.35744000000E-01  0.51099999109E-03 0.  1.
       11   -1    0    0    0    0 -0.00000000000E+00 -0.00000000000E+00 -0.35740347158E-01  0.35744000000E-01  0.51099999109E-03 0. -1.
       22    1    1    2    0    0 -0.15649297554E-01 -0.92482800680E-02  0.30768529161E-01  0.35737005818E-01  0.00000000000E+00 0.  1.
  9000001    1    1    2    0    0  0.15649297554E-01  0.92482800680E-02 -0.30768529161E-01  0.35750994182E-01  0.10000000475E-02 0. -1.
</event>
<event>
 4   0  0.4809415E-02  0.9118800E+02  0.7818609E-02  0.1379984E+01
      -11   -1    0    0    0    0  0.00000000000E+00  0.00000000000E+00  0.35740347158E-01  0.35744000000E-01  0.51099999109E-03 0. -1.
       11   -1    0    0    0    0 -0.00000000000E+00 -0.00000000000E+00 -0.35740347158E-01  0.35744000000E-01  0.51099999109E-03 0.  1.
       22    1    1    2    0    0  0.13795012398E-01 -0.19460414386E-02  0.32909635983E-01  0.35737005818E-01  0.00000000000E+00 0. -1.
  9000001    1    1    2    0    0 -0.13795012398E-01  0.19460414386E-02 -0.32909635983E-01  0.35750994182E-01  0.10000000475E-02 0.  1.
</event>
<event>
 4   0  0.4809415E-02  0.9118800E+02  0.7818609E-02  0.1379984E+01
      -11   -1    0    0    0    0  0.00000000000E+00  0.00000000000E+00  0.35740347158E-01  0.35744000000E-01  0.51099999109E-03 0.  1.
       11   -1    0    0    0    0 -0.00000000000E+00 -0.00000000000E+00 -0.35740347158E-01  0.35744000000E-01  0.51099999109E-03 0. -1.
       22    1    1    2    0    0 -0.27506013696E-02 -0.16157163673E-02 -0.35594342775E-01  0.35737005818E-01  0.00000000000E+00 0. -1.
  9000001    1    1    2    0    0  0.27506013696E-02  0.16157163673E-02  0.35594342775E-01  0.35750994182E-01  0.10000000475E-02 0.  1.
</event>
<event>
 4   0  0.4809415E-02  0.9118800E+02  0.7818609E-02  0.1379984E+01
      -11   -1    0    0    0    0  0.00000000000E+00  0.00000000000E+00  0.35740347158E-01  0.35744000000E-01  0.51099999109E-03 0.  1.
       11   -1    0    0    0    0 -0.00000000000E+00 -0.00000000000E+00 -0.35740347158E-01  0.35744000000E-01  0.51099999109E-03 0. -1.
       22    1    1    2    0    0  0.53664036971E-02 -0.16233885095E-01 -0.31381463811E-01  0.35737005818E-01  0.00000000000E+00 0. -1.
  9000001    1    1    2    0    0 -0.53664036971E-02  0.16233885095E-01  0.31381463811E-01  0.35750994182E-01  0.10000000475E-02 0.  1.
</event>
<event>
 4   0  0.4809415E-02  0.9118800E+02  0.7818609E-02  0.1379984E+01
      -11   -1    0    0    0    0  0.00000000000E+00  0.00000000000E+00  0.35740347158E-01  0.35744000000E-01  0.51099999109E-03 0. -1.
       11   -1    0    0    0    0 -0.00000000000E+00 -0.00000000000E+00 -0.35740347158E-01  0.35744000000E-01  0.51099999109E-03 0.  1.
       22    1    1    2    0    0  0.45689536085E-02 -0.15976454941E-01 -0.31638760015E-01  0.35737005818E-01  0.00000000000E+00 0.  1.
  9000001    1    1    2    0    0 -0.45689536085E-02  0.15976454941E-01  0.31638760015E-01  0.35750994182E-01  0.10000000475E-02 0. -1.
</event>
<event>
 4   0  0.4809415E-02  0.9118800E+02  0.7818609E-02  0.1379984E+01
      -11   -1    0    0    0    0  0.00000000000E+00  0.00000000000E+00  0.35740347158E-01  0.35744000000E-01  0.51099999109E-03 0.  1.
       11   -1    0    0    0    0 -0.00000000000E+00 -0.00000000000E+00 -0.35740347158E-01  0.35744000000E-01  0.51099999109E-03 0. -1.
       22    1    1    2    0    0 -0.42008330801E-02 -0.29361651912E-02 -0.35367577246E-01  0.35737005818E-01  0.00000000000E+00 0. -1.
  9000001    1    1    2    0    0  0.42008330801E-02  0.29361651912E-02  0.35367577246E-01  0.35750994182E-01  0.10000000475E-02 0.  1.
</event>
<event>
 4   0  0.4809415E-02  0.9118800E+02  0.7818609E-02  0.1379984E+01
      -11   -1    0    0    0    0  0.00000000000E+00  0.00000000000E+00  0.35740347158E-01  0.35744000000E-01  0.51099999109E-03 0. -1.
       11   -1    0    0    0    0 -0.00000000000E+00 -0.00000000000E+00 -0.35740347158E-01  0.35744000000E-01  0.51099999109E-03 0.  1.
       22    1    1    2    0    0 -0.81102557955E-02 -0.12483869853E-01 -0.32488618458E-01  0.35737005818E-01  0.00000000000E+00 0.  1.
  9000001    1    1    2    0    0  0.81102557955E-02  0.12483869853E-01  0.32488618458E-01  0.35750994182E-01  0.10000000475E-02 0. -1.
</event>
<event>
 4   0  0.4809415E-02  0.9118800E+02  0.7818609E-02  0.1379984E+01
      -11   -1    0    0    0    0  0.00000000000E+00  0.00000000000E+00  0.35740347158E-01  0.35744000000E-01  0.51099999109E-03 0. -1.
       11   -1    0    0    0    0 -0.00000000000E+00 -0.00000000000E+00 -0.35740347158E-01  0.35744000000E-01  0.51099999109E-03 0.  1.
       22    1    1    2    0    0  0.15000181169E-01 -0.46300077755E-02  0.32104379417E-01  0.35737005818E-01  0.00000000000E+00 0. -1.
  9000001    1    1    2    0    0 -0.15000181169E-01  0.46300077755E-02 -0.32104379417E-01  0.35750994182E-01  0.10000000475E-02 0.  1.
</event>
<event>
 4   0  0.4809415E-02  0.9118800E+02  0.7818609E-02  0.1379984E+01
      -11   -1    0    0    0    0  0.00000000000E+00  0.00000000000E+00  0.35740347158E-01  0.35744000000E-01  0.51099999109E-03 0. -1.
       11   -1    0    0    0    0 -0.00000000000E+00 -0.00000000000E+00 -0.35740347158E-01  0.35744000000E-01  0.51099999109E-03 0.  1.
       22    1    1    2    0    0  0.32925794842E-02  0.66364061537E-03  0.35578815134E-01  0.35737005818E-01  0.00000000000E+00 0. -1.
  9000001    1    1    2    0    0 -0.32925794842E-02 -0.66364061537E-03 -0.35578815134E-01  0.35750994182E-01  0.10000000475E-02 0.  1.
</event>
<event>
 4   0  0.4809415E-02  0.9118800E+02  0.7818609E-02  0.1379984E+01
      -11   -1    0    0    0    0  0.00000000000E+00  0.00000000000E+00  0.35740347158E-01  0.35744000000E-01  0.51099999109E-03 0.  1.
       11   -1    0    0    0    0 -0.00000000000E+00 -0.00000000000E+00 -0.35740347158E-01  0.35744000000E-01  0.51099999109E-03 0. -1.
       22    1    1    2    0    0  0.28163215956E-01  0.27403959554E-02 -0.21827896873E-01  0.35737005818E-01  0.00000000000E+00 0. -1.
  9000001    1    1    2    0    0 -0.28163215956E-01 -0.27403959554E-02  0.21827896873E-01  0.35750994182E-01  0.10000000475E-02 0.  1.
</event>
<event>
 4   0  0.4809415E-02  0.9118800E+02  0.7818609E-02  0.1379984E+01
      -11   -1    0    0    0    0  0.00000000000E+00  0.00000000000E+00  0.35740347158E-01  0.35744000000E-01  0.51099999109E-03 0. -1.
       11   -1    0    0    0    0 -0.00000000000E+00 -0.00000000000E+00 -0.35740347158E-01  0.35744000000E-01  0.51099999109E-03 0.  1.
       22    1    1    2    0    0 -0.26668306020E-01 -0.10522490485E-01  0.21335703243E-01  0.35737005818E-01  0.00000000000E+00 0. -1.
  9000001    1    1    2    0    0  0.26668306020E-01  0.10522490485E-01 -0.21335703243E-01  0.35750994182E-01  0.10000000475E-02 0.  1.
</event>
<event>
 4   0  0.4809415E-02  0.9118800E+02  0.7818609E-02  0.1379984E+01
      -11   -1    0    0    0    0  0.00000000000E+00  0.00000000000E+00  0.35740347158E-01  0.35744000000E-01  0.51099999109E-03 0. -1.
       11   -1    0    0    0    0 -0.00000000000E+00 -0.00000000000E+00 -0.35740347158E-01  0.35744000000E-01  0.51099999109E-03 0.  1.
       22    1    1    2    0    0 -0.22251116492E-02  0.34956594365E-02  0.35495955095E-01  0.35737005818E-01  0.00000000000E+00 0. -1.
  9000001    1    1    2    0    0  0.22251116492E-02 -0.34956594365E-02 -0.35495955095E-01  0.35750994182E-01  0.10000000475E-02 0.  1.
</event>
<event>
 4   0  0.4809415E-02  0.9118800E+02  0.7818609E-02  0.1379984E+01
      -11   -1    0    0    0    0  0.00000000000E+00  0.00000000000E+00  0.35740347158E-01  0.35744000000E-01  0.51099999109E-03 0.  1.
       11   -1    0    0    0    0 -0.00000000000E+00 -0.00000000000E+00 -0.35740347158E-01  0.35744000000E-01  0.51099999109E-03 0. -1.
       22    1    1    2    0    0 -0.18270163003E-02  0.18593481184E-01 -0.30464373517E-01  0.35737005818E-01  0.00000000000E+00 0. -1.
  9000001    1    1    2    0    0  0.18270163003E-02 -0.18593481184E-01  0.30464373517E-01  0.35750994182E-01  0.10000000475E-02 0.  1.
</event>
<event>
 4   0  0.4809415E-02  0.9118800E+02  0.7818609E-02  0.1379984E+01
      -11   -1    0    0    0    0  0.00000000000E+00  0.00000000000E+00  0.35740347158E-01  0.35744000000E-01  0.51099999109E-03 0.  1.
       11   -1    0    0    0    0 -0.00000000000E+00 -0.00000000000E+00 -0.35740347158E-01  0.35744000000E-01  0.51099999109E-03 0. -1.
       22    1    1    2    0    0  0.35068594849E-02 -0.37297740771E-02 -0.35368408315E-01  0.35737005818E-01  0.00000000000E+00 0. -1.
  9000001    1    1    2    0    0 -0.35068594849E-02  0.37297740771E-02  0.35368408315E-01  0.35750994182E-01  0.10000000475E-02 0.  1.
</event>
<event>
 4   0  0.4809415E-02  0.9118800E+02  0.7818609E-02  0.1379984E+01
      -11   -1    0    0    0    0  0.00000000000E+00  0.00000000000E+00  0.35740347158E-01  0.35744000000E-01  0.51099999109E-03 0.  1.
       11   -1    0    0    0    0 -0.00000000000E+00 -0.00000000000E+00 -0.35740347158E-01  0.35744000000E-01  0.51099999109E-03 0. -1.
       22    1    1    2    0    0 -0.41793224317E-02  0.15149834377E-02 -0.35459437024E-01  0.35737005818E-01  0.00000000000E+00 0. -1.
  9000001    1    1    2    0    0  0.41793224317E-02 -0.15149834377E-02  0.35459437024E-01  0.35750994182E-01  0.10000000475E-02 0.  1.
</event>
<event>
 4   0  0.4809415E-02  0.9118800E+02  0.7818609E-02  0.1379984E+01
      -11   -1    0    0    0    0  0.00000000000E+00  0.00000000000E+00  0.35740347158E-01  0.35744000000E-01  0.51099999109E-03 0. -1.
       11   -1    0    0    0    0 -0.00000000000E+00 -0.00000000000E+00 -0.35740347158E-01  0.35744000000E-01  0.51099999109E-03 0.  1.
       22    1    1    2    0    0 -0.66955785846E-03  0.11222467039E-01  0.33922581133E-01  0.35737005818E-01  0.00000000000E+00 0. -1.
  9000001    1    1    2    0    0  0.66955785846E-03 -0.11222467039E-01 -0.33922581133E-01  0.35750994182E-01  0.10000000475E-02 0.  1.
</event>
<event>
 4   0  0.4809415E-02  0.9118800E+02  0.7818609E-02  0.1379984E+01
      -11   -1    0    0    0    0  0.00000000000E+00  0.00000000000E+00  0.35740347158E-01  0.35744000000E-01  0.51099999109E-03 0. -1.
       11   -1    0    0    0    0 -0.00000000000E+00 -0.00000000000E+00 -0.35740347158E-01  0.35744000000E-01  0.51099999109E-03 0.  1.
       22    1    1    2    0    0  0.30996362630E-02  0.13516394166E-01  0.32936802041E-01  0.35737005818E-01  0.00000000000E+00 0. -1.
  9000001    1    1    2    0    0 -0.30996362630E-02 -0.13516394166E-01 -0.32936802041E-01  0.35750994182E-01  0.10000000475E-02 0.  1.
</event>
<event>
 4   0  0.4809415E-02  0.9118800E+02  0.7818609E-02  0.1379984E+01
      -11   -1    0    0    0    0  0.00000000000E+00  0.00000000000E+00  0.35740347158E-01  0.35744000000E-01  0.51099999109E-03 0. -1.
       11   -1    0    0    0    0 -0.00000000000E+00 -0.00000000000E+00 -0.35740347158E-01  0.35744000000E-01  0.51099999109E-03 0.  1.
       22    1    1    2    0    0 -0.17065946228E-01  0.22635674283E-02 -0.31317141101E-01  0.35737005818E-01  0.00000000000E+00 0.  1.
  9000001    1    1    2    0    0  0.17065946228E-01 -0.22635674283E-02  0.31317141101E-01  0.35750994182E-01  0.10000000475E-02 0. -1.
</event>
<event>
 4   0  0.4809415E-02  0.9118800E+02  0.7818609E-02  0.1379984E+01
      -11   -1    0    0    0    0  0.00000000000E+00  0.00000000000E+00  0.35740347158E-01  0.35744000000E-01  0.51099999109E-03 0. -1.
       11   -1    0    0    0    0 -0.00000000000E+00 -0.00000000000E+00 -0.35740347158E-01  0.35744000000E-01  0.51099999109E-03 0.  1.
       22    1    1    2    0    0 -0.83999299055E-02 -0.14354679569E-01  0.31630964843E-01  0.35737005818E-01  0.00000000000E+00 0. -1.
  9000001    1    1    2    0    0  0.83999299055E-02  0.14354679569E-01 -0.31630964843E-01  0.35750994182E-01  0.10000000475E-02 0.  1.
</event>
<event>
 4   0  0.4809415E-02  0.9118800E+02  0.7818609E-02  0.1379984E+01
      -11   -1    0    0    0    0  0.00000000000E+00  0.00000000000E+00  0.35740347158E-01  0.35744000000E-01  0.51099999109E-03 0.  1.
       11   -1    0    0    0    0 -0.00000000000E+00 -0.00000000000E+00 -0.35740347158E-01  0.35744000000E-01  0.51099999109E-03 0. -1.
       22    1    1    2    0    0 -0.95396270635E-02 -0.19919527014E-02  0.34382571527E-01  0.35737005818E-01  0.00000000000E+00 0.  1.
  9000001    1    1    2    0    0  0.95396270635E-02  0.19919527014E-02 -0.34382571527E-01  0.35750994182E-01  0.10000000475E-02 0. -1.
</event>
<event>
 4   0  0.4809415E-02  0.9118800E+02  0.7818609E-02  0.1379984E+01
      -11   -1    0    0    0    0  0.00000000000E+00  0.00000000000E+00  0.35740347158E-01  0.35744000000E-01  0.51099999109E-03 0.  1.
       11   -1    0    0    0    0 -0.00000000000E+00 -0.00000000000E+00 -0.35740347158E-01  0.35744000000E-01  0.51099999109E-03 0. -1.
       22    1    1    2    0    0  0.14949693181E-01  0.15812577576E-01 -0.28347886148E-01  0.35737005818E-01  0.00000000000E+00 0. -1.
  9000001    1    1    2    0    0 -0.14949693181E-01 -0.15812577576E-01  0.28347886148E-01  0.35750994182E-01  0.10000000475E-02 0.  1.
</event>
<event>
 4   0  0.4809415E-02  0.9118800E+02  0.7818609E-02  0.1379984E+01
      -11   -1    0    0    0    0  0.00000000000E+00  0.00000000000E+00  0.35740347158E-01  0.35744000000E-01  0.51099999109E-03 0. -1.
       11   -1    0    0    0    0 -0.00000000000E+00 -0.00000000000E+00 -0.35740347158E-01  0.35744000000E-01  0.51099999109E-03 0.  1.
       22    1    1    2    0    0  0.46441230781E-03  0.40100491714E-02  0.35508272441E-01  0.35737005818E-01  0.00000000000E+00 0. -1.
  9000001    1    1    2    0    0 -0.46441230781E-03 -0.40100491714E-02 -0.35508272441E-01  0.35750994182E-01  0.10000000475E-02 0.  1.
</event>
<event>
 4   0  0.4809415E-02  0.9118800E+02  0.7818609E-02  0.1379984E+01
      -11   -1    0    0    0    0  0.00000000000E+00  0.00000000000E+00  0.35740347158E-01  0.35744000000E-01  0.51099999109E-03 0.  1.
       11   -1    0    0    0    0 -0.00000000000E+00 -0.00000000000E+00 -0.35740347158E-01  0.35744000000E-01  0.51099999109E-03 0. -1.
       22    1    1    2    0    0 -0.47814967020E-02 -0.21297087546E-03 -0.35415046485E-01  0.35737005818E-01  0.00000000000E+00 0. -1.
  9000001    1    1    2    0    0  0.47814967020E-02  0.21297087546E-03  0.35415046485E-01  0.35750994182E-01  0.10000000475E-02 0.  1.
</event>
<event>
 4   0  0.4809415E-02  0.9118800E+02  0.7818609E-02  0.1379984E+01
      -11   -1    0    0    0    0  0.00000000000E+00  0.00000000000E+00  0.35740347158E-01  0.35744000000E-01  0.51099999109E-03 0. -1.
       11   -1    0    0    0    0 -0.00000000000E+00 -0.00000000000E+00 -0.35740347158E-01  0.35744000000E-01  0.51099999109E-03 0. -1.
       22    1    1    2    0    0  0.56915146721E-02 -0.33308757816E-02 -0.35123290167E-01  0.35737005818E-01  0.00000000000E+00 0. -1.
  9000001    1    1    2    0    0 -0.56915146721E-02  0.33308757816E-02  0.35123290167E-01  0.35750994182E-01  0.10000000475E-02 0. -1.
</event>
<event>
 4   0  0.4809415E-02  0.9118800E+02  0.7818609E-02  0.1379984E+01
      -11   -1    0    0    0    0  0.00000000000E+00  0.00000000000E+00  0.35740347158E-01  0.35744000000E-01  0.51099999109E-03 0. -1.
       11   -1    0    0    0    0 -0.00000000000E+00 -0.00000000000E+00 -0.35740347158E-01  0.35744000000E-01  0.51099999109E-03 0.  1.
       22    1    1    2    0    0 -0.65109266589E-02  0.19179543581E-02 -0.35086505526E-01  0.35737005818E-01  0.00000000000E+00 0.  1.
  9000001    1    1    2    0    0  0.65109266589E-02 -0.19179543581E-02  0.35086505526E-01  0.35750994182E-01  0.10000000475E-02 0. -1.
</event>
<event>
 4   0  0.4809415E-02  0.9118800E+02  0.7818609E-02  0.1379984E+01
      -11   -1    0    0    0    0  0.00000000000E+00  0.00000000000E+00  0.35740347158E-01  0.35744000000E-01  0.51099999109E-03 0.  1.
       11   -1    0    0    0    0 -0.00000000000E+00 -0.00000000000E+00 -0.35740347158E-01  0.35744000000E-01  0.51099999109E-03 0. -1.
       22    1    1    2    0    0 -0.34544868000E-01  0.85734661792E-02  0.32064555803E-02  0.35737005818E-01  0.00000000000E+00 0.  1.
  9000001    1    1    2    0    0  0.34544868000E-01 -0.85734661792E-02 -0.32064555803E-02  0.35750994182E-01  0.10000000475E-02 0. -1.
</event>
<event>
 4   0  0.4809415E-02  0.9118800E+02  0.7818609E-02  0.1379984E+01
      -11   -1    0    0    0    0  0.00000000000E+00  0.00000000000E+00  0.35740347158E-01  0.35744000000E-01  0.51099999109E-03 0.  1.
       11   -1    0    0    0    0 -0.00000000000E+00 -0.00000000000E+00 -0.35740347158E-01  0.35744000000E-01  0.51099999109E-03 0. -1.
       22    1    1    2    0    0 -0.11655539000E-01 -0.16655735329E-02 -0.33741782115E-01  0.35737005818E-01  0.00000000000E+00 0. -1.
  9000001    1    1    2    0    0  0.11655539000E-01  0.16655735329E-02  0.33741782115E-01  0.35750994182E-01  0.10000000475E-02 0.  1.
</event>
<event>
 4   0  0.4809415E-02  0.9118800E+02  0.7818609E-02  0.1379984E+01
      -11   -1    0    0    0    0  0.00000000000E+00  0.00000000000E+00  0.35740347158E-01  0.35744000000E-01  0.51099999109E-03 0.  1.
       11   -1    0    0    0    0 -0.00000000000E+00 -0.00000000000E+00 -0.35740347158E-01  0.35744000000E-01  0.51099999109E-03 0. -1.
       22    1    1    2    0    0  0.13434741398E-01  0.16908776003E-01 -0.28473401668E-01  0.35737005818E-01  0.00000000000E+00 0. -1.
  9000001    1    1    2    0    0 -0.13434741398E-01 -0.16908776003E-01  0.28473401668E-01  0.35750994182E-01  0.10000000475E-02 0.  1.
</event>
<event>
 4   0  0.4809415E-02  0.9118800E+02  0.7818609E-02  0.1379984E+01
      -11   -1    0    0    0    0  0.00000000000E+00  0.00000000000E+00  0.35740347158E-01  0.35744000000E-01  0.51099999109E-03 0.  1.
       11   -1    0    0    0    0 -0.00000000000E+00 -0.00000000000E+00 -0.35740347158E-01  0.35744000000E-01  0.51099999109E-03 0. -1.
       22    1    1    2    0    0  0.29598501842E-01 -0.35273819108E-02 -0.19713443393E-01  0.35737005818E-01  0.00000000000E+00 0. -1.
  9000001    1    1    2    0    0 -0.29598501842E-01  0.35273819108E-02  0.19713443393E-01  0.35750994182E-01  0.10000000475E-02 0.  1.
</event>
<event>
 4   0  0.4809415E-02  0.9118800E+02  0.7818609E-02  0.1379984E+01
      -11   -1    0    0    0    0  0.00000000000E+00  0.00000000000E+00  0.35740347158E-01  0.35744000000E-01  0.51099999109E-03 0. -1.
       11   -1    0    0    0    0 -0.00000000000E+00 -0.00000000000E+00 -0.35740347158E-01  0.35744000000E-01  0.51099999109E-03 0.  1.
       22    1    1    2    0    0  0.22738699709E-01 -0.22902798548E-01 -0.15347538535E-01  0.35737005818E-01  0.00000000000E+00 0.  1.
  9000001    1    1    2    0    0 -0.22738699709E-01  0.22902798548E-01  0.15347538535E-01  0.35750994182E-01  0.10000000475E-02 0. -1.
</event>
<event>
 4   0  0.4809415E-02  0.9118800E+02  0.7818609E-02  0.1379984E+01
      -11   -1    0    0    0    0  0.00000000000E+00  0.00000000000E+00  0.35740347158E-01  0.35744000000E-01  0.51099999109E-03 0. -1.
       11   -1    0    0    0    0 -0.00000000000E+00 -0.00000000000E+00 -0.35740347158E-01  0.35744000000E-01  0.51099999109E-03 0.  1.
       22    1    1    2    0    0 -0.21616769420E-02 -0.37729869121E-02 -0.35471471740E-01  0.35737005818E-01  0.00000000000E+00 0.  1.
  9000001    1    1    2    0    0  0.21616769420E-02  0.37729869121E-02  0.35471471740E-01  0.35750994182E-01  0.10000000475E-02 0. -1.
</event>
<event>
 4   0  0.4809415E-02  0.9118800E+02  0.7818609E-02  0.1379984E+01
      -11   -1    0    0    0    0  0.00000000000E+00  0.00000000000E+00  0.35740347158E-01  0.35744000000E-01  0.51099999109E-03 0. -1.
       11   -1    0    0    0    0 -0.00000000000E+00 -0.00000000000E+00 -0.35740347158E-01  0.35744000000E-01  0.51099999109E-03 0.  1.
       22    1    1    2    0    0  0.72980021334E-02 -0.16384620145E-02  0.34945503172E-01  0.35737005818E-01  0.00000000000E+00 0. -1.
  9000001    1    1    2    0    0 -0.72980021334E-02  0.16384620145E-02 -0.34945503172E-01  0.35750994182E-01  0.10000000475E-02 0.  1.
</event>
<event>
 4   0  0.4809415E-02  0.9118800E+02  0.7818609E-02  0.1379984E+01
      -11   -1    0    0    0    0  0.00000000000E+00  0.00000000000E+00  0.35740347158E-01  0.35744000000E-01  0.51099999109E-03 0.  1.
       11   -1    0    0    0    0 -0.00000000000E+00 -0.00000000000E+00 -0.35740347158E-01  0.35744000000E-01  0.51099999109E-03 0. -1.
       22    1    1    2    0    0  0.30822377130E-01  0.14123506284E-01  0.11297841528E-01  0.35737005818E-01  0.00000000000E+00 0.  1.
  9000001    1    1    2    0    0 -0.30822377130E-01 -0.14123506284E-01 -0.11297841528E-01  0.35750994182E-01  0.10000000475E-02 0. -1.
</event>
<event>
 4   0  0.4809415E-02  0.9118800E+02  0.7818609E-02  0.1379984E+01
      -11   -1    0    0    0    0  0.00000000000E+00  0.00000000000E+00  0.35740347158E-01  0.35744000000E-01  0.51099999109E-03 0.  1.
       11   -1    0    0    0    0 -0.00000000000E+00 -0.00000000000E+00 -0.35740347158E-01  0.35744000000E-01  0.51099999109E-03 0. -1.
       22    1    1    2    0    0 -0.33106744965E-01  0.18039103267E-02  0.13335026442E-01  0.35737005818E-01  0.00000000000E+00 0.  1.
  9000001    1    1    2    0    0  0.33106744965E-01 -0.18039103267E-02 -0.13335026442E-01  0.35750994182E-01  0.10000000475E-02 0. -1.
</event>
<event>
 4   0  0.4809415E-02  0.9118800E+02  0.7818609E-02  0.1379984E+01
      -11   -1    0    0    0    0  0.00000000000E+00  0.00000000000E+00  0.35740347158E-01  0.35744000000E-01  0.51099999109E-03 0. -1.
       11   -1    0    0    0    0 -0.00000000000E+00 -0.00000000000E+00 -0.35740347158E-01  0.35744000000E-01  0.51099999109E-03 0.  1.
       22    1    1    2    0    0  0.97021759153E-02  0.62852023668E-03 -0.34389043745E-01  0.35737005818E-01  0.00000000000E+00 0.  1.
  9000001    1    1    2    0    0 -0.97021759153E-02 -0.62852023668E-03  0.34389043745E-01  0.35750994182E-01  0.10000000475E-02 0. -1.
</event>
<event>
 4   0  0.4809415E-02  0.9118800E+02  0.7818609E-02  0.1379984E+01
      -11   -1    0    0    0    0  0.00000000000E+00  0.00000000000E+00  0.35740347158E-01  0.35744000000E-01  0.51099999109E-03 0.  1.
       11   -1    0    0    0    0 -0.00000000000E+00 -0.00000000000E+00 -0.35740347158E-01  0.35744000000E-01  0.51099999109E-03 0. -1.
       22    1    1    2    0    0  0.21479161649E-01  0.18506673319E-01  0.21755050963E-01  0.35737005818E-01  0.00000000000E+00 0.  1.
  9000001    1    1    2    0    0 -0.21479161649E-01 -0.18506673319E-01 -0.21755050963E-01  0.35750994182E-01  0.10000000475E-02 0. -1.
</event>
<event>
 4   0  0.4809415E-02  0.9118800E+02  0.7818609E-02  0.1379984E+01
      -11   -1    0    0    0    0  0.00000000000E+00  0.00000000000E+00  0.35740347158E-01  0.35744000000E-01  0.51099999109E-03 0. -1.
       11   -1    0    0    0    0 -0.00000000000E+00 -0.00000000000E+00 -0.35740347158E-01  0.35744000000E-01  0.51099999109E-03 0.  1.
       22    1    1    2    0    0  0.35421573021E-01 -0.37128555384E-02  0.29428648203E-02  0.35737005818E-01  0.00000000000E+00 0.  1.
  9000001    1    1    2    0    0 -0.35421573021E-01  0.37128555384E-02 -0.29428648203E-02  0.35750994182E-01  0.10000000475E-02 0. -1.
</event>
<event>
 4   0  0.4809415E-02  0.9118800E+02  0.7818609E-02  0.1379984E+01
      -11   -1    0    0    0    0  0.00000000000E+00  0.00000000000E+00  0.35740347158E-01  0.35744000000E-01  0.51099999109E-03 0. -1.
       11   -1    0    0    0    0 -0.00000000000E+00 -0.00000000000E+00 -0.35740347158E-01  0.35744000000E-01  0.51099999109E-03 0.  1.
       22    1    1    2    0    0  0.36626464361E-02 -0.53620546003E-02  0.35142096927E-01  0.35737005818E-01  0.00000000000E+00 0. -1.
  9000001    1    1    2    0    0 -0.36626464361E-02  0.53620546003E-02 -0.35142096927E-01  0.35750994182E-01  0.10000000475E-02 0.  1.
</event>
<event>
 4   0  0.4809415E-02  0.9118800E+02  0.7818609E-02  0.1379984E+01
      -11   -1    0    0    0    0  0.00000000000E+00  0.00000000000E+00  0.35740347158E-01  0.35744000000E-01  0.51099999109E-03 0.  1.
       11   -1    0    0    0    0 -0.00000000000E+00 -0.00000000000E+00 -0.35740347158E-01  0.35744000000E-01  0.51099999109E-03 0. -1.
       22    1    1    2    0    0 -0.34633488187E-01  0.41042668156E-02 -0.77980814788E-02  0.35737005818E-01  0.00000000000E+00 0.  1.
  9000001    1    1    2    0    0  0.34633488187E-01 -0.41042668156E-02  0.77980814788E-02  0.35750994182E-01  0.10000000475E-02 0. -1.
</event>
<event>
 4   0  0.4809415E-02  0.9118800E+02  0.7818609E-02  0.1379984E+01
      -11   -1    0    0    0    0  0.00000000000E+00  0.00000000000E+00  0.35740347158E-01  0.35744000000E-01  0.51099999109E-03 0.  1.
       11   -1    0    0    0    0 -0.00000000000E+00 -0.00000000000E+00 -0.35740347158E-01  0.35744000000E-01  0.51099999109E-03 0. -1.
       22    1    1    2    0    0  0.34647101378E-02  0.35468393661E-01 -0.26687861788E-02  0.35737005818E-01  0.00000000000E+00 0. -1.
  9000001    1    1    2    0    0 -0.34647101378E-02 -0.35468393661E-01  0.26687861788E-02  0.35750994182E-01  0.10000000475E-02 0.  1.
</event>
<event>
 4   0  0.4809415E-02  0.9118800E+02  0.7818609E-02  0.1379984E+01
      -11   -1    0    0    0    0  0.00000000000E+00  0.00000000000E+00  0.35740347158E-01  0.35744000000E-01  0.51099999109E-03 0.  1.
       11   -1    0    0    0    0 -0.00000000000E+00 -0.00000000000E+00 -0.35740347158E-01  0.35744000000E-01  0.51099999109E-03 0. -1.
       22    1    1    2    0    0  0.20725525457E-02  0.41955544495E-02  0.35429301908E-01  0.35737005818E-01  0.00000000000E+00 0.  1.
  9000001    1    1    2    0    0 -0.20725525457E-02 -0.41955544495E-02 -0.35429301908E-01  0.35750994182E-01  0.10000000475E-02 0. -1.
</event>
<event>
 4   0  0.4809415E-02  0.9118800E+02  0.7818609E-02  0.1379984E+01
      -11   -1    0    0    0    0  0.00000000000E+00  0.00000000000E+00  0.35740347158E-01  0.35744000000E-01  0.51099999109E-03 0.  1.
       11   -1    0    0    0    0 -0.00000000000E+00 -0.00000000000E+00 -0.35740347158E-01  0.35744000000E-01  0.51099999109E-03 0. -1.
       22    1    1    2    0    0 -0.21068978799E-01  0.19758949833E-01 -0.21043184614E-01  0.35737005818E-01  0.00000000000E+00 0. -1.
  9000001    1    1    2    0    0  0.21068978799E-01 -0.19758949833E-01  0.21043184614E-01  0.35750994182E-01  0.10000000475E-02 0.  1.
</event>
<event>
 4   0  0.4809415E-02  0.9118800E+02  0.7818609E-02  0.1379984E+01
      -11   -1    0    0    0    0  0.00000000000E+00  0.00000000000E+00  0.35740347158E-01  0.35744000000E-01  0.51099999109E-03 0.  1.
       11   -1    0    0    0    0 -0.00000000000E+00 -0.00000000000E+00 -0.35740347158E-01  0.35744000000E-01  0.51099999109E-03 0. -1.
       22    1    1    2    0    0  0.73642477327E-02  0.16457076226E-03 -0.34969620482E-01  0.35737005818E-01  0.00000000000E+00 0. -1.
  9000001    1    1    2    0    0 -0.73642477327E-02 -0.16457076226E-03  0.34969620482E-01  0.35750994182E-01  0.10000000475E-02 0.  1.
</event>
<event>
 4   0  0.4809415E-02  0.9118800E+02  0.7818609E-02  0.1379984E+01
      -11   -1    0    0    0    0  0.00000000000E+00  0.00000000000E+00  0.35740347158E-01  0.35744000000E-01  0.51099999109E-03 0. -1.
       11   -1    0    0    0    0 -0.00000000000E+00 -0.00000000000E+00 -0.35740347158E-01  0.35744000000E-01  0.51099999109E-03 0.  1.
       22    1    1    2    0    0  0.16640255144E-01 -0.14662569737E-01 -0.28022215158E-01  0.35737005818E-01  0.00000000000E+00 0.  1.
  9000001    1    1    2    0    0 -0.16640255144E-01  0.14662569737E-01  0.28022215158E-01  0.35750994182E-01  0.10000000475E-02 0. -1.
</event>
<event>
 4   0  0.4809415E-02  0.9118800E+02  0.7818609E-02  0.1379984E+01
      -11   -1    0    0    0    0  0.00000000000E+00  0.00000000000E+00  0.35740347158E-01  0.35744000000E-01  0.51099999109E-03 0.  1.
       11   -1    0    0    0    0 -0.00000000000E+00 -0.00000000000E+00 -0.35740347158E-01  0.35744000000E-01  0.51099999109E-03 0. -1.
       22    1    1    2    0    0 -0.93770793961E-02  0.34218484816E-01  0.42777638736E-02  0.35737005818E-01  0.00000000000E+00 0. -1.
  9000001    1    1    2    0    0  0.93770793961E-02 -0.34218484816E-01 -0.42777638736E-02  0.35750994182E-01  0.10000000475E-02 0.  1.
</event>
<event>
 4   0  0.4809415E-02  0.9118800E+02  0.7818609E-02  0.1379984E+01
      -11   -1    0    0    0    0  0.00000000000E+00  0.00000000000E+00  0.35740347158E-01  0.35744000000E-01  0.51099999109E-03 0.  1.
       11   -1    0    0    0    0 -0.00000000000E+00 -0.00000000000E+00 -0.35740347158E-01  0.35744000000E-01  0.51099999109E-03 0. -1.
       22    1    1    2    0    0  0.37630142085E-03  0.48699980535E-02  0.35401625684E-01  0.35737005818E-01  0.00000000000E+00 0.  1.
  9000001    1    1    2    0    0 -0.37630142085E-03 -0.48699980535E-02 -0.35401625684E-01  0.35750994182E-01  0.10000000475E-02 0. -1.
</event>
<event>
 4   0  0.4809415E-02  0.9118800E+02  0.7818609E-02  0.1379984E+01
      -11   -1    0    0    0    0  0.00000000000E+00  0.00000000000E+00  0.35740347158E-01  0.35744000000E-01  0.51099999109E-03 0.  1.
       11   -1    0    0    0    0 -0.00000000000E+00 -0.00000000000E+00 -0.35740347158E-01  0.35744000000E-01  0.51099999109E-03 0. -1.
       22    1    1    2    0    0 -0.36001624792E-02  0.45337953155E-02  0.35264955906E-01  0.35737005818E-01  0.00000000000E+00 0.  1.
  9000001    1    1    2    0    0  0.36001624792E-02 -0.45337953155E-02 -0.35264955906E-01  0.35750994182E-01  0.10000000475E-02 0. -1.
</event>
<event>
 4   0  0.4809415E-02  0.9118800E+02  0.7818609E-02  0.1379984E+01
      -11   -1    0    0    0    0  0.00000000000E+00  0.00000000000E+00  0.35740347158E-01  0.35744000000E-01  0.51099999109E-03 0. -1.
       11   -1    0    0    0    0 -0.00000000000E+00 -0.00000000000E+00 -0.35740347158E-01  0.35744000000E-01  0.51099999109E-03 0.  1.
       22    1    1    2    0    0  0.61210392761E-02 -0.15575086376E-01  0.31576623433E-01  0.35737005818E-01  0.00000000000E+00 0. -1.
  9000001    1    1    2    0    0 -0.61210392761E-02  0.15575086376E-01 -0.31576623433E-01  0.35750994182E-01  0.10000000475E-02 0.  1.
</event>
<event>
 4   0  0.4809415E-02  0.9118800E+02  0.7818609E-02  0.1379984E+01
      -11   -1    0    0    0    0  0.00000000000E+00  0.00000000000E+00  0.35740347158E-01  0.35744000000E-01  0.51099999109E-03 0.  1.
       11   -1    0    0    0    0 -0.00000000000E+00 -0.00000000000E+00 -0.35740347158E-01  0.35744000000E-01  0.51099999109E-03 0. -1.
       22    1    1    2    0    0  0.13772698218E-01 -0.12523995144E-01  0.30505670199E-01  0.35737005818E-01  0.00000000000E+00 0.  1.
  9000001    1    1    2    0    0 -0.13772698218E-01  0.12523995144E-01 -0.30505670199E-01  0.35750994182E-01  0.10000000475E-02 0. -1.
</event>
<event>
 4   0  0.4809415E-02  0.9118800E+02  0.7818609E-02  0.1379984E+01
      -11   -1    0    0    0    0  0.00000000000E+00  0.00000000000E+00  0.35740347158E-01  0.35744000000E-01  0.51099999109E-03 0. -1.
       11   -1    0    0    0    0 -0.00000000000E+00 -0.00000000000E+00 -0.35740347158E-01  0.35744000000E-01  0.51099999109E-03 0.  1.
       22    1    1    2    0    0 -0.31269059299E-02 -0.32065844698E-02  0.35455237416E-01  0.35737005818E-01  0.00000000000E+00 0. -1.
  9000001    1    1    2    0    0  0.31269059299E-02  0.32065844698E-02 -0.35455237416E-01  0.35750994182E-01  0.10000000475E-02 0.  1.
</event>
<event>
 4   0  0.4809415E-02  0.9118800E+02  0.7818609E-02  0.1379984E+01
      -11   -1    0    0    0    0  0.00000000000E+00  0.00000000000E+00  0.35740347158E-01  0.35744000000E-01  0.51099999109E-03 0. -1.
       11   -1    0    0    0    0 -0.00000000000E+00 -0.00000000000E+00 -0.35740347158E-01  0.35744000000E-01  0.51099999109E-03 0.  1.
       22    1    1    2    0    0 -0.26022026937E-02 -0.24379208742E-02 -0.35558665158E-01  0.35737005818E-01  0.00000000000E+00 0.  1.
  9000001    1    1    2    0    0  0.26022026937E-02  0.24379208742E-02  0.35558665158E-01  0.35750994182E-01  0.10000000475E-02 0. -1.
</event>
<event>
 4   0  0.4809415E-02  0.9118800E+02  0.7818609E-02  0.1379984E+01
      -11   -1    0    0    0    0  0.00000000000E+00  0.00000000000E+00  0.35740347158E-01  0.35744000000E-01  0.51099999109E-03 0. -1.
       11   -1    0    0    0    0 -0.00000000000E+00 -0.00000000000E+00 -0.35740347158E-01  0.35744000000E-01  0.51099999109E-03 0.  1.
       22    1    1    2    0    0  0.93745297778E-02  0.25236356960E-02  0.34393066731E-01  0.35737005818E-01  0.00000000000E+00 0. -1.
  9000001    1    1    2    0    0 -0.93745297778E-02 -0.25236356960E-02 -0.34393066731E-01  0.35750994182E-01  0.10000000475E-02 0.  1.
</event>
<event>
 4   0  0.4809415E-02  0.9118800E+02  0.7818609E-02  0.1379984E+01
      -11   -1    0    0    0    0  0.00000000000E+00  0.00000000000E+00  0.35740347158E-01  0.35744000000E-01  0.51099999109E-03 0. -1.
       11   -1    0    0    0    0 -0.00000000000E+00 -0.00000000000E+00 -0.35740347158E-01  0.35744000000E-01  0.51099999109E-03 0.  1.
       22    1    1    2    0    0 -0.48487484988E-02 -0.34356037160E-02 -0.35239464383E-01  0.35737005818E-01  0.00000000000E+00 0.  1.
  9000001    1    1    2    0    0  0.48487484988E-02  0.34356037160E-02  0.35239464383E-01  0.35750994182E-01  0.10000000475E-02 0. -1.
</event>
<event>
 4   0  0.4809415E-02  0.9118800E+02  0.7818609E-02  0.1379984E+01
      -11   -1    0    0    0    0  0.00000000000E+00  0.00000000000E+00  0.35740347158E-01  0.35744000000E-01  0.51099999109E-03 0. -1.
       11   -1    0    0    0    0 -0.00000000000E+00 -0.00000000000E+00 -0.35740347158E-01  0.35744000000E-01  0.51099999109E-03 0.  1.
       22    1    1    2    0    0  0.21731463696E-01 -0.92762735434E-02  0.26810964542E-01  0.35737005818E-01  0.00000000000E+00 0. -1.
  9000001    1    1    2    0    0 -0.21731463696E-01  0.92762735434E-02 -0.26810964542E-01  0.35750994182E-01  0.10000000475E-02 0.  1.
</event>
<event>
 4   0  0.4809415E-02  0.9118800E+02  0.7818609E-02  0.1379984E+01
      -11   -1    0    0    0    0  0.00000000000E+00  0.00000000000E+00  0.35740347158E-01  0.35744000000E-01  0.51099999109E-03 0. -1.
       11   -1    0    0    0    0 -0.00000000000E+00 -0.00000000000E+00 -0.35740347158E-01  0.35744000000E-01  0.51099999109E-03 0.  1.
       22    1    1    2    0    0  0.14225893697E-01 -0.37977995052E-02  0.32562774027E-01  0.35737005818E-01  0.00000000000E+00 0. -1.
  9000001    1    1    2    0    0 -0.14225893697E-01  0.37977995052E-02 -0.32562774027E-01  0.35750994182E-01  0.10000000475E-02 0.  1.
</event>
<event>
 4   0  0.4809415E-02  0.9118800E+02  0.7818609E-02  0.1379984E+01
      -11   -1    0    0    0    0  0.00000000000E+00  0.00000000000E+00  0.35740347158E-01  0.35744000000E-01  0.51099999109E-03 0.  1.
       11   -1    0    0    0    0 -0.00000000000E+00 -0.00000000000E+00 -0.35740347158E-01  0.35744000000E-01  0.51099999109E-03 0. -1.
       22    1    1    2    0    0 -0.38468758617E-02 -0.15880440283E-01  0.31782805845E-01  0.35737005818E-01  0.00000000000E+00 0.  1.
  9000001    1    1    2    0    0  0.38468758617E-02  0.15880440283E-01 -0.31782805845E-01  0.35750994182E-01  0.10000000475E-02 0. -1.
</event>
<event>
 4   0  0.4809415E-02  0.9118800E+02  0.7818609E-02  0.1379984E+01
      -11   -1    0    0    0    0  0.00000000000E+00  0.00000000000E+00  0.35740347158E-01  0.35744000000E-01  0.51099999109E-03 0. -1.
       11   -1    0    0    0    0 -0.00000000000E+00 -0.00000000000E+00 -0.35740347158E-01  0.35744000000E-01  0.51099999109E-03 0.  1.
       22    1    1    2    0    0  0.20698150570E-03 -0.49652088642E-02 -0.35389792942E-01  0.35737005818E-01  0.00000000000E+00 0.  1.
  9000001    1    1    2    0    0 -0.20698150570E-03  0.49652088642E-02  0.35389792942E-01  0.35750994182E-01  0.10000000475E-02 0. -1.
</event>
<event>
 4   0  0.4809415E-02  0.9118800E+02  0.7818609E-02  0.1379984E+01
      -11   -1    0    0    0    0  0.00000000000E+00  0.00000000000E+00  0.35740347158E-01  0.35744000000E-01  0.51099999109E-03 0. -1.
       11   -1    0    0    0    0 -0.00000000000E+00 -0.00000000000E+00 -0.35740347158E-01  0.35744000000E-01  0.51099999109E-03 0.  1.
       22    1    1    2    0    0  0.76301474834E-02  0.41071111784E-02  0.34670536079E-01  0.35737005818E-01  0.00000000000E+00 0. -1.
  9000001    1    1    2    0    0 -0.76301474834E-02 -0.41071111784E-02 -0.34670536079E-01  0.35750994182E-01  0.10000000475E-02 0.  1.
</event>
<event>
 4   0  0.4809415E-02  0.9118800E+02  0.7818609E-02  0.1379984E+01
      -11   -1    0    0    0    0  0.00000000000E+00  0.00000000000E+00  0.35740347158E-01  0.35744000000E-01  0.51099999109E-03 0.  1.
       11   -1    0    0    0    0 -0.00000000000E+00 -0.00000000000E+00 -0.35740347158E-01  0.35744000000E-01  0.51099999109E-03 0. -1.
       22    1    1    2    0    0 -0.93244952797E-02  0.38014979733E-02  0.34289006778E-01  0.35737005818E-01  0.00000000000E+00 0.  1.
  9000001    1    1    2    0    0  0.93244952797E-02 -0.38014979733E-02 -0.34289006778E-01  0.35750994182E-01  0.10000000475E-02 0. -1.
</event>
<event>
 4   0  0.4809415E-02  0.9118800E+02  0.7818609E-02  0.1379984E+01
      -11   -1    0    0    0    0  0.00000000000E+00  0.00000000000E+00  0.35740347158E-01  0.35744000000E-01  0.51099999109E-03 0. -1.
       11   -1    0    0    0    0 -0.00000000000E+00 -0.00000000000E+00 -0.35740347158E-01  0.35744000000E-01  0.51099999109E-03 0.  1.
       22    1    1    2    0    0  0.24343434303E-02 -0.29290494394E-02  0.35533480357E-01  0.35737005818E-01  0.00000000000E+00 0. -1.
  9000001    1    1    2    0    0 -0.24343434303E-02  0.29290494394E-02 -0.35533480357E-01  0.35750994182E-01  0.10000000475E-02 0.  1.
</event>
<event>
 4   0  0.4809415E-02  0.9118800E+02  0.7818609E-02  0.1379984E+01
      -11   -1    0    0    0    0  0.00000000000E+00  0.00000000000E+00  0.35740347158E-01  0.35744000000E-01  0.51099999109E-03 0.  1.
       11   -1    0    0    0    0 -0.00000000000E+00 -0.00000000000E+00 -0.35740347158E-01  0.35744000000E-01  0.51099999109E-03 0. -1.
       22    1    1    2    0    0 -0.42319473000E-02  0.36038486778E-02 -0.35302074750E-01  0.35737005818E-01  0.00000000000E+00 0. -1.
  9000001    1    1    2    0    0  0.42319473000E-02 -0.36038486778E-02  0.35302074750E-01  0.35750994182E-01  0.10000000475E-02 0.  1.
</event>
<event>
 4   0  0.4809415E-02  0.9118800E+02  0.7818609E-02  0.1379984E+01
      -11   -1    0    0    0    0  0.00000000000E+00  0.00000000000E+00  0.35740347158E-01  0.35744000000E-01  0.51099999109E-03 0. -1.
       11   -1    0    0    0    0 -0.00000000000E+00 -0.00000000000E+00 -0.35740347158E-01  0.35744000000E-01  0.51099999109E-03 0.  1.
       22    1    1    2    0    0 -0.15159720088E-01 -0.30461663733E-01 -0.10927191513E-01  0.35737005818E-01  0.00000000000E+00 0.  1.
  9000001    1    1    2    0    0  0.15159720088E-01  0.30461663733E-01  0.10927191513E-01  0.35750994182E-01  0.10000000475E-02 0. -1.
</event>
<event>
 4   0  0.4809415E-02  0.9118800E+02  0.7818609E-02  0.1379984E+01
      -11   -1    0    0    0    0  0.00000000000E+00  0.00000000000E+00  0.35740347158E-01  0.35744000000E-01  0.51099999109E-03 0. -1.
       11   -1    0    0    0    0 -0.00000000000E+00 -0.00000000000E+00 -0.35740347158E-01  0.35744000000E-01  0.51099999109E-03 0.  1.
       22    1    1    2    0    0  0.16243542543E-01  0.56068591986E-02 -0.31334390698E-01  0.35737005818E-01  0.00000000000E+00 0.  1.
  9000001    1    1    2    0    0 -0.16243542543E-01 -0.56068591986E-02  0.31334390698E-01  0.35750994182E-01  0.10000000475E-02 0. -1.
</event>
<event>
 4   0  0.4809415E-02  0.9118800E+02  0.7818609E-02  0.1379984E+01
      -11   -1    0    0    0    0  0.00000000000E+00  0.00000000000E+00  0.35740347158E-01  0.35744000000E-01  0.51099999109E-03 0.  1.
       11   -1    0    0    0    0 -0.00000000000E+00 -0.00000000000E+00 -0.35740347158E-01  0.35744000000E-01  0.51099999109E-03 0. -1.
       22    1    1    2    0    0  0.12937503700E-01 -0.67020100992E-02 -0.32631850139E-01  0.35737005818E-01  0.00000000000E+00 0. -1.
  9000001    1    1    2    0    0 -0.12937503700E-01  0.67020100992E-02  0.32631850139E-01  0.35750994182E-01  0.10000000475E-02 0.  1.
</event>
<event>
 4   0  0.4809415E-02  0.9118800E+02  0.7818609E-02  0.1379984E+01
      -11   -1    0    0    0    0  0.00000000000E+00  0.00000000000E+00  0.35740347158E-01  0.35744000000E-01  0.51099999109E-03 0.  1.
       11   -1    0    0    0    0 -0.00000000000E+00 -0.00000000000E+00 -0.35740347158E-01  0.35744000000E-01  0.51099999109E-03 0. -1.
       22    1    1    2    0    0  0.21730965560E-02  0.81781321468E-02 -0.34720734307E-01  0.35737005818E-01  0.00000000000E+00 0. -1.
  9000001    1    1    2    0    0 -0.21730965560E-02 -0.81781321468E-02  0.34720734307E-01  0.35750994182E-01  0.10000000475E-02 0.  1.
</event>
<event>
 4   0  0.4809415E-02  0.9118800E+02  0.7818609E-02  0.1379984E+01
      -11   -1    0    0    0    0  0.00000000000E+00  0.00000000000E+00  0.35740347158E-01  0.35744000000E-01  0.51099999109E-03 0. -1.
       11   -1    0    0    0    0 -0.00000000000E+00 -0.00000000000E+00 -0.35740347158E-01  0.35744000000E-01  0.51099999109E-03 0.  1.
       22    1    1    2    0    0 -0.34486355038E-02 -0.23221944701E-02 -0.35494336321E-01  0.35737005818E-01  0.00000000000E+00 0.  1.
  9000001    1    1    2    0    0  0.34486355038E-02  0.23221944701E-02  0.35494336321E-01  0.35750994182E-01  0.10000000475E-02 0. -1.
</event>
<event>
 4   0  0.4809415E-02  0.9118800E+02  0.7818609E-02  0.1379984E+01
      -11   -1    0    0    0    0  0.00000000000E+00  0.00000000000E+00  0.35740347158E-01  0.35744000000E-01  0.51099999109E-03 0. -1.
       11   -1    0    0    0    0 -0.00000000000E+00 -0.00000000000E+00 -0.35740347158E-01  0.35744000000E-01  0.51099999109E-03 0.  1.
       22    1    1    2    0    0 -0.30430057018E-01  0.12092667576E-01  0.14314768794E-01  0.35737005818E-01  0.00000000000E+00 0. -1.
  9000001    1    1    2    0    0  0.30430057018E-01 -0.12092667576E-01 -0.14314768794E-01  0.35750994182E-01  0.10000000475E-02 0.  1.
</event>
<event>
 4   0  0.4809415E-02  0.9118800E+02  0.7818609E-02  0.1379984E+01
      -11   -1    0    0    0    0  0.00000000000E+00  0.00000000000E+00  0.35740347158E-01  0.35744000000E-01  0.51099999109E-03 0.  1.
       11   -1    0    0    0    0 -0.00000000000E+00 -0.00000000000E+00 -0.35740347158E-01  0.35744000000E-01  0.51099999109E-03 0. -1.
       22    1    1    2    0    0  0.23953510230E-01  0.15823703379E-01  0.21283170438E-01  0.35737005818E-01  0.00000000000E+00 0.  1.
  9000001    1    1    2    0    0 -0.23953510230E-01 -0.15823703379E-01 -0.21283170438E-01  0.35750994182E-01  0.10000000475E-02 0. -1.
</event>
<event>
 4   0  0.4809415E-02  0.9118800E+02  0.7818609E-02  0.1379984E+01
      -11   -1    0    0    0    0  0.00000000000E+00  0.00000000000E+00  0.35740347158E-01  0.35744000000E-01  0.51099999109E-03 0.  1.
       11   -1    0    0    0    0 -0.00000000000E+00 -0.00000000000E+00 -0.35740347158E-01  0.35744000000E-01  0.51099999109E-03 0. -1.
       22    1    1    2    0    0  0.73047579162E-02 -0.33544505218E-01 -0.99267450024E-02  0.35737005818E-01  0.00000000000E+00 0. -1.
  9000001    1    1    2    0    0 -0.73047579162E-02  0.33544505218E-01  0.99267450024E-02  0.35750994182E-01  0.10000000475E-02 0.  1.
</event>
<event>
 4   0  0.4809415E-02  0.9118800E+02  0.7818609E-02  0.1379984E+01
      -11   -1    0    0    0    0  0.00000000000E+00  0.00000000000E+00  0.35740347158E-01  0.35744000000E-01  0.51099999109E-03 0. -1.
       11   -1    0    0    0    0 -0.00000000000E+00 -0.00000000000E+00 -0.35740347158E-01  0.35744000000E-01  0.51099999109E-03 0.  1.
       22    1    1    2    0    0  0.99419439388E-02  0.28065422644E-01 -0.19764194581E-01  0.35737005818E-01  0.00000000000E+00 0.  1.
  9000001    1    1    2    0    0 -0.99419439388E-02 -0.28065422644E-01  0.19764194581E-01  0.35750994182E-01  0.10000000475E-02 0. -1.
</event>
<event>
 4   0  0.4809415E-02  0.9118800E+02  0.7818609E-02  0.1379984E+01
      -11   -1    0    0    0    0  0.00000000000E+00  0.00000000000E+00  0.35740347158E-01  0.35744000000E-01  0.51099999109E-03 0.  1.
       11   -1    0    0    0    0 -0.00000000000E+00 -0.00000000000E+00 -0.35740347158E-01  0.35744000000E-01  0.51099999109E-03 0. -1.
       22    1    1    2    0    0  0.89956906053E-03 -0.25252312786E-01 -0.25271427727E-01  0.35737005818E-01  0.00000000000E+00 0. -1.
  9000001    1    1    2    0    0 -0.89956906053E-03  0.25252312786E-01  0.25271427727E-01  0.35750994182E-01  0.10000000475E-02 0.  1.
</event>
<event>
 4   0  0.4809415E-02  0.9118800E+02  0.7818609E-02  0.1379984E+01
      -11   -1    0    0    0    0  0.00000000000E+00  0.00000000000E+00  0.35740347158E-01  0.35744000000E-01  0.51099999109E-03 0. -1.
       11   -1    0    0    0    0 -0.00000000000E+00 -0.00000000000E+00 -0.35740347158E-01  0.35744000000E-01  0.51099999109E-03 0.  1.
       22    1    1    2    0    0 -0.97508834872E-02 -0.65095586844E-02 -0.33759139530E-01  0.35737005818E-01  0.00000000000E+00 0.  1.
  9000001    1    1    2    0    0  0.97508834872E-02  0.65095586844E-02  0.33759139530E-01  0.35750994182E-01  0.10000000475E-02 0. -1.
</event>
<event>
 4   0  0.4809415E-02  0.9118800E+02  0.7818609E-02  0.1379984E+01
      -11   -1    0    0    0    0  0.00000000000E+00  0.00000000000E+00  0.35740347158E-01  0.35744000000E-01  0.51099999109E-03 0.  1.
       11   -1    0    0    0    0 -0.00000000000E+00 -0.00000000000E+00 -0.35740347158E-01  0.35744000000E-01  0.51099999109E-03 0. -1.
       22    1    1    2    0    0  0.16790704715E-01  0.19308139959E-01 -0.24947976900E-01  0.35737005818E-01  0.00000000000E+00 0. -1.
  9000001    1    1    2    0    0 -0.16790704715E-01 -0.19308139959E-01  0.24947976900E-01  0.35750994182E-01  0.10000000475E-02 0.  1.
</event>
<event>
 4   0  0.4809415E-02  0.9118800E+02  0.7818609E-02  0.1379984E+01
      -11   -1    0    0    0    0  0.00000000000E+00  0.00000000000E+00  0.35740347158E-01  0.35744000000E-01  0.51099999109E-03 0.  1.
       11   -1    0    0    0    0 -0.00000000000E+00 -0.00000000000E+00 -0.35740347158E-01  0.35744000000E-01  0.51099999109E-03 0. -1.
       22    1    1    2    0    0 -0.44503910847E-02 -0.25478512386E-02 -0.35367160730E-01  0.35737005818E-01  0.00000000000E+00 0. -1.
  9000001    1    1    2    0    0  0.44503910847E-02  0.25478512386E-02  0.35367160730E-01  0.35750994182E-01  0.10000000475E-02 0.  1.
</event>
<event>
 4   0  0.4809415E-02  0.9118800E+02  0.7818609E-02  0.1379984E+01
      -11   -1    0    0    0    0  0.00000000000E+00  0.00000000000E+00  0.35740347158E-01  0.35744000000E-01  0.51099999109E-03 0. -1.
       11   -1    0    0    0    0 -0.00000000000E+00 -0.00000000000E+00 -0.35740347158E-01  0.35744000000E-01  0.51099999109E-03 0.  1.
       22    1    1    2    0    0 -0.46692210548E-02 -0.54326620648E-02  0.35011685799E-01  0.35737005818E-01  0.00000000000E+00 0. -1.
  9000001    1    1    2    0    0  0.46692210548E-02  0.54326620648E-02 -0.35011685799E-01  0.35750994182E-01  0.10000000475E-02 0.  1.
</event>
<event>
 4   0  0.4809415E-02  0.9118800E+02  0.7818609E-02  0.1379984E+01
      -11   -1    0    0    0    0  0.00000000000E+00  0.00000000000E+00  0.35740347158E-01  0.35744000000E-01  0.51099999109E-03 0.  1.
       11   -1    0    0    0    0 -0.00000000000E+00 -0.00000000000E+00 -0.35740347158E-01  0.35744000000E-01  0.51099999109E-03 0. -1.
       22    1    1    2    0    0  0.30048104346E-02 -0.80773007686E-02  0.34682299685E-01  0.35737005818E-01  0.00000000000E+00 0.  1.
  9000001    1    1    2    0    0 -0.30048104346E-02  0.80773007686E-02 -0.34682299685E-01  0.35750994182E-01  0.10000000475E-02 0. -1.
</event>
<event>
 4   0  0.4809415E-02  0.9118800E+02  0.7818609E-02  0.1379984E+01
      -11   -1    0    0    0    0  0.00000000000E+00  0.00000000000E+00  0.35740347158E-01  0.35744000000E-01  0.51099999109E-03 0.  1.
       11   -1    0    0    0    0 -0.00000000000E+00 -0.00000000000E+00 -0.35740347158E-01  0.35744000000E-01  0.51099999109E-03 0. -1.
       22    1    1    2    0    0  0.57186791903E-02 -0.14947649278E-02  0.35244800624E-01  0.35737005818E-01  0.00000000000E+00 0.  1.
  9000001    1    1    2    0    0 -0.57186791903E-02  0.14947649278E-02 -0.35244800624E-01  0.35750994182E-01  0.10000000475E-02 0. -1.
</event>
<event>
 4   0  0.4809415E-02  0.9118800E+02  0.7818609E-02  0.1379984E+01
      -11   -1    0    0    0    0  0.00000000000E+00  0.00000000000E+00  0.35740347158E-01  0.35744000000E-01  0.51099999109E-03 0. -1.
       11   -1    0    0    0    0 -0.00000000000E+00 -0.00000000000E+00 -0.35740347158E-01  0.35744000000E-01  0.51099999109E-03 0.  1.
       22    1    1    2    0    0 -0.50075978640E-02 -0.34386899939E-03  0.35382754311E-01  0.35737005818E-01  0.00000000000E+00 0. -1.
  9000001    1    1    2    0    0  0.50075978640E-02  0.34386899939E-03 -0.35382754311E-01  0.35750994182E-01  0.10000000475E-02 0.  1.
</event>
<event>
 4   0  0.4809415E-02  0.9118800E+02  0.7818609E-02  0.1379984E+01
      -11   -1    0    0    0    0  0.00000000000E+00  0.00000000000E+00  0.35740347158E-01  0.35744000000E-01  0.51099999109E-03 0. -1.
       11   -1    0    0    0    0 -0.00000000000E+00 -0.00000000000E+00 -0.35740347158E-01  0.35744000000E-01  0.51099999109E-03 0.  1.
       22    1    1    2    0    0  0.34515329669E-01 -0.70146186873E-02  0.60515062080E-02  0.35737005818E-01  0.00000000000E+00 0.  1.
  9000001    1    1    2    0    0 -0.34515329669E-01  0.70146186873E-02 -0.60515062080E-02  0.35750994182E-01  0.10000000475E-02 0. -1.
</event>
<event>
 4   0  0.4809415E-02  0.9118800E+02  0.7818609E-02  0.1379984E+01
      -11   -1    0    0    0    0  0.00000000000E+00  0.00000000000E+00  0.35740347158E-01  0.35744000000E-01  0.51099999109E-03 0.  1.
       11   -1    0    0    0    0 -0.00000000000E+00 -0.00000000000E+00 -0.35740347158E-01  0.35744000000E-01  0.51099999109E-03 0. -1.
       22    1    1    2    0    0 -0.39996686996E-02 -0.13346839841E-01  0.32908936498E-01  0.35737005818E-01  0.00000000000E+00 0.  1.
  9000001    1    1    2    0    0  0.39996686996E-02  0.13346839841E-01 -0.32908936498E-01  0.35750994182E-01  0.10000000475E-02 0. -1.
</event>
<event>
 4   0  0.4809415E-02  0.9118800E+02  0.7818609E-02  0.1379984E+01
      -11   -1    0    0    0    0  0.00000000000E+00  0.00000000000E+00  0.35740347158E-01  0.35744000000E-01  0.51099999109E-03 0. -1.
       11   -1    0    0    0    0 -0.00000000000E+00 -0.00000000000E+00 -0.35740347158E-01  0.35744000000E-01  0.51099999109E-03 0.  1.
       22    1    1    2    0    0  0.34904351174E-02 -0.12442905822E-01  0.33318531514E-01  0.35737005818E-01  0.00000000000E+00 0. -1.
  9000001    1    1    2    0    0 -0.34904351174E-02  0.12442905822E-01 -0.33318531514E-01  0.35750994182E-01  0.10000000475E-02 0.  1.
</event>
<event>
 4   0  0.4809415E-02  0.9118800E+02  0.7818609E-02  0.1379984E+01
      -11   -1    0    0    0    0  0.00000000000E+00  0.00000000000E+00  0.35740347158E-01  0.35744000000E-01  0.51099999109E-03 0.  1.
       11   -1    0    0    0    0 -0.00000000000E+00 -0.00000000000E+00 -0.35740347158E-01  0.35744000000E-01  0.51099999109E-03 0. -1.
       22    1    1    2    0    0 -0.46631048803E-03  0.30459031118E-02  0.35603912898E-01  0.35737005818E-01  0.00000000000E+00 0.  1.
  9000001    1    1    2    0    0  0.46631048803E-03 -0.30459031118E-02 -0.35603912898E-01  0.35750994182E-01  0.10000000475E-02 0. -1.
</event>
<event>
 4   0  0.4809415E-02  0.9118800E+02  0.7818609E-02  0.1379984E+01
      -11   -1    0    0    0    0  0.00000000000E+00  0.00000000000E+00  0.35740347158E-01  0.35744000000E-01  0.51099999109E-03 0. -1.
       11   -1    0    0    0    0 -0.00000000000E+00 -0.00000000000E+00 -0.35740347158E-01  0.35744000000E-01  0.51099999109E-03 0.  1.
       22    1    1    2    0    0  0.94309451153E-02  0.24616180895E-02  0.34382136284E-01  0.35737005818E-01  0.00000000000E+00 0. -1.
  9000001    1    1    2    0    0 -0.94309451153E-02 -0.24616180895E-02 -0.34382136284E-01  0.35750994182E-01  0.10000000475E-02 0.  1.
</event>
<event>
 4   0  0.4809415E-02  0.9118800E+02  0.7818609E-02  0.1379984E+01
      -11   -1    0    0    0    0  0.00000000000E+00  0.00000000000E+00  0.35740347158E-01  0.35744000000E-01  0.51099999109E-03 0. -1.
       11   -1    0    0    0    0 -0.00000000000E+00 -0.00000000000E+00 -0.35740347158E-01  0.35744000000E-01  0.51099999109E-03 0.  1.
       22    1    1    2    0    0 -0.19196491626E-01  0.24303200150E-01 -0.17832071014E-01  0.35737005818E-01  0.00000000000E+00 0.  1.
  9000001    1    1    2    0    0  0.19196491626E-01 -0.24303200150E-01  0.17832071014E-01  0.35750994182E-01  0.10000000475E-02 0. -1.
</event>
<event>
 4   0  0.4809415E-02  0.9118800E+02  0.7818609E-02  0.1379984E+01
      -11   -1    0    0    0    0  0.00000000000E+00  0.00000000000E+00  0.35740347158E-01  0.35744000000E-01  0.51099999109E-03 0.  1.
       11   -1    0    0    0    0 -0.00000000000E+00 -0.00000000000E+00 -0.35740347158E-01  0.35744000000E-01  0.51099999109E-03 0. -1.
       22    1    1    2    0    0 -0.30856266844E-01  0.60725269785E-02  0.16974946168E-01  0.35737005818E-01  0.00000000000E+00 0.  1.
  9000001    1    1    2    0    0  0.30856266844E-01 -0.60725269785E-02 -0.16974946168E-01  0.35750994182E-01  0.10000000475E-02 0. -1.
</event>
<event>
 4   0  0.4809415E-02  0.9118800E+02  0.7818609E-02  0.1379984E+01
      -11   -1    0    0    0    0  0.00000000000E+00  0.00000000000E+00  0.35740347158E-01  0.35744000000E-01  0.51099999109E-03 0.  1.
       11   -1    0    0    0    0 -0.00000000000E+00 -0.00000000000E+00 -0.35740347158E-01  0.35744000000E-01  0.51099999109E-03 0. -1.
       22    1    1    2    0    0  0.77222203512E-03  0.65684684606E-02 -0.35119687927E-01  0.35737005818E-01  0.00000000000E+00 0. -1.
  9000001    1    1    2    0    0 -0.77222203512E-03 -0.65684684606E-02  0.35119687927E-01  0.35750994182E-01  0.10000000475E-02 0.  1.
</event>
<event>
 4   0  0.4809415E-02  0.9118800E+02  0.7818609E-02  0.1379984E+01
      -11   -1    0    0    0    0  0.00000000000E+00  0.00000000000E+00  0.35740347158E-01  0.35744000000E-01  0.51099999109E-03 0.  1.
       11   -1    0    0    0    0 -0.00000000000E+00 -0.00000000000E+00 -0.35740347158E-01  0.35744000000E-01  0.51099999109E-03 0. -1.
       22    1    1    2    0    0  0.27936304637E-02 -0.23376325720E-02  0.35550874640E-01  0.35737005818E-01  0.00000000000E+00 0.  1.
  9000001    1    1    2    0    0 -0.27936304637E-02  0.23376325720E-02 -0.35550874640E-01  0.35750994182E-01  0.10000000475E-02 0. -1.
</event>
<event>
 4   0  0.4809415E-02  0.9118800E+02  0.7818609E-02  0.1379984E+01
      -11   -1    0    0    0    0  0.00000000000E+00  0.00000000000E+00  0.35740347158E-01  0.35744000000E-01  0.51099999109E-03 0. -1.
       11   -1    0    0    0    0 -0.00000000000E+00 -0.00000000000E+00 -0.35740347158E-01  0.35744000000E-01  0.51099999109E-03 0.  1.
       22    1    1    2    0    0  0.88697234241E-02  0.33026702007E-02 -0.34460904817E-01  0.35737005818E-01  0.00000000000E+00 0.  1.
  9000001    1    1    2    0    0 -0.88697234241E-02 -0.33026702007E-02  0.34460904817E-01  0.35750994182E-01  0.10000000475E-02 0. -1.
</event>
<event>
 4   0  0.4809415E-02  0.9118800E+02  0.7818609E-02  0.1379984E+01
      -11   -1    0    0    0    0  0.00000000000E+00  0.00000000000E+00  0.35740347158E-01  0.35744000000E-01  0.51099999109E-03 0. -1.
       11   -1    0    0    0    0 -0.00000000000E+00 -0.00000000000E+00 -0.35740347158E-01  0.35744000000E-01  0.51099999109E-03 0.  1.
       22    1    1    2    0    0  0.45309918376E-02 -0.11191092220E-02 -0.35430936939E-01  0.35737005818E-01  0.00000000000E+00 0.  1.
  9000001    1    1    2    0    0 -0.45309918376E-02  0.11191092220E-02  0.35430936939E-01  0.35750994182E-01  0.10000000475E-02 0. -1.
</event>
<event>
 4   0  0.4809415E-02  0.9118800E+02  0.7818609E-02  0.1379984E+01
      -11   -1    0    0    0    0  0.00000000000E+00  0.00000000000E+00  0.35740347158E-01  0.35744000000E-01  0.51099999109E-03 0.  1.
       11   -1    0    0    0    0 -0.00000000000E+00 -0.00000000000E+00 -0.35740347158E-01  0.35744000000E-01  0.51099999109E-03 0. -1.
       22    1    1    2    0    0 -0.10092218541E-01 -0.26979972042E-01  0.21150929493E-01  0.35737005818E-01  0.00000000000E+00 0.  1.
  9000001    1    1    2    0    0  0.10092218541E-01  0.26979972042E-01 -0.21150929493E-01  0.35750994182E-01  0.10000000475E-02 0. -1.
</event>
<event>
 4   0  0.4809415E-02  0.9118800E+02  0.7818609E-02  0.1379984E+01
      -11   -1    0    0    0    0  0.00000000000E+00  0.00000000000E+00  0.35740347158E-01  0.35744000000E-01  0.51099999109E-03 0.  1.
       11   -1    0    0    0    0 -0.00000000000E+00 -0.00000000000E+00 -0.35740347158E-01  0.35744000000E-01  0.51099999109E-03 0. -1.
       22    1    1    2    0    0 -0.30749451531E-02 -0.34609361190E-03  0.35602788042E-01  0.35737005818E-01  0.00000000000E+00 0.  1.
  9000001    1    1    2    0    0  0.30749451531E-02  0.34609361190E-03 -0.35602788042E-01  0.35750994182E-01  0.10000000475E-02 0. -1.
</event>
<event>
 4   0  0.4809415E-02  0.9118800E+02  0.7818609E-02  0.1379984E+01
      -11   -1    0    0    0    0  0.00000000000E+00  0.00000000000E+00  0.35740347158E-01  0.35744000000E-01  0.51099999109E-03 0. -1.
       11   -1    0    0    0    0 -0.00000000000E+00 -0.00000000000E+00 -0.35740347158E-01  0.35744000000E-01  0.51099999109E-03 0.  1.
       22    1    1    2    0    0  0.78943374124E-02  0.23218727209E-01 -0.25994301846E-01  0.35737005818E-01  0.00000000000E+00 0.  1.
  9000001    1    1    2    0    0 -0.78943374124E-02 -0.23218727209E-01  0.25994301846E-01  0.35750994182E-01  0.10000000475E-02 0. -1.
</event>
<event>
 4   0  0.4809415E-02  0.9118800E+02  0.7818609E-02  0.1379984E+01
      -11   -1    0    0    0    0  0.00000000000E+00  0.00000000000E+00  0.35740347158E-01  0.35744000000E-01  0.51099999109E-03 0. -1.
       11   -1    0    0    0    0 -0.00000000000E+00 -0.00000000000E+00 -0.35740347158E-01  0.35744000000E-01  0.51099999109E-03 0.  1.
       22    1    1    2    0    0  0.45339640003E-03  0.19650872066E-01 -0.29845791054E-01  0.35737005818E-01  0.00000000000E+00 0.  1.
  9000001    1    1    2    0    0 -0.45339640003E-03 -0.19650872066E-01  0.29845791054E-01  0.35750994182E-01  0.10000000475E-02 0. -1.
</event>
<event>
 4   0  0.4809415E-02  0.9118800E+02  0.7818609E-02  0.1379984E+01
      -11   -1    0    0    0    0  0.00000000000E+00  0.00000000000E+00  0.35740347158E-01  0.35744000000E-01  0.51099999109E-03 0. -1.
       11   -1    0    0    0    0 -0.00000000000E+00 -0.00000000000E+00 -0.35740347158E-01  0.35744000000E-01  0.51099999109E-03 0.  1.
       22    1    1    2    0    0  0.16862646386E-02  0.32175569191E-02 -0.35551897613E-01  0.35737005818E-01  0.00000000000E+00 0.  1.
  9000001    1    1    2    0    0 -0.16862646386E-02 -0.32175569191E-02  0.35551897613E-01  0.35750994182E-01  0.10000000475E-02 0. -1.
</event>
<event>
 4   0  0.4809415E-02  0.9118800E+02  0.7818609E-02  0.1379984E+01
      -11   -1    0    0    0    0  0.00000000000E+00  0.00000000000E+00  0.35740347158E-01  0.35744000000E-01  0.51099999109E-03 0. -1.
       11   -1    0    0    0    0 -0.00000000000E+00 -0.00000000000E+00 -0.35740347158E-01  0.35744000000E-01  0.51099999109E-03 0.  1.
       22    1    1    2    0    0  0.13380112709E-01 -0.15554304267E-02  0.33101160175E-01  0.35737005818E-01  0.00000000000E+00 0. -1.
  9000001    1    1    2    0    0 -0.13380112709E-01  0.15554304267E-02 -0.33101160175E-01  0.35750994182E-01  0.10000000475E-02 0.  1.
</event>
<event>
 4   0  0.4809415E-02  0.9118800E+02  0.7818609E-02  0.1379984E+01
      -11   -1    0    0    0    0  0.00000000000E+00  0.00000000000E+00  0.35740347158E-01  0.35744000000E-01  0.51099999109E-03 0. -1.
       11   -1    0    0    0    0 -0.00000000000E+00 -0.00000000000E+00 -0.35740347158E-01  0.35744000000E-01  0.51099999109E-03 0.  1.
       22    1    1    2    0    0  0.10393789371E-01  0.77531782058E-02 -0.33301515808E-01  0.35737005818E-01  0.00000000000E+00 0.  1.
  9000001    1    1    2    0    0 -0.10393789371E-01 -0.77531782058E-02  0.33301515808E-01  0.35750994182E-01  0.10000000475E-02 0. -1.
</event>
<event>
 4   0  0.4809415E-02  0.9118800E+02  0.7818609E-02  0.1379984E+01
      -11   -1    0    0    0    0  0.00000000000E+00  0.00000000000E+00  0.35740347158E-01  0.35744000000E-01  0.51099999109E-03 0.  1.
       11   -1    0    0    0    0 -0.00000000000E+00 -0.00000000000E+00 -0.35740347158E-01  0.35744000000E-01  0.51099999109E-03 0. -1.
       22    1    1    2    0    0 -0.38742868257E-02 -0.45527568464E-03 -0.35523460002E-01  0.35737005818E-01  0.00000000000E+00 0. -1.
  9000001    1    1    2    0    0  0.38742868257E-02  0.45527568464E-03  0.35523460002E-01  0.35750994182E-01  0.10000000475E-02 0.  1.
</event>
<event>
 4   0  0.4809415E-02  0.9118800E+02  0.7818609E-02  0.1379984E+01
      -11   -1    0    0    0    0  0.00000000000E+00  0.00000000000E+00  0.35740347158E-01  0.35744000000E-01  0.51099999109E-03 0. -1.
       11   -1    0    0    0    0 -0.00000000000E+00 -0.00000000000E+00 -0.35740347158E-01  0.35744000000E-01  0.51099999109E-03 0.  1.
       22    1    1    2    0    0 -0.29050144382E-02  0.76238583696E-02  0.34793264572E-01  0.35737005818E-01  0.00000000000E+00 0. -1.
  9000001    1    1    2    0    0  0.29050144382E-02 -0.76238583696E-02 -0.34793264572E-01  0.35750994182E-01  0.10000000475E-02 0.  1.
</event>
<event>
 4   0  0.4809415E-02  0.9118800E+02  0.7818609E-02  0.1379984E+01
      -11   -1    0    0    0    0  0.00000000000E+00  0.00000000000E+00  0.35740347158E-01  0.35744000000E-01  0.51099999109E-03 0. -1.
       11   -1    0    0    0    0 -0.00000000000E+00 -0.00000000000E+00 -0.35740347158E-01  0.35744000000E-01  0.51099999109E-03 0.  1.
       22    1    1    2    0    0 -0.55256352447E-02  0.28321529848E-02  0.35193463164E-01  0.35737005818E-01  0.00000000000E+00 0. -1.
  9000001    1    1    2    0    0  0.55256352447E-02 -0.28321529848E-02 -0.35193463164E-01  0.35750994182E-01  0.10000000475E-02 0.  1.
</event>
<event>
 4   0  0.4809415E-02  0.9118800E+02  0.7818609E-02  0.1379984E+01
      -11   -1    0    0    0    0  0.00000000000E+00  0.00000000000E+00  0.35740347158E-01  0.35744000000E-01  0.51099999109E-03 0. -1.
       11   -1    0    0    0    0 -0.00000000000E+00 -0.00000000000E+00 -0.35740347158E-01  0.35744000000E-01  0.51099999109E-03 0.  1.
       22    1    1    2    0    0 -0.40213018753E-02  0.40292637060E-02 -0.35280699399E-01  0.35737005818E-01  0.00000000000E+00 0.  1.
  9000001    1    1    2    0    0  0.40213018753E-02 -0.40292637060E-02  0.35280699399E-01  0.35750994182E-01  0.10000000475E-02 0. -1.
</event>
<event>
 4   0  0.4809415E-02  0.9118800E+02  0.7818609E-02  0.1379984E+01
      -11   -1    0    0    0    0  0.00000000000E+00  0.00000000000E+00  0.35740347158E-01  0.35744000000E-01  0.51099999109E-03 0.  1.
       11   -1    0    0    0    0 -0.00000000000E+00 -0.00000000000E+00 -0.35740347158E-01  0.35744000000E-01  0.51099999109E-03 0. -1.
       22    1    1    2    0    0  0.95273990785E-02 -0.30967291953E-01  0.15079425744E-01  0.35737005818E-01  0.00000000000E+00 0.  1.
  9000001    1    1    2    0    0 -0.95273990785E-02  0.30967291953E-01 -0.15079425744E-01  0.35750994182E-01  0.10000000475E-02 0. -1.
</event>
<event>
 4   0  0.4809415E-02  0.9118800E+02  0.7818609E-02  0.1379984E+01
      -11   -1    0    0    0    0  0.00000000000E+00  0.00000000000E+00  0.35740347158E-01  0.35744000000E-01  0.51099999109E-03 0. -1.
       11   -1    0    0    0    0 -0.00000000000E+00 -0.00000000000E+00 -0.35740347158E-01  0.35744000000E-01  0.51099999109E-03 0.  1.
       22    1    1    2    0    0  0.18833719801E-01 -0.29747152919E-01 -0.61262938679E-02  0.35737005818E-01  0.00000000000E+00 0.  1.
  9000001    1    1    2    0    0 -0.18833719801E-01  0.29747152919E-01  0.61262938679E-02  0.35750994182E-01  0.10000000475E-02 0. -1.
</event>
<event>
 4   0  0.4809415E-02  0.9118800E+02  0.7818609E-02  0.1379984E+01
      -11   -1    0    0    0    0  0.00000000000E+00  0.00000000000E+00  0.35740347158E-01  0.35744000000E-01  0.51099999109E-03 0. -1.
       11   -1    0    0    0    0 -0.00000000000E+00 -0.00000000000E+00 -0.35740347158E-01  0.35744000000E-01  0.51099999109E-03 0.  1.
       22    1    1    2    0    0 -0.75823170755E-02  0.18579536062E-01 -0.29570980578E-01  0.35737005818E-01  0.00000000000E+00 0.  1.
  9000001    1    1    2    0    0  0.75823170755E-02 -0.18579536062E-01  0.29570980578E-01  0.35750994182E-01  0.10000000475E-02 0. -1.
</event>
<event>
 4   0  0.4809415E-02  0.9118800E+02  0.7818609E-02  0.1379984E+01
      -11   -1    0    0    0    0  0.00000000000E+00  0.00000000000E+00  0.35740347158E-01  0.35744000000E-01  0.51099999109E-03 0. -1.
       11   -1    0    0    0    0 -0.00000000000E+00 -0.00000000000E+00 -0.35740347158E-01  0.35744000000E-01  0.51099999109E-03 0.  1.
       22    1    1    2    0    0 -0.97850629897E-02 -0.35887022026E-02 -0.34183436686E-01  0.35737005818E-01  0.00000000000E+00 0.  1.
  9000001    1    1    2    0    0  0.97850629897E-02  0.35887022026E-02  0.34183436686E-01  0.35750994182E-01  0.10000000475E-02 0. -1.
</event>
<event>
 4   0  0.4809415E-02  0.9118800E+02  0.7818609E-02  0.1379984E+01
      -11   -1    0    0    0    0  0.00000000000E+00  0.00000000000E+00  0.35740347158E-01  0.35744000000E-01  0.51099999109E-03 0. -1.
       11   -1    0    0    0    0 -0.00000000000E+00 -0.00000000000E+00 -0.35740347158E-01  0.35744000000E-01  0.51099999109E-03 0.  1.
       22    1    1    2    0    0 -0.19430519764E-02 -0.62308264654E-02 -0.35135949332E-01  0.35737005818E-01  0.00000000000E+00 0.  1.
  9000001    1    1    2    0    0  0.19430519764E-02  0.62308264654E-02  0.35135949332E-01  0.35750994182E-01  0.10000000475E-02 0. -1.
</event>
<event>
 4   0  0.4809415E-02  0.9118800E+02  0.7818609E-02  0.1379984E+01
      -11   -1    0    0    0    0  0.00000000000E+00  0.00000000000E+00  0.35740347158E-01  0.35744000000E-01  0.51099999109E-03 0.  1.
       11   -1    0    0    0    0 -0.00000000000E+00 -0.00000000000E+00 -0.35740347158E-01  0.35744000000E-01  0.51099999109E-03 0. -1.
       22    1    1    2    0    0 -0.13874332732E-03  0.79547570504E-02 -0.34840151771E-01  0.35737005818E-01  0.00000000000E+00 0. -1.
  9000001    1    1    2    0    0  0.13874332732E-03 -0.79547570504E-02  0.34840151771E-01  0.35750994182E-01  0.10000000475E-02 0.  1.
</event>
<event>
 4   0  0.4809415E-02  0.9118800E+02  0.7818609E-02  0.1379984E+01
      -11   -1    0    0    0    0  0.00000000000E+00  0.00000000000E+00  0.35740347158E-01  0.35744000000E-01  0.51099999109E-03 0.  1.
       11   -1    0    0    0    0 -0.00000000000E+00 -0.00000000000E+00 -0.35740347158E-01  0.35744000000E-01  0.51099999109E-03 0. -1.
       22    1    1    2    0    0 -0.30146796222E-03  0.37484267104E-02 -0.35538598722E-01  0.35737005818E-01  0.00000000000E+00 0. -1.
  9000001    1    1    2    0    0  0.30146796222E-03 -0.37484267104E-02  0.35538598722E-01  0.35750994182E-01  0.10000000475E-02 0.  1.
</event>
<event>
 4   0  0.4809415E-02  0.9118800E+02  0.7818609E-02  0.1379984E+01
      -11   -1    0    0    0    0  0.00000000000E+00  0.00000000000E+00  0.35740347158E-01  0.35744000000E-01  0.51099999109E-03 0. -1.
       11   -1    0    0    0    0 -0.00000000000E+00 -0.00000000000E+00 -0.35740347158E-01  0.35744000000E-01  0.51099999109E-03 0.  1.
       22    1    1    2    0    0 -0.12592611309E-03  0.34139904811E-02 -0.35573338281E-01  0.35737005818E-01  0.00000000000E+00 0.  1.
  9000001    1    1    2    0    0  0.12592611309E-03 -0.34139904811E-02  0.35573338281E-01  0.35750994182E-01  0.10000000475E-02 0. -1.
</event>
<event>
 4   0  0.4809415E-02  0.9118800E+02  0.7818609E-02  0.1379984E+01
      -11   -1    0    0    0    0  0.00000000000E+00  0.00000000000E+00  0.35740347158E-01  0.35744000000E-01  0.51099999109E-03 0. -1.
       11   -1    0    0    0    0 -0.00000000000E+00 -0.00000000000E+00 -0.35740347158E-01  0.35744000000E-01  0.51099999109E-03 0.  1.
       22    1    1    2    0    0 -0.86719268466E-03 -0.30739773027E-02  0.35593991421E-01  0.35737005818E-01  0.00000000000E+00 0. -1.
  9000001    1    1    2    0    0  0.86719268466E-03  0.30739773027E-02 -0.35593991421E-01  0.35750994182E-01  0.10000000475E-02 0.  1.
</event>
<event>
 4   0  0.4809415E-02  0.9118800E+02  0.7818609E-02  0.1379984E+01
      -11   -1    0    0    0    0  0.00000000000E+00  0.00000000000E+00  0.35740347158E-01  0.35744000000E-01  0.51099999109E-03 0.  1.
       11   -1    0    0    0    0 -0.00000000000E+00 -0.00000000000E+00 -0.35740347158E-01  0.35744000000E-01  0.51099999109E-03 0. -1.
       22    1    1    2    0    0 -0.15566749330E-01 -0.31959879890E-01  0.36573183587E-02  0.35737005818E-01  0.00000000000E+00 0.  1.
  9000001    1    1    2    0    0  0.15566749330E-01  0.31959879890E-01 -0.36573183587E-02  0.35750994182E-01  0.10000000475E-02 0. -1.
</event>
<event>
 4   0  0.4809415E-02  0.9118800E+02  0.7818609E-02  0.1379984E+01
      -11   -1    0    0    0    0  0.00000000000E+00  0.00000000000E+00  0.35740347158E-01  0.35744000000E-01  0.51099999109E-03 0.  1.
       11   -1    0    0    0    0 -0.00000000000E+00 -0.00000000000E+00 -0.35740347158E-01  0.35744000000E-01  0.51099999109E-03 0. -1.
       22    1    1    2    0    0  0.17433443622E-03  0.31396348713E-01 -0.17069636197E-01  0.35737005818E-01  0.00000000000E+00 0. -1.
  9000001    1    1    2    0    0 -0.17433443622E-03 -0.31396348713E-01  0.17069636197E-01  0.35750994182E-01  0.10000000475E-02 0.  1.
</event>
<event>
 4   0  0.4809415E-02  0.9118800E+02  0.7818609E-02  0.1379984E+01
      -11   -1    0    0    0    0  0.00000000000E+00  0.00000000000E+00  0.35740347158E-01  0.35744000000E-01  0.51099999109E-03 0.  1.
       11   -1    0    0    0    0 -0.00000000000E+00 -0.00000000000E+00 -0.35740347158E-01  0.35744000000E-01  0.51099999109E-03 0. -1.
       22    1    1    2    0    0  0.12548288177E-01  0.14555386709E-01 -0.30129964595E-01  0.35737005818E-01  0.00000000000E+00 0. -1.
  9000001    1    1    2    0    0 -0.12548288177E-01 -0.14555386709E-01  0.30129964595E-01  0.35750994182E-01  0.10000000475E-02 0.  1.
</event>
<event>
 4   0  0.4809415E-02  0.9118800E+02  0.7818609E-02  0.1379984E+01
      -11   -1    0    0    0    0  0.00000000000E+00  0.00000000000E+00  0.35740347158E-01  0.35744000000E-01  0.51099999109E-03 0.  1.
       11   -1    0    0    0    0 -0.00000000000E+00 -0.00000000000E+00 -0.35740347158E-01  0.35744000000E-01  0.51099999109E-03 0. -1.
       22    1    1    2    0    0  0.63701128453E-02 -0.26077507199E-02  0.35067861118E-01  0.35737005818E-01  0.00000000000E+00 0.  1.
  9000001    1    1    2    0    0 -0.63701128453E-02  0.26077507199E-02 -0.35067861118E-01  0.35750994182E-01  0.10000000475E-02 0. -1.
</event>
<event>
 4   0  0.4809415E-02  0.9118800E+02  0.7818609E-02  0.1379984E+01
      -11   -1    0    0    0    0  0.00000000000E+00  0.00000000000E+00  0.35740347158E-01  0.35744000000E-01  0.51099999109E-03 0.  1.
       11   -1    0    0    0    0 -0.00000000000E+00 -0.00000000000E+00 -0.35740347158E-01  0.35744000000E-01  0.51099999109E-03 0. -1.
       22    1    1    2    0    0 -0.30764467490E-03  0.34048687607E-02  0.35573105127E-01  0.35737005818E-01  0.00000000000E+00 0.  1.
  9000001    1    1    2    0    0  0.30764467490E-03 -0.34048687607E-02 -0.35573105127E-01  0.35750994182E-01  0.10000000475E-02 0. -1.
</event>
<event>
 4   0  0.4809415E-02  0.9118800E+02  0.7818609E-02  0.1379984E+01
      -11   -1    0    0    0    0  0.00000000000E+00  0.00000000000E+00  0.35740347158E-01  0.35744000000E-01  0.51099999109E-03 0. -1.
       11   -1    0    0    0    0 -0.00000000000E+00 -0.00000000000E+00 -0.35740347158E-01  0.35744000000E-01  0.51099999109E-03 0.  1.
       22    1    1    2    0    0  0.73852366764E-02  0.10040547555E-01 -0.33492973426E-01  0.35737005818E-01  0.00000000000E+00 0.  1.
  9000001    1    1    2    0    0 -0.73852366764E-02 -0.10040547555E-01  0.33492973426E-01  0.35750994182E-01  0.10000000475E-02 0. -1.
</event>
<event>
 4   0  0.4809415E-02  0.9118800E+02  0.7818609E-02  0.1379984E+01
      -11   -1    0    0    0    0  0.00000000000E+00  0.00000000000E+00  0.35740347158E-01  0.35744000000E-01  0.51099999109E-03 0. -1.
       11   -1    0    0    0    0 -0.00000000000E+00 -0.00000000000E+00 -0.35740347158E-01  0.35744000000E-01  0.51099999109E-03 0.  1.
       22    1    1    2    0    0  0.13012730168E-01  0.24737828663E-02 -0.33191607927E-01  0.35737005818E-01  0.00000000000E+00 0.  1.
  9000001    1    1    2    0    0 -0.13012730168E-01 -0.24737828663E-02  0.33191607927E-01  0.35750994182E-01  0.10000000475E-02 0. -1.
</event>
<event>
 4   0  0.4809415E-02  0.9118800E+02  0.7818609E-02  0.1379984E+01
      -11   -1    0    0    0    0  0.00000000000E+00  0.00000000000E+00  0.35740347158E-01  0.35744000000E-01  0.51099999109E-03 0. -1.
       11   -1    0    0    0    0 -0.00000000000E+00 -0.00000000000E+00 -0.35740347158E-01  0.35744000000E-01  0.51099999109E-03 0.  1.
       22    1    1    2    0    0 -0.21188762962E-01  0.63486349858E-03  0.28770937721E-01  0.35737005818E-01  0.00000000000E+00 0. -1.
  9000001    1    1    2    0    0  0.21188762962E-01 -0.63486349858E-03 -0.28770937721E-01  0.35750994182E-01  0.10000000475E-02 0.  1.
</event>
<event>
 4   0  0.4809415E-02  0.9118800E+02  0.7818609E-02  0.1379984E+01
      -11   -1    0    0    0    0  0.00000000000E+00  0.00000000000E+00  0.35740347158E-01  0.35744000000E-01  0.51099999109E-03 0.  1.
       11   -1    0    0    0    0 -0.00000000000E+00 -0.00000000000E+00 -0.35740347158E-01  0.35744000000E-01  0.51099999109E-03 0. -1.
       22    1    1    2    0    0 -0.11865656133E-01 -0.23216340796E-01 -0.24440566880E-01  0.35737005818E-01  0.00000000000E+00 0. -1.
  9000001    1    1    2    0    0  0.11865656133E-01  0.23216340796E-01  0.24440566880E-01  0.35750994182E-01  0.10000000475E-02 0.  1.
</event>
<event>
 4   0  0.4809415E-02  0.9118800E+02  0.7818609E-02  0.1379984E+01
      -11   -1    0    0    0    0  0.00000000000E+00  0.00000000000E+00  0.35740347158E-01  0.35744000000E-01  0.51099999109E-03 0.  1.
       11   -1    0    0    0    0 -0.00000000000E+00 -0.00000000000E+00 -0.35740347158E-01  0.35744000000E-01  0.51099999109E-03 0. -1.
       22    1    1    2    0    0  0.28212054521E-02  0.32317499177E-02  0.35478587587E-01  0.35737005818E-01  0.00000000000E+00 0.  1.
  9000001    1    1    2    0    0 -0.28212054521E-02 -0.32317499177E-02 -0.35478587587E-01  0.35750994182E-01  0.10000000475E-02 0. -1.
</event>
<event>
 4   0  0.4809415E-02  0.9118800E+02  0.7818609E-02  0.1379984E+01
      -11   -1    0    0    0    0  0.00000000000E+00  0.00000000000E+00  0.35740347158E-01  0.35744000000E-01  0.51099999109E-03 0. -1.
       11   -1    0    0    0    0 -0.00000000000E+00 -0.00000000000E+00 -0.35740347158E-01  0.35744000000E-01  0.51099999109E-03 0.  1.
       22    1    1    2    0    0  0.18368927409E-02 -0.24539821197E-02 -0.35605299910E-01  0.35737005818E-01  0.00000000000E+00 0.  1.
  9000001    1    1    2    0    0 -0.18368927409E-02  0.24539821197E-02  0.35605299910E-01  0.35750994182E-01  0.10000000475E-02 0. -1.
</event>
<event>
 4   0  0.4809415E-02  0.9118800E+02  0.7818609E-02  0.1379984E+01
      -11   -1    0    0    0    0  0.00000000000E+00  0.00000000000E+00  0.35740347158E-01  0.35744000000E-01  0.51099999109E-03 0. -1.
       11   -1    0    0    0    0 -0.00000000000E+00 -0.00000000000E+00 -0.35740347158E-01  0.35744000000E-01  0.51099999109E-03 0.  1.
       22    1    1    2    0    0  0.15877261419E-01  0.92480552472E-03 -0.32002982509E-01  0.35737005818E-01  0.00000000000E+00 0.  1.
  9000001    1    1    2    0    0 -0.15877261419E-01 -0.92480552472E-03  0.32002982509E-01  0.35750994182E-01  0.10000000475E-02 0. -1.
</event>
<event>
 4   0  0.4809415E-02  0.9118800E+02  0.7818609E-02  0.1379984E+01
      -11   -1    0    0    0    0  0.00000000000E+00  0.00000000000E+00  0.35740347158E-01  0.35744000000E-01  0.51099999109E-03 0. -1.
       11   -1    0    0    0    0 -0.00000000000E+00 -0.00000000000E+00 -0.35740347158E-01  0.35744000000E-01  0.51099999109E-03 0.  1.
       22    1    1    2    0    0  0.13837191994E-02 -0.30211999003E-01 -0.19038225293E-01  0.35737005818E-01  0.00000000000E+00 0.  1.
  9000001    1    1    2    0    0 -0.13837191994E-02  0.30211999003E-01  0.19038225293E-01  0.35750994182E-01  0.10000000475E-02 0. -1.
</event>
<event>
 4   0  0.4809415E-02  0.9118800E+02  0.7818609E-02  0.1379984E+01
      -11   -1    0    0    0    0  0.00000000000E+00  0.00000000000E+00  0.35740347158E-01  0.35744000000E-01  0.51099999109E-03 0.  1.
       11   -1    0    0    0    0 -0.00000000000E+00 -0.00000000000E+00 -0.35740347158E-01  0.35744000000E-01  0.51099999109E-03 0. -1.
       22    1    1    2    0    0 -0.17588166990E-01  0.21655696607E-01  0.22334295854E-01  0.35737005818E-01  0.00000000000E+00 0.  1.
  9000001    1    1    2    0    0  0.17588166990E-01 -0.21655696607E-01 -0.22334295854E-01  0.35750994182E-01  0.10000000475E-02 0. -1.
</event>
<event>
 4   0  0.4809415E-02  0.9118800E+02  0.7818609E-02  0.1379984E+01
      -11   -1    0    0    0    0  0.00000000000E+00  0.00000000000E+00  0.35740347158E-01  0.35744000000E-01  0.51099999109E-03 0. -1.
       11   -1    0    0    0    0 -0.00000000000E+00 -0.00000000000E+00 -0.35740347158E-01  0.35744000000E-01  0.51099999109E-03 0.  1.
       22    1    1    2    0    0  0.29169409473E-01 -0.64500928174E-03  0.20636450733E-01  0.35737005818E-01  0.00000000000E+00 0. -1.
  9000001    1    1    2    0    0 -0.29169409473E-01  0.64500928174E-03 -0.20636450733E-01  0.35750994182E-01  0.10000000475E-02 0.  1.
</event>
<event>
 4   0  0.4809415E-02  0.9118800E+02  0.7818609E-02  0.1379984E+01
      -11   -1    0    0    0    0  0.00000000000E+00  0.00000000000E+00  0.35740347158E-01  0.35744000000E-01  0.51099999109E-03 0.  1.
       11   -1    0    0    0    0 -0.00000000000E+00 -0.00000000000E+00 -0.35740347158E-01  0.35744000000E-01  0.51099999109E-03 0. -1.
       22    1    1    2    0    0  0.26462592882E-02 -0.45565914351E-02  0.35346405350E-01  0.35737005818E-01  0.00000000000E+00 0.  1.
  9000001    1    1    2    0    0 -0.26462592882E-02  0.45565914351E-02 -0.35346405350E-01  0.35750994182E-01  0.10000000475E-02 0. -1.
</event>
<event>
 4   0  0.4809415E-02  0.9118800E+02  0.7818609E-02  0.1379984E+01
      -11   -1    0    0    0    0  0.00000000000E+00  0.00000000000E+00  0.35740347158E-01  0.35744000000E-01  0.51099999109E-03 0. -1.
       11   -1    0    0    0    0 -0.00000000000E+00 -0.00000000000E+00 -0.35740347158E-01  0.35744000000E-01  0.51099999109E-03 0.  1.
       22    1    1    2    0    0  0.14455044472E-01 -0.89409211984E-02  0.31436367511E-01  0.35737005818E-01  0.00000000000E+00 0. -1.
  9000001    1    1    2    0    0 -0.14455044472E-01  0.89409211984E-02 -0.31436367511E-01  0.35750994182E-01  0.10000000475E-02 0.  1.
</event>
<event>
 4   0  0.4809415E-02  0.9118800E+02  0.7818609E-02  0.1379984E+01
      -11   -1    0    0    0    0  0.00000000000E+00  0.00000000000E+00  0.35740347158E-01  0.35744000000E-01  0.51099999109E-03 0. -1.
       11   -1    0    0    0    0 -0.00000000000E+00 -0.00000000000E+00 -0.35740347158E-01  0.35744000000E-01  0.51099999109E-03 0.  1.
       22    1    1    2    0    0 -0.23359695364E-02 -0.32451575920E-02 -0.35512614426E-01  0.35737005818E-01  0.00000000000E+00 0.  1.
  9000001    1    1    2    0    0  0.23359695364E-02  0.32451575920E-02  0.35512614426E-01  0.35750994182E-01  0.10000000475E-02 0. -1.
</event>
<event>
 4   0  0.4809415E-02  0.9118800E+02  0.7818609E-02  0.1379984E+01
      -11   -1    0    0    0    0  0.00000000000E+00  0.00000000000E+00  0.35740347158E-01  0.35744000000E-01  0.51099999109E-03 0.  1.
       11   -1    0    0    0    0 -0.00000000000E+00 -0.00000000000E+00 -0.35740347158E-01  0.35744000000E-01  0.51099999109E-03 0. -1.
       22    1    1    2    0    0 -0.15115762199E-01  0.18072375433E-01  0.26870738066E-01  0.35737005818E-01  0.00000000000E+00 0.  1.
  9000001    1    1    2    0    0  0.15115762199E-01 -0.18072375433E-01 -0.26870738066E-01  0.35750994182E-01  0.10000000475E-02 0. -1.
</event>
<event>
 4   0  0.4809415E-02  0.9118800E+02  0.7818609E-02  0.1379984E+01
      -11   -1    0    0    0    0  0.00000000000E+00  0.00000000000E+00  0.35740347158E-01  0.35744000000E-01  0.51099999109E-03 0. -1.
       11   -1    0    0    0    0 -0.00000000000E+00 -0.00000000000E+00 -0.35740347158E-01  0.35744000000E-01  0.51099999109E-03 0.  1.
       22    1    1    2    0    0 -0.15756419988E-01  0.21182770259E-01 -0.24086491197E-01  0.35737005818E-01  0.00000000000E+00 0.  1.
  9000001    1    1    2    0    0  0.15756419988E-01 -0.21182770259E-01  0.24086491197E-01  0.35750994182E-01  0.10000000475E-02 0. -1.
</event>
<event>
 4   0  0.4809415E-02  0.9118800E+02  0.7818609E-02  0.1379984E+01
      -11   -1    0    0    0    0  0.00000000000E+00  0.00000000000E+00  0.35740347158E-01  0.35744000000E-01  0.51099999109E-03 0.  1.
       11   -1    0    0    0    0 -0.00000000000E+00 -0.00000000000E+00 -0.35740347158E-01  0.35744000000E-01  0.51099999109E-03 0. -1.
       22    1    1    2    0    0 -0.48294686048E-03 -0.16433708647E-01 -0.31730640827E-01  0.35737005818E-01  0.00000000000E+00 0. -1.
  9000001    1    1    2    0    0  0.48294686048E-03  0.16433708647E-01  0.31730640827E-01  0.35750994182E-01  0.10000000475E-02 0.  1.
</event>
<event>
 4   0  0.4809415E-02  0.9118800E+02  0.7818609E-02  0.1379984E+01
      -11   -1    0    0    0    0  0.00000000000E+00  0.00000000000E+00  0.35740347158E-01  0.35744000000E-01  0.51099999109E-03 0.  1.
       11   -1    0    0    0    0 -0.00000000000E+00 -0.00000000000E+00 -0.35740347158E-01  0.35744000000E-01  0.51099999109E-03 0. -1.
       22    1    1    2    0    0 -0.17522188301E-01  0.60313532824E-03 -0.31140692507E-01  0.35737005818E-01  0.00000000000E+00 0. -1.
  9000001    1    1    2    0    0  0.17522188301E-01 -0.60313532824E-03  0.31140692507E-01  0.35750994182E-01  0.10000000475E-02 0.  1.
</event>
<event>
 4   0  0.4809415E-02  0.9118800E+02  0.7818609E-02  0.1379984E+01
      -11   -1    0    0    0    0  0.00000000000E+00  0.00000000000E+00  0.35740347158E-01  0.35744000000E-01  0.51099999109E-03 0.  1.
       11   -1    0    0    0    0 -0.00000000000E+00 -0.00000000000E+00 -0.35740347158E-01  0.35744000000E-01  0.51099999109E-03 0. -1.
       22    1    1    2    0    0  0.29039983664E-01 -0.31336227685E-02 -0.20591098611E-01  0.35737005818E-01  0.00000000000E+00 0. -1.
  9000001    1    1    2    0    0 -0.29039983664E-01  0.31336227685E-02  0.20591098611E-01  0.35750994182E-01  0.10000000475E-02 0.  1.
</event>
<event>
 4   0  0.4809415E-02  0.9118800E+02  0.7818609E-02  0.1379984E+01
      -11   -1    0    0    0    0  0.00000000000E+00  0.00000000000E+00  0.35740347158E-01  0.35744000000E-01  0.51099999109E-03 0.  1.
       11   -1    0    0    0    0 -0.00000000000E+00 -0.00000000000E+00 -0.35740347158E-01  0.35744000000E-01  0.51099999109E-03 0. -1.
       22    1    1    2    0    0 -0.15051004258E-01  0.35046300503E-02 -0.32222948715E-01  0.35737005818E-01  0.00000000000E+00 0. -1.
  9000001    1    1    2    0    0  0.15051004258E-01 -0.35046300503E-02  0.32222948715E-01  0.35750994182E-01  0.10000000475E-02 0.  1.
</event>
<event>
 4   0  0.4809415E-02  0.9118800E+02  0.7818609E-02  0.1379984E+01
      -11   -1    0    0    0    0  0.00000000000E+00  0.00000000000E+00  0.35740347158E-01  0.35744000000E-01  0.51099999109E-03 0. -1.
       11   -1    0    0    0    0 -0.00000000000E+00 -0.00000000000E+00 -0.35740347158E-01  0.35744000000E-01  0.51099999109E-03 0.  1.
       22    1    1    2    0    0  0.19618764243E-02 -0.11976345088E-01 -0.33613267977E-01  0.35737005818E-01  0.00000000000E+00 0.  1.
  9000001    1    1    2    0    0 -0.19618764243E-02  0.11976345088E-01  0.33613267977E-01  0.35750994182E-01  0.10000000475E-02 0. -1.
</event>
<event>
 4   0  0.4809415E-02  0.9118800E+02  0.7818609E-02  0.1379984E+01
      -11   -1    0    0    0    0  0.00000000000E+00  0.00000000000E+00  0.35740347158E-01  0.35744000000E-01  0.51099999109E-03 0. -1.
       11   -1    0    0    0    0 -0.00000000000E+00 -0.00000000000E+00 -0.35740347158E-01  0.35744000000E-01  0.51099999109E-03 0.  1.
       22    1    1    2    0    0 -0.28178028454E-01 -0.21468722732E-01  0.47144715064E-02  0.35737005818E-01  0.00000000000E+00 0. -1.
  9000001    1    1    2    0    0  0.28178028454E-01  0.21468722732E-01 -0.47144715064E-02  0.35750994182E-01  0.10000000475E-02 0.  1.
</event>
<event>
 4   0  0.4809415E-02  0.9118800E+02  0.7818609E-02  0.1379984E+01
      -11   -1    0    0    0    0  0.00000000000E+00  0.00000000000E+00  0.35740347158E-01  0.35744000000E-01  0.51099999109E-03 0. -1.
       11   -1    0    0    0    0 -0.00000000000E+00 -0.00000000000E+00 -0.35740347158E-01  0.35744000000E-01  0.51099999109E-03 0.  1.
       22    1    1    2    0    0  0.41677319684E-02 -0.14512210164E-03 -0.35492851882E-01  0.35737005818E-01  0.00000000000E+00 0.  1.
  9000001    1    1    2    0    0 -0.41677319684E-02  0.14512210164E-03  0.35492851882E-01  0.35750994182E-01  0.10000000475E-02 0. -1.
</event>
<event>
 4   0  0.4809415E-02  0.9118800E+02  0.7818609E-02  0.1379984E+01
      -11   -1    0    0    0    0  0.00000000000E+00  0.00000000000E+00  0.35740347158E-01  0.35744000000E-01  0.51099999109E-03 0. -1.
       11   -1    0    0    0    0 -0.00000000000E+00 -0.00000000000E+00 -0.35740347158E-01  0.35744000000E-01  0.51099999109E-03 0.  1.
       22    1    1    2    0    0 -0.25862902643E-02 -0.17137902323E-02 -0.35602073122E-01  0.35737005818E-01  0.00000000000E+00 0.  1.
  9000001    1    1    2    0    0  0.25862902643E-02  0.17137902323E-02  0.35602073122E-01  0.35750994182E-01  0.10000000475E-02 0. -1.
</event>
<event>
 4   0  0.4809415E-02  0.9118800E+02  0.7818609E-02  0.1379984E+01
      -11   -1    0    0    0    0  0.00000000000E+00  0.00000000000E+00  0.35740347158E-01  0.35744000000E-01  0.51099999109E-03 0. -1.
       11   -1    0    0    0    0 -0.00000000000E+00 -0.00000000000E+00 -0.35740347158E-01  0.35744000000E-01  0.51099999109E-03 0.  1.
       22    1    1    2    0    0  0.30536938654E-02 -0.28777211964E-02 -0.35489819095E-01  0.35737005818E-01  0.00000000000E+00 0.  1.
  9000001    1    1    2    0    0 -0.30536938654E-02  0.28777211964E-02  0.35489819095E-01  0.35750994182E-01  0.10000000475E-02 0. -1.
</event>
<event>
 4   0  0.4809415E-02  0.9118800E+02  0.7818609E-02  0.1379984E+01
      -11   -1    0    0    0    0  0.00000000000E+00  0.00000000000E+00  0.35740347158E-01  0.35744000000E-01  0.51099999109E-03 0. -1.
       11   -1    0    0    0    0 -0.00000000000E+00 -0.00000000000E+00 -0.35740347158E-01  0.35744000000E-01  0.51099999109E-03 0.  1.
       22    1    1    2    0    0 -0.62498744897E-02 -0.25975538128E-01  0.23734870396E-01  0.35737005818E-01  0.00000000000E+00 0. -1.
  9000001    1    1    2    0    0  0.62498744897E-02  0.25975538128E-01 -0.23734870396E-01  0.35750994182E-01  0.10000000475E-02 0.  1.
</event>
<event>
 4   0  0.4809415E-02  0.9118800E+02  0.7818609E-02  0.1379984E+01
      -11   -1    0    0    0    0  0.00000000000E+00  0.00000000000E+00  0.35740347158E-01  0.35744000000E-01  0.51099999109E-03 0. -1.
       11   -1    0    0    0    0 -0.00000000000E+00 -0.00000000000E+00 -0.35740347158E-01  0.35744000000E-01  0.51099999109E-03 0.  1.
       22    1    1    2    0    0  0.56467464399E-02 -0.18339121217E-01 -0.30148374293E-01  0.35737005818E-01  0.00000000000E+00 0.  1.
  9000001    1    1    2    0    0 -0.56467464399E-02  0.18339121217E-01  0.30148374293E-01  0.35750994182E-01  0.10000000475E-02 0. -1.
</event>
<event>
 4   0  0.4809415E-02  0.9118800E+02  0.7818609E-02  0.1379984E+01
      -11   -1    0    0    0    0  0.00000000000E+00  0.00000000000E+00  0.35740347158E-01  0.35744000000E-01  0.51099999109E-03 0.  1.
       11   -1    0    0    0    0 -0.00000000000E+00 -0.00000000000E+00 -0.35740347158E-01  0.35744000000E-01  0.51099999109E-03 0. -1.
       22    1    1    2    0    0  0.68686404745E-02 -0.11597637188E-02 -0.35051537927E-01  0.35737005818E-01  0.00000000000E+00 0. -1.
  9000001    1    1    2    0    0 -0.68686404745E-02  0.11597637188E-02  0.35051537927E-01  0.35750994182E-01  0.10000000475E-02 0.  1.
</event>
<event>
 4   0  0.4809415E-02  0.9118800E+02  0.7818609E-02  0.1379984E+01
      -11   -1    0    0    0    0  0.00000000000E+00  0.00000000000E+00  0.35740347158E-01  0.35744000000E-01  0.51099999109E-03 0.  1.
       11   -1    0    0    0    0 -0.00000000000E+00 -0.00000000000E+00 -0.35740347158E-01  0.35744000000E-01  0.51099999109E-03 0. -1.
       22    1    1    2    0    0  0.57820008608E-02 -0.60481381674E-02 -0.34743662381E-01  0.35737005818E-01  0.00000000000E+00 0. -1.
  9000001    1    1    2    0    0 -0.57820008608E-02  0.60481381674E-02  0.34743662381E-01  0.35750994182E-01  0.10000000475E-02 0.  1.
</event>
<event>
 4   0  0.4809415E-02  0.9118800E+02  0.7818609E-02  0.1379984E+01
      -11   -1    0    0    0    0  0.00000000000E+00  0.00000000000E+00  0.35740347158E-01  0.35744000000E-01  0.51099999109E-03 0.  1.
       11   -1    0    0    0    0 -0.00000000000E+00 -0.00000000000E+00 -0.35740347158E-01  0.35744000000E-01  0.51099999109E-03 0. -1.
       22    1    1    2    0    0 -0.14083198541E-01 -0.38626099867E-02 -0.32617132735E-01  0.35737005818E-01  0.00000000000E+00 0. -1.
  9000001    1    1    2    0    0  0.14083198541E-01  0.38626099867E-02  0.32617132735E-01  0.35750994182E-01  0.10000000475E-02 0.  1.
</event>
<event>
 4   0  0.4809415E-02  0.9118800E+02  0.7818609E-02  0.1379984E+01
      -11   -1    0    0    0    0  0.00000000000E+00  0.00000000000E+00  0.35740347158E-01  0.35744000000E-01  0.51099999109E-03 0.  1.
       11   -1    0    0    0    0 -0.00000000000E+00 -0.00000000000E+00 -0.35740347158E-01  0.35744000000E-01  0.51099999109E-03 0. -1.
       22    1    1    2    0    0  0.23111933966E-01 -0.22498997626E-01 -0.15387241438E-01  0.35737005818E-01  0.00000000000E+00 0. -1.
  9000001    1    1    2    0    0 -0.23111933966E-01  0.22498997626E-01  0.15387241438E-01  0.35750994182E-01  0.10000000475E-02 0.  1.
</event>
<event>
 4   0  0.4809415E-02  0.9118800E+02  0.7818609E-02  0.1379984E+01
      -11   -1    0    0    0    0  0.00000000000E+00  0.00000000000E+00  0.35740347158E-01  0.35744000000E-01  0.51099999109E-03 0.  1.
       11   -1    0    0    0    0 -0.00000000000E+00 -0.00000000000E+00 -0.35740347158E-01  0.35744000000E-01  0.51099999109E-03 0. -1.
       22    1    1    2    0    0 -0.62284763077E-02 -0.55861490461E-02  0.34743842715E-01  0.35737005818E-01  0.00000000000E+00 0.  1.
  9000001    1    1    2    0    0  0.62284763077E-02  0.55861490461E-02 -0.34743842715E-01  0.35750994182E-01  0.10000000475E-02 0. -1.
</event>
<event>
 4   0  0.4809415E-02  0.9118800E+02  0.7818609E-02  0.1379984E+01
      -11   -1    0    0    0    0  0.00000000000E+00  0.00000000000E+00  0.35740347158E-01  0.35744000000E-01  0.51099999109E-03 0. -1.
       11   -1    0    0    0    0 -0.00000000000E+00 -0.00000000000E+00 -0.35740347158E-01  0.35744000000E-01  0.51099999109E-03 0.  1.
       22    1    1    2    0    0  0.25335733016E-01  0.23938152590E-01 -0.78866385718E-02  0.35737005818E-01  0.00000000000E+00 0. -1.
  9000001    1    1    2    0    0 -0.25335733016E-01 -0.23938152590E-01  0.78866385718E-02  0.35750994182E-01  0.10000000475E-02 0.  1.
</event>
<event>
 4   0  0.4809415E-02  0.9118800E+02  0.7818609E-02  0.1379984E+01
      -11   -1    0    0    0    0  0.00000000000E+00  0.00000000000E+00  0.35740347158E-01  0.35744000000E-01  0.51099999109E-03 0.  1.
       11   -1    0    0    0    0 -0.00000000000E+00 -0.00000000000E+00 -0.35740347158E-01  0.35744000000E-01  0.51099999109E-03 0. -1.
       22    1    1    2    0    0 -0.76947136567E-02  0.53767485901E-02  0.34482104652E-01  0.35737005818E-01  0.00000000000E+00 0.  1.
  9000001    1    1    2    0    0  0.76947136567E-02 -0.53767485901E-02 -0.34482104652E-01  0.35750994182E-01  0.10000000475E-02 0. -1.
</event>
<event>
 4   0  0.4809415E-02  0.9118800E+02  0.7818609E-02  0.1379984E+01
      -11   -1    0    0    0    0  0.00000000000E+00  0.00000000000E+00  0.35740347158E-01  0.35744000000E-01  0.51099999109E-03 0. -1.
       11   -1    0    0    0    0 -0.00000000000E+00 -0.00000000000E+00 -0.35740347158E-01  0.35744000000E-01  0.51099999109E-03 0.  1.
       22    1    1    2    0    0 -0.10584685858E-02  0.15500189069E-01  0.32183184552E-01  0.35737005818E-01  0.00000000000E+00 0. -1.
  9000001    1    1    2    0    0  0.10584685858E-02 -0.15500189069E-01 -0.32183184552E-01  0.35750994182E-01  0.10000000475E-02 0.  1.
</event>
<event>
 4   0  0.4809415E-02  0.9118800E+02  0.7818609E-02  0.1379984E+01
      -11   -1    0    0    0    0  0.00000000000E+00  0.00000000000E+00  0.35740347158E-01  0.35744000000E-01  0.51099999109E-03 0.  1.
       11   -1    0    0    0    0 -0.00000000000E+00 -0.00000000000E+00 -0.35740347158E-01  0.35744000000E-01  0.51099999109E-03 0. -1.
       22    1    1    2    0    0 -0.10150141726E-01 -0.11636120897E-01 -0.32229007094E-01  0.35737005818E-01  0.00000000000E+00 0. -1.
  9000001    1    1    2    0    0  0.10150141726E-01  0.11636120897E-01  0.32229007094E-01  0.35750994182E-01  0.10000000475E-02 0.  1.
</event>
<event>
 4   0  0.4809415E-02  0.9118800E+02  0.7818609E-02  0.1379984E+01
      -11   -1    0    0    0    0  0.00000000000E+00  0.00000000000E+00  0.35740347158E-01  0.35744000000E-01  0.51099999109E-03 0. -1.
       11   -1    0    0    0    0 -0.00000000000E+00 -0.00000000000E+00 -0.35740347158E-01  0.35744000000E-01  0.51099999109E-03 0.  1.
       22    1    1    2    0    0 -0.10805552448E-02  0.80231949730E-02 -0.34807963567E-01  0.35737005818E-01  0.00000000000E+00 0.  1.
  9000001    1    1    2    0    0  0.10805552448E-02 -0.80231949730E-02  0.34807963567E-01  0.35750994182E-01  0.10000000475E-02 0. -1.
</event>
<event>
 4   0  0.4809415E-02  0.9118800E+02  0.7818609E-02  0.1379984E+01
      -11   -1    0    0    0    0  0.00000000000E+00  0.00000000000E+00  0.35740347158E-01  0.35744000000E-01  0.51099999109E-03 0. -1.
       11   -1    0    0    0    0 -0.00000000000E+00 -0.00000000000E+00 -0.35740347158E-01  0.35744000000E-01  0.51099999109E-03 0.  1.
       22    1    1    2    0    0 -0.16161974273E-01 -0.27161646333E-01  0.16678403430E-01  0.35737005818E-01  0.00000000000E+00 0. -1.
  9000001    1    1    2    0    0  0.16161974273E-01  0.27161646333E-01 -0.16678403430E-01  0.35750994182E-01  0.10000000475E-02 0.  1.
</event>
<event>
 4   0  0.4809415E-02  0.9118800E+02  0.7818609E-02  0.1379984E+01
      -11   -1    0    0    0    0  0.00000000000E+00  0.00000000000E+00  0.35740347158E-01  0.35744000000E-01  0.51099999109E-03 0. -1.
       11   -1    0    0    0    0 -0.00000000000E+00 -0.00000000000E+00 -0.35740347158E-01  0.35744000000E-01  0.51099999109E-03 0.  1.
       22    1    1    2    0    0  0.92706433131E-02 -0.59579330661E-02 -0.33995467213E-01  0.35737005818E-01  0.00000000000E+00 0.  1.
  9000001    1    1    2    0    0 -0.92706433131E-02  0.59579330661E-02  0.33995467213E-01  0.35750994182E-01  0.10000000475E-02 0. -1.
</event>
<event>
 4   0  0.4809415E-02  0.9118800E+02  0.7818609E-02  0.1379984E+01
      -11   -1    0    0    0    0  0.00000000000E+00  0.00000000000E+00  0.35740347158E-01  0.35744000000E-01  0.51099999109E-03 0.  1.
       11   -1    0    0    0    0 -0.00000000000E+00 -0.00000000000E+00 -0.35740347158E-01  0.35744000000E-01  0.51099999109E-03 0. -1.
       22    1    1    2    0    0  0.33527129466E-02 -0.37074801440E-02  0.35385696146E-01  0.35737005818E-01  0.00000000000E+00 0.  1.
  9000001    1    1    2    0    0 -0.33527129466E-02  0.37074801440E-02 -0.35385696146E-01  0.35750994182E-01  0.10000000475E-02 0. -1.
</event>
<event>
 4   0  0.4809415E-02  0.9118800E+02  0.7818609E-02  0.1379984E+01
      -11   -1    0    0    0    0  0.00000000000E+00  0.00000000000E+00  0.35740347158E-01  0.35744000000E-01  0.51099999109E-03 0.  1.
       11   -1    0    0    0    0 -0.00000000000E+00 -0.00000000000E+00 -0.35740347158E-01  0.35744000000E-01  0.51099999109E-03 0. -1.
       22    1    1    2    0    0 -0.72231163054E-03  0.65946882990E-02 -0.35115835986E-01  0.35737005818E-01  0.00000000000E+00 0. -1.
  9000001    1    1    2    0    0  0.72231163054E-03 -0.65946882990E-02  0.35115835986E-01  0.35750994182E-01  0.10000000475E-02 0.  1.
</event>
<event>
 4   0  0.4809415E-02  0.9118800E+02  0.7818609E-02  0.1379984E+01
      -11   -1    0    0    0    0  0.00000000000E+00  0.00000000000E+00  0.35740347158E-01  0.35744000000E-01  0.51099999109E-03 0. -1.
       11   -1    0    0    0    0 -0.00000000000E+00 -0.00000000000E+00 -0.35740347158E-01  0.35744000000E-01  0.51099999109E-03 0.  1.
       22    1    1    2    0    0  0.14296170075E-01  0.32155690769E-01 -0.62261269851E-02  0.35737005818E-01  0.00000000000E+00 0. -1.
  9000001    1    1    2    0    0 -0.14296170075E-01 -0.32155690769E-01  0.62261269851E-02  0.35750994182E-01  0.10000000475E-02 0.  1.
</event>
<event>
 4   0  0.4809415E-02  0.9118800E+02  0.7818609E-02  0.1379984E+01
      -11   -1    0    0    0    0  0.00000000000E+00  0.00000000000E+00  0.35740347158E-01  0.35744000000E-01  0.51099999109E-03 0. -1.
       11   -1    0    0    0    0 -0.00000000000E+00 -0.00000000000E+00 -0.35740347158E-01  0.35744000000E-01  0.51099999109E-03 0.  1.
       22    1    1    2    0    0  0.31822116677E-02 -0.95081685529E-02  0.34301630348E-01  0.35737005818E-01  0.00000000000E+00 0. -1.
  9000001    1    1    2    0    0 -0.31822116677E-02  0.95081685529E-02 -0.34301630348E-01  0.35750994182E-01  0.10000000475E-02 0.  1.
</event>
<event>
 4   0  0.4809415E-02  0.9118800E+02  0.7818609E-02  0.1379984E+01
      -11   -1    0    0    0    0  0.00000000000E+00  0.00000000000E+00  0.35740347158E-01  0.35744000000E-01  0.51099999109E-03 0.  1.
       11   -1    0    0    0    0 -0.00000000000E+00 -0.00000000000E+00 -0.35740347158E-01  0.35744000000E-01  0.51099999109E-03 0. -1.
       22    1    1    2    0    0 -0.24336000196E-01  0.10866976365E-02 -0.26147882659E-01  0.35737005818E-01  0.00000000000E+00 0. -1.
  9000001    1    1    2    0    0  0.24336000196E-01 -0.10866976365E-02  0.26147882659E-01  0.35750994182E-01  0.10000000475E-02 0.  1.
</event>
<event>
 4   0  0.4809415E-02  0.9118800E+02  0.7818609E-02  0.1379984E+01
      -11   -1    0    0    0    0  0.00000000000E+00  0.00000000000E+00  0.35740347158E-01  0.35744000000E-01  0.51099999109E-03 0.  1.
       11   -1    0    0    0    0 -0.00000000000E+00 -0.00000000000E+00 -0.35740347158E-01  0.35744000000E-01  0.51099999109E-03 0. -1.
       22    1    1    2    0    0  0.16235528894E-01  0.21758209559E-01  0.23240514262E-01  0.35737005818E-01  0.00000000000E+00 0.  1.
  9000001    1    1    2    0    0 -0.16235528894E-01 -0.21758209559E-01 -0.23240514262E-01  0.35750994182E-01  0.10000000475E-02 0. -1.
</event>
<event>
 4   0  0.4809415E-02  0.9118800E+02  0.7818609E-02  0.1379984E+01
      -11   -1    0    0    0    0  0.00000000000E+00  0.00000000000E+00  0.35740347158E-01  0.35744000000E-01  0.51099999109E-03 0.  1.
       11   -1    0    0    0    0 -0.00000000000E+00 -0.00000000000E+00 -0.35740347158E-01  0.35744000000E-01  0.51099999109E-03 0. -1.
       22    1    1    2    0    0  0.30876601198E-02 -0.73756293194E-03  0.35595729249E-01  0.35737005818E-01  0.00000000000E+00 0.  1.
  9000001    1    1    2    0    0 -0.30876601198E-02  0.73756293194E-03 -0.35595729249E-01  0.35750994182E-01  0.10000000475E-02 0. -1.
</event>
<event>
 4   0  0.4809415E-02  0.9118800E+02  0.7818609E-02  0.1379984E+01
      -11   -1    0    0    0    0  0.00000000000E+00  0.00000000000E+00  0.35740347158E-01  0.35744000000E-01  0.51099999109E-03 0. -1.
       11   -1    0    0    0    0 -0.00000000000E+00 -0.00000000000E+00 -0.35740347158E-01  0.35744000000E-01  0.51099999109E-03 0.  1.
       22    1    1    2    0    0 -0.32457178934E-01 -0.26815612415E-03  0.14953033566E-01  0.35737005818E-01  0.00000000000E+00 0.  1.
  9000001    1    1    2    0    0  0.32457178934E-01  0.26815612415E-03 -0.14953033566E-01  0.35750994182E-01  0.10000000475E-02 0. -1.
</event>
<event>
 4   0  0.4809415E-02  0.9118800E+02  0.7818609E-02  0.1379984E+01
      -11   -1    0    0    0    0  0.00000000000E+00  0.00000000000E+00  0.35740347158E-01  0.35744000000E-01  0.51099999109E-03 0.  1.
       11   -1    0    0    0    0 -0.00000000000E+00 -0.00000000000E+00 -0.35740347158E-01  0.35744000000E-01  0.51099999109E-03 0. -1.
       22    1    1    2    0    0 -0.52084145459E-02  0.26032294365E-01  0.23923328633E-01  0.35737005818E-01  0.00000000000E+00 0.  1.
  9000001    1    1    2    0    0  0.52084145459E-02 -0.26032294365E-01 -0.23923328633E-01  0.35750994182E-01  0.10000000475E-02 0. -1.
</event>
<event>
 4   0  0.4809415E-02  0.9118800E+02  0.7818609E-02  0.1379984E+01
      -11   -1    0    0    0    0  0.00000000000E+00  0.00000000000E+00  0.35740347158E-01  0.35744000000E-01  0.51099999109E-03 0. -1.
       11   -1    0    0    0    0 -0.00000000000E+00 -0.00000000000E+00 -0.35740347158E-01  0.35744000000E-01  0.51099999109E-03 0.  1.
       22    1    1    2    0    0 -0.97384315465E-02 -0.59021635166E-02 -0.33874193743E-01  0.35737005818E-01  0.00000000000E+00 0.  1.
  9000001    1    1    2    0    0  0.97384315465E-02  0.59021635166E-02  0.33874193743E-01  0.35750994182E-01  0.10000000475E-02 0. -1.
</event>
<event>
 4   0  0.4809415E-02  0.9118800E+02  0.7818609E-02  0.1379984E+01
      -11   -1    0    0    0    0  0.00000000000E+00  0.00000000000E+00  0.35740347158E-01  0.35744000000E-01  0.51099999109E-03 0.  1.
       11   -1    0    0    0    0 -0.00000000000E+00 -0.00000000000E+00 -0.35740347158E-01  0.35744000000E-01  0.51099999109E-03 0. -1.
       22    1    1    2    0    0 -0.30985407361E-02  0.70779569921E-02 -0.34891763426E-01  0.35737005818E-01  0.00000000000E+00 0. -1.
  9000001    1    1    2    0    0  0.30985407361E-02 -0.70779569921E-02  0.34891763426E-01  0.35750994182E-01  0.10000000475E-02 0.  1.
</event>
<event>
 4   0  0.4809415E-02  0.9118800E+02  0.7818609E-02  0.1379984E+01
      -11   -1    0    0    0    0  0.00000000000E+00  0.00000000000E+00  0.35740347158E-01  0.35744000000E-01  0.51099999109E-03 0.  1.
       11   -1    0    0    0    0 -0.00000000000E+00 -0.00000000000E+00 -0.35740347158E-01  0.35744000000E-01  0.51099999109E-03 0. -1.
       22    1    1    2    0    0 -0.15275026571E-01 -0.18222726137E-01  0.26678444488E-01  0.35737005818E-01  0.00000000000E+00 0.  1.
  9000001    1    1    2    0    0  0.15275026571E-01  0.18222726137E-01 -0.26678444488E-01  0.35750994182E-01  0.10000000475E-02 0. -1.
</event>
<event>
 4   0  0.4809415E-02  0.9118800E+02  0.7818609E-02  0.1379984E+01
      -11   -1    0    0    0    0  0.00000000000E+00  0.00000000000E+00  0.35740347158E-01  0.35744000000E-01  0.51099999109E-03 0.  1.
       11   -1    0    0    0    0 -0.00000000000E+00 -0.00000000000E+00 -0.35740347158E-01  0.35744000000E-01  0.51099999109E-03 0. -1.
       22    1    1    2    0    0 -0.22837193458E-01  0.23076239883E-01 -0.14935974448E-01  0.35737005818E-01  0.00000000000E+00 0.  1.
  9000001    1    1    2    0    0  0.22837193458E-01 -0.23076239883E-01  0.14935974448E-01  0.35750994182E-01  0.10000000475E-02 0. -1.
</event>
<event>
 4   0  0.4809415E-02  0.9118800E+02  0.7818609E-02  0.1379984E+01
      -11   -1    0    0    0    0  0.00000000000E+00  0.00000000000E+00  0.35740347158E-01  0.35744000000E-01  0.51099999109E-03 0. -1.
       11   -1    0    0    0    0 -0.00000000000E+00 -0.00000000000E+00 -0.35740347158E-01  0.35744000000E-01  0.51099999109E-03 0.  1.
       22    1    1    2    0    0 -0.31805747974E-02  0.90341674786E-02  0.34429657954E-01  0.35737005818E-01  0.00000000000E+00 0. -1.
  9000001    1    1    2    0    0  0.31805747974E-02 -0.90341674786E-02 -0.34429657954E-01  0.35750994182E-01  0.10000000475E-02 0.  1.
</event>
<event>
 4   0  0.4809415E-02  0.9118800E+02  0.7818609E-02  0.1379984E+01
      -11   -1    0    0    0    0  0.00000000000E+00  0.00000000000E+00  0.35740347158E-01  0.35744000000E-01  0.51099999109E-03 0. -1.
       11   -1    0    0    0    0 -0.00000000000E+00 -0.00000000000E+00 -0.35740347158E-01  0.35744000000E-01  0.51099999109E-03 0.  1.
       22    1    1    2    0    0 -0.19274059819E-01 -0.28157814357E-01  0.10619872580E-01  0.35737005818E-01  0.00000000000E+00 0. -1.
  9000001    1    1    2    0    0  0.19274059819E-01  0.28157814357E-01 -0.10619872580E-01  0.35750994182E-01  0.10000000475E-02 0.  1.
</event>
<event>
 4   0  0.4809415E-02  0.9118800E+02  0.7818609E-02  0.1379984E+01
      -11   -1    0    0    0    0  0.00000000000E+00  0.00000000000E+00  0.35740347158E-01  0.35744000000E-01  0.51099999109E-03 0.  1.
       11   -1    0    0    0    0 -0.00000000000E+00 -0.00000000000E+00 -0.35740347158E-01  0.35744000000E-01  0.51099999109E-03 0. -1.
       22    1    1    2    0    0 -0.84570711313E-04  0.10359248601E-01 -0.34202520391E-01  0.35737005818E-01  0.00000000000E+00 0. -1.
  9000001    1    1    2    0    0  0.84570711313E-04 -0.10359248601E-01  0.34202520391E-01  0.35750994182E-01  0.10000000475E-02 0.  1.
</event>
<event>
 4   0  0.4809415E-02  0.9118800E+02  0.7818609E-02  0.1379984E+01
      -11   -1    0    0    0    0  0.00000000000E+00  0.00000000000E+00  0.35740347158E-01  0.35744000000E-01  0.51099999109E-03 0. -1.
       11   -1    0    0    0    0 -0.00000000000E+00 -0.00000000000E+00 -0.35740347158E-01  0.35744000000E-01  0.51099999109E-03 0.  1.
       22    1    1    2    0    0 -0.42145468230E-02 -0.17166016490E-02 -0.35446078185E-01  0.35737005818E-01  0.00000000000E+00 0.  1.
  9000001    1    1    2    0    0  0.42145468230E-02  0.17166016490E-02  0.35446078185E-01  0.35750994182E-01  0.10000000475E-02 0. -1.
</event>
<event>
 4   0  0.4809415E-02  0.9118800E+02  0.7818609E-02  0.1379984E+01
      -11   -1    0    0    0    0  0.00000000000E+00  0.00000000000E+00  0.35740347158E-01  0.35744000000E-01  0.51099999109E-03 0. -1.
       11   -1    0    0    0    0 -0.00000000000E+00 -0.00000000000E+00 -0.35740347158E-01  0.35744000000E-01  0.51099999109E-03 0.  1.
       22    1    1    2    0    0 -0.18675063543E-01 -0.19036808434E-01  0.23790239830E-01  0.35737005818E-01  0.00000000000E+00 0. -1.
  9000001    1    1    2    0    0  0.18675063543E-01  0.19036808434E-01 -0.23790239830E-01  0.35750994182E-01  0.10000000475E-02 0.  1.
</event>
<event>
 4   0  0.4809415E-02  0.9118800E+02  0.7818609E-02  0.1379984E+01
      -11   -1    0    0    0    0  0.00000000000E+00  0.00000000000E+00  0.35740347158E-01  0.35744000000E-01  0.51099999109E-03 0.  1.
       11   -1    0    0    0    0 -0.00000000000E+00 -0.00000000000E+00 -0.35740347158E-01  0.35744000000E-01  0.51099999109E-03 0. -1.
       22    1    1    2    0    0 -0.14823858609E-01 -0.94295361113E-02 -0.31120261077E-01  0.35737005818E-01  0.00000000000E+00 0. -1.
  9000001    1    1    2    0    0  0.14823858609E-01  0.94295361113E-02  0.31120261077E-01  0.35750994182E-01  0.10000000475E-02 0.  1.
</event>
<event>
 4   0  0.4809415E-02  0.9118800E+02  0.7818609E-02  0.1379984E+01
      -11   -1    0    0    0    0  0.00000000000E+00  0.00000000000E+00  0.35740347158E-01  0.35744000000E-01  0.51099999109E-03 0. -1.
       11   -1    0    0    0    0 -0.00000000000E+00 -0.00000000000E+00 -0.35740347158E-01  0.35744000000E-01  0.51099999109E-03 0.  1.
       22    1    1    2    0    0  0.16866598171E-01  0.81075160680E-02 -0.30445354887E-01  0.35737005818E-01  0.00000000000E+00 0.  1.
  9000001    1    1    2    0    0 -0.16866598171E-01 -0.81075160680E-02  0.30445354887E-01  0.35750994182E-01  0.10000000475E-02 0. -1.
</event>
<event>
 4   0  0.4809415E-02  0.9118800E+02  0.7818609E-02  0.1379984E+01
      -11   -1    0    0    0    0  0.00000000000E+00  0.00000000000E+00  0.35740347158E-01  0.35744000000E-01  0.51099999109E-03 0. -1.
       11   -1    0    0    0    0 -0.00000000000E+00 -0.00000000000E+00 -0.35740347158E-01  0.35744000000E-01  0.51099999109E-03 0.  1.
       22    1    1    2    0    0 -0.44757376357E-02 -0.39202111399E-02  0.35238236365E-01  0.35737005818E-01  0.00000000000E+00 0. -1.
  9000001    1    1    2    0    0  0.44757376357E-02  0.39202111399E-02 -0.35238236365E-01  0.35750994182E-01  0.10000000475E-02 0.  1.
</event>
<event>
 4   0  0.4809415E-02  0.9118800E+02  0.7818609E-02  0.1379984E+01
      -11   -1    0    0    0    0  0.00000000000E+00  0.00000000000E+00  0.35740347158E-01  0.35744000000E-01  0.51099999109E-03 0.  1.
       11   -1    0    0    0    0 -0.00000000000E+00 -0.00000000000E+00 -0.35740347158E-01  0.35744000000E-01  0.51099999109E-03 0. -1.
       22    1    1    2    0    0 -0.19559542224E-01  0.99499531532E-02 -0.28205608044E-01  0.35737005818E-01  0.00000000000E+00 0. -1.
  9000001    1    1    2    0    0  0.19559542224E-01 -0.99499531532E-02  0.28205608044E-01  0.35750994182E-01  0.10000000475E-02 0.  1.
</event>
<event>
 4   0  0.4809415E-02  0.9118800E+02  0.7818609E-02  0.1379984E+01
      -11   -1    0    0    0    0  0.00000000000E+00  0.00000000000E+00  0.35740347158E-01  0.35744000000E-01  0.51099999109E-03 0. -1.
       11   -1    0    0    0    0 -0.00000000000E+00 -0.00000000000E+00 -0.35740347158E-01  0.35744000000E-01  0.51099999109E-03 0.  1.
       22    1    1    2    0    0  0.21818277024E-02 -0.22915422906E-02  0.35596657802E-01  0.35737005818E-01  0.00000000000E+00 0. -1.
  9000001    1    1    2    0    0 -0.21818277024E-02  0.22915422906E-02 -0.35596657802E-01  0.35750994182E-01  0.10000000475E-02 0.  1.
</event>
<event>
 4   0  0.4809415E-02  0.9118800E+02  0.7818609E-02  0.1379984E+01
      -11   -1    0    0    0    0  0.00000000000E+00  0.00000000000E+00  0.35740347158E-01  0.35744000000E-01  0.51099999109E-03 0. -1.
       11   -1    0    0    0    0 -0.00000000000E+00 -0.00000000000E+00 -0.35740347158E-01  0.35744000000E-01  0.51099999109E-03 0.  1.
       22    1    1    2    0    0  0.41428408183E-02 -0.10107675880E-01  0.34026538806E-01  0.35737005818E-01  0.00000000000E+00 0. -1.
  9000001    1    1    2    0    0 -0.41428408183E-02  0.10107675880E-01 -0.34026538806E-01  0.35750994182E-01  0.10000000475E-02 0.  1.
</event>
<event>
 4   0  0.4809415E-02  0.9118800E+02  0.7818609E-02  0.1379984E+01
      -11   -1    0    0    0    0  0.00000000000E+00  0.00000000000E+00  0.35740347158E-01  0.35744000000E-01  0.51099999109E-03 0. -1.
       11   -1    0    0    0    0 -0.00000000000E+00 -0.00000000000E+00 -0.35740347158E-01  0.35744000000E-01  0.51099999109E-03 0.  1.
       22    1    1    2    0    0 -0.35020983493E-02 -0.13577153716E-01  0.32871412945E-01  0.35737005818E-01  0.00000000000E+00 0. -1.
  9000001    1    1    2    0    0  0.35020983493E-02  0.13577153716E-01 -0.32871412945E-01  0.35750994182E-01  0.10000000475E-02 0.  1.
</event>
<event>
 4   0  0.4809415E-02  0.9118800E+02  0.7818609E-02  0.1379984E+01
      -11   -1    0    0    0    0  0.00000000000E+00  0.00000000000E+00  0.35740347158E-01  0.35744000000E-01  0.51099999109E-03 0. -1.
       11   -1    0    0    0    0 -0.00000000000E+00 -0.00000000000E+00 -0.35740347158E-01  0.35744000000E-01  0.51099999109E-03 0.  1.
       22    1    1    2    0    0 -0.83145136541E-03 -0.33233218778E-02 -0.35572430409E-01  0.35737005818E-01  0.00000000000E+00 0.  1.
  9000001    1    1    2    0    0  0.83145136541E-03  0.33233218778E-02  0.35572430409E-01  0.35750994182E-01  0.10000000475E-02 0. -1.
</event>
<event>
 4   0  0.4809415E-02  0.9118800E+02  0.7818609E-02  0.1379984E+01
      -11   -1    0    0    0    0  0.00000000000E+00  0.00000000000E+00  0.35740347158E-01  0.35744000000E-01  0.51099999109E-03 0.  1.
       11   -1    0    0    0    0 -0.00000000000E+00 -0.00000000000E+00 -0.35740347158E-01  0.35744000000E-01  0.51099999109E-03 0. -1.
       22    1    1    2    0    0  0.42527034343E-03 -0.43083472914E-02  0.35473805457E-01  0.35737005818E-01  0.00000000000E+00 0.  1.
  9000001    1    1    2    0    0 -0.42527034343E-03  0.43083472914E-02 -0.35473805457E-01  0.35750994182E-01  0.10000000475E-02 0. -1.
</event>
<event>
 4   0  0.4809415E-02  0.9118800E+02  0.7818609E-02  0.1379984E+01
      -11   -1    0    0    0    0  0.00000000000E+00  0.00000000000E+00  0.35740347158E-01  0.35744000000E-01  0.51099999109E-03 0.  1.
       11   -1    0    0    0    0 -0.00000000000E+00 -0.00000000000E+00 -0.35740347158E-01  0.35744000000E-01  0.51099999109E-03 0. -1.
       22    1    1    2    0    0 -0.11018853907E-03 -0.84254707103E-02  0.34729423932E-01  0.35737005818E-01  0.00000000000E+00 0.  1.
  9000001    1    1    2    0    0  0.11018853907E-03  0.84254707103E-02 -0.34729423932E-01  0.35750994182E-01  0.10000000475E-02 0. -1.
</event>
<event>
 4   0  0.4809415E-02  0.9118800E+02  0.7818609E-02  0.1379984E+01
      -11   -1    0    0    0    0  0.00000000000E+00  0.00000000000E+00  0.35740347158E-01  0.35744000000E-01  0.51099999109E-03 0. -1.
       11   -1    0    0    0    0 -0.00000000000E+00 -0.00000000000E+00 -0.35740347158E-01  0.35744000000E-01  0.51099999109E-03 0.  1.
       22    1    1    2    0    0  0.14600394888E-02 -0.51459651214E-02  0.35334415412E-01  0.35737005818E-01  0.00000000000E+00 0. -1.
  9000001    1    1    2    0    0 -0.14600394888E-02  0.51459651214E-02 -0.35334415412E-01  0.35750994182E-01  0.10000000475E-02 0.  1.
</event>
<event>
 4   0  0.4809415E-02  0.9118800E+02  0.7818609E-02  0.1379984E+01
      -11   -1    0    0    0    0  0.00000000000E+00  0.00000000000E+00  0.35740347158E-01  0.35744000000E-01  0.51099999109E-03 0. -1.
       11   -1    0    0    0    0 -0.00000000000E+00 -0.00000000000E+00 -0.35740347158E-01  0.35744000000E-01  0.51099999109E-03 0.  1.
       22    1    1    2    0    0  0.10392528227E-01  0.13449906007E-01 -0.31436109338E-01  0.35737005818E-01  0.00000000000E+00 0.  1.
  9000001    1    1    2    0    0 -0.10392528227E-01 -0.13449906007E-01  0.31436109338E-01  0.35750994182E-01  0.10000000475E-02 0. -1.
</event>
<event>
 4   0  0.4809415E-02  0.9118800E+02  0.7818609E-02  0.1379984E+01
      -11   -1    0    0    0    0  0.00000000000E+00  0.00000000000E+00  0.35740347158E-01  0.35744000000E-01  0.51099999109E-03 0. -1.
       11   -1    0    0    0    0 -0.00000000000E+00 -0.00000000000E+00 -0.35740347158E-01  0.35744000000E-01  0.51099999109E-03 0.  1.
       22    1    1    2    0    0  0.19579553035E-02 -0.13292250370E-01  0.33115194035E-01  0.35737005818E-01  0.00000000000E+00 0. -1.
  9000001    1    1    2    0    0 -0.19579553035E-02  0.13292250370E-01 -0.33115194035E-01  0.35750994182E-01  0.10000000475E-02 0.  1.
</event>
<event>
 4   0  0.4809415E-02  0.9118800E+02  0.7818609E-02  0.1379984E+01
      -11   -1    0    0    0    0  0.00000000000E+00  0.00000000000E+00  0.35740347158E-01  0.35744000000E-01  0.51099999109E-03 0.  1.
       11   -1    0    0    0    0 -0.00000000000E+00 -0.00000000000E+00 -0.35740347158E-01  0.35744000000E-01  0.51099999109E-03 0. -1.
       22    1    1    2    0    0 -0.22171746928E-02 -0.26000203356E-02 -0.35573271082E-01  0.35737005818E-01  0.00000000000E+00 0. -1.
  9000001    1    1    2    0    0  0.22171746928E-02  0.26000203356E-02  0.35573271082E-01  0.35750994182E-01  0.10000000475E-02 0.  1.
</event>
<event>
 4   0  0.4809415E-02  0.9118800E+02  0.7818609E-02  0.1379984E+01
      -11   -1    0    0    0    0  0.00000000000E+00  0.00000000000E+00  0.35740347158E-01  0.35744000000E-01  0.51099999109E-03 0.  1.
       11   -1    0    0    0    0 -0.00000000000E+00 -0.00000000000E+00 -0.35740347158E-01  0.35744000000E-01  0.51099999109E-03 0. -1.
       22    1    1    2    0    0  0.42253645986E-03 -0.85130490636E-02 -0.34705662988E-01  0.35737005818E-01  0.00000000000E+00 0. -1.
  9000001    1    1    2    0    0 -0.42253645986E-03  0.85130490636E-02  0.34705662988E-01  0.35750994182E-01  0.10000000475E-02 0.  1.
</event>
<event>
 4   0  0.4809415E-02  0.9118800E+02  0.7818609E-02  0.1379984E+01
      -11   -1    0    0    0    0  0.00000000000E+00  0.00000000000E+00  0.35740347158E-01  0.35744000000E-01  0.51099999109E-03 0. -1.
       11   -1    0    0    0    0 -0.00000000000E+00 -0.00000000000E+00 -0.35740347158E-01  0.35744000000E-01  0.51099999109E-03 0.  1.
       22    1    1    2    0    0  0.16655016388E-01 -0.12237927492E-02  0.31595036719E-01  0.35737005818E-01  0.00000000000E+00 0. -1.
  9000001    1    1    2    0    0 -0.16655016388E-01  0.12237927492E-02 -0.31595036719E-01  0.35750994182E-01  0.10000000475E-02 0.  1.
</event>
<event>
 4   0  0.4809415E-02  0.9118800E+02  0.7818609E-02  0.1379984E+01
      -11   -1    0    0    0    0  0.00000000000E+00  0.00000000000E+00  0.35740347158E-01  0.35744000000E-01  0.51099999109E-03 0.  1.
       11   -1    0    0    0    0 -0.00000000000E+00 -0.00000000000E+00 -0.35740347158E-01  0.35744000000E-01  0.51099999109E-03 0. -1.
       22    1    1    2    0    0  0.75866601303E-02  0.12111742327E-02 -0.34901421603E-01  0.35737005818E-01  0.00000000000E+00 0. -1.
  9000001    1    1    2    0    0 -0.75866601303E-02 -0.12111742327E-02  0.34901421603E-01  0.35750994182E-01  0.10000000475E-02 0.  1.
</event>
<event>
 4   0  0.4809415E-02  0.9118800E+02  0.7818609E-02  0.1379984E+01
      -11   -1    0    0    0    0  0.00000000000E+00  0.00000000000E+00  0.35740347158E-01  0.35744000000E-01  0.51099999109E-03 0.  1.
       11   -1    0    0    0    0 -0.00000000000E+00 -0.00000000000E+00 -0.35740347158E-01  0.35744000000E-01  0.51099999109E-03 0. -1.
       22    1    1    2    0    0  0.46465280250E-02  0.13219090158E-02  0.35408980764E-01  0.35737005818E-01  0.00000000000E+00 0.  1.
  9000001    1    1    2    0    0 -0.46465280250E-02 -0.13219090158E-02 -0.35408980764E-01  0.35750994182E-01  0.10000000475E-02 0. -1.
</event>
<event>
 4   0  0.4809415E-02  0.9118800E+02  0.7818609E-02  0.1379984E+01
      -11   -1    0    0    0    0  0.00000000000E+00  0.00000000000E+00  0.35740347158E-01  0.35744000000E-01  0.51099999109E-03 0.  1.
       11   -1    0    0    0    0 -0.00000000000E+00 -0.00000000000E+00 -0.35740347158E-01  0.35744000000E-01  0.51099999109E-03 0. -1.
       22    1    1    2    0    0  0.20735602370E-01 -0.80370972988E-02  0.27974514227E-01  0.35737005818E-01  0.00000000000E+00 0.  1.
  9000001    1    1    2    0    0 -0.20735602370E-01  0.80370972988E-02 -0.27974514227E-01  0.35750994182E-01  0.10000000475E-02 0. -1.
</event>
<event>
 4   0  0.4809415E-02  0.9118800E+02  0.7818609E-02  0.1379984E+01
      -11   -1    0    0    0    0  0.00000000000E+00  0.00000000000E+00  0.35740347158E-01  0.35744000000E-01  0.51099999109E-03 0.  1.
       11   -1    0    0    0    0 -0.00000000000E+00 -0.00000000000E+00 -0.35740347158E-01  0.35744000000E-01  0.51099999109E-03 0. -1.
       22    1    1    2    0    0 -0.41055767913E-02 -0.42679695786E-02 -0.35242903679E-01  0.35737005818E-01  0.00000000000E+00 0. -1.
  9000001    1    1    2    0    0  0.41055767913E-02  0.42679695786E-02  0.35242903679E-01  0.35750994182E-01  0.10000000475E-02 0.  1.
</event>
<event>
 4   0  0.4809415E-02  0.9118800E+02  0.7818609E-02  0.1379984E+01
      -11   -1    0    0    0    0  0.00000000000E+00  0.00000000000E+00  0.35740347158E-01  0.35744000000E-01  0.51099999109E-03 0.  1.
       11   -1    0    0    0    0 -0.00000000000E+00 -0.00000000000E+00 -0.35740347158E-01  0.35744000000E-01  0.51099999109E-03 0. -1.
       22    1    1    2    0    0 -0.17122693333E-01 -0.61831989014E-02  0.30752479725E-01  0.35737005818E-01  0.00000000000E+00 0.  1.
  9000001    1    1    2    0    0  0.17122693333E-01  0.61831989014E-02 -0.30752479725E-01  0.35750994182E-01  0.10000000475E-02 0. -1.
</event>
<event>
 4   0  0.4809415E-02  0.9118800E+02  0.7818609E-02  0.1379984E+01
      -11   -1    0    0    0    0  0.00000000000E+00  0.00000000000E+00  0.35740347158E-01  0.35744000000E-01  0.51099999109E-03 0.  1.
       11   -1    0    0    0    0 -0.00000000000E+00 -0.00000000000E+00 -0.35740347158E-01  0.35744000000E-01  0.51099999109E-03 0. -1.
       22    1    1    2    0    0 -0.19465654525E-01  0.17051655886E-01  0.24646762675E-01  0.35737005818E-01  0.00000000000E+00 0.  1.
  9000001    1    1    2    0    0  0.19465654525E-01 -0.17051655886E-01 -0.24646762675E-01  0.35750994182E-01  0.10000000475E-02 0. -1.
</event>
<event>
 4   0  0.4809415E-02  0.9118800E+02  0.7818609E-02  0.1379984E+01
      -11   -1    0    0    0    0  0.00000000000E+00  0.00000000000E+00  0.35740347158E-01  0.35744000000E-01  0.51099999109E-03 0. -1.
       11   -1    0    0    0    0 -0.00000000000E+00 -0.00000000000E+00 -0.35740347158E-01  0.35744000000E-01  0.51099999109E-03 0.  1.
       22    1    1    2    0    0 -0.25164188791E-02 -0.32618369648E-02  0.35498755478E-01  0.35737005818E-01  0.00000000000E+00 0. -1.
  9000001    1    1    2    0    0  0.25164188791E-02  0.32618369648E-02 -0.35498755478E-01  0.35750994182E-01  0.10000000475E-02 0.  1.
</event>
<event>
 4   0  0.4809415E-02  0.9118800E+02  0.7818609E-02  0.1379984E+01
      -11   -1    0    0    0    0  0.00000000000E+00  0.00000000000E+00  0.35740347158E-01  0.35744000000E-01  0.51099999109E-03 0. -1.
       11   -1    0    0    0    0 -0.00000000000E+00 -0.00000000000E+00 -0.35740347158E-01  0.35744000000E-01  0.51099999109E-03 0.  1.
       22    1    1    2    0    0  0.13793245108E-02 -0.78506000012E-02  0.34836749682E-01  0.35737005818E-01  0.00000000000E+00 0. -1.
  9000001    1    1    2    0    0 -0.13793245108E-02  0.78506000012E-02 -0.34836749682E-01  0.35750994182E-01  0.10000000475E-02 0.  1.
</event>
<event>
 4   0  0.4809415E-02  0.9118800E+02  0.7818609E-02  0.1379984E+01
      -11   -1    0    0    0    0  0.00000000000E+00  0.00000000000E+00  0.35740347158E-01  0.35744000000E-01  0.51099999109E-03 0.  1.
       11   -1    0    0    0    0 -0.00000000000E+00 -0.00000000000E+00 -0.35740347158E-01  0.35744000000E-01  0.51099999109E-03 0. -1.
       22    1    1    2    0    0  0.32947566226E-02  0.12629022677E-02 -0.35562385206E-01  0.35737005818E-01  0.00000000000E+00 0. -1.
  9000001    1    1    2    0    0 -0.32947566226E-02 -0.12629022677E-02  0.35562385206E-01  0.35750994182E-01  0.10000000475E-02 0.  1.
</event>
<event>
 4   0  0.4809415E-02  0.9118800E+02  0.7818609E-02  0.1379984E+01
      -11   -1    0    0    0    0  0.00000000000E+00  0.00000000000E+00  0.35740347158E-01  0.35744000000E-01  0.51099999109E-03 0.  1.
       11   -1    0    0    0    0 -0.00000000000E+00 -0.00000000000E+00 -0.35740347158E-01  0.35744000000E-01  0.51099999109E-03 0. -1.
       22    1    1    2    0    0  0.14879664312E-02 -0.33241874127E-01  0.13034467587E-01  0.35737005818E-01  0.00000000000E+00 0.  1.
  9000001    1    1    2    0    0 -0.14879664312E-02  0.33241874127E-01 -0.13034467587E-01  0.35750994182E-01  0.10000000475E-02 0. -1.
</event>
<event>
 4   0  0.4809415E-02  0.9118800E+02  0.7818609E-02  0.1379984E+01
      -11   -1    0    0    0    0  0.00000000000E+00  0.00000000000E+00  0.35740347158E-01  0.35744000000E-01  0.51099999109E-03 0. -1.
       11   -1    0    0    0    0 -0.00000000000E+00 -0.00000000000E+00 -0.35740347158E-01  0.35744000000E-01  0.51099999109E-03 0.  1.
       22    1    1    2    0    0 -0.27016060618E-02  0.11842990581E-01 -0.33609202366E-01  0.35737005818E-01  0.00000000000E+00 0.  1.
  9000001    1    1    2    0    0  0.27016060618E-02 -0.11842990581E-01  0.33609202366E-01  0.35750994182E-01  0.10000000475E-02 0. -1.
</event>
<event>
 4   0  0.4809415E-02  0.9118800E+02  0.7818609E-02  0.1379984E+01
      -11   -1    0    0    0    0  0.00000000000E+00  0.00000000000E+00  0.35740347158E-01  0.35744000000E-01  0.51099999109E-03 0.  1.
       11   -1    0    0    0    0 -0.00000000000E+00 -0.00000000000E+00 -0.35740347158E-01  0.35744000000E-01  0.51099999109E-03 0. -1.
       22    1    1    2    0    0  0.39050796028E-02 -0.17762769765E-01  0.30763093935E-01  0.35737005818E-01  0.00000000000E+00 0.  1.
  9000001    1    1    2    0    0 -0.39050796028E-02  0.17762769765E-01 -0.30763093935E-01  0.35750994182E-01  0.10000000475E-02 0. -1.
</event>
<event>
 4   0  0.4809415E-02  0.9118800E+02  0.7818609E-02  0.1379984E+01
      -11   -1    0    0    0    0  0.00000000000E+00  0.00000000000E+00  0.35740347158E-01  0.35744000000E-01  0.51099999109E-03 0.  1.
       11   -1    0    0    0    0 -0.00000000000E+00 -0.00000000000E+00 -0.35740347158E-01  0.35744000000E-01  0.51099999109E-03 0. -1.
       22    1    1    2    0    0 -0.70169360623E-03  0.76659576934E-02  0.34898055871E-01  0.35737005818E-01  0.00000000000E+00 0.  1.
  9000001    1    1    2    0    0  0.70169360623E-03 -0.76659576934E-02 -0.34898055871E-01  0.35750994182E-01  0.10000000475E-02 0. -1.
</event>
<event>
 4   0  0.4809415E-02  0.9118800E+02  0.7818609E-02  0.1379984E+01
      -11   -1    0    0    0    0  0.00000000000E+00  0.00000000000E+00  0.35740347158E-01  0.35744000000E-01  0.51099999109E-03 0.  1.
       11   -1    0    0    0    0 -0.00000000000E+00 -0.00000000000E+00 -0.35740347158E-01  0.35744000000E-01  0.51099999109E-03 0. -1.
       22    1    1    2    0    0 -0.12823666102E-01 -0.92038100887E-04  0.33356838902E-01  0.35737005818E-01  0.00000000000E+00 0.  1.
  9000001    1    1    2    0    0  0.12823666102E-01  0.92038100887E-04 -0.33356838902E-01  0.35750994182E-01  0.10000000475E-02 0. -1.
</event>
<event>
 4   0  0.4809415E-02  0.9118800E+02  0.7818609E-02  0.1379984E+01
      -11   -1    0    0    0    0  0.00000000000E+00  0.00000000000E+00  0.35740347158E-01  0.35744000000E-01  0.51099999109E-03 0. -1.
       11   -1    0    0    0    0 -0.00000000000E+00 -0.00000000000E+00 -0.35740347158E-01  0.35744000000E-01  0.51099999109E-03 0.  1.
       22    1    1    2    0    0 -0.48511191386E-02 -0.13113258120E-02  0.35381925507E-01  0.35737005818E-01  0.00000000000E+00 0. -1.
  9000001    1    1    2    0    0  0.48511191386E-02  0.13113258120E-02 -0.35381925507E-01  0.35750994182E-01  0.10000000475E-02 0.  1.
</event>
<event>
 4   0  0.4809415E-02  0.9118800E+02  0.7818609E-02  0.1379984E+01
      -11   -1    0    0    0    0  0.00000000000E+00  0.00000000000E+00  0.35740347158E-01  0.35744000000E-01  0.51099999109E-03 0. -1.
       11   -1    0    0    0    0 -0.00000000000E+00 -0.00000000000E+00 -0.35740347158E-01  0.35744000000E-01  0.51099999109E-03 0.  1.
       22    1    1    2    0    0 -0.35504006918E-02 -0.62132016479E-03 -0.35554777472E-01  0.35737005818E-01  0.00000000000E+00 0.  1.
  9000001    1    1    2    0    0  0.35504006918E-02  0.62132016479E-03  0.35554777472E-01  0.35750994182E-01  0.10000000475E-02 0. -1.
</event>
<event>
 4   0  0.4809415E-02  0.9118800E+02  0.7818609E-02  0.1379984E+01
      -11   -1    0    0    0    0  0.00000000000E+00  0.00000000000E+00  0.35740347158E-01  0.35744000000E-01  0.51099999109E-03 0.  1.
       11   -1    0    0    0    0 -0.00000000000E+00 -0.00000000000E+00 -0.35740347158E-01  0.35744000000E-01  0.51099999109E-03 0. -1.
       22    1    1    2    0    0  0.11408040465E-01  0.63256991248E-02 -0.33271244765E-01  0.35737005818E-01  0.00000000000E+00 0. -1.
  9000001    1    1    2    0    0 -0.11408040465E-01 -0.63256991248E-02  0.33271244765E-01  0.35750994182E-01  0.10000000475E-02 0.  1.
</event>
<event>
 4   0  0.4809415E-02  0.9118800E+02  0.7818609E-02  0.1379984E+01
      -11   -1    0    0    0    0  0.00000000000E+00  0.00000000000E+00  0.35740347158E-01  0.35744000000E-01  0.51099999109E-03 0.  1.
       11   -1    0    0    0    0 -0.00000000000E+00 -0.00000000000E+00 -0.35740347158E-01  0.35744000000E-01  0.51099999109E-03 0. -1.
       22    1    1    2    0    0  0.50659597561E-03  0.60588953704E-02  0.35216001083E-01  0.35737005818E-01  0.00000000000E+00 0.  1.
  9000001    1    1    2    0    0 -0.50659597561E-03 -0.60588953704E-02 -0.35216001083E-01  0.35750994182E-01  0.10000000475E-02 0. -1.
</event>
<event>
 4   0  0.4809415E-02  0.9118800E+02  0.7818609E-02  0.1379984E+01
      -11   -1    0    0    0    0  0.00000000000E+00  0.00000000000E+00  0.35740347158E-01  0.35744000000E-01  0.51099999109E-03 0. -1.
       11   -1    0    0    0    0 -0.00000000000E+00 -0.00000000000E+00 -0.35740347158E-01  0.35744000000E-01  0.51099999109E-03 0.  1.
       22    1    1    2    0    0 -0.71139121897E-02 -0.10396284763E-01 -0.33443132350E-01  0.35737005818E-01  0.00000000000E+00 0.  1.
  9000001    1    1    2    0    0  0.71139121897E-02  0.10396284763E-01  0.33443132350E-01  0.35750994182E-01  0.10000000475E-02 0. -1.
</event>
<event>
 4   0  0.4809415E-02  0.9118800E+02  0.7818609E-02  0.1379984E+01
      -11   -1    0    0    0    0  0.00000000000E+00  0.00000000000E+00  0.35740347158E-01  0.35744000000E-01  0.51099999109E-03 0. -1.
       11   -1    0    0    0    0 -0.00000000000E+00 -0.00000000000E+00 -0.35740347158E-01  0.35744000000E-01  0.51099999109E-03 0.  1.
       22    1    1    2    0    0  0.10273701758E-01  0.29016049678E-03 -0.34227188665E-01  0.35737005818E-01  0.00000000000E+00 0.  1.
  9000001    1    1    2    0    0 -0.10273701758E-01 -0.29016049678E-03  0.34227188665E-01  0.35750994182E-01  0.10000000475E-02 0. -1.
</event>
<event>
 4   0  0.4809415E-02  0.9118800E+02  0.7818609E-02  0.1379984E+01
      -11   -1    0    0    0    0  0.00000000000E+00  0.00000000000E+00  0.35740347158E-01  0.35744000000E-01  0.51099999109E-03 0.  1.
       11   -1    0    0    0    0 -0.00000000000E+00 -0.00000000000E+00 -0.35740347158E-01  0.35744000000E-01  0.51099999109E-03 0. -1.
       22    1    1    2    0    0 -0.16837117764E-01  0.95201176919E-03  0.31507756567E-01  0.35737005818E-01  0.00000000000E+00 0.  1.
  9000001    1    1    2    0    0  0.16837117764E-01 -0.95201176919E-03 -0.31507756567E-01  0.35750994182E-01  0.10000000475E-02 0. -1.
</event>
<event>
 4   0  0.4809415E-02  0.9118800E+02  0.7818609E-02  0.1379984E+01
      -11   -1    0    0    0    0  0.00000000000E+00  0.00000000000E+00  0.35740347158E-01  0.35744000000E-01  0.51099999109E-03 0. -1.
       11   -1    0    0    0    0 -0.00000000000E+00 -0.00000000000E+00 -0.35740347158E-01  0.35744000000E-01  0.51099999109E-03 0.  1.
       22    1    1    2    0    0 -0.28456311523E-01  0.15699268391E-01 -0.14862869553E-01  0.35737005818E-01  0.00000000000E+00 0.  1.
  9000001    1    1    2    0    0  0.28456311523E-01 -0.15699268391E-01  0.14862869553E-01  0.35750994182E-01  0.10000000475E-02 0. -1.
</event>
<event>
 4   0  0.4809415E-02  0.9118800E+02  0.7818609E-02  0.1379984E+01
      -11   -1    0    0    0    0  0.00000000000E+00  0.00000000000E+00  0.35740347158E-01  0.35744000000E-01  0.51099999109E-03 0. -1.
       11   -1    0    0    0    0 -0.00000000000E+00 -0.00000000000E+00 -0.35740347158E-01  0.35744000000E-01  0.51099999109E-03 0.  1.
       22    1    1    2    0    0 -0.99531432895E-03  0.29805064397E-02  0.35598588675E-01  0.35737005818E-01  0.00000000000E+00 0. -1.
  9000001    1    1    2    0    0  0.99531432895E-03 -0.29805064397E-02 -0.35598588675E-01  0.35750994182E-01  0.10000000475E-02 0.  1.
</event>
<event>
 4   0  0.4809415E-02  0.9118800E+02  0.7818609E-02  0.1379984E+01
      -11   -1    0    0    0    0  0.00000000000E+00  0.00000000000E+00  0.35740347158E-01  0.35744000000E-01  0.51099999109E-03 0.  1.
       11   -1    0    0    0    0 -0.00000000000E+00 -0.00000000000E+00 -0.35740347158E-01  0.35744000000E-01  0.51099999109E-03 0. -1.
       22    1    1    2    0    0 -0.20625337814E-02 -0.47768896315E-02 -0.35356199806E-01  0.35737005818E-01  0.00000000000E+00 0. -1.
  9000001    1    1    2    0    0  0.20625337814E-02  0.47768896315E-02  0.35356199806E-01  0.35750994182E-01  0.10000000475E-02 0.  1.
</event>
<event>
 4   0  0.4809415E-02  0.9118800E+02  0.7818609E-02  0.1379984E+01
      -11   -1    0    0    0    0  0.00000000000E+00  0.00000000000E+00  0.35740347158E-01  0.35744000000E-01  0.51099999109E-03 0. -1.
       11   -1    0    0    0    0 -0.00000000000E+00 -0.00000000000E+00 -0.35740347158E-01  0.35744000000E-01  0.51099999109E-03 0.  1.
       22    1    1    2    0    0 -0.86597704097E-02 -0.11454477261E-01 -0.32725172452E-01  0.35737005818E-01  0.00000000000E+00 0.  1.
  9000001    1    1    2    0    0  0.86597704097E-02  0.11454477261E-01  0.32725172452E-01  0.35750994182E-01  0.10000000475E-02 0. -1.
</event>
<event>
 4   0  0.4809415E-02  0.9118800E+02  0.7818609E-02  0.1379984E+01
      -11   -1    0    0    0    0  0.00000000000E+00  0.00000000000E+00  0.35740347158E-01  0.35744000000E-01  0.51099999109E-03 0.  1.
       11   -1    0    0    0    0 -0.00000000000E+00 -0.00000000000E+00 -0.35740347158E-01  0.35744000000E-01  0.51099999109E-03 0. -1.
       22    1    1    2    0    0 -0.75698279960E-02  0.11214936256E-01  0.33076524814E-01  0.35737005818E-01  0.00000000000E+00 0.  1.
  9000001    1    1    2    0    0  0.75698279960E-02 -0.11214936256E-01 -0.33076524814E-01  0.35750994182E-01  0.10000000475E-02 0. -1.
</event>
<event>
 4   0  0.4809415E-02  0.9118800E+02  0.7818609E-02  0.1379984E+01
      -11   -1    0    0    0    0  0.00000000000E+00  0.00000000000E+00  0.35740347158E-01  0.35744000000E-01  0.51099999109E-03 0. -1.
       11   -1    0    0    0    0 -0.00000000000E+00 -0.00000000000E+00 -0.35740347158E-01  0.35744000000E-01  0.51099999109E-03 0.  1.
       22    1    1    2    0    0 -0.11506278124E-01  0.31994321052E-02 -0.33682380896E-01  0.35737005818E-01  0.00000000000E+00 0.  1.
  9000001    1    1    2    0    0  0.11506278124E-01 -0.31994321052E-02  0.33682380896E-01  0.35750994182E-01  0.10000000475E-02 0. -1.
</event>
<event>
 4   0  0.4809415E-02  0.9118800E+02  0.7818609E-02  0.1379984E+01
      -11   -1    0    0    0    0  0.00000000000E+00  0.00000000000E+00  0.35740347158E-01  0.35744000000E-01  0.51099999109E-03 0. -1.
       11   -1    0    0    0    0 -0.00000000000E+00 -0.00000000000E+00 -0.35740347158E-01  0.35744000000E-01  0.51099999109E-03 0.  1.
       22    1    1    2    0    0 -0.32899110694E-03  0.30588699427E-02  0.35604334910E-01  0.35737005818E-01  0.00000000000E+00 0. -1.
  9000001    1    1    2    0    0  0.32899110694E-03 -0.30588699427E-02 -0.35604334910E-01  0.35750994182E-01  0.10000000475E-02 0.  1.
</event>
<event>
 4   0  0.4809415E-02  0.9118800E+02  0.7818609E-02  0.1379984E+01
      -11   -1    0    0    0    0  0.00000000000E+00  0.00000000000E+00  0.35740347158E-01  0.35744000000E-01  0.51099999109E-03 0. -1.
       11   -1    0    0    0    0 -0.00000000000E+00 -0.00000000000E+00 -0.35740347158E-01  0.35744000000E-01  0.51099999109E-03 0.  1.
       22    1    1    2    0    0 -0.92895229365E-02  0.49621967292E-02  0.34149889489E-01  0.35737005818E-01  0.00000000000E+00 0. -1.
  9000001    1    1    2    0    0  0.92895229365E-02 -0.49621967292E-02 -0.34149889489E-01  0.35750994182E-01  0.10000000475E-02 0.  1.
</event>
<event>
 4   0  0.4809415E-02  0.9118800E+02  0.7818609E-02  0.1379984E+01
      -11   -1    0    0    0    0  0.00000000000E+00  0.00000000000E+00  0.35740347158E-01  0.35744000000E-01  0.51099999109E-03 0.  1.
       11   -1    0    0    0    0 -0.00000000000E+00 -0.00000000000E+00 -0.35740347158E-01  0.35744000000E-01  0.51099999109E-03 0. -1.
       22    1    1    2    0    0 -0.11968939258E-01  0.32644215348E-01  0.82603439546E-02  0.35737005818E-01  0.00000000000E+00 0.  1.
  9000001    1    1    2    0    0  0.11968939258E-01 -0.32644215348E-01 -0.82603439546E-02  0.35750994182E-01  0.10000000475E-02 0. -1.
</event>
<event>
 4   0  0.4809415E-02  0.9118800E+02  0.7818609E-02  0.1379984E+01
      -11   -1    0    0    0    0  0.00000000000E+00  0.00000000000E+00  0.35740347158E-01  0.35744000000E-01  0.51099999109E-03 0. -1.
       11   -1    0    0    0    0 -0.00000000000E+00 -0.00000000000E+00 -0.35740347158E-01  0.35744000000E-01  0.51099999109E-03 0.  1.
       22    1    1    2    0    0  0.29734620265E-02 -0.20841751325E-02  0.35552050890E-01  0.35737005818E-01  0.00000000000E+00 0. -1.
  9000001    1    1    2    0    0 -0.29734620265E-02  0.20841751325E-02 -0.35552050890E-01  0.35750994182E-01  0.10000000475E-02 0.  1.
</event>
<event>
 4   0  0.4809415E-02  0.9118800E+02  0.7818609E-02  0.1379984E+01
      -11   -1    0    0    0    0  0.00000000000E+00  0.00000000000E+00  0.35740347158E-01  0.35744000000E-01  0.51099999109E-03 0.  1.
       11   -1    0    0    0    0 -0.00000000000E+00 -0.00000000000E+00 -0.35740347158E-01  0.35744000000E-01  0.51099999109E-03 0. -1.
       22    1    1    2    0    0  0.44190446657E-03 -0.30392376793E-02 -0.35604793773E-01  0.35737005818E-01  0.00000000000E+00 0. -1.
  9000001    1    1    2    0    0 -0.44190446657E-03  0.30392376793E-02  0.35604793773E-01  0.35750994182E-01  0.10000000475E-02 0.  1.
</event>
<event>
 4   0  0.4809415E-02  0.9118800E+02  0.7818609E-02  0.1379984E+01
      -11   -1    0    0    0    0  0.00000000000E+00  0.00000000000E+00  0.35740347158E-01  0.35744000000E-01  0.51099999109E-03 0. -1.
       11   -1    0    0    0    0 -0.00000000000E+00 -0.00000000000E+00 -0.35740347158E-01  0.35744000000E-01  0.51099999109E-03 0.  1.
       22    1    1    2    0    0 -0.25376858115E-01  0.16018106899E-01 -0.19405383491E-01  0.35737005818E-01  0.00000000000E+00 0. -1.
  9000001    1    1    2    0    0  0.25376858115E-01 -0.16018106899E-01  0.19405383491E-01  0.35750994182E-01  0.10000000475E-02 0.  1.
</event>
<event>
 4   0  0.4809415E-02  0.9118800E+02  0.7818609E-02  0.1379984E+01
      -11   -1    0    0    0    0  0.00000000000E+00  0.00000000000E+00  0.35740347158E-01  0.35744000000E-01  0.51099999109E-03 0. -1.
       11   -1    0    0    0    0 -0.00000000000E+00 -0.00000000000E+00 -0.35740347158E-01  0.35744000000E-01  0.51099999109E-03 0.  1.
       22    1    1    2    0    0  0.37982822578E-02 -0.13534881335E-02 -0.35508797595E-01  0.35737005818E-01  0.00000000000E+00 0.  1.
  9000001    1    1    2    0    0 -0.37982822578E-02  0.13534881335E-02  0.35508797595E-01  0.35750994182E-01  0.10000000475E-02 0. -1.
</event>
<event>
 4   0  0.4809415E-02  0.9118800E+02  0.7818609E-02  0.1379984E+01
      -11   -1    0    0    0    0  0.00000000000E+00  0.00000000000E+00  0.35740347158E-01  0.35744000000E-01  0.51099999109E-03 0.  1.
       11   -1    0    0    0    0 -0.00000000000E+00 -0.00000000000E+00 -0.35740347158E-01  0.35744000000E-01  0.51099999109E-03 0. -1.
       22    1    1    2    0    0  0.32859009463E-02  0.50949010597E-02 -0.35219006559E-01  0.35737005818E-01  0.00000000000E+00 0. -1.
  9000001    1    1    2    0    0 -0.32859009463E-02 -0.50949010597E-02  0.35219006559E-01  0.35750994182E-01  0.10000000475E-02 0.  1.
</event>
<event>
 4   0  0.4809415E-02  0.9118800E+02  0.7818609E-02  0.1379984E+01
      -11   -1    0    0    0    0  0.00000000000E+00  0.00000000000E+00  0.35740347158E-01  0.35744000000E-01  0.51099999109E-03 0.  1.
       11   -1    0    0    0    0 -0.00000000000E+00 -0.00000000000E+00 -0.35740347158E-01  0.35744000000E-01  0.51099999109E-03 0. -1.
       22    1    1    2    0    0 -0.61553344905E-02 -0.91033026306E-02 -0.34005519014E-01  0.35737005818E-01  0.00000000000E+00 0. -1.
  9000001    1    1    2    0    0  0.61553344905E-02  0.91033026306E-02  0.34005519014E-01  0.35750994182E-01  0.10000000475E-02 0.  1.
</event>
<event>
 4   0  0.4809415E-02  0.9118800E+02  0.7818609E-02  0.1379984E+01
      -11   -1    0    0    0    0  0.00000000000E+00  0.00000000000E+00  0.35740347158E-01  0.35744000000E-01  0.51099999109E-03 0.  1.
       11   -1    0    0    0    0 -0.00000000000E+00 -0.00000000000E+00 -0.35740347158E-01  0.35744000000E-01  0.51099999109E-03 0. -1.
       22    1    1    2    0    0 -0.20977394822E-02  0.17737661376E-01  0.30953326846E-01  0.35737005818E-01  0.00000000000E+00 0.  1.
  9000001    1    1    2    0    0  0.20977394822E-02 -0.17737661376E-01 -0.30953326846E-01  0.35750994182E-01  0.10000000475E-02 0. -1.
</event>
<event>
 4   0  0.4809415E-02  0.9118800E+02  0.7818609E-02  0.1379984E+01
      -11   -1    0    0    0    0  0.00000000000E+00  0.00000000000E+00  0.35740347158E-01  0.35744000000E-01  0.51099999109E-03 0. -1.
       11   -1    0    0    0    0 -0.00000000000E+00 -0.00000000000E+00 -0.35740347158E-01  0.35744000000E-01  0.51099999109E-03 0.  1.
       22    1    1    2    0    0  0.64330959708E-02 -0.10529185496E-01  0.33539306998E-01  0.35737005818E-01  0.00000000000E+00 0. -1.
  9000001    1    1    2    0    0 -0.64330959708E-02  0.10529185496E-01 -0.33539306998E-01  0.35750994182E-01  0.10000000475E-02 0.  1.
</event>
<event>
 4   0  0.4809415E-02  0.9118800E+02  0.7818609E-02  0.1379984E+01
      -11   -1    0    0    0    0  0.00000000000E+00  0.00000000000E+00  0.35740347158E-01  0.35744000000E-01  0.51099999109E-03 0. -1.
       11   -1    0    0    0    0 -0.00000000000E+00 -0.00000000000E+00 -0.35740347158E-01  0.35744000000E-01  0.51099999109E-03 0.  1.
       22    1    1    2    0    0  0.44280529653E-02  0.33414472460E-02  0.35303833533E-01  0.35737005818E-01  0.00000000000E+00 0. -1.
  9000001    1    1    2    0    0 -0.44280529653E-02 -0.33414472460E-02 -0.35303833533E-01  0.35750994182E-01  0.10000000475E-02 0.  1.
</event>
<event>
 4   0  0.4809415E-02  0.9118800E+02  0.7818609E-02  0.1379984E+01
      -11   -1    0    0    0    0  0.00000000000E+00  0.00000000000E+00  0.35740347158E-01  0.35744000000E-01  0.51099999109E-03 0. -1.
       11   -1    0    0    0    0 -0.00000000000E+00 -0.00000000000E+00 -0.35740347158E-01  0.35744000000E-01  0.51099999109E-03 0.  1.
       22    1    1    2    0    0  0.28618473762E-01 -0.53443796240E-02  0.20725688187E-01  0.35737005818E-01  0.00000000000E+00 0. -1.
  9000001    1    1    2    0    0 -0.28618473762E-01  0.53443796240E-02 -0.20725688187E-01  0.35750994182E-01  0.10000000475E-02 0.  1.
</event>
<event>
 4   0  0.4809415E-02  0.9118800E+02  0.7818609E-02  0.1379984E+01
      -11   -1    0    0    0    0  0.00000000000E+00  0.00000000000E+00  0.35740347158E-01  0.35744000000E-01  0.51099999109E-03 0. -1.
       11   -1    0    0    0    0 -0.00000000000E+00 -0.00000000000E+00 -0.35740347158E-01  0.35744000000E-01  0.51099999109E-03 0.  1.
       22    1    1    2    0    0  0.29890962690E-02 -0.45671770138E-02 -0.35317697865E-01  0.35737005818E-01  0.00000000000E+00 0.  1.
  9000001    1    1    2    0    0 -0.29890962690E-02  0.45671770138E-02  0.35317697865E-01  0.35750994182E-01  0.10000000475E-02 0. -1.
</event>
<event>
 4   0  0.4809415E-02  0.9118800E+02  0.7818609E-02  0.1379984E+01
      -11   -1    0    0    0    0  0.00000000000E+00  0.00000000000E+00  0.35740347158E-01  0.35744000000E-01  0.51099999109E-03 0. -1.
       11   -1    0    0    0    0 -0.00000000000E+00 -0.00000000000E+00 -0.35740347158E-01  0.35744000000E-01  0.51099999109E-03 0.  1.
       22    1    1    2    0    0  0.32668751238E-02  0.50373431008E-03 -0.35583807603E-01  0.35737005818E-01  0.00000000000E+00 0.  1.
  9000001    1    1    2    0    0 -0.32668751238E-02 -0.50373431008E-03  0.35583807603E-01  0.35750994182E-01  0.10000000475E-02 0. -1.
</event>
<event>
 4   0  0.4809415E-02  0.9118800E+02  0.7818609E-02  0.1379984E+01
      -11   -1    0    0    0    0  0.00000000000E+00  0.00000000000E+00  0.35740347158E-01  0.35744000000E-01  0.51099999109E-03 0.  1.
       11   -1    0    0    0    0 -0.00000000000E+00 -0.00000000000E+00 -0.35740347158E-01  0.35744000000E-01  0.51099999109E-03 0. -1.
       22    1    1    2    0    0  0.12451792602E-01 -0.56718744122E-02  0.33013880210E-01  0.35737005818E-01  0.00000000000E+00 0.  1.
  9000001    1    1    2    0    0 -0.12451792602E-01  0.56718744122E-02 -0.33013880210E-01  0.35750994182E-01  0.10000000475E-02 0. -1.
</event>
<event>
 4   0  0.4809415E-02  0.9118800E+02  0.7818609E-02  0.1379984E+01
      -11   -1    0    0    0    0  0.00000000000E+00  0.00000000000E+00  0.35740347158E-01  0.35744000000E-01  0.51099999109E-03 0.  1.
       11   -1    0    0    0    0 -0.00000000000E+00 -0.00000000000E+00 -0.35740347158E-01  0.35744000000E-01  0.51099999109E-03 0. -1.
       22    1    1    2    0    0  0.99562197055E-02 -0.31294886351E-01 -0.14093876766E-01  0.35737005818E-01  0.00000000000E+00 0. -1.
  9000001    1    1    2    0    0 -0.99562197055E-02  0.31294886351E-01  0.14093876766E-01  0.35750994182E-01  0.10000000475E-02 0.  1.
</event>
<event>
 4   0  0.4809415E-02  0.9118800E+02  0.7818609E-02  0.1379984E+01
      -11   -1    0    0    0    0  0.00000000000E+00  0.00000000000E+00  0.35740347158E-01  0.35744000000E-01  0.51099999109E-03 0.  1.
       11   -1    0    0    0    0 -0.00000000000E+00 -0.00000000000E+00 -0.35740347158E-01  0.35744000000E-01  0.51099999109E-03 0. -1.
       22    1    1    2    0    0 -0.47736664309E-02  0.12572101304E-01  0.33110239541E-01  0.35737005818E-01  0.00000000000E+00 0.  1.
  9000001    1    1    2    0    0  0.47736664309E-02 -0.12572101304E-01 -0.33110239541E-01  0.35750994182E-01  0.10000000475E-02 0. -1.
</event>
<event>
 4   0  0.4809415E-02  0.9118800E+02  0.7818609E-02  0.1379984E+01
      -11   -1    0    0    0    0  0.00000000000E+00  0.00000000000E+00  0.35740347158E-01  0.35744000000E-01  0.51099999109E-03 0. -1.
       11   -1    0    0    0    0 -0.00000000000E+00 -0.00000000000E+00 -0.35740347158E-01  0.35744000000E-01  0.51099999109E-03 0.  1.
       22    1    1    2    0    0  0.22190879462E-01 -0.97317559852E-02  0.26267686975E-01  0.35737005818E-01  0.00000000000E+00 0. -1.
  9000001    1    1    2    0    0 -0.22190879462E-01  0.97317559852E-02 -0.26267686975E-01  0.35750994182E-01  0.10000000475E-02 0.  1.
</event>
<event>
 4   0  0.4809415E-02  0.9118800E+02  0.7818609E-02  0.1379984E+01
      -11   -1    0    0    0    0  0.00000000000E+00  0.00000000000E+00  0.35740347158E-01  0.35744000000E-01  0.51099999109E-03 0.  1.
       11   -1    0    0    0    0 -0.00000000000E+00 -0.00000000000E+00 -0.35740347158E-01  0.35744000000E-01  0.51099999109E-03 0. -1.
       22    1    1    2    0    0  0.19034165256E-01  0.13406838229E-01  0.27112558466E-01  0.35737005818E-01  0.00000000000E+00 0.  1.
  9000001    1    1    2    0    0 -0.19034165256E-01 -0.13406838229E-01 -0.27112558466E-01  0.35750994182E-01  0.10000000475E-02 0. -1.
</event>
<event>
 4   0  0.4809415E-02  0.9118800E+02  0.7818609E-02  0.1379984E+01
      -11   -1    0    0    0    0  0.00000000000E+00  0.00000000000E+00  0.35740347158E-01  0.35744000000E-01  0.51099999109E-03 0. -1.
       11   -1    0    0    0    0 -0.00000000000E+00 -0.00000000000E+00 -0.35740347158E-01  0.35744000000E-01  0.51099999109E-03 0.  1.
       22    1    1    2    0    0  0.39943818792E-02 -0.69163879935E-03 -0.35506339350E-01  0.35737005818E-01  0.00000000000E+00 0.  1.
  9000001    1    1    2    0    0 -0.39943818792E-02  0.69163879935E-03  0.35506339350E-01  0.35750994182E-01  0.10000000475E-02 0. -1.
</event>
<event>
 4   0  0.4809415E-02  0.9118800E+02  0.7818609E-02  0.1379984E+01
      -11   -1    0    0    0    0  0.00000000000E+00  0.00000000000E+00  0.35740347158E-01  0.35744000000E-01  0.51099999109E-03 0. -1.
       11   -1    0    0    0    0 -0.00000000000E+00 -0.00000000000E+00 -0.35740347158E-01  0.35744000000E-01  0.51099999109E-03 0.  1.
       22    1    1    2    0    0 -0.24008536681E-01 -0.40961601176E-03  0.26468017795E-01  0.35737005818E-01  0.00000000000E+00 0. -1.
  9000001    1    1    2    0    0  0.24008536681E-01  0.40961601176E-03 -0.26468017795E-01  0.35750994182E-01  0.10000000475E-02 0.  1.
</event>
<event>
 4   0  0.4809415E-02  0.9118800E+02  0.7818609E-02  0.1379984E+01
      -11   -1    0    0    0    0  0.00000000000E+00  0.00000000000E+00  0.35740347158E-01  0.35744000000E-01  0.51099999109E-03 0.  1.
       11   -1    0    0    0    0 -0.00000000000E+00 -0.00000000000E+00 -0.35740347158E-01  0.35744000000E-01  0.51099999109E-03 0. -1.
       22    1    1    2    0    0 -0.18439101366E-01  0.29405932479E-01  0.85102444577E-02  0.35737005818E-01  0.00000000000E+00 0. -1.
  9000001    1    1    2    0    0  0.18439101366E-01 -0.29405932479E-01 -0.85102444577E-02  0.35750994182E-01  0.10000000475E-02 0.  1.
</event>
<event>
 4   0  0.4809415E-02  0.9118800E+02  0.7818609E-02  0.1379984E+01
      -11   -1    0    0    0    0  0.00000000000E+00  0.00000000000E+00  0.35740347158E-01  0.35744000000E-01  0.51099999109E-03 0. -1.
       11   -1    0    0    0    0 -0.00000000000E+00 -0.00000000000E+00 -0.35740347158E-01  0.35744000000E-01  0.51099999109E-03 0.  1.
       22    1    1    2    0    0  0.16756828932E-02  0.41446762765E-02 -0.35456273497E-01  0.35737005818E-01  0.00000000000E+00 0.  1.
  9000001    1    1    2    0    0 -0.16756828932E-02 -0.41446762765E-02  0.35456273497E-01  0.35750994182E-01  0.10000000475E-02 0. -1.
</event>
<event>
 4   0  0.4809415E-02  0.9118800E+02  0.7818609E-02  0.1379984E+01
      -11   -1    0    0    0    0  0.00000000000E+00  0.00000000000E+00  0.35740347158E-01  0.35744000000E-01  0.51099999109E-03 0.  1.
       11   -1    0    0    0    0 -0.00000000000E+00 -0.00000000000E+00 -0.35740347158E-01  0.35744000000E-01  0.51099999109E-03 0. -1.
       22    1    1    2    0    0  0.23386328708E-02  0.36548880789E-02 -0.35472611608E-01  0.35737005818E-01  0.00000000000E+00 0. -1.
  9000001    1    1    2    0    0 -0.23386328708E-02 -0.36548880789E-02  0.35472611608E-01  0.35750994182E-01  0.10000000475E-02 0.  1.
</event>
<event>
 4   0  0.4809415E-02  0.9118800E+02  0.7818609E-02  0.1379984E+01
      -11   -1    0    0    0    0  0.00000000000E+00  0.00000000000E+00  0.35740347158E-01  0.35744000000E-01  0.51099999109E-03 0. -1.
       11   -1    0    0    0    0 -0.00000000000E+00 -0.00000000000E+00 -0.35740347158E-01  0.35744000000E-01  0.51099999109E-03 0.  1.
       22    1    1    2    0    0 -0.70234656441E-02  0.10731085792E-01 -0.33356383391E-01  0.35737005818E-01  0.00000000000E+00 0.  1.
  9000001    1    1    2    0    0  0.70234656441E-02 -0.10731085792E-01  0.33356383391E-01  0.35750994182E-01  0.10000000475E-02 0. -1.
</event>
<event>
 4   0  0.4809415E-02  0.9118800E+02  0.7818609E-02  0.1379984E+01
      -11   -1    0    0    0    0  0.00000000000E+00  0.00000000000E+00  0.35740347158E-01  0.35744000000E-01  0.51099999109E-03 0.  1.
       11   -1    0    0    0    0 -0.00000000000E+00 -0.00000000000E+00 -0.35740347158E-01  0.35744000000E-01  0.51099999109E-03 0. -1.
       22    1    1    2    0    0 -0.14803886210E-03  0.57672049083E-02  0.35268272100E-01  0.35737005818E-01  0.00000000000E+00 0.  1.
  9000001    1    1    2    0    0  0.14803886210E-03 -0.57672049083E-02 -0.35268272100E-01  0.35750994182E-01  0.10000000475E-02 0. -1.
</event>
<event>
 4   0  0.4809415E-02  0.9118800E+02  0.7818609E-02  0.1379984E+01
      -11   -1    0    0    0    0  0.00000000000E+00  0.00000000000E+00  0.35740347158E-01  0.35744000000E-01  0.51099999109E-03 0. -1.
       11   -1    0    0    0    0 -0.00000000000E+00 -0.00000000000E+00 -0.35740347158E-01  0.35744000000E-01  0.51099999109E-03 0.  1.
       22    1    1    2    0    0 -0.25102575200E-02  0.37765726742E-02 -0.35448126761E-01  0.35737005818E-01  0.00000000000E+00 0.  1.
  9000001    1    1    2    0    0  0.25102575200E-02 -0.37765726742E-02  0.35448126761E-01  0.35750994182E-01  0.10000000475E-02 0. -1.
</event>
<event>
 4   0  0.4809415E-02  0.9118800E+02  0.7818609E-02  0.1379984E+01
      -11   -1    0    0    0    0  0.00000000000E+00  0.00000000000E+00  0.35740347158E-01  0.35744000000E-01  0.51099999109E-03 0. -1.
       11   -1    0    0    0    0 -0.00000000000E+00 -0.00000000000E+00 -0.35740347158E-01  0.35744000000E-01  0.51099999109E-03 0.  1.
       22    1    1    2    0    0  0.34976289332E-01  0.41666365048E-02  0.60358851613E-02  0.35737005818E-01  0.00000000000E+00 0.  1.
  9000001    1    1    2    0    0 -0.34976289332E-01 -0.41666365048E-02 -0.60358851613E-02  0.35750994182E-01  0.10000000475E-02 0. -1.
</event>
<event>
 4   0  0.4809415E-02  0.9118800E+02  0.7818609E-02  0.1379984E+01
      -11   -1    0    0    0    0  0.00000000000E+00  0.00000000000E+00  0.35740347158E-01  0.35744000000E-01  0.51099999109E-03 0. -1.
       11   -1    0    0    0    0 -0.00000000000E+00 -0.00000000000E+00 -0.35740347158E-01  0.35744000000E-01  0.51099999109E-03 0.  1.
       22    1    1    2    0    0 -0.95793225533E-04 -0.14026184964E-01 -0.32869294849E-01  0.35737005818E-01  0.00000000000E+00 0.  1.
  9000001    1    1    2    0    0  0.95793225533E-04  0.14026184964E-01  0.32869294849E-01  0.35750994182E-01  0.10000000475E-02 0. -1.
</event>
<event>
 4   0  0.4809415E-02  0.9118800E+02  0.7818609E-02  0.1379984E+01
      -11   -1    0    0    0    0  0.00000000000E+00  0.00000000000E+00  0.35740347158E-01  0.35744000000E-01  0.51099999109E-03 0. -1.
       11   -1    0    0    0    0 -0.00000000000E+00 -0.00000000000E+00 -0.35740347158E-01  0.35744000000E-01  0.51099999109E-03 0.  1.
       22    1    1    2    0    0 -0.38110438332E-02  0.67206748663E-02 -0.34891862362E-01  0.35737005818E-01  0.00000000000E+00 0.  1.
  9000001    1    1    2    0    0  0.38110438332E-02 -0.67206748663E-02  0.34891862362E-01  0.35750994182E-01  0.10000000475E-02 0. -1.
</event>
<event>
 4   0  0.4809415E-02  0.9118800E+02  0.7818609E-02  0.1379984E+01
      -11   -1    0    0    0    0  0.00000000000E+00  0.00000000000E+00  0.35740347158E-01  0.35744000000E-01  0.51099999109E-03 0. -1.
       11   -1    0    0    0    0 -0.00000000000E+00 -0.00000000000E+00 -0.35740347158E-01  0.35744000000E-01  0.51099999109E-03 0.  1.
       22    1    1    2    0    0 -0.22145036968E-03 -0.13081067981E-01 -0.33256130338E-01  0.35737005818E-01  0.00000000000E+00 0.  1.
  9000001    1    1    2    0    0  0.22145036968E-03  0.13081067981E-01  0.33256130338E-01  0.35750994182E-01  0.10000000475E-02 0. -1.
</event>
<event>
 4   0  0.4809415E-02  0.9118800E+02  0.7818609E-02  0.1379984E+01
      -11   -1    0    0    0    0  0.00000000000E+00  0.00000000000E+00  0.35740347158E-01  0.35744000000E-01  0.51099999109E-03 0.  1.
       11   -1    0    0    0    0 -0.00000000000E+00 -0.00000000000E+00 -0.35740347158E-01  0.35744000000E-01  0.51099999109E-03 0. -1.
       22    1    1    2    0    0 -0.35394079956E-01 -0.48774585928E-02 -0.77658651011E-03  0.35737005818E-01  0.00000000000E+00 0. -1.
  9000001    1    1    2    0    0  0.35394079956E-01  0.48774585928E-02  0.77658651011E-03  0.35750994182E-01  0.10000000475E-02 0.  1.
</event>
<event>
 4   0  0.4809415E-02  0.9118800E+02  0.7818609E-02  0.1379984E+01
      -11   -1    0    0    0    0  0.00000000000E+00  0.00000000000E+00  0.35740347158E-01  0.35744000000E-01  0.51099999109E-03 0. -1.
       11   -1    0    0    0    0 -0.00000000000E+00 -0.00000000000E+00 -0.35740347158E-01  0.35744000000E-01  0.51099999109E-03 0.  1.
       22    1    1    2    0    0  0.18479245100E-01  0.77330418002E-02 -0.29594782478E-01  0.35737005818E-01  0.00000000000E+00 0.  1.
  9000001    1    1    2    0    0 -0.18479245100E-01 -0.77330418002E-02  0.29594782478E-01  0.35750994182E-01  0.10000000475E-02 0. -1.
</event>
<event>
 4   0  0.4809415E-02  0.9118800E+02  0.7818609E-02  0.1379984E+01
      -11   -1    0    0    0    0  0.00000000000E+00  0.00000000000E+00  0.35740347158E-01  0.35744000000E-01  0.51099999109E-03 0.  1.
       11   -1    0    0    0    0 -0.00000000000E+00 -0.00000000000E+00 -0.35740347158E-01  0.35744000000E-01  0.51099999109E-03 0. -1.
       22    1    1    2    0    0  0.36376160374E-02  0.20124277288E-02  0.35494386445E-01  0.35737005818E-01  0.00000000000E+00 0.  1.
  9000001    1    1    2    0    0 -0.36376160374E-02 -0.20124277288E-02 -0.35494386445E-01  0.35750994182E-01  0.10000000475E-02 0. -1.
</event>
<event>
 4   0  0.4809415E-02  0.9118800E+02  0.7818609E-02  0.1379984E+01
      -11   -1    0    0    0    0  0.00000000000E+00  0.00000000000E+00  0.35740347158E-01  0.35744000000E-01  0.51099999109E-03 0.  1.
       11   -1    0    0    0    0 -0.00000000000E+00 -0.00000000000E+00 -0.35740347158E-01  0.35744000000E-01  0.51099999109E-03 0. -1.
       22    1    1    2    0    0  0.19155600834E-01  0.16816146632E-01 -0.25048228560E-01  0.35737005818E-01  0.00000000000E+00 0. -1.
  9000001    1    1    2    0    0 -0.19155600834E-01 -0.16816146632E-01  0.25048228560E-01  0.35750994182E-01  0.10000000475E-02 0.  1.
</event>
<event>
 4   0  0.4809415E-02  0.9118800E+02  0.7818609E-02  0.1379984E+01
      -11   -1    0    0    0    0  0.00000000000E+00  0.00000000000E+00  0.35740347158E-01  0.35744000000E-01  0.51099999109E-03 0. -1.
       11   -1    0    0    0    0 -0.00000000000E+00 -0.00000000000E+00 -0.35740347158E-01  0.35744000000E-01  0.51099999109E-03 0.  1.
       22    1    1    2    0    0  0.15564882131E-01  0.32811390835E-02 -0.32001596139E-01  0.35737005818E-01  0.00000000000E+00 0.  1.
  9000001    1    1    2    0    0 -0.15564882131E-01 -0.32811390835E-02  0.32001596139E-01  0.35750994182E-01  0.10000000475E-02 0. -1.
</event>
<event>
 4   0  0.4809415E-02  0.9118800E+02  0.7818609E-02  0.1379984E+01
      -11   -1    0    0    0    0  0.00000000000E+00  0.00000000000E+00  0.35740347158E-01  0.35744000000E-01  0.51099999109E-03 0.  1.
       11   -1    0    0    0    0 -0.00000000000E+00 -0.00000000000E+00 -0.35740347158E-01  0.35744000000E-01  0.51099999109E-03 0. -1.
       22    1    1    2    0    0  0.14173892923E-01 -0.14869575987E-01 -0.29242606830E-01  0.35737005818E-01  0.00000000000E+00 0. -1.
  9000001    1    1    2    0    0 -0.14173892923E-01  0.14869575987E-01  0.29242606830E-01  0.35750994182E-01  0.10000000475E-02 0.  1.
</event>
<event>
 4   0  0.4809415E-02  0.9118800E+02  0.7818609E-02  0.1379984E+01
      -11   -1    0    0    0    0  0.00000000000E+00  0.00000000000E+00  0.35740347158E-01  0.35744000000E-01  0.51099999109E-03 0. -1.
       11   -1    0    0    0    0 -0.00000000000E+00 -0.00000000000E+00 -0.35740347158E-01  0.35744000000E-01  0.51099999109E-03 0.  1.
       22    1    1    2    0    0  0.83626509398E-02  0.48369038836E-02 -0.34406453100E-01  0.35737005818E-01  0.00000000000E+00 0.  1.
  9000001    1    1    2    0    0 -0.83626509398E-02 -0.48369038836E-02  0.34406453100E-01  0.35750994182E-01  0.10000000475E-02 0. -1.
</event>
<event>
 4   0  0.4809415E-02  0.9118800E+02  0.7818609E-02  0.1379984E+01
      -11   -1    0    0    0    0  0.00000000000E+00  0.00000000000E+00  0.35740347158E-01  0.35744000000E-01  0.51099999109E-03 0.  1.
       11   -1    0    0    0    0 -0.00000000000E+00 -0.00000000000E+00 -0.35740347158E-01  0.35744000000E-01  0.51099999109E-03 0. -1.
       22    1    1    2    0    0 -0.29273249763E-02  0.22448794708E-02 -0.35546094997E-01  0.35737005818E-01  0.00000000000E+00 0. -1.
  9000001    1    1    2    0    0  0.29273249763E-02 -0.22448794708E-02  0.35546094997E-01  0.35750994182E-01  0.10000000475E-02 0.  1.
</event>
<event>
 4   0  0.4809415E-02  0.9118800E+02  0.7818609E-02  0.1379984E+01
      -11   -1    0    0    0    0  0.00000000000E+00  0.00000000000E+00  0.35740347158E-01  0.35744000000E-01  0.51099999109E-03 0.  1.
       11   -1    0    0    0    0 -0.00000000000E+00 -0.00000000000E+00 -0.35740347158E-01  0.35744000000E-01  0.51099999109E-03 0. -1.
       22    1    1    2    0    0  0.35683007735E-03 -0.82492694754E-02 -0.34770041851E-01  0.35737005818E-01  0.00000000000E+00 0. -1.
  9000001    1    1    2    0    0 -0.35683007735E-03  0.82492694754E-02  0.34770041851E-01  0.35750994182E-01  0.10000000475E-02 0.  1.
</event>
<event>
 4   0  0.4809415E-02  0.9118800E+02  0.7818609E-02  0.1379984E+01
      -11   -1    0    0    0    0  0.00000000000E+00  0.00000000000E+00  0.35740347158E-01  0.35744000000E-01  0.51099999109E-03 0. -1.
       11   -1    0    0    0    0 -0.00000000000E+00 -0.00000000000E+00 -0.35740347158E-01  0.35744000000E-01  0.51099999109E-03 0.  1.
       22    1    1    2    0    0  0.67222708604E-03  0.31003355482E-01  0.17761577759E-01  0.35737005818E-01  0.00000000000E+00 0. -1.
  9000001    1    1    2    0    0 -0.67222708604E-03 -0.31003355482E-01 -0.17761577759E-01  0.35750994182E-01  0.10000000475E-02 0.  1.
</event>
<event>
 4   0  0.4809415E-02  0.9118800E+02  0.7818609E-02  0.1379984E+01
      -11   -1    0    0    0    0  0.00000000000E+00  0.00000000000E+00  0.35740347158E-01  0.35744000000E-01  0.51099999109E-03 0.  1.
       11   -1    0    0    0    0 -0.00000000000E+00 -0.00000000000E+00 -0.35740347158E-01  0.35744000000E-01  0.51099999109E-03 0. -1.
       22    1    1    2    0    0 -0.14285122139E-01 -0.15562310077E-01 -0.28825047708E-01  0.35737005818E-01  0.00000000000E+00 0. -1.
  9000001    1    1    2    0    0  0.14285122139E-01  0.15562310077E-01  0.28825047708E-01  0.35750994182E-01  0.10000000475E-02 0.  1.
</event>
<event>
 4   0  0.4809415E-02  0.9118800E+02  0.7818609E-02  0.1379984E+01
      -11   -1    0    0    0    0  0.00000000000E+00  0.00000000000E+00  0.35740347158E-01  0.35744000000E-01  0.51099999109E-03 0. -1.
       11   -1    0    0    0    0 -0.00000000000E+00 -0.00000000000E+00 -0.35740347158E-01  0.35744000000E-01  0.51099999109E-03 0.  1.
       22    1    1    2    0    0 -0.47067186794E-02 -0.17012931257E-02  0.35384827057E-01  0.35737005818E-01  0.00000000000E+00 0. -1.
  9000001    1    1    2    0    0  0.47067186794E-02  0.17012931257E-02 -0.35384827057E-01  0.35750994182E-01  0.10000000475E-02 0.  1.
</event>
<event>
 4   0  0.4809415E-02  0.9118800E+02  0.7818609E-02  0.1379984E+01
      -11   -1    0    0    0    0  0.00000000000E+00  0.00000000000E+00  0.35740347158E-01  0.35744000000E-01  0.51099999109E-03 0. -1.
       11   -1    0    0    0    0 -0.00000000000E+00 -0.00000000000E+00 -0.35740347158E-01  0.35744000000E-01  0.51099999109E-03 0.  1.
       22    1    1    2    0    0 -0.12315966583E-02  0.70041673328E-02 -0.35022255703E-01  0.35737005818E-01  0.00000000000E+00 0.  1.
  9000001    1    1    2    0    0  0.12315966583E-02 -0.70041673328E-02  0.35022255703E-01  0.35750994182E-01  0.10000000475E-02 0. -1.
</event>
<event>
 4   0  0.4809415E-02  0.9118800E+02  0.7818609E-02  0.1379984E+01
      -11   -1    0    0    0    0  0.00000000000E+00  0.00000000000E+00  0.35740347158E-01  0.35744000000E-01  0.51099999109E-03 0.  1.
       11   -1    0    0    0    0 -0.00000000000E+00 -0.00000000000E+00 -0.35740347158E-01  0.35744000000E-01  0.51099999109E-03 0. -1.
       22    1    1    2    0    0  0.18566417304E-02 -0.32400633700E-02  0.35541362604E-01  0.35737005818E-01  0.00000000000E+00 0.  1.
  9000001    1    1    2    0    0 -0.18566417304E-02  0.32400633700E-02 -0.35541362604E-01  0.35750994182E-01  0.10000000475E-02 0. -1.
</event>
<event>
 4   0  0.4809415E-02  0.9118800E+02  0.7818609E-02  0.1379984E+01
      -11   -1    0    0    0    0  0.00000000000E+00  0.00000000000E+00  0.35740347158E-01  0.35744000000E-01  0.51099999109E-03 0.  1.
       11   -1    0    0    0    0 -0.00000000000E+00 -0.00000000000E+00 -0.35740347158E-01  0.35744000000E-01  0.51099999109E-03 0. -1.
       22    1    1    2    0    0 -0.39906314548E-02 -0.11259887651E-01  0.33681202109E-01  0.35737005818E-01  0.00000000000E+00 0.  1.
  9000001    1    1    2    0    0  0.39906314548E-02  0.11259887651E-01 -0.33681202109E-01  0.35750994182E-01  0.10000000475E-02 0. -1.
</event>
<event>
 4   0  0.4809415E-02  0.9118800E+02  0.7818609E-02  0.1379984E+01
      -11   -1    0    0    0    0  0.00000000000E+00  0.00000000000E+00  0.35740347158E-01  0.35744000000E-01  0.51099999109E-03 0.  1.
       11   -1    0    0    0    0 -0.00000000000E+00 -0.00000000000E+00 -0.35740347158E-01  0.35744000000E-01  0.51099999109E-03 0. -1.
       22    1    1    2    0    0 -0.27757219161E-02 -0.13863307991E-02  0.35602065103E-01  0.35737005818E-01  0.00000000000E+00 0.  1.
  9000001    1    1    2    0    0  0.27757219161E-02  0.13863307991E-02 -0.35602065103E-01  0.35750994182E-01  0.10000000475E-02 0. -1.
</event>
<event>
 4   0  0.4809415E-02  0.9118800E+02  0.7818609E-02  0.1379984E+01
      -11   -1    0    0    0    0  0.00000000000E+00  0.00000000000E+00  0.35740347158E-01  0.35744000000E-01  0.51099999109E-03 0.  1.
       11   -1    0    0    0    0 -0.00000000000E+00 -0.00000000000E+00 -0.35740347158E-01  0.35744000000E-01  0.51099999109E-03 0. -1.
       22    1    1    2    0    0  0.33556303630E-01 -0.64857475901E-02  0.10442372802E-01  0.35737005818E-01  0.00000000000E+00 0.  1.
  9000001    1    1    2    0    0 -0.33556303630E-01  0.64857475901E-02 -0.10442372802E-01  0.35750994182E-01  0.10000000475E-02 0. -1.
</event>
<event>
 4   0  0.4809415E-02  0.9118800E+02  0.7818609E-02  0.1379984E+01
      -11   -1    0    0    0    0  0.00000000000E+00  0.00000000000E+00  0.35740347158E-01  0.35744000000E-01  0.51099999109E-03 0. -1.
       11   -1    0    0    0    0 -0.00000000000E+00 -0.00000000000E+00 -0.35740347158E-01  0.35744000000E-01  0.51099999109E-03 0.  1.
       22    1    1    2    0    0  0.88248193681E-03  0.46312981296E-02  0.35424650854E-01  0.35737005818E-01  0.00000000000E+00 0. -1.
  9000001    1    1    2    0    0 -0.88248193681E-03 -0.46312981296E-02 -0.35424650854E-01  0.35750994182E-01  0.10000000475E-02 0.  1.
</event>
<event>
 4   0  0.4809415E-02  0.9118800E+02  0.7818609E-02  0.1379984E+01
      -11   -1    0    0    0    0  0.00000000000E+00  0.00000000000E+00  0.35740347158E-01  0.35744000000E-01  0.51099999109E-03 0.  1.
       11   -1    0    0    0    0 -0.00000000000E+00 -0.00000000000E+00 -0.35740347158E-01  0.35744000000E-01  0.51099999109E-03 0. -1.
       22    1    1    2    0    0  0.29912040341E-01  0.19063804948E-01 -0.43560037195E-02  0.35737005818E-01  0.00000000000E+00 0. -1.
  9000001    1    1    2    0    0 -0.29912040341E-01 -0.19063804948E-01  0.43560037195E-02  0.35750994182E-01  0.10000000475E-02 0.  1.
</event>
<event>
 4   0  0.4809415E-02  0.9118800E+02  0.7818609E-02  0.1379984E+01
      -11   -1    0    0    0    0  0.00000000000E+00  0.00000000000E+00  0.35740347158E-01  0.35744000000E-01  0.51099999109E-03 0.  1.
       11   -1    0    0    0    0 -0.00000000000E+00 -0.00000000000E+00 -0.35740347158E-01  0.35744000000E-01  0.51099999109E-03 0. -1.
       22    1    1    2    0    0  0.87092062974E-02  0.34287689706E-03 -0.34657838161E-01  0.35737005818E-01  0.00000000000E+00 0. -1.
  9000001    1    1    2    0    0 -0.87092062974E-02 -0.34287689706E-03  0.34657838161E-01  0.35750994182E-01  0.10000000475E-02 0.  1.
</event>
<event>
 4   0  0.4809415E-02  0.9118800E+02  0.7818609E-02  0.1379984E+01
      -11   -1    0    0    0    0  0.00000000000E+00  0.00000000000E+00  0.35740347158E-01  0.35744000000E-01  0.51099999109E-03 0.  1.
       11   -1    0    0    0    0 -0.00000000000E+00 -0.00000000000E+00 -0.35740347158E-01  0.35744000000E-01  0.51099999109E-03 0. -1.
       22    1    1    2    0    0 -0.26012732313E-02  0.21334299651E-01 -0.28551963520E-01  0.35737005818E-01  0.00000000000E+00 0. -1.
  9000001    1    1    2    0    0  0.26012732313E-02 -0.21334299651E-01  0.28551963520E-01  0.35750994182E-01  0.10000000475E-02 0.  1.
</event>
<event>
 4   0  0.4809415E-02  0.9118800E+02  0.7818609E-02  0.1379984E+01
      -11   -1    0    0    0    0  0.00000000000E+00  0.00000000000E+00  0.35740347158E-01  0.35744000000E-01  0.51099999109E-03 0. -1.
       11   -1    0    0    0    0 -0.00000000000E+00 -0.00000000000E+00 -0.35740347158E-01  0.35744000000E-01  0.51099999109E-03 0.  1.
       22    1    1    2    0    0  0.12083787885E-01 -0.16451682518E-01  0.29333560942E-01  0.35737005818E-01  0.00000000000E+00 0. -1.
  9000001    1    1    2    0    0 -0.12083787885E-01  0.16451682518E-01 -0.29333560942E-01  0.35750994182E-01  0.10000000475E-02 0.  1.
</event>
<event>
 4   0  0.4809415E-02  0.9118800E+02  0.7818609E-02  0.1379984E+01
      -11   -1    0    0    0    0  0.00000000000E+00  0.00000000000E+00  0.35740347158E-01  0.35744000000E-01  0.51099999109E-03 0.  1.
       11   -1    0    0    0    0 -0.00000000000E+00 -0.00000000000E+00 -0.35740347158E-01  0.35744000000E-01  0.51099999109E-03 0. -1.
       22    1    1    2    0    0 -0.16842822848E-01 -0.20272431953E-01  0.24134651563E-01  0.35737005818E-01  0.00000000000E+00 0.  1.
  9000001    1    1    2    0    0  0.16842822848E-01  0.20272431953E-01 -0.24134651563E-01  0.35750994182E-01  0.10000000475E-02 0. -1.
</event>
<event>
 4   0  0.4809415E-02  0.9118800E+02  0.7818609E-02  0.1379984E+01
      -11   -1    0    0    0    0  0.00000000000E+00  0.00000000000E+00  0.35740347158E-01  0.35744000000E-01  0.51099999109E-03 0. -1.
       11   -1    0    0    0    0 -0.00000000000E+00 -0.00000000000E+00 -0.35740347158E-01  0.35744000000E-01  0.51099999109E-03 0.  1.
       22    1    1    2    0    0  0.16043639910E-01  0.25135877214E-01  0.19695757919E-01  0.35737005818E-01  0.00000000000E+00 0. -1.
  9000001    1    1    2    0    0 -0.16043639910E-01 -0.25135877214E-01 -0.19695757919E-01  0.35750994182E-01  0.10000000475E-02 0.  1.
</event>
<event>
 4   0  0.4809415E-02  0.9118800E+02  0.7818609E-02  0.1379984E+01
      -11   -1    0    0    0    0  0.00000000000E+00  0.00000000000E+00  0.35740347158E-01  0.35744000000E-01  0.51099999109E-03 0. -1.
       11   -1    0    0    0    0 -0.00000000000E+00 -0.00000000000E+00 -0.35740347158E-01  0.35744000000E-01  0.51099999109E-03 0.  1.
       22    1    1    2    0    0 -0.12796254735E-01 -0.47836610791E-02  0.33022810848E-01  0.35737005818E-01  0.00000000000E+00 0. -1.
  9000001    1    1    2    0    0  0.12796254735E-01  0.47836610791E-02 -0.33022810848E-01  0.35750994182E-01  0.10000000475E-02 0.  1.
</event>
<event>
 4   0  0.4809415E-02  0.9118800E+02  0.7818609E-02  0.1379984E+01
      -11   -1    0    0    0    0  0.00000000000E+00  0.00000000000E+00  0.35740347158E-01  0.35744000000E-01  0.51099999109E-03 0. -1.
       11   -1    0    0    0    0 -0.00000000000E+00 -0.00000000000E+00 -0.35740347158E-01  0.35744000000E-01  0.51099999109E-03 0.  1.
       22    1    1    2    0    0 -0.38682865537E-02  0.31134576648E-02  0.35390342261E-01  0.35737005818E-01  0.00000000000E+00 0. -1.
  9000001    1    1    2    0    0  0.38682865537E-02 -0.31134576648E-02 -0.35390342261E-01  0.35750994182E-01  0.10000000475E-02 0.  1.
</event>
<event>
 4   0  0.4809415E-02  0.9118800E+02  0.7818609E-02  0.1379984E+01
      -11   -1    0    0    0    0  0.00000000000E+00  0.00000000000E+00  0.35740347158E-01  0.35744000000E-01  0.51099999109E-03 0.  1.
       11   -1    0    0    0    0 -0.00000000000E+00 -0.00000000000E+00 -0.35740347158E-01  0.35744000000E-01  0.51099999109E-03 0. -1.
       22    1    1    2    0    0  0.20432682176E-02 -0.35525483777E-02 -0.35501239977E-01  0.35737005818E-01  0.00000000000E+00 0. -1.
  9000001    1    1    2    0    0 -0.20432682176E-02  0.35525483777E-02  0.35501239977E-01  0.35750994182E-01  0.10000000475E-02 0.  1.
</event>
<event>
 4   0  0.4809415E-02  0.9118800E+02  0.7818609E-02  0.1379984E+01
      -11   -1    0    0    0    0  0.00000000000E+00  0.00000000000E+00  0.35740347158E-01  0.35744000000E-01  0.51099999109E-03 0.  1.
       11   -1    0    0    0    0 -0.00000000000E+00 -0.00000000000E+00 -0.35740347158E-01  0.35744000000E-01  0.51099999109E-03 0. -1.
       22    1    1    2    0    0 -0.37345297147E-02  0.35958364827E-02  0.35358971035E-01  0.35737005818E-01  0.00000000000E+00 0.  1.
  9000001    1    1    2    0    0  0.37345297147E-02 -0.35958364827E-02 -0.35358971035E-01  0.35750994182E-01  0.10000000475E-02 0. -1.
</event>
<event>
 4   0  0.4809415E-02  0.9118800E+02  0.7818609E-02  0.1379984E+01
      -11   -1    0    0    0    0  0.00000000000E+00  0.00000000000E+00  0.35740347158E-01  0.35744000000E-01  0.51099999109E-03 0.  1.
       11   -1    0    0    0    0 -0.00000000000E+00 -0.00000000000E+00 -0.35740347158E-01  0.35744000000E-01  0.51099999109E-03 0. -1.
       22    1    1    2    0    0  0.10789538938E-02  0.33375487007E-01  0.12729741177E-01  0.35737005818E-01  0.00000000000E+00 0. -1.
  9000001    1    1    2    0    0 -0.10789538938E-02 -0.33375487007E-01 -0.12729741177E-01  0.35750994182E-01  0.10000000475E-02 0.  1.
</event>
<event>
 4   0  0.4809415E-02  0.9118800E+02  0.7818609E-02  0.1379984E+01
      -11   -1    0    0    0    0  0.00000000000E+00  0.00000000000E+00  0.35740347158E-01  0.35744000000E-01  0.51099999109E-03 0. -1.
       11   -1    0    0    0    0 -0.00000000000E+00 -0.00000000000E+00 -0.35740347158E-01  0.35744000000E-01  0.51099999109E-03 0.  1.
       22    1    1    2    0    0 -0.22816506559E-02  0.77995949016E-02 -0.34800775487E-01  0.35737005818E-01  0.00000000000E+00 0.  1.
  9000001    1    1    2    0    0  0.22816506559E-02 -0.77995949016E-02  0.34800775487E-01  0.35750994182E-01  0.10000000475E-02 0. -1.
</event>
<event>
 4   0  0.4809415E-02  0.9118800E+02  0.7818609E-02  0.1379984E+01
      -11   -1    0    0    0    0  0.00000000000E+00  0.00000000000E+00  0.35740347158E-01  0.35744000000E-01  0.51099999109E-03 0. -1.
       11   -1    0    0    0    0 -0.00000000000E+00 -0.00000000000E+00 -0.35740347158E-01  0.35744000000E-01  0.51099999109E-03 0.  1.
       22    1    1    2    0    0  0.13525849014E-01  0.33694629252E-02 -0.32906408387E-01  0.35737005818E-01  0.00000000000E+00 0.  1.
  9000001    1    1    2    0    0 -0.13525849014E-01 -0.33694629252E-02  0.32906408387E-01  0.35750994182E-01  0.10000000475E-02 0. -1.
</event>
<event>
 4   0  0.4809415E-02  0.9118800E+02  0.7818609E-02  0.1379984E+01
      -11   -1    0    0    0    0  0.00000000000E+00  0.00000000000E+00  0.35740347158E-01  0.35744000000E-01  0.51099999109E-03 0.  1.
       11   -1    0    0    0    0 -0.00000000000E+00 -0.00000000000E+00 -0.35740347158E-01  0.35744000000E-01  0.51099999109E-03 0. -1.
       22    1    1    2    0    0 -0.13221405475E-01  0.32185963400E-01  0.81481152514E-02  0.35737005818E-01  0.00000000000E+00 0.  1.
  9000001    1    1    2    0    0  0.13221405475E-01 -0.32185963400E-01 -0.81481152514E-02  0.35750994182E-01  0.10000000475E-02 0. -1.
</event>
<event>
 4   0  0.4809415E-02  0.9118800E+02  0.7818609E-02  0.1379984E+01
      -11   -1    0    0    0    0  0.00000000000E+00  0.00000000000E+00  0.35740347158E-01  0.35744000000E-01  0.51099999109E-03 0.  1.
       11   -1    0    0    0    0 -0.00000000000E+00 -0.00000000000E+00 -0.35740347158E-01  0.35744000000E-01  0.51099999109E-03 0. -1.
       22    1    1    2    0    0 -0.27843051505E-02 -0.35904975021E-02 -0.35446996451E-01  0.35737005818E-01  0.00000000000E+00 0. -1.
  9000001    1    1    2    0    0  0.27843051505E-02  0.35904975021E-02  0.35446996451E-01  0.35750994182E-01  0.10000000475E-02 0.  1.
</event>
<event>
 4   0  0.4809415E-02  0.9118800E+02  0.7818609E-02  0.1379984E+01
      -11   -1    0    0    0    0  0.00000000000E+00  0.00000000000E+00  0.35740347158E-01  0.35744000000E-01  0.51099999109E-03 0. -1.
       11   -1    0    0    0    0 -0.00000000000E+00 -0.00000000000E+00 -0.35740347158E-01  0.35744000000E-01  0.51099999109E-03 0.  1.
       22    1    1    2    0    0  0.18841400896E-01  0.29860385345E-01 -0.55220090716E-02  0.35737005818E-01  0.00000000000E+00 0.  1.
  9000001    1    1    2    0    0 -0.18841400896E-01 -0.29860385345E-01  0.55220090716E-02  0.35750994182E-01  0.10000000475E-02 0. -1.
</event>
<event>
 4   0  0.4809415E-02  0.9118800E+02  0.7818609E-02  0.1379984E+01
      -11   -1    0    0    0    0  0.00000000000E+00  0.00000000000E+00  0.35740347158E-01  0.35744000000E-01  0.51099999109E-03 0.  1.
       11   -1    0    0    0    0 -0.00000000000E+00 -0.00000000000E+00 -0.35740347158E-01  0.35744000000E-01  0.51099999109E-03 0. -1.
       22    1    1    2    0    0 -0.30183585946E-02 -0.38182144156E-02  0.35404015802E-01  0.35737005818E-01  0.00000000000E+00 0.  1.
  9000001    1    1    2    0    0  0.30183585946E-02  0.38182144156E-02 -0.35404015802E-01  0.35750994182E-01  0.10000000475E-02 0. -1.
</event>
<event>
 4   0  0.4809415E-02  0.9118800E+02  0.7818609E-02  0.1379984E+01
      -11   -1    0    0    0    0  0.00000000000E+00  0.00000000000E+00  0.35740347158E-01  0.35744000000E-01  0.51099999109E-03 0.  1.
       11   -1    0    0    0    0 -0.00000000000E+00 -0.00000000000E+00 -0.35740347158E-01  0.35744000000E-01  0.51099999109E-03 0. -1.
       22    1    1    2    0    0 -0.10333181946E-02  0.30806566903E-02  0.35588978529E-01  0.35737005818E-01  0.00000000000E+00 0.  1.
  9000001    1    1    2    0    0  0.10333181946E-02 -0.30806566903E-02 -0.35588978529E-01  0.35750994182E-01  0.10000000475E-02 0. -1.
</event>
<event>
 4   0  0.4809415E-02  0.9118800E+02  0.7818609E-02  0.1379984E+01
      -11   -1    0    0    0    0  0.00000000000E+00  0.00000000000E+00  0.35740347158E-01  0.35744000000E-01  0.51099999109E-03 0.  1.
       11   -1    0    0    0    0 -0.00000000000E+00 -0.00000000000E+00 -0.35740347158E-01  0.35744000000E-01  0.51099999109E-03 0. -1.
       22    1    1    2    0    0 -0.18591474777E-03 -0.11254278852E-01 -0.33918140104E-01  0.35737005818E-01  0.00000000000E+00 0. -1.
  9000001    1    1    2    0    0  0.18591474777E-03  0.11254278852E-01  0.33918140104E-01  0.35750994182E-01  0.10000000475E-02 0.  1.
</event>
<event>
 4   0  0.4809415E-02  0.9118800E+02  0.7818609E-02  0.1379984E+01
      -11   -1    0    0    0    0  0.00000000000E+00  0.00000000000E+00  0.35740347158E-01  0.35744000000E-01  0.51099999109E-03 0.  1.
       11   -1    0    0    0    0 -0.00000000000E+00 -0.00000000000E+00 -0.35740347158E-01  0.35744000000E-01  0.51099999109E-03 0. -1.
       22    1    1    2    0    0  0.12206980456E-01  0.22162356515E-02  0.33514347861E-01  0.35737005818E-01  0.00000000000E+00 0.  1.
  9000001    1    1    2    0    0 -0.12206980456E-01 -0.22162356515E-02 -0.33514347861E-01  0.35750994182E-01  0.10000000475E-02 0. -1.
</event>
<event>
 4   0  0.4809415E-02  0.9118800E+02  0.7818609E-02  0.1379984E+01
      -11   -1    0    0    0    0  0.00000000000E+00  0.00000000000E+00  0.35740347158E-01  0.35744000000E-01  0.51099999109E-03 0. -1.
       11   -1    0    0    0    0 -0.00000000000E+00 -0.00000000000E+00 -0.35740347158E-01  0.35744000000E-01  0.51099999109E-03 0.  1.
       22    1    1    2    0    0  0.81241829466E-02 -0.23110528524E-02  0.34724490940E-01  0.35737005818E-01  0.00000000000E+00 0. -1.
  9000001    1    1    2    0    0 -0.81241829466E-02  0.23110528524E-02 -0.34724490940E-01  0.35750994182E-01  0.10000000475E-02 0.  1.
</event>
<event>
 4   0  0.4809415E-02  0.9118800E+02  0.7818609E-02  0.1379984E+01
      -11   -1    0    0    0    0  0.00000000000E+00  0.00000000000E+00  0.35740347158E-01  0.35744000000E-01  0.51099999109E-03 0. -1.
       11   -1    0    0    0    0 -0.00000000000E+00 -0.00000000000E+00 -0.35740347158E-01  0.35744000000E-01  0.51099999109E-03 0.  1.
       22    1    1    2    0    0 -0.15415457071E-02  0.96290395824E-02 -0.34380791417E-01  0.35737005818E-01  0.00000000000E+00 0.  1.
  9000001    1    1    2    0    0  0.15415457071E-02 -0.96290395824E-02  0.34380791417E-01  0.35750994182E-01  0.10000000475E-02 0. -1.
</event>
<event>
 4   0  0.4809415E-02  0.9118800E+02  0.7818609E-02  0.1379984E+01
      -11   -1    0    0    0    0  0.00000000000E+00  0.00000000000E+00  0.35740347158E-01  0.35744000000E-01  0.51099999109E-03 0.  1.
       11   -1    0    0    0    0 -0.00000000000E+00 -0.00000000000E+00 -0.35740347158E-01  0.35744000000E-01  0.51099999109E-03 0. -1.
       22    1    1    2    0    0 -0.62161328346E-02  0.60181677314E-03  0.35187087035E-01  0.35737005818E-01  0.00000000000E+00 0.  1.
  9000001    1    1    2    0    0  0.62161328346E-02 -0.60181677314E-03 -0.35187087035E-01  0.35750994182E-01  0.10000000475E-02 0. -1.
</event>
<event>
 4   0  0.4809415E-02  0.9118800E+02  0.7818609E-02  0.1379984E+01
      -11   -1    0    0    0    0  0.00000000000E+00  0.00000000000E+00  0.35740347158E-01  0.35744000000E-01  0.51099999109E-03 0.  1.
       11   -1    0    0    0    0 -0.00000000000E+00 -0.00000000000E+00 -0.35740347158E-01  0.35744000000E-01  0.51099999109E-03 0. -1.
       22    1    1    2    0    0 -0.30489366016E-02 -0.34793927125E-02 -0.35436300552E-01  0.35737005818E-01  0.00000000000E+00 0. -1.
  9000001    1    1    2    0    0  0.30489366016E-02  0.34793927125E-02  0.35436300552E-01  0.35750994182E-01  0.10000000475E-02 0.  1.
</event>
<event>
 4   0  0.4809415E-02  0.9118800E+02  0.7818609E-02  0.1379984E+01
      -11   -1    0    0    0    0  0.00000000000E+00  0.00000000000E+00  0.35740347158E-01  0.35744000000E-01  0.51099999109E-03 0. -1.
       11   -1    0    0    0    0 -0.00000000000E+00 -0.00000000000E+00 -0.35740347158E-01  0.35744000000E-01  0.51099999109E-03 0.  1.
       22    1    1    2    0    0  0.17167000614E-01  0.20761993650E-01 -0.23481211520E-01  0.35737005818E-01  0.00000000000E+00 0.  1.
  9000001    1    1    2    0    0 -0.17167000614E-01 -0.20761993650E-01  0.23481211520E-01  0.35750994182E-01  0.10000000475E-02 0. -1.
</event>
<event>
 4   0  0.4809415E-02  0.9118800E+02  0.7818609E-02  0.1379984E+01
      -11   -1    0    0    0    0  0.00000000000E+00  0.00000000000E+00  0.35740347158E-01  0.35744000000E-01  0.51099999109E-03 0.  1.
       11   -1    0    0    0    0 -0.00000000000E+00 -0.00000000000E+00 -0.35740347158E-01  0.35744000000E-01  0.51099999109E-03 0. -1.
       22    1    1    2    0    0  0.18932203032E-02 -0.42858537997E-02 -0.35428530296E-01  0.35737005818E-01  0.00000000000E+00 0. -1.
  9000001    1    1    2    0    0 -0.18932203032E-02  0.42858537997E-02  0.35428530296E-01  0.35750994182E-01  0.10000000475E-02 0.  1.
</event>
<event>
 4   0  0.4809415E-02  0.9118800E+02  0.7818609E-02  0.1379984E+01
      -11   -1    0    0    0    0  0.00000000000E+00  0.00000000000E+00  0.35740347158E-01  0.35744000000E-01  0.51099999109E-03 0.  1.
       11   -1    0    0    0    0 -0.00000000000E+00 -0.00000000000E+00 -0.35740347158E-01  0.35744000000E-01  0.51099999109E-03 0. -1.
       22    1    1    2    0    0 -0.68761362166E-02  0.81256790523E-02  0.34114889353E-01  0.35737005818E-01  0.00000000000E+00 0.  1.
  9000001    1    1    2    0    0  0.68761362166E-02 -0.81256790523E-02 -0.34114889353E-01  0.35750994182E-01  0.10000000475E-02 0. -1.
</event>
<event>
 4   0  0.4809415E-02  0.9118800E+02  0.7818609E-02  0.1379984E+01
      -11   -1    0    0    0    0  0.00000000000E+00  0.00000000000E+00  0.35740347158E-01  0.35744000000E-01  0.51099999109E-03 0. -1.
       11   -1    0    0    0    0 -0.00000000000E+00 -0.00000000000E+00 -0.35740347158E-01  0.35744000000E-01  0.51099999109E-03 0.  1.
       22    1    1    2    0    0 -0.11235380745E-01  0.12738396641E-01  0.31442535766E-01  0.35737005818E-01  0.00000000000E+00 0. -1.
  9000001    1    1    2    0    0  0.11235380745E-01 -0.12738396641E-01 -0.31442535766E-01  0.35750994182E-01  0.10000000475E-02 0.  1.
</event>
<event>
 4   0  0.4809415E-02  0.9118800E+02  0.7818609E-02  0.1379984E+01
      -11   -1    0    0    0    0  0.00000000000E+00  0.00000000000E+00  0.35740347158E-01  0.35744000000E-01  0.51099999109E-03 0.  1.
       11   -1    0    0    0    0 -0.00000000000E+00 -0.00000000000E+00 -0.35740347158E-01  0.35744000000E-01  0.51099999109E-03 0. -1.
       22    1    1    2    0    0 -0.11125982392E-01  0.32258605648E-01 -0.10617366073E-01  0.35737005818E-01  0.00000000000E+00 0. -1.
  9000001    1    1    2    0    0  0.11125982392E-01 -0.32258605648E-01  0.10617366073E-01  0.35750994182E-01  0.10000000475E-02 0.  1.
</event>
<event>
 4   0  0.4809415E-02  0.9118800E+02  0.7818609E-02  0.1379984E+01
      -11   -1    0    0    0    0  0.00000000000E+00  0.00000000000E+00  0.35740347158E-01  0.35744000000E-01  0.51099999109E-03 0.  1.
       11   -1    0    0    0    0 -0.00000000000E+00 -0.00000000000E+00 -0.35740347158E-01  0.35744000000E-01  0.51099999109E-03 0. -1.
       22    1    1    2    0    0 -0.22788074635E-01  0.18069573661E-01 -0.20768431502E-01  0.35737005818E-01  0.00000000000E+00 0. -1.
  9000001    1    1    2    0    0  0.22788074635E-01 -0.18069573661E-01  0.20768431502E-01  0.35750994182E-01  0.10000000475E-02 0.  1.
</event>
<event>
 4   0  0.4809415E-02  0.9118800E+02  0.7818609E-02  0.1379984E+01
      -11   -1    0    0    0    0  0.00000000000E+00  0.00000000000E+00  0.35740347158E-01  0.35744000000E-01  0.51099999109E-03 0. -1.
       11   -1    0    0    0    0 -0.00000000000E+00 -0.00000000000E+00 -0.35740347158E-01  0.35744000000E-01  0.51099999109E-03 0.  1.
       22    1    1    2    0    0 -0.69415055068E-03  0.38112030595E-02  0.35526419340E-01  0.35737005818E-01  0.00000000000E+00 0. -1.
  9000001    1    1    2    0    0  0.69415055068E-03 -0.38112030595E-02 -0.35526419340E-01  0.35750994182E-01  0.10000000475E-02 0.  1.
</event>
<event>
 4   0  0.4809415E-02  0.9118800E+02  0.7818609E-02  0.1379984E+01
      -11   -1    0    0    0    0  0.00000000000E+00  0.00000000000E+00  0.35740347158E-01  0.35744000000E-01  0.51099999109E-03 0.  1.
       11   -1    0    0    0    0 -0.00000000000E+00 -0.00000000000E+00 -0.35740347158E-01  0.35744000000E-01  0.51099999109E-03 0. -1.
       22    1    1    2    0    0 -0.59415458907E-02  0.11228102362E-01 -0.33403013856E-01  0.35737005818E-01  0.00000000000E+00 0. -1.
  9000001    1    1    2    0    0  0.59415458907E-02 -0.11228102362E-01  0.33403013856E-01  0.35750994182E-01  0.10000000475E-02 0.  1.
</event>
<event>
 4   0  0.4809415E-02  0.9118800E+02  0.7818609E-02  0.1379984E+01
      -11   -1    0    0    0    0  0.00000000000E+00  0.00000000000E+00  0.35740347158E-01  0.35744000000E-01  0.51099999109E-03 0.  1.
       11   -1    0    0    0    0 -0.00000000000E+00 -0.00000000000E+00 -0.35740347158E-01  0.35744000000E-01  0.51099999109E-03 0. -1.
       22    1    1    2    0    0  0.97398427689E-02  0.41079825771E-04  0.34384114939E-01  0.35737005818E-01  0.00000000000E+00 0.  1.
  9000001    1    1    2    0    0 -0.97398427689E-02 -0.41079825771E-04 -0.34384114939E-01  0.35750994182E-01  0.10000000475E-02 0. -1.
</event>
<event>
 4   0  0.4809415E-02  0.9118800E+02  0.7818609E-02  0.1379984E+01
      -11   -1    0    0    0    0  0.00000000000E+00  0.00000000000E+00  0.35740347158E-01  0.35744000000E-01  0.51099999109E-03 0. -1.
       11   -1    0    0    0    0 -0.00000000000E+00 -0.00000000000E+00 -0.35740347158E-01  0.35744000000E-01  0.51099999109E-03 0.  1.
       22    1    1    2    0    0 -0.52541117744E-02  0.42004076683E-03 -0.35346166130E-01  0.35737005818E-01  0.00000000000E+00 0.  1.
  9000001    1    1    2    0    0  0.52541117744E-02 -0.42004076683E-03  0.35346166130E-01  0.35750994182E-01  0.10000000475E-02 0. -1.
</event>
<event>
 4   0  0.4809415E-02  0.9118800E+02  0.7818609E-02  0.1379984E+01
      -11   -1    0    0    0    0  0.00000000000E+00  0.00000000000E+00  0.35740347158E-01  0.35744000000E-01  0.51099999109E-03 0. -1.
       11   -1    0    0    0    0 -0.00000000000E+00 -0.00000000000E+00 -0.35740347158E-01  0.35744000000E-01  0.51099999109E-03 0.  1.
       22    1    1    2    0    0  0.10620087660E-01 -0.42001654409E-02  0.33863046721E-01  0.35737005818E-01  0.00000000000E+00 0. -1.
  9000001    1    1    2    0    0 -0.10620087660E-01  0.42001654409E-02 -0.33863046721E-01  0.35750994182E-01  0.10000000475E-02 0.  1.
</event>
<event>
 4   0  0.4809415E-02  0.9118800E+02  0.7818609E-02  0.1379984E+01
      -11   -1    0    0    0    0  0.00000000000E+00  0.00000000000E+00  0.35740347158E-01  0.35744000000E-01  0.51099999109E-03 0. -1.
       11   -1    0    0    0    0 -0.00000000000E+00 -0.00000000000E+00 -0.35740347158E-01  0.35744000000E-01  0.51099999109E-03 0.  1.
       22    1    1    2    0    0 -0.32692804019E-02  0.76176698947E-03  0.35578998041E-01  0.35737005818E-01  0.00000000000E+00 0. -1.
  9000001    1    1    2    0    0  0.32692804019E-02 -0.76176698947E-03 -0.35578998041E-01  0.35750994182E-01  0.10000000475E-02 0.  1.
</event>
<event>
 4   0  0.4809415E-02  0.9118800E+02  0.7818609E-02  0.1379984E+01
      -11   -1    0    0    0    0  0.00000000000E+00  0.00000000000E+00  0.35740347158E-01  0.35744000000E-01  0.51099999109E-03 0. -1.
       11   -1    0    0    0    0 -0.00000000000E+00 -0.00000000000E+00 -0.35740347158E-01  0.35744000000E-01  0.51099999109E-03 0.  1.
       22    1    1    2    0    0 -0.31539522720E-01  0.98906143757E-02  0.13585574655E-01  0.35737005818E-01  0.00000000000E+00 0. -1.
  9000001    1    1    2    0    0  0.31539522720E-01 -0.98906143757E-02 -0.13585574655E-01  0.35750994182E-01  0.10000000475E-02 0.  1.
</event>
<event>
 4   0  0.4809415E-02  0.9118800E+02  0.7818609E-02  0.1379984E+01
      -11   -1    0    0    0    0  0.00000000000E+00  0.00000000000E+00  0.35740347158E-01  0.35744000000E-01  0.51099999109E-03 0. -1.
       11   -1    0    0    0    0 -0.00000000000E+00 -0.00000000000E+00 -0.35740347158E-01  0.35744000000E-01  0.51099999109E-03 0.  1.
       22    1    1    2    0    0 -0.79352603587E-02 -0.11722738944E-01 -0.32813756560E-01  0.35737005818E-01  0.00000000000E+00 0.  1.
  9000001    1    1    2    0    0  0.79352603587E-02  0.11722738944E-01  0.32813756560E-01  0.35750994182E-01  0.10000000475E-02 0. -1.
</event>
<event>
 4   0  0.4809415E-02  0.9118800E+02  0.7818609E-02  0.1379984E+01
      -11   -1    0    0    0    0  0.00000000000E+00  0.00000000000E+00  0.35740347158E-01  0.35744000000E-01  0.51099999109E-03 0. -1.
       11   -1    0    0    0    0 -0.00000000000E+00 -0.00000000000E+00 -0.35740347158E-01  0.35744000000E-01  0.51099999109E-03 0.  1.
       22    1    1    2    0    0 -0.24468533103E-01  0.14224223368E-01  0.21819622871E-01  0.35737005818E-01  0.00000000000E+00 0.  1.
  9000001    1    1    2    0    0  0.24468533103E-01 -0.14224223368E-01 -0.21819622871E-01  0.35750994182E-01  0.10000000475E-02 0. -1.
</event>
<event>
 4   0  0.4809415E-02  0.9118800E+02  0.7818609E-02  0.1379984E+01
      -11   -1    0    0    0    0  0.00000000000E+00  0.00000000000E+00  0.35740347158E-01  0.35744000000E-01  0.51099999109E-03 0. -1.
       11   -1    0    0    0    0 -0.00000000000E+00 -0.00000000000E+00 -0.35740347158E-01  0.35744000000E-01  0.51099999109E-03 0.  1.
       22    1    1    2    0    0  0.24441267674E-02 -0.44953858089E-02  0.35368790418E-01  0.35737005818E-01  0.00000000000E+00 0. -1.
  9000001    1    1    2    0    0 -0.24441267674E-02  0.44953858089E-02 -0.35368790418E-01  0.35750994182E-01  0.10000000475E-02 0.  1.
</event>
<event>
 4   0  0.4809415E-02  0.9118800E+02  0.7818609E-02  0.1379984E+01
      -11   -1    0    0    0    0  0.00000000000E+00  0.00000000000E+00  0.35740347158E-01  0.35744000000E-01  0.51099999109E-03 0. -1.
       11   -1    0    0    0    0 -0.00000000000E+00 -0.00000000000E+00 -0.35740347158E-01  0.35744000000E-01  0.51099999109E-03 0.  1.
       22    1    1    2    0    0 -0.60211511006E-02  0.18419017710E-03  0.35225635527E-01  0.35737005818E-01  0.00000000000E+00 0. -1.
  9000001    1    1    2    0    0  0.60211511006E-02 -0.18419017710E-03 -0.35225635527E-01  0.35750994182E-01  0.10000000475E-02 0.  1.
</event>
<event>
 4   0  0.4809415E-02  0.9118800E+02  0.7818609E-02  0.1379984E+01
      -11   -1    0    0    0    0  0.00000000000E+00  0.00000000000E+00  0.35740347158E-01  0.35744000000E-01  0.51099999109E-03 0.  1.
       11   -1    0    0    0    0 -0.00000000000E+00 -0.00000000000E+00 -0.35740347158E-01  0.35744000000E-01  0.51099999109E-03 0. -1.
       22    1    1    2    0    0 -0.81786079916E-03 -0.16862219422E-01  0.31498099066E-01  0.35737005818E-01  0.00000000000E+00 0.  1.
  9000001    1    1    2    0    0  0.81786079916E-03  0.16862219422E-01 -0.31498099066E-01  0.35750994182E-01  0.10000000475E-02 0. -1.
</event>
<event>
 4   0  0.4809415E-02  0.9118800E+02  0.7818609E-02  0.1379984E+01
      -11   -1    0    0    0    0  0.00000000000E+00  0.00000000000E+00  0.35740347158E-01  0.35744000000E-01  0.51099999109E-03 0. -1.
       11   -1    0    0    0    0 -0.00000000000E+00 -0.00000000000E+00 -0.35740347158E-01  0.35744000000E-01  0.51099999109E-03 0.  1.
       22    1    1    2    0    0 -0.24658599735E-01 -0.23671939111E-01  0.10427192466E-01  0.35737005818E-01  0.00000000000E+00 0. -1.
  9000001    1    1    2    0    0  0.24658599735E-01  0.23671939111E-01 -0.10427192466E-01  0.35750994182E-01  0.10000000475E-02 0.  1.
</event>
<event>
 4   0  0.4809415E-02  0.9118800E+02  0.7818609E-02  0.1379984E+01
      -11   -1    0    0    0    0  0.00000000000E+00  0.00000000000E+00  0.35740347158E-01  0.35744000000E-01  0.51099999109E-03 0. -1.
       11   -1    0    0    0    0 -0.00000000000E+00 -0.00000000000E+00 -0.35740347158E-01  0.35744000000E-01  0.51099999109E-03 0.  1.
       22    1    1    2    0    0 -0.48795156986E-02  0.37404557558E-02  0.35204160296E-01  0.35737005818E-01  0.00000000000E+00 0. -1.
  9000001    1    1    2    0    0  0.48795156986E-02 -0.37404557558E-02 -0.35204160296E-01  0.35750994182E-01  0.10000000475E-02 0.  1.
</event>
<event>
 4   0  0.4809415E-02  0.9118800E+02  0.7818609E-02  0.1379984E+01
      -11   -1    0    0    0    0  0.00000000000E+00  0.00000000000E+00  0.35740347158E-01  0.35744000000E-01  0.51099999109E-03 0. -1.
       11   -1    0    0    0    0 -0.00000000000E+00 -0.00000000000E+00 -0.35740347158E-01  0.35744000000E-01  0.51099999109E-03 0.  1.
       22    1    1    2    0    0 -0.57153302068E-03  0.49157036218E-02  0.35392694059E-01  0.35737005818E-01  0.00000000000E+00 0. -1.
  9000001    1    1    2    0    0  0.57153302068E-03 -0.49157036218E-02 -0.35392694059E-01  0.35750994182E-01  0.10000000475E-02 0.  1.
</event>
<event>
 4   0  0.4809415E-02  0.9118800E+02  0.7818609E-02  0.1379984E+01
      -11   -1    0    0    0    0  0.00000000000E+00  0.00000000000E+00  0.35740347158E-01  0.35744000000E-01  0.51099999109E-03 0.  1.
       11   -1    0    0    0    0 -0.00000000000E+00 -0.00000000000E+00 -0.35740347158E-01  0.35744000000E-01  0.51099999109E-03 0. -1.
       22    1    1    2    0    0  0.25807952161E-01 -0.15053635911E-01  0.19607938086E-01  0.35737005818E-01  0.00000000000E+00 0.  1.
  9000001    1    1    2    0    0 -0.25807952161E-01  0.15053635911E-01 -0.19607938086E-01  0.35750994182E-01  0.10000000475E-02 0. -1.
</event>
<event>
 4   0  0.4809415E-02  0.9118800E+02  0.7818609E-02  0.1379984E+01
      -11   -1    0    0    0    0  0.00000000000E+00  0.00000000000E+00  0.35740347158E-01  0.35744000000E-01  0.51099999109E-03 0.  1.
       11   -1    0    0    0    0 -0.00000000000E+00 -0.00000000000E+00 -0.35740347158E-01  0.35744000000E-01  0.51099999109E-03 0. -1.
       22    1    1    2    0    0 -0.85522303672E-02 -0.27283056529E-01 -0.21438931109E-01  0.35737005818E-01  0.00000000000E+00 0.  1.
  9000001    1    1    2    0    0  0.85522303672E-02  0.27283056529E-01  0.21438931109E-01  0.35750994182E-01  0.10000000475E-02 0. -1.
</event>
<event>
 4   0  0.4809415E-02  0.9118800E+02  0.7818609E-02  0.1379984E+01
      -11   -1    0    0    0    0  0.00000000000E+00  0.00000000000E+00  0.35740347158E-01  0.35744000000E-01  0.51099999109E-03 0.  1.
       11   -1    0    0    0    0 -0.00000000000E+00 -0.00000000000E+00 -0.35740347158E-01  0.35744000000E-01  0.51099999109E-03 0.  1.
       22    1    1    2    0    0 -0.34868866951E-02 -0.29453360740E-02  0.35444325377E-01  0.35737005818E-01  0.00000000000E+00 0.  1.
  9000001    1    1    2    0    0  0.34868866951E-02  0.29453360740E-02 -0.35444325377E-01  0.35750994182E-01  0.10000000475E-02 0.  1.
</event>
<event>
 4   0  0.4809415E-02  0.9118800E+02  0.7818609E-02  0.1379984E+01
      -11   -1    0    0    0    0  0.00000000000E+00  0.00000000000E+00  0.35740347158E-01  0.35744000000E-01  0.51099999109E-03 0.  1.
       11   -1    0    0    0    0 -0.00000000000E+00 -0.00000000000E+00 -0.35740347158E-01  0.35744000000E-01  0.51099999109E-03 0. -1.
       22    1    1    2    0    0  0.49299681935E-02  0.69163833572E-02  0.34713003900E-01  0.35737005818E-01  0.00000000000E+00 0.  1.
  9000001    1    1    2    0    0 -0.49299681935E-02 -0.69163833572E-02 -0.34713003900E-01  0.35750994182E-01  0.10000000475E-02 0. -1.
</event>
<event>
 4   0  0.4809415E-02  0.9118800E+02  0.7818609E-02  0.1379984E+01
      -11   -1    0    0    0    0  0.00000000000E+00  0.00000000000E+00  0.35740347158E-01  0.35744000000E-01  0.51099999109E-03 0. -1.
       11   -1    0    0    0    0 -0.00000000000E+00 -0.00000000000E+00 -0.35740347158E-01  0.35744000000E-01  0.51099999109E-03 0.  1.
       22    1    1    2    0    0  0.13503860035E-01  0.58272623840E-03  0.33082318225E-01  0.35737005818E-01  0.00000000000E+00 0. -1.
  9000001    1    1    2    0    0 -0.13503860035E-01 -0.58272623840E-03 -0.33082318225E-01  0.35750994182E-01  0.10000000475E-02 0.  1.
</event>
<event>
 4   0  0.4809415E-02  0.9118800E+02  0.7818609E-02  0.1379984E+01
      -11   -1    0    0    0    0  0.00000000000E+00  0.00000000000E+00  0.35740347158E-01  0.35744000000E-01  0.51099999109E-03 0. -1.
       11   -1    0    0    0    0 -0.00000000000E+00 -0.00000000000E+00 -0.35740347158E-01  0.35744000000E-01  0.51099999109E-03 0.  1.
       22    1    1    2    0    0  0.62473324518E-02 -0.29527061505E-01  0.19137843687E-01  0.35737005818E-01  0.00000000000E+00 0. -1.
  9000001    1    1    2    0    0 -0.62473324518E-02  0.29527061505E-01 -0.19137843687E-01  0.35750994182E-01  0.10000000475E-02 0.  1.
</event>
<event>
 4   0  0.4809415E-02  0.9118800E+02  0.7818609E-02  0.1379984E+01
      -11   -1    0    0    0    0  0.00000000000E+00  0.00000000000E+00  0.35740347158E-01  0.35744000000E-01  0.51099999109E-03 0. -1.
       11   -1    0    0    0    0 -0.00000000000E+00 -0.00000000000E+00 -0.35740347158E-01  0.35744000000E-01  0.51099999109E-03 0.  1.
       22    1    1    2    0    0  0.75581608340E-02 -0.85677111218E-02 -0.33861513785E-01  0.35737005818E-01  0.00000000000E+00 0.  1.
  9000001    1    1    2    0    0 -0.75581608340E-02  0.85677111218E-02  0.33861513785E-01  0.35750994182E-01  0.10000000475E-02 0. -1.
</event>
<event>
 4   0  0.4809415E-02  0.9118800E+02  0.7818609E-02  0.1379984E+01
      -11   -1    0    0    0    0  0.00000000000E+00  0.00000000000E+00  0.35740347158E-01  0.35744000000E-01  0.51099999109E-03 0. -1.
       11   -1    0    0    0    0 -0.00000000000E+00 -0.00000000000E+00 -0.35740347158E-01  0.35744000000E-01  0.51099999109E-03 0.  1.
       22    1    1    2    0    0  0.23024608971E-01  0.21886481082E-01 -0.16370183641E-01  0.35737005818E-01  0.00000000000E+00 0.  1.
  9000001    1    1    2    0    0 -0.23024608971E-01 -0.21886481082E-01  0.16370183641E-01  0.35750994182E-01  0.10000000475E-02 0. -1.
</event>
<event>
 4   0  0.4809415E-02  0.9118800E+02  0.7818609E-02  0.1379984E+01
      -11   -1    0    0    0    0  0.00000000000E+00  0.00000000000E+00  0.35740347158E-01  0.35744000000E-01  0.51099999109E-03 0.  1.
       11   -1    0    0    0    0 -0.00000000000E+00 -0.00000000000E+00 -0.35740347158E-01  0.35744000000E-01  0.51099999109E-03 0. -1.
       22    1    1    2    0    0  0.25477687036E-01  0.47168076734E-02  0.24612451595E-01  0.35737005818E-01  0.00000000000E+00 0.  1.
  9000001    1    1    2    0    0 -0.25477687036E-01 -0.47168076734E-02 -0.24612451595E-01  0.35750994182E-01  0.10000000475E-02 0. -1.
</event>
<event>
 4   0  0.4809415E-02  0.9118800E+02  0.7818609E-02  0.1379984E+01
      -11   -1    0    0    0    0  0.00000000000E+00  0.00000000000E+00  0.35740347158E-01  0.35744000000E-01  0.51099999109E-03 0.  1.
       11   -1    0    0    0    0 -0.00000000000E+00 -0.00000000000E+00 -0.35740347158E-01  0.35744000000E-01  0.51099999109E-03 0. -1.
       22    1    1    2    0    0  0.10631091240E-01 -0.72428674490E-02  0.33341480996E-01  0.35737005818E-01  0.00000000000E+00 0.  1.
  9000001    1    1    2    0    0 -0.10631091240E-01  0.72428674490E-02 -0.33341480996E-01  0.35750994182E-01  0.10000000475E-02 0. -1.
</event>
<event>
 4   0  0.4809415E-02  0.9118800E+02  0.7818609E-02  0.1379984E+01
      -11   -1    0    0    0    0  0.00000000000E+00  0.00000000000E+00  0.35740347158E-01  0.35744000000E-01  0.51099999109E-03 0. -1.
       11   -1    0    0    0    0 -0.00000000000E+00 -0.00000000000E+00 -0.35740347158E-01  0.35744000000E-01  0.51099999109E-03 0.  1.
       22    1    1    2    0    0  0.35136827862E-01  0.11462139098E-03  0.65210255797E-02  0.35737005818E-01  0.00000000000E+00 0.  1.
  9000001    1    1    2    0    0 -0.35136827862E-01 -0.11462139098E-03 -0.65210255797E-02  0.35750994182E-01  0.10000000475E-02 0. -1.
</event>
<event>
 4   0  0.4809415E-02  0.9118800E+02  0.7818609E-02  0.1379984E+01
      -11   -1    0    0    0    0  0.00000000000E+00  0.00000000000E+00  0.35740347158E-01  0.35744000000E-01  0.51099999109E-03 0. -1.
       11   -1    0    0    0    0 -0.00000000000E+00 -0.00000000000E+00 -0.35740347158E-01  0.35744000000E-01  0.51099999109E-03 0.  1.
       22    1    1    2    0    0 -0.60470998613E-02 -0.34380362025E-01 -0.76522464114E-02  0.35737005818E-01  0.00000000000E+00 0.  1.
  9000001    1    1    2    0    0  0.60470998613E-02  0.34380362025E-01  0.76522464114E-02  0.35750994182E-01  0.10000000475E-02 0. -1.
</event>
<event>
 4   0  0.4809415E-02  0.9118800E+02  0.7818609E-02  0.1379984E+01
      -11   -1    0    0    0    0  0.00000000000E+00  0.00000000000E+00  0.35740347158E-01  0.35744000000E-01  0.51099999109E-03 0.  1.
       11   -1    0    0    0    0 -0.00000000000E+00 -0.00000000000E+00 -0.35740347158E-01  0.35744000000E-01  0.51099999109E-03 0. -1.
       22    1    1    2    0    0  0.74404442042E-02 -0.27701926728E-01  0.21316111992E-01  0.35737005818E-01  0.00000000000E+00 0.  1.
  9000001    1    1    2    0    0 -0.74404442042E-02  0.27701926728E-01 -0.21316111992E-01  0.35750994182E-01  0.10000000475E-02 0. -1.
</event>
<event>
 4   0  0.4809415E-02  0.9118800E+02  0.7818609E-02  0.1379984E+01
      -11   -1    0    0    0    0  0.00000000000E+00  0.00000000000E+00  0.35740347158E-01  0.35744000000E-01  0.51099999109E-03 0. -1.
       11   -1    0    0    0    0 -0.00000000000E+00 -0.00000000000E+00 -0.35740347158E-01  0.35744000000E-01  0.51099999109E-03 0.  1.
       22    1    1    2    0    0 -0.74708581313E-02  0.89022116085E-02  0.33794533465E-01  0.35737005818E-01  0.00000000000E+00 0. -1.
  9000001    1    1    2    0    0  0.74708581313E-02 -0.89022116085E-02 -0.33794533465E-01  0.35750994182E-01  0.10000000475E-02 0.  1.
</event>
<event>
 4   0  0.4809415E-02  0.9118800E+02  0.7818609E-02  0.1379984E+01
      -11   -1    0    0    0    0  0.00000000000E+00  0.00000000000E+00  0.35740347158E-01  0.35744000000E-01  0.51099999109E-03 0. -1.
       11   -1    0    0    0    0 -0.00000000000E+00 -0.00000000000E+00 -0.35740347158E-01  0.35744000000E-01  0.51099999109E-03 0.  1.
       22    1    1    2    0    0 -0.18948897664E-01 -0.93647063809E-02 -0.28816230437E-01  0.35737005818E-01  0.00000000000E+00 0.  1.
  9000001    1    1    2    0    0  0.18948897664E-01  0.93647063809E-02  0.28816230437E-01  0.35750994182E-01  0.10000000475E-02 0. -1.
</event>
<event>
 4   0  0.4809415E-02  0.9118800E+02  0.7818609E-02  0.1379984E+01
      -11   -1    0    0    0    0  0.00000000000E+00  0.00000000000E+00  0.35740347158E-01  0.35744000000E-01  0.51099999109E-03 0.  1.
       11   -1    0    0    0    0 -0.00000000000E+00 -0.00000000000E+00 -0.35740347158E-01  0.35744000000E-01  0.51099999109E-03 0. -1.
       22    1    1    2    0    0  0.67999822745E-02 -0.54633964611E-02 -0.34656097949E-01  0.35737005818E-01  0.00000000000E+00 0. -1.
  9000001    1    1    2    0    0 -0.67999822745E-02  0.54633964611E-02  0.34656097949E-01  0.35750994182E-01  0.10000000475E-02 0.  1.
</event>
<event>
 4   0  0.4809415E-02  0.9118800E+02  0.7818609E-02  0.1379984E+01
      -11   -1    0    0    0    0  0.00000000000E+00  0.00000000000E+00  0.35740347158E-01  0.35744000000E-01  0.51099999109E-03 0.  1.
       11   -1    0    0    0    0 -0.00000000000E+00 -0.00000000000E+00 -0.35740347158E-01  0.35744000000E-01  0.51099999109E-03 0. -1.
       22    1    1    2    0    0  0.55881675223E-02  0.30951389055E-02  0.35161428921E-01  0.35737005818E-01  0.00000000000E+00 0.  1.
  9000001    1    1    2    0    0 -0.55881675223E-02 -0.30951389055E-02 -0.35161428921E-01  0.35750994182E-01  0.10000000475E-02 0. -1.
</event>
<event>
 4   0  0.4809415E-02  0.9118800E+02  0.7818609E-02  0.1379984E+01
      -11   -1    0    0    0    0  0.00000000000E+00  0.00000000000E+00  0.35740347158E-01  0.35744000000E-01  0.51099999109E-03 0. -1.
       11   -1    0    0    0    0 -0.00000000000E+00 -0.00000000000E+00 -0.35740347158E-01  0.35744000000E-01  0.51099999109E-03 0.  1.
       22    1    1    2    0    0  0.27950972390E-02 -0.31407642651E-02  0.35488823820E-01  0.35737005818E-01  0.00000000000E+00 0. -1.
  9000001    1    1    2    0    0 -0.27950972390E-02  0.31407642651E-02 -0.35488823820E-01  0.35750994182E-01  0.10000000475E-02 0.  1.
</event>
<event>
 4   0  0.4809415E-02  0.9118800E+02  0.7818609E-02  0.1379984E+01
      -11   -1    0    0    0    0  0.00000000000E+00  0.00000000000E+00  0.35740347158E-01  0.35744000000E-01  0.51099999109E-03 0.  1.
       11   -1    0    0    0    0 -0.00000000000E+00 -0.00000000000E+00 -0.35740347158E-01  0.35744000000E-01  0.51099999109E-03 0. -1.
       22    1    1    2    0    0  0.12561044521E-01  0.89560532009E-02  0.32235738808E-01  0.35737005818E-01  0.00000000000E+00 0.  1.
  9000001    1    1    2    0    0 -0.12561044521E-01 -0.89560532009E-02 -0.32235738808E-01  0.35750994182E-01  0.10000000475E-02 0. -1.
</event>
<event>
 4   0  0.4809415E-02  0.9118800E+02  0.7818609E-02  0.1379984E+01
      -11   -1    0    0    0    0  0.00000000000E+00  0.00000000000E+00  0.35740347158E-01  0.35744000000E-01  0.51099999109E-03 0.  1.
       11   -1    0    0    0    0 -0.00000000000E+00 -0.00000000000E+00 -0.35740347158E-01  0.35744000000E-01  0.51099999109E-03 0. -1.
       22    1    1    2    0    0 -0.40925807728E-02 -0.13236293941E-02 -0.35477209201E-01  0.35737005818E-01  0.00000000000E+00 0. -1.
  9000001    1    1    2    0    0  0.40925807728E-02  0.13236293941E-02  0.35477209201E-01  0.35750994182E-01  0.10000000475E-02 0.  1.
</event>
<event>
 4   0  0.4809415E-02  0.9118800E+02  0.7818609E-02  0.1379984E+01
      -11   -1    0    0    0    0  0.00000000000E+00  0.00000000000E+00  0.35740347158E-01  0.35744000000E-01  0.51099999109E-03 0. -1.
       11   -1    0    0    0    0 -0.00000000000E+00 -0.00000000000E+00 -0.35740347158E-01  0.35744000000E-01  0.51099999109E-03 0.  1.
       22    1    1    2    0    0  0.60209863794E-02  0.46302142870E-02 -0.34920515797E-01  0.35737005818E-01  0.00000000000E+00 0.  1.
  9000001    1    1    2    0    0 -0.60209863794E-02 -0.46302142870E-02  0.34920515797E-01  0.35750994182E-01  0.10000000475E-02 0. -1.
</event>
<event>
 4   0  0.4809415E-02  0.9118800E+02  0.7818609E-02  0.1379984E+01
      -11   -1    0    0    0    0  0.00000000000E+00  0.00000000000E+00  0.35740347158E-01  0.35744000000E-01  0.51099999109E-03 0. -1.
       11   -1    0    0    0    0 -0.00000000000E+00 -0.00000000000E+00 -0.35740347158E-01  0.35744000000E-01  0.51099999109E-03 0.  1.
       22    1    1    2    0    0  0.20328187957E-02 -0.65710849382E-02  0.35068819133E-01  0.35737005818E-01  0.00000000000E+00 0. -1.
  9000001    1    1    2    0    0 -0.20328187957E-02  0.65710849382E-02 -0.35068819133E-01  0.35750994182E-01  0.10000000475E-02 0.  1.
</event>
<event>
 4   0  0.4809415E-02  0.9118800E+02  0.7818609E-02  0.1379984E+01
      -11   -1    0    0    0    0  0.00000000000E+00  0.00000000000E+00  0.35740347158E-01  0.35744000000E-01  0.51099999109E-03 0.  1.
       11   -1    0    0    0    0 -0.00000000000E+00 -0.00000000000E+00 -0.35740347158E-01  0.35744000000E-01  0.51099999109E-03 0. -1.
       22    1    1    2    0    0 -0.30806705741E-02 -0.14212753450E-01 -0.32644152510E-01  0.35737005818E-01  0.00000000000E+00 0. -1.
  9000001    1    1    2    0    0  0.30806705741E-02  0.14212753450E-01  0.32644152510E-01  0.35750994182E-01  0.10000000475E-02 0.  1.
</event>
<event>
 4   0  0.4809415E-02  0.9118800E+02  0.7818609E-02  0.1379984E+01
      -11   -1    0    0    0    0  0.00000000000E+00  0.00000000000E+00  0.35740347158E-01  0.35744000000E-01  0.51099999109E-03 0.  1.
       11   -1    0    0    0    0 -0.00000000000E+00 -0.00000000000E+00 -0.35740347158E-01  0.35744000000E-01  0.51099999109E-03 0. -1.
       22    1    1    2    0    0 -0.18695104487E-01  0.26138906356E-02 -0.30344591427E-01  0.35737005818E-01  0.00000000000E+00 0. -1.
  9000001    1    1    2    0    0  0.18695104487E-01 -0.26138906356E-02  0.30344591427E-01  0.35750994182E-01  0.10000000475E-02 0.  1.
</event>
<event>
 4   0  0.4809415E-02  0.9118800E+02  0.7818609E-02  0.1379984E+01
      -11   -1    0    0    0    0  0.00000000000E+00  0.00000000000E+00  0.35740347158E-01  0.35744000000E-01  0.51099999109E-03 0. -1.
       11   -1    0    0    0    0 -0.00000000000E+00 -0.00000000000E+00 -0.35740347158E-01  0.35744000000E-01  0.51099999109E-03 0.  1.
       22    1    1    2    0    0  0.33352875691E-02 -0.72504882880E-03 -0.35573638356E-01  0.35737005818E-01  0.00000000000E+00 0.  1.
  9000001    1    1    2    0    0 -0.33352875691E-02  0.72504882880E-03  0.35573638356E-01  0.35750994182E-01  0.10000000475E-02 0. -1.
</event>
<event>
 4   0  0.4809415E-02  0.9118800E+02  0.7818609E-02  0.1379984E+01
      -11   -1    0    0    0    0  0.00000000000E+00  0.00000000000E+00  0.35740347158E-01  0.35744000000E-01  0.51099999109E-03 0.  1.
       11   -1    0    0    0    0 -0.00000000000E+00 -0.00000000000E+00 -0.35740347158E-01  0.35744000000E-01  0.51099999109E-03 0. -1.
       22    1    1    2    0    0  0.12443427975E-03 -0.33891433280E-02 -0.35575719367E-01  0.35737005818E-01  0.00000000000E+00 0. -1.
  9000001    1    1    2    0    0 -0.12443427975E-03  0.33891433280E-02  0.35575719367E-01  0.35750994182E-01  0.10000000475E-02 0.  1.
</event>
<event>
 4   0  0.4809415E-02  0.9118800E+02  0.7818609E-02  0.1379984E+01
      -11   -1    0    0    0    0  0.00000000000E+00  0.00000000000E+00  0.35740347158E-01  0.35744000000E-01  0.51099999109E-03 0. -1.
       11   -1    0    0    0    0 -0.00000000000E+00 -0.00000000000E+00 -0.35740347158E-01  0.35744000000E-01  0.51099999109E-03 0.  1.
       22    1    1    2    0    0  0.16766981888E-01 -0.22189208714E-01 -0.22441945546E-01  0.35737005818E-01  0.00000000000E+00 0.  1.
  9000001    1    1    2    0    0 -0.16766981888E-01  0.22189208714E-01  0.22441945546E-01  0.35750994182E-01  0.10000000475E-02 0. -1.
</event>
<event>
 4   0  0.4809415E-02  0.9118800E+02  0.7818609E-02  0.1379984E+01
      -11   -1    0    0    0    0  0.00000000000E+00  0.00000000000E+00  0.35740347158E-01  0.35744000000E-01  0.51099999109E-03 0. -1.
       11   -1    0    0    0    0 -0.00000000000E+00 -0.00000000000E+00 -0.35740347158E-01  0.35744000000E-01  0.51099999109E-03 0.  1.
       22    1    1    2    0    0  0.24564521419E-01  0.88546138897E-02  0.24399050907E-01  0.35737005818E-01  0.00000000000E+00 0. -1.
  9000001    1    1    2    0    0 -0.24564521419E-01 -0.88546138897E-02 -0.24399050907E-01  0.35750994182E-01  0.10000000475E-02 0.  1.
</event>
<event>
 4   0  0.4809415E-02  0.9118800E+02  0.7818609E-02  0.1379984E+01
      -11   -1    0    0    0    0  0.00000000000E+00  0.00000000000E+00  0.35740347158E-01  0.35744000000E-01  0.51099999109E-03 0.  1.
       11   -1    0    0    0    0 -0.00000000000E+00 -0.00000000000E+00 -0.35740347158E-01  0.35744000000E-01  0.51099999109E-03 0. -1.
       22    1    1    2    0    0 -0.17281114119E-01 -0.59915914700E-02  0.30701750949E-01  0.35737005818E-01  0.00000000000E+00 0.  1.
  9000001    1    1    2    0    0  0.17281114119E-01  0.59915914700E-02 -0.30701750949E-01  0.35750994182E-01  0.10000000475E-02 0. -1.
</event>
<event>
 4   0  0.4809415E-02  0.9118800E+02  0.7818609E-02  0.1379984E+01
      -11   -1    0    0    0    0  0.00000000000E+00  0.00000000000E+00  0.35740347158E-01  0.35744000000E-01  0.51099999109E-03 0.  1.
       11   -1    0    0    0    0 -0.00000000000E+00 -0.00000000000E+00 -0.35740347158E-01  0.35744000000E-01  0.51099999109E-03 0. -1.
       22    1    1    2    0    0 -0.67222608537E-02  0.14154043951E-02 -0.35070520730E-01  0.35737005818E-01  0.00000000000E+00 0. -1.
  9000001    1    1    2    0    0  0.67222608537E-02 -0.14154043951E-02  0.35070520730E-01  0.35750994182E-01  0.10000000475E-02 0.  1.
</event>
<event>
 4   0  0.4809415E-02  0.9118800E+02  0.7818609E-02  0.1379984E+01
      -11   -1    0    0    0    0  0.00000000000E+00  0.00000000000E+00  0.35740347158E-01  0.35744000000E-01  0.51099999109E-03 0. -1.
       11   -1    0    0    0    0 -0.00000000000E+00 -0.00000000000E+00 -0.35740347158E-01  0.35744000000E-01  0.51099999109E-03 0.  1.
       22    1    1    2    0    0  0.33481379696E-01  0.79522310417E-02 -0.96380921352E-02  0.35737005818E-01  0.00000000000E+00 0.  1.
  9000001    1    1    2    0    0 -0.33481379696E-01 -0.79522310417E-02  0.96380921352E-02  0.35750994182E-01  0.10000000475E-02 0. -1.
</event>
<event>
 4   0  0.4809415E-02  0.9118800E+02  0.7818609E-02  0.1379984E+01
      -11   -1    0    0    0    0  0.00000000000E+00  0.00000000000E+00  0.35740347158E-01  0.35744000000E-01  0.51099999109E-03 0. -1.
       11   -1    0    0    0    0 -0.00000000000E+00 -0.00000000000E+00 -0.35740347158E-01  0.35744000000E-01  0.51099999109E-03 0.  1.
       22    1    1    2    0    0 -0.60906047471E-02 -0.35322254393E-02 -0.35036573778E-01  0.35737005818E-01  0.00000000000E+00 0.  1.
  9000001    1    1    2    0    0  0.60906047471E-02  0.35322254393E-02  0.35036573778E-01  0.35750994182E-01  0.10000000475E-02 0. -1.
</event>
<event>
 4   0  0.4809415E-02  0.9118800E+02  0.7818609E-02  0.1379984E+01
      -11   -1    0    0    0    0  0.00000000000E+00  0.00000000000E+00  0.35740347158E-01  0.35744000000E-01  0.51099999109E-03 0.  1.
       11   -1    0    0    0    0 -0.00000000000E+00 -0.00000000000E+00 -0.35740347158E-01  0.35744000000E-01  0.51099999109E-03 0. -1.
       22    1    1    2    0    0 -0.87193991200E-03 -0.33406654686E-02 -0.35569836377E-01  0.35737005818E-01  0.00000000000E+00 0. -1.
  9000001    1    1    2    0    0  0.87193991200E-03  0.33406654686E-02  0.35569836377E-01  0.35750994182E-01  0.10000000475E-02 0.  1.
</event>
<event>
 4   0  0.4809415E-02  0.9118800E+02  0.7818609E-02  0.1379984E+01
      -11   -1    0    0    0    0  0.00000000000E+00  0.00000000000E+00  0.35740347158E-01  0.35744000000E-01  0.51099999109E-03 0. -1.
       11   -1    0    0    0    0 -0.00000000000E+00 -0.00000000000E+00 -0.35740347158E-01  0.35744000000E-01  0.51099999109E-03 0.  1.
       22    1    1    2    0    0  0.10605296854E-02 -0.34532648641E-01 -0.91381091874E-02  0.35737005818E-01  0.00000000000E+00 0.  1.
  9000001    1    1    2    0    0 -0.10605296854E-02  0.34532648641E-01  0.91381091874E-02  0.35750994182E-01  0.10000000475E-02 0. -1.
</event>
<event>
 4   0  0.4809415E-02  0.9118800E+02  0.7818609E-02  0.1379984E+01
      -11   -1    0    0    0    0  0.00000000000E+00  0.00000000000E+00  0.35740347158E-01  0.35744000000E-01  0.51099999109E-03 0. -1.
       11   -1    0    0    0    0 -0.00000000000E+00 -0.00000000000E+00 -0.35740347158E-01  0.35744000000E-01  0.51099999109E-03 0.  1.
       22    1    1    2    0    0 -0.25702909180E-02  0.52381514177E-02 -0.35257466715E-01  0.35737005818E-01  0.00000000000E+00 0.  1.
  9000001    1    1    2    0    0  0.25702909180E-02 -0.52381514177E-02  0.35257466715E-01  0.35750994182E-01  0.10000000475E-02 0. -1.
</event>
<event>
 4   0  0.4809415E-02  0.9118800E+02  0.7818609E-02  0.1379984E+01
      -11   -1    0    0    0    0  0.00000000000E+00  0.00000000000E+00  0.35740347158E-01  0.35744000000E-01  0.51099999109E-03 0. -1.
       11   -1    0    0    0    0 -0.00000000000E+00 -0.00000000000E+00 -0.35740347158E-01  0.35744000000E-01  0.51099999109E-03 0.  1.
       22    1    1    2    0    0  0.22526358734E-02 -0.47721878280E-02 -0.35345232208E-01  0.35737005818E-01  0.00000000000E+00 0.  1.
  9000001    1    1    2    0    0 -0.22526358734E-02  0.47721878280E-02  0.35345232208E-01  0.35750994182E-01  0.10000000475E-02 0. -1.
</event>
<event>
 4   0  0.4809415E-02  0.9118800E+02  0.7818609E-02  0.1379984E+01
      -11   -1    0    0    0    0  0.00000000000E+00  0.00000000000E+00  0.35740347158E-01  0.35744000000E-01  0.51099999109E-03 0. -1.
       11   -1    0    0    0    0 -0.00000000000E+00 -0.00000000000E+00 -0.35740347158E-01  0.35744000000E-01  0.51099999109E-03 0.  1.
       22    1    1    2    0    0  0.98787508294E-02 -0.33897055687E-01 -0.55257110586E-02  0.35737005818E-01  0.00000000000E+00 0.  1.
  9000001    1    1    2    0    0 -0.98787508294E-02  0.33897055687E-01  0.55257110586E-02  0.35750994182E-01  0.10000000475E-02 0. -1.
</event>
<event>
 4   0  0.4809415E-02  0.9118800E+02  0.7818609E-02  0.1379984E+01
      -11   -1    0    0    0    0  0.00000000000E+00  0.00000000000E+00  0.35740347158E-01  0.35744000000E-01  0.51099999109E-03 0.  1.
       11   -1    0    0    0    0 -0.00000000000E+00 -0.00000000000E+00 -0.35740347158E-01  0.35744000000E-01  0.51099999109E-03 0. -1.
       22    1    1    2    0    0 -0.10604975188E-01 -0.21151138292E-01 -0.26782409060E-01  0.35737005818E-01  0.00000000000E+00 0. -1.
  9000001    1    1    2    0    0  0.10604975188E-01  0.21151138292E-01  0.26782409060E-01  0.35750994182E-01  0.10000000475E-02 0.  1.
</event>
<event>
 4   0  0.4809415E-02  0.9118800E+02  0.7818609E-02  0.1379984E+01
      -11   -1    0    0    0    0  0.00000000000E+00  0.00000000000E+00  0.35740347158E-01  0.35744000000E-01  0.51099999109E-03 0. -1.
       11   -1    0    0    0    0 -0.00000000000E+00 -0.00000000000E+00 -0.35740347158E-01  0.35744000000E-01  0.51099999109E-03 0.  1.
       22    1    1    2    0    0  0.12521105453E-01  0.11571188642E-01 -0.31408010069E-01  0.35737005818E-01  0.00000000000E+00 0.  1.
  9000001    1    1    2    0    0 -0.12521105453E-01 -0.11571188642E-01  0.31408010069E-01  0.35750994182E-01  0.10000000475E-02 0. -1.
</event>
<event>
 4   0  0.4809415E-02  0.9118800E+02  0.7818609E-02  0.1379984E+01
      -11   -1    0    0    0    0  0.00000000000E+00  0.00000000000E+00  0.35740347158E-01  0.35744000000E-01  0.51099999109E-03 0. -1.
       11   -1    0    0    0    0 -0.00000000000E+00 -0.00000000000E+00 -0.35740347158E-01  0.35744000000E-01  0.51099999109E-03 0.  1.
       22    1    1    2    0    0  0.70825989216E-02  0.28638850150E-02 -0.34910865644E-01  0.35737005818E-01  0.00000000000E+00 0.  1.
  9000001    1    1    2    0    0 -0.70825989216E-02 -0.28638850150E-02  0.34910865644E-01  0.35750994182E-01  0.10000000475E-02 0. -1.
</event>
<event>
 4   0  0.4809415E-02  0.9118800E+02  0.7818609E-02  0.1379984E+01
      -11   -1    0    0    0    0  0.00000000000E+00  0.00000000000E+00  0.35740347158E-01  0.35744000000E-01  0.51099999109E-03 0.  1.
       11   -1    0    0    0    0 -0.00000000000E+00 -0.00000000000E+00 -0.35740347158E-01  0.35744000000E-01  0.51099999109E-03 0. -1.
       22    1    1    2    0    0  0.15440662465E-01  0.81575601692E-02  0.31179700762E-01  0.35737005818E-01  0.00000000000E+00 0.  1.
  9000001    1    1    2    0    0 -0.15440662465E-01 -0.81575601692E-02 -0.31179700762E-01  0.35750994182E-01  0.10000000475E-02 0. -1.
</event>
<event>
 4   0  0.4809415E-02  0.9118800E+02  0.7818609E-02  0.1379984E+01
      -11   -1    0    0    0    0  0.00000000000E+00  0.00000000000E+00  0.35740347158E-01  0.35744000000E-01  0.51099999109E-03 0.  1.
       11   -1    0    0    0    0 -0.00000000000E+00 -0.00000000000E+00 -0.35740347158E-01  0.35744000000E-01  0.51099999109E-03 0. -1.
       22    1    1    2    0    0 -0.20048595942E-02  0.32122318356E-02 -0.35535836694E-01  0.35737005818E-01  0.00000000000E+00 0. -1.
  9000001    1    1    2    0    0  0.20048595942E-02 -0.32122318356E-02  0.35535836694E-01  0.35750994182E-01  0.10000000475E-02 0.  1.
</event>
<event>
 4   0  0.4809415E-02  0.9118800E+02  0.7818609E-02  0.1379984E+01
      -11   -1    0    0    0    0  0.00000000000E+00  0.00000000000E+00  0.35740347158E-01  0.35744000000E-01  0.51099999109E-03 0. -1.
       11   -1    0    0    0    0 -0.00000000000E+00 -0.00000000000E+00 -0.35740347158E-01  0.35744000000E-01  0.51099999109E-03 0.  1.
       22    1    1    2    0    0 -0.22664754590E-02 -0.11726868471E-01 -0.33682001569E-01  0.35737005818E-01  0.00000000000E+00 0.  1.
  9000001    1    1    2    0    0  0.22664754590E-02  0.11726868471E-01  0.33682001569E-01  0.35750994182E-01  0.10000000475E-02 0. -1.
</event>
<event>
 4   0  0.4809415E-02  0.9118800E+02  0.7818609E-02  0.1379984E+01
      -11   -1    0    0    0    0  0.00000000000E+00  0.00000000000E+00  0.35740347158E-01  0.35744000000E-01  0.51099999109E-03 0. -1.
       11   -1    0    0    0    0 -0.00000000000E+00 -0.00000000000E+00 -0.35740347158E-01  0.35744000000E-01  0.51099999109E-03 0.  1.
       22    1    1    2    0    0  0.86880143883E-02 -0.25255279946E-02  0.34572730572E-01  0.35737005818E-01  0.00000000000E+00 0. -1.
  9000001    1    1    2    0    0 -0.86880143883E-02  0.25255279946E-02 -0.34572730572E-01  0.35750994182E-01  0.10000000475E-02 0.  1.
</event>
<event>
 4   0  0.4809415E-02  0.9118800E+02  0.7818609E-02  0.1379984E+01
      -11   -1    0    0    0    0  0.00000000000E+00  0.00000000000E+00  0.35740347158E-01  0.35744000000E-01  0.51099999109E-03 0.  1.
       11   -1    0    0    0    0 -0.00000000000E+00 -0.00000000000E+00 -0.35740347158E-01  0.35744000000E-01  0.51099999109E-03 0. -1.
       22    1    1    2    0    0  0.36288985607E-03 -0.81314134723E-02  0.34797729966E-01  0.35737005818E-01  0.00000000000E+00 0.  1.
  9000001    1    1    2    0    0 -0.36288985607E-03  0.81314134723E-02 -0.34797729966E-01  0.35750994182E-01  0.10000000475E-02 0. -1.
</event>
<event>
 4   0  0.4809415E-02  0.9118800E+02  0.7818609E-02  0.1379984E+01
      -11   -1    0    0    0    0  0.00000000000E+00  0.00000000000E+00  0.35740347158E-01  0.35744000000E-01  0.51099999109E-03 0.  1.
       11   -1    0    0    0    0 -0.00000000000E+00 -0.00000000000E+00 -0.35740347158E-01  0.35744000000E-01  0.51099999109E-03 0. -1.
       22    1    1    2    0    0  0.26243479117E-02  0.72158334018E-02 -0.34902408674E-01  0.35737005818E-01  0.00000000000E+00 0. -1.
  9000001    1    1    2    0    0 -0.26243479117E-02 -0.72158334018E-02  0.34902408674E-01  0.35750994182E-01  0.10000000475E-02 0.  1.
</event>
<event>
 4   0  0.4809415E-02  0.9118800E+02  0.7818609E-02  0.1379984E+01
      -11   -1    0    0    0    0  0.00000000000E+00  0.00000000000E+00  0.35740347158E-01  0.35744000000E-01  0.51099999109E-03 0.  1.
       11   -1    0    0    0    0 -0.00000000000E+00 -0.00000000000E+00 -0.35740347158E-01  0.35744000000E-01  0.51099999109E-03 0. -1.
       22    1    1    2    0    0 -0.32469993418E-02  0.70652066461E-02  0.34880846251E-01  0.35737005818E-01  0.00000000000E+00 0.  1.
  9000001    1    1    2    0    0  0.32469993418E-02 -0.70652066461E-02 -0.34880846251E-01  0.35750994182E-01  0.10000000475E-02 0. -1.
</event>
<event>
 4   0  0.4809415E-02  0.9118800E+02  0.7818609E-02  0.1379984E+01
      -11   -1    0    0    0    0  0.00000000000E+00  0.00000000000E+00  0.35740347158E-01  0.35744000000E-01  0.51099999109E-03 0. -1.
       11   -1    0    0    0    0 -0.00000000000E+00 -0.00000000000E+00 -0.35740347158E-01  0.35744000000E-01  0.51099999109E-03 0.  1.
       22    1    1    2    0    0  0.82787646747E-02  0.67505147404E-02 -0.34103169810E-01  0.35737005818E-01  0.00000000000E+00 0.  1.
  9000001    1    1    2    0    0 -0.82787646747E-02 -0.67505147404E-02  0.34103169810E-01  0.35750994182E-01  0.10000000475E-02 0. -1.
</event>
<event>
 4   0  0.4809415E-02  0.9118800E+02  0.7818609E-02  0.1379984E+01
      -11   -1    0    0    0    0  0.00000000000E+00  0.00000000000E+00  0.35740347158E-01  0.35744000000E-01  0.51099999109E-03 0.  1.
       11   -1    0    0    0    0 -0.00000000000E+00 -0.00000000000E+00 -0.35740347158E-01  0.35744000000E-01  0.51099999109E-03 0. -1.
       22    1    1    2    0    0  0.45484628717E-02 -0.12213382655E-01  0.33275792320E-01  0.35737005818E-01  0.00000000000E+00 0.  1.
  9000001    1    1    2    0    0 -0.45484628717E-02  0.12213382655E-01 -0.33275792320E-01  0.35750994182E-01  0.10000000475E-02 0. -1.
</event>
<event>
 4   0  0.4809415E-02  0.9118800E+02  0.7818609E-02  0.1379984E+01
      -11   -1    0    0    0    0  0.00000000000E+00  0.00000000000E+00  0.35740347158E-01  0.35744000000E-01  0.51099999109E-03 0. -1.
       11   -1    0    0    0    0 -0.00000000000E+00 -0.00000000000E+00 -0.35740347158E-01  0.35744000000E-01  0.51099999109E-03 0.  1.
       22    1    1    2    0    0  0.81129425996E-02  0.60156474706E-02 -0.34280106954E-01  0.35737005818E-01  0.00000000000E+00 0.  1.
  9000001    1    1    2    0    0 -0.81129425996E-02 -0.60156474706E-02  0.34280106954E-01  0.35750994182E-01  0.10000000475E-02 0. -1.
</event>
<event>
 4   0  0.4809415E-02  0.9118800E+02  0.7818609E-02  0.1379984E+01
      -11   -1    0    0    0    0  0.00000000000E+00  0.00000000000E+00  0.35740347158E-01  0.35744000000E-01  0.51099999109E-03 0. -1.
       11   -1    0    0    0    0 -0.00000000000E+00 -0.00000000000E+00 -0.35740347158E-01  0.35744000000E-01  0.51099999109E-03 0.  1.
       22    1    1    2    0    0  0.77366216082E-02  0.37439987623E-03  0.34887506298E-01  0.35737005818E-01  0.00000000000E+00 0. -1.
  9000001    1    1    2    0    0 -0.77366216082E-02 -0.37439987623E-03 -0.34887506298E-01  0.35750994182E-01  0.10000000475E-02 0.  1.
</event>
<event>
 4   0  0.4809415E-02  0.9118800E+02  0.7818609E-02  0.1379984E+01
      -11   -1    0    0    0    0  0.00000000000E+00  0.00000000000E+00  0.35740347158E-01  0.35744000000E-01  0.51099999109E-03 0.  1.
       11   -1    0    0    0    0 -0.00000000000E+00 -0.00000000000E+00 -0.35740347158E-01  0.35744000000E-01  0.51099999109E-03 0. -1.
       22    1    1    2    0    0  0.36587604952E-02  0.32807091779E-02  0.35397514091E-01  0.35737005818E-01  0.00000000000E+00 0.  1.
  9000001    1    1    2    0    0 -0.36587604952E-02 -0.32807091779E-02 -0.35397514091E-01  0.35750994182E-01  0.10000000475E-02 0. -1.
</event>
<event>
 4   0  0.4809415E-02  0.9118800E+02  0.7818609E-02  0.1379984E+01
      -11   -1    0    0    0    0  0.00000000000E+00  0.00000000000E+00  0.35740347158E-01  0.35744000000E-01  0.51099999109E-03 0. -1.
       11   -1    0    0    0    0 -0.00000000000E+00 -0.00000000000E+00 -0.35740347158E-01  0.35744000000E-01  0.51099999109E-03 0.  1.
       22    1    1    2    0    0  0.40885815635E-02 -0.29995808019E-02  0.35375409548E-01  0.35737005818E-01  0.00000000000E+00 0. -1.
  9000001    1    1    2    0    0 -0.40885815635E-02  0.29995808019E-02 -0.35375409548E-01  0.35750994182E-01  0.10000000475E-02 0.  1.
</event>
<event>
 4   0  0.4809415E-02  0.9118800E+02  0.7818609E-02  0.1379984E+01
      -11   -1    0    0    0    0  0.00000000000E+00  0.00000000000E+00  0.35740347158E-01  0.35744000000E-01  0.51099999109E-03 0. -1.
       11   -1    0    0    0    0 -0.00000000000E+00 -0.00000000000E+00 -0.35740347158E-01  0.35744000000E-01  0.51099999109E-03 0.  1.
       22    1    1    2    0    0  0.29770130493E-01 -0.33531025434E-02  0.19484086292E-01  0.35737005818E-01  0.00000000000E+00 0. -1.
  9000001    1    1    2    0    0 -0.29770130493E-01  0.33531025434E-02 -0.19484086292E-01  0.35750994182E-01  0.10000000475E-02 0.  1.
</event>
<event>
 4   0  0.4809415E-02  0.9118800E+02  0.7818609E-02  0.1379984E+01
      -11   -1    0    0    0    0  0.00000000000E+00  0.00000000000E+00  0.35740347158E-01  0.35744000000E-01  0.51099999109E-03 0.  1.
       11   -1    0    0    0    0 -0.00000000000E+00 -0.00000000000E+00 -0.35740347158E-01  0.35744000000E-01  0.51099999109E-03 0. -1.
       22    1    1    2    0    0 -0.16800360140E-01 -0.15947680702E-01 -0.27213102805E-01  0.35737005818E-01  0.00000000000E+00 0. -1.
  9000001    1    1    2    0    0  0.16800360140E-01  0.15947680702E-01  0.27213102805E-01  0.35750994182E-01  0.10000000475E-02 0.  1.
</event>
<event>
 4   0  0.4809415E-02  0.9118800E+02  0.7818609E-02  0.1379984E+01
      -11   -1    0    0    0    0  0.00000000000E+00  0.00000000000E+00  0.35740347158E-01  0.35744000000E-01  0.51099999109E-03 0.  1.
       11   -1    0    0    0    0 -0.00000000000E+00 -0.00000000000E+00 -0.35740347158E-01  0.35744000000E-01  0.51099999109E-03 0. -1.
       22    1    1    2    0    0 -0.22544854259E-01 -0.20048587401E-01 -0.19155084821E-01  0.35737005818E-01  0.00000000000E+00 0. -1.
  9000001    1    1    2    0    0  0.22544854259E-01  0.20048587401E-01  0.19155084821E-01  0.35750994182E-01  0.10000000475E-02 0.  1.
</event>
<event>
 4   0  0.4809415E-02  0.9118800E+02  0.7818609E-02  0.1379984E+01
      -11   -1    0    0    0    0  0.00000000000E+00  0.00000000000E+00  0.35740347158E-01  0.35744000000E-01  0.51099999109E-03 0. -1.
       11   -1    0    0    0    0 -0.00000000000E+00 -0.00000000000E+00 -0.35740347158E-01  0.35744000000E-01  0.51099999109E-03 0.  1.
       22    1    1    2    0    0 -0.26572958167E-02  0.21577739113E-02  0.35572691430E-01  0.35737005818E-01  0.00000000000E+00 0. -1.
  9000001    1    1    2    0    0  0.26572958167E-02 -0.21577739113E-02 -0.35572691430E-01  0.35750994182E-01  0.10000000475E-02 0.  1.
</event>
<event>
 4   0  0.4809415E-02  0.9118800E+02  0.7818609E-02  0.1379984E+01
      -11   -1    0    0    0    0  0.00000000000E+00  0.00000000000E+00  0.35740347158E-01  0.35744000000E-01  0.51099999109E-03 0. -1.
       11   -1    0    0    0    0 -0.00000000000E+00 -0.00000000000E+00 -0.35740347158E-01  0.35744000000E-01  0.51099999109E-03 0.  1.
       22    1    1    2    0    0 -0.58995925083E-02  0.14103497175E-02 -0.35218451226E-01  0.35737005818E-01  0.00000000000E+00 0.  1.
  9000001    1    1    2    0    0  0.58995925083E-02 -0.14103497175E-02  0.35218451226E-01  0.35750994182E-01  0.10000000475E-02 0. -1.
</event>
<event>
 4   0  0.4809415E-02  0.9118800E+02  0.7818609E-02  0.1379984E+01
      -11   -1    0    0    0    0  0.00000000000E+00  0.00000000000E+00  0.35740347158E-01  0.35744000000E-01  0.51099999109E-03 0. -1.
       11   -1    0    0    0    0 -0.00000000000E+00 -0.00000000000E+00 -0.35740347158E-01  0.35744000000E-01  0.51099999109E-03 0.  1.
       22    1    1    2    0    0 -0.31328291747E-01 -0.16676138290E-01  0.41926283921E-02  0.35737005818E-01  0.00000000000E+00 0. -1.
  9000001    1    1    2    0    0  0.31328291747E-01  0.16676138290E-01 -0.41926283921E-02  0.35750994182E-01  0.10000000475E-02 0.  1.
</event>
<event>
 4   0  0.4809415E-02  0.9118800E+02  0.7818609E-02  0.1379984E+01
      -11   -1    0    0    0    0  0.00000000000E+00  0.00000000000E+00  0.35740347158E-01  0.35744000000E-01  0.51099999109E-03 0. -1.
       11   -1    0    0    0    0 -0.00000000000E+00 -0.00000000000E+00 -0.35740347158E-01  0.35744000000E-01  0.51099999109E-03 0.  1.
       22    1    1    2    0    0 -0.18424006702E-01 -0.24804322322E-02 -0.30521091361E-01  0.35737005818E-01  0.00000000000E+00 0.  1.
  9000001    1    1    2    0    0  0.18424006702E-01  0.24804322322E-02  0.30521091361E-01  0.35750994182E-01  0.10000000475E-02 0. -1.
</event>
<event>
 4   0  0.4809415E-02  0.9118800E+02  0.7818609E-02  0.1379984E+01
      -11   -1    0    0    0    0  0.00000000000E+00  0.00000000000E+00  0.35740347158E-01  0.35744000000E-01  0.51099999109E-03 0.  1.
       11   -1    0    0    0    0 -0.00000000000E+00 -0.00000000000E+00 -0.35740347158E-01  0.35744000000E-01  0.51099999109E-03 0. -1.
       22    1    1    2    0    0 -0.59138323625E-02 -0.84807699413E-02  0.34208722760E-01  0.35737005818E-01  0.00000000000E+00 0.  1.
  9000001    1    1    2    0    0  0.59138323625E-02  0.84807699413E-02 -0.34208722760E-01  0.35750994182E-01  0.10000000475E-02 0. -1.
</event>
<event>
 4   0  0.4809415E-02  0.9118800E+02  0.7818609E-02  0.1379984E+01
      -11   -1    0    0    0    0  0.00000000000E+00  0.00000000000E+00  0.35740347158E-01  0.35744000000E-01  0.51099999109E-03 0.  1.
       11   -1    0    0    0    0 -0.00000000000E+00 -0.00000000000E+00 -0.35740347158E-01  0.35744000000E-01  0.51099999109E-03 0.  1.
       22    1    1    2    0    0  0.30047508324E-02 -0.19857289708E-02  0.35555055024E-01  0.35737005818E-01  0.00000000000E+00 0.  1.
  9000001    1    1    2    0    0 -0.30047508324E-02  0.19857289708E-02 -0.35555055024E-01  0.35750994182E-01  0.10000000475E-02 0.  1.
</event>
<event>
 4   0  0.4809415E-02  0.9118800E+02  0.7818609E-02  0.1379984E+01
      -11   -1    0    0    0    0  0.00000000000E+00  0.00000000000E+00  0.35740347158E-01  0.35744000000E-01  0.51099999109E-03 0. -1.
       11   -1    0    0    0    0 -0.00000000000E+00 -0.00000000000E+00 -0.35740347158E-01  0.35744000000E-01  0.51099999109E-03 0.  1.
       22    1    1    2    0    0  0.46579475207E-02  0.52363620269E-02  0.35043082377E-01  0.35737005818E-01  0.00000000000E+00 0. -1.
  9000001    1    1    2    0    0 -0.46579475207E-02 -0.52363620269E-02 -0.35043082377E-01  0.35750994182E-01  0.10000000475E-02 0.  1.
</event>
<event>
 4   0  0.4809415E-02  0.9118800E+02  0.7818609E-02  0.1379984E+01
      -11   -1    0    0    0    0  0.00000000000E+00  0.00000000000E+00  0.35740347158E-01  0.35744000000E-01  0.51099999109E-03 0. -1.
       11   -1    0    0    0    0 -0.00000000000E+00 -0.00000000000E+00 -0.35740347158E-01  0.35744000000E-01  0.51099999109E-03 0.  1.
       22    1    1    2    0    0 -0.44988846507E-02 -0.42964923733E-02  0.35191387797E-01  0.35737005818E-01  0.00000000000E+00 0. -1.
  9000001    1    1    2    0    0  0.44988846507E-02  0.42964923733E-02 -0.35191387797E-01  0.35750994182E-01  0.10000000475E-02 0.  1.
</event>
<event>
 4   0  0.4809415E-02  0.9118800E+02  0.7818609E-02  0.1379984E+01
      -11   -1    0    0    0    0  0.00000000000E+00  0.00000000000E+00  0.35740347158E-01  0.35744000000E-01  0.51099999109E-03 0.  1.
       11   -1    0    0    0    0 -0.00000000000E+00 -0.00000000000E+00 -0.35740347158E-01  0.35744000000E-01  0.51099999109E-03 0. -1.
       22    1    1    2    0    0  0.19148842163E-01 -0.10760804744E-01 -0.28189723481E-01  0.35737005818E-01  0.00000000000E+00 0. -1.
  9000001    1    1    2    0    0 -0.19148842163E-01  0.10760804744E-01  0.28189723481E-01  0.35750994182E-01  0.10000000475E-02 0.  1.
</event>
<event>
 4   0  0.4809415E-02  0.9118800E+02  0.7818609E-02  0.1379984E+01
      -11   -1    0    0    0    0  0.00000000000E+00  0.00000000000E+00  0.35740347158E-01  0.35744000000E-01  0.51099999109E-03 0.  1.
       11   -1    0    0    0    0 -0.00000000000E+00 -0.00000000000E+00 -0.35740347158E-01  0.35744000000E-01  0.51099999109E-03 0. -1.
       22    1    1    2    0    0 -0.15780421984E-02 -0.40359592606E-02  0.35473291369E-01  0.35737005818E-01  0.00000000000E+00 0.  1.
  9000001    1    1    2    0    0  0.15780421984E-02  0.40359592606E-02 -0.35473291369E-01  0.35750994182E-01  0.10000000475E-02 0. -1.
</event>
<event>
 4   0  0.4809415E-02  0.9118800E+02  0.7818609E-02  0.1379984E+01
      -11   -1    0    0    0    0  0.00000000000E+00  0.00000000000E+00  0.35740347158E-01  0.35744000000E-01  0.51099999109E-03 0.  1.
       11   -1    0    0    0    0 -0.00000000000E+00 -0.00000000000E+00 -0.35740347158E-01  0.35744000000E-01  0.51099999109E-03 0. -1.
       22    1    1    2    0    0 -0.12717741656E-01 -0.33494937162E-02 -0.33229106577E-01  0.35737005818E-01  0.00000000000E+00 0. -1.
  9000001    1    1    2    0    0  0.12717741656E-01  0.33494937162E-02  0.33229106577E-01  0.35750994182E-01  0.10000000475E-02 0.  1.
</event>
<event>
 4   0  0.4809415E-02  0.9118800E+02  0.7818609E-02  0.1379984E+01
      -11   -1    0    0    0    0  0.00000000000E+00  0.00000000000E+00  0.35740347158E-01  0.35744000000E-01  0.51099999109E-03 0. -1.
       11   -1    0    0    0    0 -0.00000000000E+00 -0.00000000000E+00 -0.35740347158E-01  0.35744000000E-01  0.51099999109E-03 0.  1.
       22    1    1    2    0    0 -0.32351347269E-01 -0.13046175546E-01 -0.77666735732E-02  0.35737005818E-01  0.00000000000E+00 0.  1.
  9000001    1    1    2    0    0  0.32351347269E-01  0.13046175546E-01  0.77666735732E-02  0.35750994182E-01  0.10000000475E-02 0. -1.
</event>
<event>
 4   0  0.4809415E-02  0.9118800E+02  0.7818609E-02  0.1379984E+01
      -11   -1    0    0    0    0  0.00000000000E+00  0.00000000000E+00  0.35740347158E-01  0.35744000000E-01  0.51099999109E-03 0. -1.
       11   -1    0    0    0    0 -0.00000000000E+00 -0.00000000000E+00 -0.35740347158E-01  0.35744000000E-01  0.51099999109E-03 0.  1.
       22    1    1    2    0    0  0.21545129847E-04 -0.35316944797E-02 -0.35562062015E-01  0.35737005818E-01  0.00000000000E+00 0.  1.
  9000001    1    1    2    0    0 -0.21545129847E-04  0.35316944797E-02  0.35562062015E-01  0.35750994182E-01  0.10000000475E-02 0. -1.
</event>
<event>
 4   0  0.4809415E-02  0.9118800E+02  0.7818609E-02  0.1379984E+01
      -11   -1    0    0    0    0  0.00000000000E+00  0.00000000000E+00  0.35740347158E-01  0.35744000000E-01  0.51099999109E-03 0.  1.
       11   -1    0    0    0    0 -0.00000000000E+00 -0.00000000000E+00 -0.35740347158E-01  0.35744000000E-01  0.51099999109E-03 0. -1.
       22    1    1    2    0    0 -0.79199896686E-02 -0.48632995812E-02 -0.34507327710E-01  0.35737005818E-01  0.00000000000E+00 0. -1.
  9000001    1    1    2    0    0  0.79199896686E-02  0.48632995812E-02  0.34507327710E-01  0.35750994182E-01  0.10000000475E-02 0.  1.
</event>
<event>
 4   0  0.4809415E-02  0.9118800E+02  0.7818609E-02  0.1379984E+01
      -11   -1    0    0    0    0  0.00000000000E+00  0.00000000000E+00  0.35740347158E-01  0.35744000000E-01  0.51099999109E-03 0. -1.
       11   -1    0    0    0    0 -0.00000000000E+00 -0.00000000000E+00 -0.35740347158E-01  0.35744000000E-01  0.51099999109E-03 0.  1.
       22    1    1    2    0    0  0.25280397524E-02  0.40997211759E-02 -0.35410943028E-01  0.35737005818E-01  0.00000000000E+00 0.  1.
  9000001    1    1    2    0    0 -0.25280397524E-02 -0.40997211759E-02  0.35410943028E-01  0.35750994182E-01  0.10000000475E-02 0. -1.
</event>
<event>
 4   0  0.4809415E-02  0.9118800E+02  0.7818609E-02  0.1379984E+01
      -11   -1    0    0    0    0  0.00000000000E+00  0.00000000000E+00  0.35740347158E-01  0.35744000000E-01  0.51099999109E-03 0. -1.
       11   -1    0    0    0    0 -0.00000000000E+00 -0.00000000000E+00 -0.35740347158E-01  0.35744000000E-01  0.51099999109E-03 0.  1.
       22    1    1    2    0    0  0.47971068894E-02  0.13107966488E-02  0.35389308590E-01  0.35737005818E-01  0.00000000000E+00 0. -1.
  9000001    1    1    2    0    0 -0.47971068894E-02 -0.13107966488E-02 -0.35389308590E-01  0.35750994182E-01  0.10000000475E-02 0.  1.
</event>
<event>
 4   0  0.4809415E-02  0.9118800E+02  0.7818609E-02  0.1379984E+01
      -11   -1    0    0    0    0  0.00000000000E+00  0.00000000000E+00  0.35740347158E-01  0.35744000000E-01  0.51099999109E-03 0. -1.
       11   -1    0    0    0    0 -0.00000000000E+00 -0.00000000000E+00 -0.35740347158E-01  0.35744000000E-01  0.51099999109E-03 0.  1.
       22    1    1    2    0    0  0.41286924163E-02 -0.25387470995E-02  0.35406810743E-01  0.35737005818E-01  0.00000000000E+00 0. -1.
  9000001    1    1    2    0    0 -0.41286924163E-02  0.25387470995E-02 -0.35406810743E-01  0.35750994182E-01  0.10000000475E-02 0.  1.
</event>
<event>
 4   0  0.4809415E-02  0.9118800E+02  0.7818609E-02  0.1379984E+01
      -11   -1    0    0    0    0  0.00000000000E+00  0.00000000000E+00  0.35740347158E-01  0.35744000000E-01  0.51099999109E-03 0. -1.
       11   -1    0    0    0    0 -0.00000000000E+00 -0.00000000000E+00 -0.35740347158E-01  0.35744000000E-01  0.51099999109E-03 0.  1.
       22    1    1    2    0    0  0.26001949565E-02  0.34721274231E-01 -0.80501979365E-02  0.35737005818E-01  0.00000000000E+00 0.  1.
  9000001    1    1    2    0    0 -0.26001949565E-02 -0.34721274231E-01  0.80501979365E-02  0.35750994182E-01  0.10000000475E-02 0. -1.
</event>
<event>
 4   0  0.4809415E-02  0.9118800E+02  0.7818609E-02  0.1379984E+01
      -11   -1    0    0    0    0  0.00000000000E+00  0.00000000000E+00  0.35740347158E-01  0.35744000000E-01  0.51099999109E-03 0. -1.
       11   -1    0    0    0    0 -0.00000000000E+00 -0.00000000000E+00 -0.35740347158E-01  0.35744000000E-01  0.51099999109E-03 0.  1.
       22    1    1    2    0    0 -0.24121140474E-01 -0.23201008829E-01  0.12530656663E-01  0.35737005818E-01  0.00000000000E+00 0. -1.
  9000001    1    1    2    0    0  0.24121140474E-01  0.23201008829E-01 -0.12530656663E-01  0.35750994182E-01  0.10000000475E-02 0.  1.
</event>
<event>
 4   0  0.4809415E-02  0.9118800E+02  0.7818609E-02  0.1379984E+01
      -11   -1    0    0    0    0  0.00000000000E+00  0.00000000000E+00  0.35740347158E-01  0.35744000000E-01  0.51099999109E-03 0. -1.
       11   -1    0    0    0    0 -0.00000000000E+00 -0.00000000000E+00 -0.35740347158E-01  0.35744000000E-01  0.51099999109E-03 0.  1.
       22    1    1    2    0    0  0.18348919751E-02  0.93628134657E-02 -0.34439867600E-01  0.35737005818E-01  0.00000000000E+00 0.  1.
  9000001    1    1    2    0    0 -0.18348919751E-02 -0.93628134657E-02  0.34439867600E-01  0.35750994182E-01  0.10000000475E-02 0. -1.
</event>
<event>
 4   0  0.4809415E-02  0.9118800E+02  0.7818609E-02  0.1379984E+01
      -11   -1    0    0    0    0  0.00000000000E+00  0.00000000000E+00  0.35740347158E-01  0.35744000000E-01  0.51099999109E-03 0.  1.
       11   -1    0    0    0    0 -0.00000000000E+00 -0.00000000000E+00 -0.35740347158E-01  0.35744000000E-01  0.51099999109E-03 0. -1.
       22    1    1    2    0    0 -0.10512434858E-01  0.66493663585E-02 -0.33502361488E-01  0.35737005818E-01  0.00000000000E+00 0. -1.
  9000001    1    1    2    0    0  0.10512434858E-01 -0.66493663585E-02  0.33502361488E-01  0.35750994182E-01  0.10000000475E-02 0.  1.
</event>
<event>
 4   0  0.4809415E-02  0.9118800E+02  0.7818609E-02  0.1379984E+01
      -11   -1    0    0    0    0  0.00000000000E+00  0.00000000000E+00  0.35740347158E-01  0.35744000000E-01  0.51099999109E-03 0. -1.
       11   -1    0    0    0    0 -0.00000000000E+00 -0.00000000000E+00 -0.35740347158E-01  0.35744000000E-01  0.51099999109E-03 0.  1.
       22    1    1    2    0    0  0.71622964162E-02  0.15946305723E-01  0.31169703700E-01  0.35737005818E-01  0.00000000000E+00 0. -1.
  9000001    1    1    2    0    0 -0.71622964162E-02 -0.15946305723E-01 -0.31169703700E-01  0.35750994182E-01  0.10000000475E-02 0.  1.
</event>
<event>
 4   0  0.4809415E-02  0.9118800E+02  0.7818609E-02  0.1379984E+01
      -11   -1    0    0    0    0  0.00000000000E+00  0.00000000000E+00  0.35740347158E-01  0.35744000000E-01  0.51099999109E-03 0. -1.
       11   -1    0    0    0    0 -0.00000000000E+00 -0.00000000000E+00 -0.35740347158E-01  0.35744000000E-01  0.51099999109E-03 0.  1.
       22    1    1    2    0    0 -0.36298138304E-02  0.27977905211E-02 -0.35441930035E-01  0.35737005818E-01  0.00000000000E+00 0.  1.
  9000001    1    1    2    0    0  0.36298138304E-02 -0.27977905211E-02  0.35441930035E-01  0.35750994182E-01  0.10000000475E-02 0. -1.
</event>
<event>
 4   0  0.4809415E-02  0.9118800E+02  0.7818609E-02  0.1379984E+01
      -11   -1    0    0    0    0  0.00000000000E+00  0.00000000000E+00  0.35740347158E-01  0.35744000000E-01  0.51099999109E-03 0. -1.
       11   -1    0    0    0    0 -0.00000000000E+00 -0.00000000000E+00 -0.35740347158E-01  0.35744000000E-01  0.51099999109E-03 0.  1.
       22    1    1    2    0    0 -0.11379704873E-01 -0.25956003748E-01  0.21769744401E-01  0.35737005818E-01  0.00000000000E+00 0.  1.
  9000001    1    1    2    0    0  0.11379704873E-01  0.25956003748E-01 -0.21769744401E-01  0.35750994182E-01  0.10000000475E-02 0. -1.
</event>
<event>
 4   0  0.4809415E-02  0.9118800E+02  0.7818609E-02  0.1379984E+01
      -11   -1    0    0    0    0  0.00000000000E+00  0.00000000000E+00  0.35740347158E-01  0.35744000000E-01  0.51099999109E-03 0.  1.
       11   -1    0    0    0    0 -0.00000000000E+00 -0.00000000000E+00 -0.35740347158E-01  0.35744000000E-01  0.51099999109E-03 0. -1.
       22    1    1    2    0    0  0.18434575290E-01  0.27439174607E-01 -0.13579091118E-01  0.35737005818E-01  0.00000000000E+00 0.  1.
  9000001    1    1    2    0    0 -0.18434575290E-01 -0.27439174607E-01  0.13579091118E-01  0.35750994182E-01  0.10000000475E-02 0. -1.
</event>
<event>
 4   0  0.4809415E-02  0.9118800E+02  0.7818609E-02  0.1379984E+01
      -11   -1    0    0    0    0  0.00000000000E+00  0.00000000000E+00  0.35740347158E-01  0.35744000000E-01  0.51099999109E-03 0. -1.
       11   -1    0    0    0    0 -0.00000000000E+00 -0.00000000000E+00 -0.35740347158E-01  0.35744000000E-01  0.51099999109E-03 0.  1.
       22    1    1    2    0    0  0.11208672792E-01 -0.26516922454E-02  0.33829983260E-01  0.35737005818E-01  0.00000000000E+00 0. -1.
  9000001    1    1    2    0    0 -0.11208672792E-01  0.26516922454E-02 -0.33829983260E-01  0.35750994182E-01  0.10000000475E-02 0.  1.
</event>
<event>
 4   0  0.4809415E-02  0.9118800E+02  0.7818609E-02  0.1379984E+01
      -11   -1    0    0    0    0  0.00000000000E+00  0.00000000000E+00  0.35740347158E-01  0.35744000000E-01  0.51099999109E-03 0.  1.
       11   -1    0    0    0    0 -0.00000000000E+00 -0.00000000000E+00 -0.35740347158E-01  0.35744000000E-01  0.51099999109E-03 0. -1.
       22    1    1    2    0    0 -0.30929530316E-01  0.72778483431E-02 -0.16356364597E-01  0.35737005818E-01  0.00000000000E+00 0. -1.
  9000001    1    1    2    0    0  0.30929530316E-01 -0.72778483431E-02  0.16356364597E-01  0.35750994182E-01  0.10000000475E-02 0.  1.
</event>
<event>
 4   0  0.4809415E-02  0.9118800E+02  0.7818609E-02  0.1379984E+01
      -11   -1    0    0    0    0  0.00000000000E+00  0.00000000000E+00  0.35740347158E-01  0.35744000000E-01  0.51099999109E-03 0.  1.
       11   -1    0    0    0    0 -0.00000000000E+00 -0.00000000000E+00 -0.35740347158E-01  0.35744000000E-01  0.51099999109E-03 0. -1.
       22    1    1    2    0    0 -0.33564003845E-02  0.17497825214E-02 -0.35535987709E-01  0.35737005818E-01  0.00000000000E+00 0. -1.
  9000001    1    1    2    0    0  0.33564003845E-02 -0.17497825214E-02  0.35535987709E-01  0.35750994182E-01  0.10000000475E-02 0.  1.
</event>
<event>
 4   0  0.4809415E-02  0.9118800E+02  0.7818609E-02  0.1379984E+01
      -11   -1    0    0    0    0  0.00000000000E+00  0.00000000000E+00  0.35740347158E-01  0.35744000000E-01  0.51099999109E-03 0.  1.
       11   -1    0    0    0    0 -0.00000000000E+00 -0.00000000000E+00 -0.35740347158E-01  0.35744000000E-01  0.51099999109E-03 0. -1.
       22    1    1    2    0    0  0.12430944151E-01  0.15168054115E-02  0.33470950296E-01  0.35737005818E-01  0.00000000000E+00 0.  1.
  9000001    1    1    2    0    0 -0.12430944151E-01 -0.15168054115E-02 -0.33470950296E-01  0.35750994182E-01  0.10000000475E-02 0. -1.
</event>
<event>
 4   0  0.4809415E-02  0.9118800E+02  0.7818609E-02  0.1379984E+01
      -11   -1    0    0    0    0  0.00000000000E+00  0.00000000000E+00  0.35740347158E-01  0.35744000000E-01  0.51099999109E-03 0.  1.
       11   -1    0    0    0    0 -0.00000000000E+00 -0.00000000000E+00 -0.35740347158E-01  0.35744000000E-01  0.51099999109E-03 0. -1.
       22    1    1    2    0    0  0.20158318219E-02  0.13506851680E-01  0.33024762900E-01  0.35737005818E-01  0.00000000000E+00 0.  1.
  9000001    1    1    2    0    0 -0.20158318219E-02 -0.13506851680E-01 -0.33024762900E-01  0.35750994182E-01  0.10000000475E-02 0. -1.
</event>
<event>
 4   0  0.4809415E-02  0.9118800E+02  0.7818609E-02  0.1379984E+01
      -11   -1    0    0    0    0  0.00000000000E+00  0.00000000000E+00  0.35740347158E-01  0.35744000000E-01  0.51099999109E-03 0. -1.
       11   -1    0    0    0    0 -0.00000000000E+00 -0.00000000000E+00 -0.35740347158E-01  0.35744000000E-01  0.51099999109E-03 0.  1.
       22    1    1    2    0    0 -0.88731290728E-02 -0.26762405405E-01  0.21958479507E-01  0.35737005818E-01  0.00000000000E+00 0. -1.
  9000001    1    1    2    0    0  0.88731290728E-02  0.26762405405E-01 -0.21958479507E-01  0.35750994182E-01  0.10000000475E-02 0.  1.
</event>
<event>
 4   0  0.4809415E-02  0.9118800E+02  0.7818609E-02  0.1379984E+01
      -11   -1    0    0    0    0  0.00000000000E+00  0.00000000000E+00  0.35740347158E-01  0.35744000000E-01  0.51099999109E-03 0.  1.
       11   -1    0    0    0    0 -0.00000000000E+00 -0.00000000000E+00 -0.35740347158E-01  0.35744000000E-01  0.51099999109E-03 0. -1.
       22    1    1    2    0    0 -0.13047258375E-01 -0.64475784313E-02 -0.32639414305E-01  0.35737005818E-01  0.00000000000E+00 0. -1.
  9000001    1    1    2    0    0  0.13047258375E-01  0.64475784313E-02  0.32639414305E-01  0.35750994182E-01  0.10000000475E-02 0.  1.
</event>
<event>
 4   0  0.4809415E-02  0.9118800E+02  0.7818609E-02  0.1379984E+01
      -11   -1    0    0    0    0  0.00000000000E+00  0.00000000000E+00  0.35740347158E-01  0.35744000000E-01  0.51099999109E-03 0.  1.
       11   -1    0    0    0    0 -0.00000000000E+00 -0.00000000000E+00 -0.35740347158E-01  0.35744000000E-01  0.51099999109E-03 0. -1.
       22    1    1    2    0    0  0.75743834795E-02 -0.22688817357E-01  0.26551456960E-01  0.35737005818E-01  0.00000000000E+00 0.  1.
  9000001    1    1    2    0    0 -0.75743834795E-02  0.22688817357E-01 -0.26551456960E-01  0.35750994182E-01  0.10000000475E-02 0. -1.
</event>
<event>
 4   0  0.4809415E-02  0.9118800E+02  0.7818609E-02  0.1379984E+01
      -11   -1    0    0    0    0  0.00000000000E+00  0.00000000000E+00  0.35740347158E-01  0.35744000000E-01  0.51099999109E-03 0. -1.
       11   -1    0    0    0    0 -0.00000000000E+00 -0.00000000000E+00 -0.35740347158E-01  0.35744000000E-01  0.51099999109E-03 0.  1.
       22    1    1    2    0    0  0.67320656951E-02  0.15183237139E-01  0.31643043253E-01  0.35737005818E-01  0.00000000000E+00 0. -1.
  9000001    1    1    2    0    0 -0.67320656951E-02 -0.15183237139E-01 -0.31643043253E-01  0.35750994182E-01  0.10000000475E-02 0.  1.
</event>
<event>
 4   0  0.4809415E-02  0.9118800E+02  0.7818609E-02  0.1379984E+01
      -11   -1    0    0    0    0  0.00000000000E+00  0.00000000000E+00  0.35740347158E-01  0.35744000000E-01  0.51099999109E-03 0. -1.
       11   -1    0    0    0    0 -0.00000000000E+00 -0.00000000000E+00 -0.35740347158E-01  0.35744000000E-01  0.51099999109E-03 0.  1.
       22    1    1    2    0    0 -0.25182565190E-02 -0.35334533238E-02 -0.35472618688E-01  0.35737005818E-01  0.00000000000E+00 0.  1.
  9000001    1    1    2    0    0  0.25182565190E-02  0.35334533238E-02  0.35472618688E-01  0.35750994182E-01  0.10000000475E-02 0. -1.
</event>
<event>
 4   0  0.4809415E-02  0.9118800E+02  0.7818609E-02  0.1379984E+01
      -11   -1    0    0    0    0  0.00000000000E+00  0.00000000000E+00  0.35740347158E-01  0.35744000000E-01  0.51099999109E-03 0.  1.
       11   -1    0    0    0    0 -0.00000000000E+00 -0.00000000000E+00 -0.35740347158E-01  0.35744000000E-01  0.51099999109E-03 0. -1.
       22    1    1    2    0    0 -0.46687180442E-02 -0.51816575509E-02  0.35049780052E-01  0.35737005818E-01  0.00000000000E+00 0.  1.
  9000001    1    1    2    0    0  0.46687180442E-02  0.51816575509E-02 -0.35049780052E-01  0.35750994182E-01  0.10000000475E-02 0. -1.
</event>
<event>
 4   0  0.4809415E-02  0.9118800E+02  0.7818609E-02  0.1379984E+01
      -11   -1    0    0    0    0  0.00000000000E+00  0.00000000000E+00  0.35740347158E-01  0.35744000000E-01  0.51099999109E-03 0. -1.
       11   -1    0    0    0    0 -0.00000000000E+00 -0.00000000000E+00 -0.35740347158E-01  0.35744000000E-01  0.51099999109E-03 0.  1.
       22    1    1    2    0    0 -0.13740069734E-01 -0.19216366221E-02  0.32934045929E-01  0.35737005818E-01  0.00000000000E+00 0. -1.
  9000001    1    1    2    0    0  0.13740069734E-01  0.19216366221E-02 -0.32934045929E-01  0.35750994182E-01  0.10000000475E-02 0.  1.
</event>
<event>
 4   0  0.4809415E-02  0.9118800E+02  0.7818609E-02  0.1379984E+01
      -11   -1    0    0    0    0  0.00000000000E+00  0.00000000000E+00  0.35740347158E-01  0.35744000000E-01  0.51099999109E-03 0.  1.
       11   -1    0    0    0    0 -0.00000000000E+00 -0.00000000000E+00 -0.35740347158E-01  0.35744000000E-01  0.51099999109E-03 0. -1.
       22    1    1    2    0    0 -0.28204526706E-01 -0.61789263349E-02 -0.21058469258E-01  0.35737005818E-01  0.00000000000E+00 0. -1.
  9000001    1    1    2    0    0  0.28204526706E-01  0.61789263349E-02  0.21058469258E-01  0.35750994182E-01  0.10000000475E-02 0.  1.
</event>
<event>
 4   0  0.4809415E-02  0.9118800E+02  0.7818609E-02  0.1379984E+01
      -11   -1    0    0    0    0  0.00000000000E+00  0.00000000000E+00  0.35740347158E-01  0.35744000000E-01  0.51099999109E-03 0. -1.
       11   -1    0    0    0    0 -0.00000000000E+00 -0.00000000000E+00 -0.35740347158E-01  0.35744000000E-01  0.51099999109E-03 0.  1.
       22    1    1    2    0    0  0.82877578701E-02 -0.46999280544E-02 -0.34443538300E-01  0.35737005818E-01  0.00000000000E+00 0.  1.
  9000001    1    1    2    0    0 -0.82877578701E-02  0.46999280544E-02  0.34443538300E-01  0.35750994182E-01  0.10000000475E-02 0. -1.
</event>
<event>
 4   0  0.4809415E-02  0.9118800E+02  0.7818609E-02  0.1379984E+01
      -11   -1    0    0    0    0  0.00000000000E+00  0.00000000000E+00  0.35740347158E-01  0.35744000000E-01  0.51099999109E-03 0.  1.
       11   -1    0    0    0    0 -0.00000000000E+00 -0.00000000000E+00 -0.35740347158E-01  0.35744000000E-01  0.51099999109E-03 0. -1.
       22    1    1    2    0    0 -0.20119228920E-01 -0.44106735847E-02 -0.29204386162E-01  0.35737005818E-01  0.00000000000E+00 0.  1.
  9000001    1    1    2    0    0  0.20119228920E-01  0.44106735847E-02  0.29204386162E-01  0.35750994182E-01  0.10000000475E-02 0. -1.
</event>
<event>
 4   0  0.4809415E-02  0.9118800E+02  0.7818609E-02  0.1379984E+01
      -11   -1    0    0    0    0  0.00000000000E+00  0.00000000000E+00  0.35740347158E-01  0.35744000000E-01  0.51099999109E-03 0.  1.
       11   -1    0    0    0    0 -0.00000000000E+00 -0.00000000000E+00 -0.35740347158E-01  0.35744000000E-01  0.51099999109E-03 0. -1.
       22    1    1    2    0    0  0.31374913101E-01 -0.31694959958E-02 -0.16813765429E-01  0.35737005818E-01  0.00000000000E+00 0. -1.
  9000001    1    1    2    0    0 -0.31374913101E-01  0.31694959958E-02  0.16813765429E-01  0.35750994182E-01  0.10000000475E-02 0.  1.
</event>
<event>
 4   0  0.4809415E-02  0.9118800E+02  0.7818609E-02  0.1379984E+01
      -11   -1    0    0    0    0  0.00000000000E+00  0.00000000000E+00  0.35740347158E-01  0.35744000000E-01  0.51099999109E-03 0. -1.
       11   -1    0    0    0    0 -0.00000000000E+00 -0.00000000000E+00 -0.35740347158E-01  0.35744000000E-01  0.51099999109E-03 0.  1.
       22    1    1    2    0    0 -0.51377737248E-02  0.20926201061E-02  0.35303793098E-01  0.35737005818E-01  0.00000000000E+00 0. -1.
  9000001    1    1    2    0    0  0.51377737248E-02 -0.20926201061E-02 -0.35303793098E-01  0.35750994182E-01  0.10000000475E-02 0.  1.
</event>
<event>
 4   0  0.4809415E-02  0.9118800E+02  0.7818609E-02  0.1379984E+01
      -11   -1    0    0    0    0  0.00000000000E+00  0.00000000000E+00  0.35740347158E-01  0.35744000000E-01  0.51099999109E-03 0.  1.
       11   -1    0    0    0    0 -0.00000000000E+00 -0.00000000000E+00 -0.35740347158E-01  0.35744000000E-01  0.51099999109E-03 0. -1.
       22    1    1    2    0    0 -0.13843924996E-01 -0.18676422212E-01  0.27141676052E-01  0.35737005818E-01  0.00000000000E+00 0.  1.
  9000001    1    1    2    0    0  0.13843924996E-01  0.18676422212E-01 -0.27141676052E-01  0.35750994182E-01  0.10000000475E-02 0. -1.
</event>
<event>
 4   0  0.4809415E-02  0.9118800E+02  0.7818609E-02  0.1379984E+01
      -11   -1    0    0    0    0  0.00000000000E+00  0.00000000000E+00  0.35740347158E-01  0.35744000000E-01  0.51099999109E-03 0. -1.
       11   -1    0    0    0    0 -0.00000000000E+00 -0.00000000000E+00 -0.35740347158E-01  0.35744000000E-01  0.51099999109E-03 0.  1.
       22    1    1    2    0    0  0.32198008095E-01  0.15316350853E-01 -0.24147994025E-02  0.35737005818E-01  0.00000000000E+00 0.  1.
  9000001    1    1    2    0    0 -0.32198008095E-01 -0.15316350853E-01  0.24147994025E-02  0.35750994182E-01  0.10000000475E-02 0. -1.
</event>
<event>
 4   0  0.4809415E-02  0.9118800E+02  0.7818609E-02  0.1379984E+01
      -11   -1    0    0    0    0  0.00000000000E+00  0.00000000000E+00  0.35740347158E-01  0.35744000000E-01  0.51099999109E-03 0. -1.
       11   -1    0    0    0    0 -0.00000000000E+00 -0.00000000000E+00 -0.35740347158E-01  0.35744000000E-01  0.51099999109E-03 0.  1.
       22    1    1    2    0    0  0.16174917182E-01  0.52105982016E-02  0.31438118668E-01  0.35737005818E-01  0.00000000000E+00 0. -1.
  9000001    1    1    2    0    0 -0.16174917182E-01 -0.52105982016E-02 -0.31438118668E-01  0.35750994182E-01  0.10000000475E-02 0.  1.
</event>
<event>
 4   0  0.4809415E-02  0.9118800E+02  0.7818609E-02  0.1379984E+01
      -11   -1    0    0    0    0  0.00000000000E+00  0.00000000000E+00  0.35740347158E-01  0.35744000000E-01  0.51099999109E-03 0.  1.
       11   -1    0    0    0    0 -0.00000000000E+00 -0.00000000000E+00 -0.35740347158E-01  0.35744000000E-01  0.51099999109E-03 0. -1.
       22    1    1    2    0    0  0.56505754425E-03  0.80343198180E-02  0.34817581764E-01  0.35737005818E-01  0.00000000000E+00 0.  1.
  9000001    1    1    2    0    0 -0.56505754425E-03 -0.80343198180E-02 -0.34817581764E-01  0.35750994182E-01  0.10000000475E-02 0. -1.
</event>
<event>
 4   0  0.4809415E-02  0.9118800E+02  0.7818609E-02  0.1379984E+01
      -11   -1    0    0    0    0  0.00000000000E+00  0.00000000000E+00  0.35740347158E-01  0.35744000000E-01  0.51099999109E-03 0. -1.
       11   -1    0    0    0    0 -0.00000000000E+00 -0.00000000000E+00 -0.35740347158E-01  0.35744000000E-01  0.51099999109E-03 0.  1.
       22    1    1    2    0    0  0.44590551324E-02  0.89979519469E-03 -0.35446308423E-01  0.35737005818E-01  0.00000000000E+00 0.  1.
  9000001    1    1    2    0    0 -0.44590551324E-02 -0.89979519469E-03  0.35446308423E-01  0.35750994182E-01  0.10000000475E-02 0. -1.
</event>
<event>
 4   0  0.4809415E-02  0.9118800E+02  0.7818609E-02  0.1379984E+01
      -11   -1    0    0    0    0  0.00000000000E+00  0.00000000000E+00  0.35740347158E-01  0.35744000000E-01  0.51099999109E-03 0. -1.
       11   -1    0    0    0    0 -0.00000000000E+00 -0.00000000000E+00 -0.35740347158E-01  0.35744000000E-01  0.51099999109E-03 0.  1.
       22    1    1    2    0    0  0.61957899230E-02  0.21793439978E-01 -0.27636782483E-01  0.35737005818E-01  0.00000000000E+00 0.  1.
  9000001    1    1    2    0    0 -0.61957899230E-02 -0.21793439978E-01  0.27636782483E-01  0.35750994182E-01  0.10000000475E-02 0. -1.
</event>
<event>
 4   0  0.4809415E-02  0.9118800E+02  0.7818609E-02  0.1379984E+01
      -11   -1    0    0    0    0  0.00000000000E+00  0.00000000000E+00  0.35740347158E-01  0.35744000000E-01  0.51099999109E-03 0.  1.
       11   -1    0    0    0    0 -0.00000000000E+00 -0.00000000000E+00 -0.35740347158E-01  0.35744000000E-01  0.51099999109E-03 0. -1.
       22    1    1    2    0    0 -0.32934234051E-01  0.13341016087E-01 -0.38061925980E-02  0.35737005818E-01  0.00000000000E+00 0. -1.
  9000001    1    1    2    0    0  0.32934234051E-01 -0.13341016087E-01  0.38061925980E-02  0.35750994182E-01  0.10000000475E-02 0.  1.
</event>
<event>
 4   0  0.4809415E-02  0.9118800E+02  0.7818609E-02  0.1379984E+01
      -11   -1    0    0    0    0  0.00000000000E+00  0.00000000000E+00  0.35740347158E-01  0.35744000000E-01  0.51099999109E-03 0. -1.
       11   -1    0    0    0    0 -0.00000000000E+00 -0.00000000000E+00 -0.35740347158E-01  0.35744000000E-01  0.51099999109E-03 0.  1.
       22    1    1    2    0    0  0.31697481998E-02  0.16181895090E-02 -0.35559355224E-01  0.35737005818E-01  0.00000000000E+00 0.  1.
  9000001    1    1    2    0    0 -0.31697481998E-02 -0.16181895090E-02  0.35559355224E-01  0.35750994182E-01  0.10000000475E-02 0. -1.
</event>
<event>
 4   0  0.4809415E-02  0.9118800E+02  0.7818609E-02  0.1379984E+01
      -11   -1    0    0    0    0  0.00000000000E+00  0.00000000000E+00  0.35740347158E-01  0.35744000000E-01  0.51099999109E-03 0.  1.
       11   -1    0    0    0    0 -0.00000000000E+00 -0.00000000000E+00 -0.35740347158E-01  0.35744000000E-01  0.51099999109E-03 0. -1.
       22    1    1    2    0    0 -0.48182177948E-02 -0.25110967976E-02  0.35321562183E-01  0.35737005818E-01  0.00000000000E+00 0.  1.
  9000001    1    1    2    0    0  0.48182177948E-02  0.25110967976E-02 -0.35321562183E-01  0.35750994182E-01  0.10000000475E-02 0. -1.
</event>
<event>
 4   0  0.4809415E-02  0.9118800E+02  0.7818609E-02  0.1379984E+01
      -11   -1    0    0    0    0  0.00000000000E+00  0.00000000000E+00  0.35740347158E-01  0.35744000000E-01  0.51099999109E-03 0. -1.
       11   -1    0    0    0    0 -0.00000000000E+00 -0.00000000000E+00 -0.35740347158E-01  0.35744000000E-01  0.51099999109E-03 0.  1.
       22    1    1    2    0    0  0.10012527790E-01 -0.66498133695E-02  0.33655056890E-01  0.35737005818E-01  0.00000000000E+00 0. -1.
  9000001    1    1    2    0    0 -0.10012527790E-01  0.66498133695E-02 -0.33655056890E-01  0.35750994182E-01  0.10000000475E-02 0.  1.
</event>
<event>
 4   0  0.4809415E-02  0.9118800E+02  0.7818609E-02  0.1379984E+01
      -11   -1    0    0    0    0  0.00000000000E+00  0.00000000000E+00  0.35740347158E-01  0.35744000000E-01  0.51099999109E-03 0.  1.
       11   -1    0    0    0    0 -0.00000000000E+00 -0.00000000000E+00 -0.35740347158E-01  0.35744000000E-01  0.51099999109E-03 0. -1.
       22    1    1    2    0    0 -0.16703757234E-01 -0.22866798155E-01  0.21799716082E-01  0.35737005818E-01  0.00000000000E+00 0.  1.
  9000001    1    1    2    0    0  0.16703757234E-01  0.22866798155E-01 -0.21799716082E-01  0.35750994182E-01  0.10000000475E-02 0. -1.
</event>
<event>
 4   0  0.4809415E-02  0.9118800E+02  0.7818609E-02  0.1379984E+01
      -11   -1    0    0    0    0  0.00000000000E+00  0.00000000000E+00  0.35740347158E-01  0.35744000000E-01  0.51099999109E-03 0.  1.
       11   -1    0    0    0    0 -0.00000000000E+00 -0.00000000000E+00 -0.35740347158E-01  0.35744000000E-01  0.51099999109E-03 0. -1.
       22    1    1    2    0    0  0.93827547446E-02 -0.74429334167E-03  0.34475259618E-01  0.35737005818E-01  0.00000000000E+00 0.  1.
  9000001    1    1    2    0    0 -0.93827547446E-02  0.74429334167E-03 -0.34475259618E-01  0.35750994182E-01  0.10000000475E-02 0. -1.
</event>
<event>
 4   0  0.4809415E-02  0.9118800E+02  0.7818609E-02  0.1379984E+01
      -11   -1    0    0    0    0  0.00000000000E+00  0.00000000000E+00  0.35740347158E-01  0.35744000000E-01  0.51099999109E-03 0.  1.
       11   -1    0    0    0    0 -0.00000000000E+00 -0.00000000000E+00 -0.35740347158E-01  0.35744000000E-01  0.51099999109E-03 0. -1.
       22    1    1    2    0    0  0.11501785886E-01 -0.89086826563E-02  0.32641658653E-01  0.35737005818E-01  0.00000000000E+00 0.  1.
  9000001    1    1    2    0    0 -0.11501785886E-01  0.89086826563E-02 -0.32641658653E-01  0.35750994182E-01  0.10000000475E-02 0. -1.
</event>
<event>
 4   0  0.4809415E-02  0.9118800E+02  0.7818609E-02  0.1379984E+01
      -11   -1    0    0    0    0  0.00000000000E+00  0.00000000000E+00  0.35740347158E-01  0.35744000000E-01  0.51099999109E-03 0.  1.
       11   -1    0    0    0    0 -0.00000000000E+00 -0.00000000000E+00 -0.35740347158E-01  0.35744000000E-01  0.51099999109E-03 0. -1.
       22    1    1    2    0    0  0.74888381468E-02  0.95242806950E-02 -0.33620514055E-01  0.35737005818E-01  0.00000000000E+00 0. -1.
  9000001    1    1    2    0    0 -0.74888381468E-02 -0.95242806950E-02  0.33620514055E-01  0.35750994182E-01  0.10000000475E-02 0.  1.
</event>
<event>
 4   0  0.4809415E-02  0.9118800E+02  0.7818609E-02  0.1379984E+01
      -11   -1    0    0    0    0  0.00000000000E+00  0.00000000000E+00  0.35740347158E-01  0.35744000000E-01  0.51099999109E-03 0. -1.
       11   -1    0    0    0    0 -0.00000000000E+00 -0.00000000000E+00 -0.35740347158E-01  0.35744000000E-01  0.51099999109E-03 0.  1.
       22    1    1    2    0    0  0.37541486991E-02  0.53784058715E-03  0.35535203389E-01  0.35737005818E-01  0.00000000000E+00 0. -1.
  9000001    1    1    2    0    0 -0.37541486991E-02 -0.53784058715E-03 -0.35535203389E-01  0.35750994182E-01  0.10000000475E-02 0.  1.
</event>
<event>
 4   0  0.4809415E-02  0.9118800E+02  0.7818609E-02  0.1379984E+01
      -11   -1    0    0    0    0  0.00000000000E+00  0.00000000000E+00  0.35740347158E-01  0.35744000000E-01  0.51099999109E-03 0. -1.
       11   -1    0    0    0    0 -0.00000000000E+00 -0.00000000000E+00 -0.35740347158E-01  0.35744000000E-01  0.51099999109E-03 0.  1.
       22    1    1    2    0    0  0.53068184717E-02 -0.10867478594E-01  0.33628398291E-01  0.35737005818E-01  0.00000000000E+00 0. -1.
  9000001    1    1    2    0    0 -0.53068184717E-02  0.10867478594E-01 -0.33628398291E-01  0.35750994182E-01  0.10000000475E-02 0.  1.
</event>
<event>
 4   0  0.4809415E-02  0.9118800E+02  0.7818609E-02  0.1379984E+01
      -11   -1    0    0    0    0  0.00000000000E+00  0.00000000000E+00  0.35740347158E-01  0.35744000000E-01  0.51099999109E-03 0.  1.
       11   -1    0    0    0    0 -0.00000000000E+00 -0.00000000000E+00 -0.35740347158E-01  0.35744000000E-01  0.51099999109E-03 0. -1.
       22    1    1    2    0    0 -0.22122466228E-02 -0.25383412780E-02  0.35578032173E-01  0.35737005818E-01  0.00000000000E+00 0.  1.
  9000001    1    1    2    0    0  0.22122466228E-02  0.25383412780E-02 -0.35578032173E-01  0.35750994182E-01  0.10000000475E-02 0. -1.
</event>
<event>
 4   0  0.4809415E-02  0.9118800E+02  0.7818609E-02  0.1379984E+01
      -11   -1    0    0    0    0  0.00000000000E+00  0.00000000000E+00  0.35740347158E-01  0.35744000000E-01  0.51099999109E-03 0. -1.
       11   -1    0    0    0    0 -0.00000000000E+00 -0.00000000000E+00 -0.35740347158E-01  0.35744000000E-01  0.51099999109E-03 0.  1.
       22    1    1    2    0    0 -0.53514730207E-02 -0.29488444837E-02 -0.35210788653E-01  0.35737005818E-01  0.00000000000E+00 0.  1.
  9000001    1    1    2    0    0  0.53514730207E-02  0.29488444837E-02  0.35210788653E-01  0.35750994182E-01  0.10000000475E-02 0. -1.
</event>
<event>
 4   0  0.4809415E-02  0.9118800E+02  0.7818609E-02  0.1379984E+01
      -11   -1    0    0    0    0  0.00000000000E+00  0.00000000000E+00  0.35740347158E-01  0.35744000000E-01  0.51099999109E-03 0. -1.
       11   -1    0    0    0    0 -0.00000000000E+00 -0.00000000000E+00 -0.35740347158E-01  0.35744000000E-01  0.51099999109E-03 0.  1.
       22    1    1    2    0    0  0.11389224272E-02  0.58305067384E-02  0.35239773435E-01  0.35737005818E-01  0.00000000000E+00 0. -1.
  9000001    1    1    2    0    0 -0.11389224272E-02 -0.58305067384E-02 -0.35239773435E-01  0.35750994182E-01  0.10000000475E-02 0.  1.
</event>
<event>
 4   0  0.4809415E-02  0.9118800E+02  0.7818609E-02  0.1379984E+01
      -11   -1    0    0    0    0  0.00000000000E+00  0.00000000000E+00  0.35740347158E-01  0.35744000000E-01  0.51099999109E-03 0.  1.
       11   -1    0    0    0    0 -0.00000000000E+00 -0.00000000000E+00 -0.35740347158E-01  0.35744000000E-01  0.51099999109E-03 0. -1.
       22    1    1    2    0    0 -0.90881323531E-03 -0.65513907218E-02  0.35119608810E-01  0.35737005818E-01  0.00000000000E+00 0.  1.
  9000001    1    1    2    0    0  0.90881323531E-03  0.65513907218E-02 -0.35119608810E-01  0.35750994182E-01  0.10000000475E-02 0. -1.
</event>
<event>
 4   0  0.4809415E-02  0.9118800E+02  0.7818609E-02  0.1379984E+01
      -11   -1    0    0    0    0  0.00000000000E+00  0.00000000000E+00  0.35740347158E-01  0.35744000000E-01  0.51099999109E-03 0. -1.
       11   -1    0    0    0    0 -0.00000000000E+00 -0.00000000000E+00 -0.35740347158E-01  0.35744000000E-01  0.51099999109E-03 0.  1.
       22    1    1    2    0    0  0.44380693284E-02  0.61492023812E-02  0.34923121790E-01  0.35737005818E-01  0.00000000000E+00 0. -1.
  9000001    1    1    2    0    0 -0.44380693284E-02 -0.61492023812E-02 -0.34923121790E-01  0.35750994182E-01  0.10000000475E-02 0.  1.
</event>
<event>
 4   0  0.4809415E-02  0.9118800E+02  0.7818609E-02  0.1379984E+01
      -11   -1    0    0    0    0  0.00000000000E+00  0.00000000000E+00  0.35740347158E-01  0.35744000000E-01  0.51099999109E-03 0.  1.
       11   -1    0    0    0    0 -0.00000000000E+00 -0.00000000000E+00 -0.35740347158E-01  0.35744000000E-01  0.51099999109E-03 0. -1.
       22    1    1    2    0    0  0.27016165541E-01 -0.13884300848E-01  0.18827813847E-01  0.35737005818E-01  0.00000000000E+00 0. -1.
  9000001    1    1    2    0    0 -0.27016165541E-01  0.13884300848E-01 -0.18827813847E-01  0.35750994182E-01  0.10000000475E-02 0.  1.
</event>
<event>
 4   0  0.4809415E-02  0.9118800E+02  0.7818609E-02  0.1379984E+01
      -11   -1    0    0    0    0  0.00000000000E+00  0.00000000000E+00  0.35740347158E-01  0.35744000000E-01  0.51099999109E-03 0.  1.
       11   -1    0    0    0    0 -0.00000000000E+00 -0.00000000000E+00 -0.35740347158E-01  0.35744000000E-01  0.51099999109E-03 0. -1.
       22    1    1    2    0    0  0.14687059370E-01 -0.12154147629E-01  0.30227480334E-01  0.35737005818E-01  0.00000000000E+00 0.  1.
  9000001    1    1    2    0    0 -0.14687059370E-01  0.12154147629E-01 -0.30227480334E-01  0.35750994182E-01  0.10000000475E-02 0. -1.
</event>
<event>
 4   0  0.4809415E-02  0.9118800E+02  0.7818609E-02  0.1379984E+01
      -11   -1    0    0    0    0  0.00000000000E+00  0.00000000000E+00  0.35740347158E-01  0.35744000000E-01  0.51099999109E-03 0.  1.
       11   -1    0    0    0    0 -0.00000000000E+00 -0.00000000000E+00 -0.35740347158E-01  0.35744000000E-01  0.51099999109E-03 0. -1.
       22    1    1    2    0    0 -0.56836365359E-02  0.40286239752E-02 -0.35051391548E-01  0.35737005818E-01  0.00000000000E+00 0. -1.
  9000001    1    1    2    0    0  0.56836365359E-02 -0.40286239752E-02  0.35051391548E-01  0.35750994182E-01  0.10000000475E-02 0.  1.
</event>
<event>
 4   0  0.4809415E-02  0.9118800E+02  0.7818609E-02  0.1379984E+01
      -11   -1    0    0    0    0  0.00000000000E+00  0.00000000000E+00  0.35740347158E-01  0.35744000000E-01  0.51099999109E-03 0.  1.
       11   -1    0    0    0    0 -0.00000000000E+00 -0.00000000000E+00 -0.35740347158E-01  0.35744000000E-01  0.51099999109E-03 0. -1.
       22    1    1    2    0    0  0.78055489770E-02  0.25255177550E-01  0.24049594528E-01  0.35737005818E-01  0.00000000000E+00 0.  1.
  9000001    1    1    2    0    0 -0.78055489770E-02 -0.25255177550E-01 -0.24049594528E-01  0.35750994182E-01  0.10000000475E-02 0. -1.
</event>
<event>
 4   0  0.4809415E-02  0.9118800E+02  0.7818609E-02  0.1379984E+01
      -11   -1    0    0    0    0  0.00000000000E+00  0.00000000000E+00  0.35740347158E-01  0.35744000000E-01  0.51099999109E-03 0. -1.
       11   -1    0    0    0    0 -0.00000000000E+00 -0.00000000000E+00 -0.35740347158E-01  0.35744000000E-01  0.51099999109E-03 0.  1.
       22    1    1    2    0    0 -0.19644689617E-02 -0.41778841904E-02  0.35437546900E-01  0.35737005818E-01  0.00000000000E+00 0. -1.
  9000001    1    1    2    0    0  0.19644689617E-02  0.41778841904E-02 -0.35437546900E-01  0.35750994182E-01  0.10000000475E-02 0.  1.
</event>
<event>
 4   0  0.4809415E-02  0.9118800E+02  0.7818609E-02  0.1379984E+01
      -11   -1    0    0    0    0  0.00000000000E+00  0.00000000000E+00  0.35740347158E-01  0.35744000000E-01  0.51099999109E-03 0.  1.
       11   -1    0    0    0    0 -0.00000000000E+00 -0.00000000000E+00 -0.35740347158E-01  0.35744000000E-01  0.51099999109E-03 0. -1.
       22    1    1    2    0    0  0.11682096875E-01 -0.64699807708E-02 -0.33148175610E-01  0.35737005818E-01  0.00000000000E+00 0. -1.
  9000001    1    1    2    0    0 -0.11682096875E-01  0.64699807708E-02  0.33148175610E-01  0.35750994182E-01  0.10000000475E-02 0.  1.
</event>
<event>
 4   0  0.4809415E-02  0.9118800E+02  0.7818609E-02  0.1379984E+01
      -11   -1    0    0    0    0  0.00000000000E+00  0.00000000000E+00  0.35740347158E-01  0.35744000000E-01  0.51099999109E-03 0. -1.
       11   -1    0    0    0    0 -0.00000000000E+00 -0.00000000000E+00 -0.35740347158E-01  0.35744000000E-01  0.51099999109E-03 0.  1.
       22    1    1    2    0    0 -0.27690690483E-02 -0.16894015476E-02 -0.35589489514E-01  0.35737005818E-01  0.00000000000E+00 0.  1.
  9000001    1    1    2    0    0  0.27690690483E-02  0.16894015476E-02  0.35589489514E-01  0.35750994182E-01  0.10000000475E-02 0. -1.
</event>
<event>
 4   0  0.4809415E-02  0.9118800E+02  0.7818609E-02  0.1379984E+01
      -11   -1    0    0    0    0  0.00000000000E+00  0.00000000000E+00  0.35740347158E-01  0.35744000000E-01  0.51099999109E-03 0.  1.
       11   -1    0    0    0    0 -0.00000000000E+00 -0.00000000000E+00 -0.35740347158E-01  0.35744000000E-01  0.51099999109E-03 0. -1.
       22    1    1    2    0    0  0.22737637651E-01 -0.14049265554E-01  0.23722385131E-01  0.35737005818E-01  0.00000000000E+00 0.  1.
  9000001    1    1    2    0    0 -0.22737637651E-01  0.14049265554E-01 -0.23722385131E-01  0.35750994182E-01  0.10000000475E-02 0. -1.
</event>
<event>
 4   0  0.4809415E-02  0.9118800E+02  0.7818609E-02  0.1379984E+01
      -11   -1    0    0    0    0  0.00000000000E+00  0.00000000000E+00  0.35740347158E-01  0.35744000000E-01  0.51099999109E-03 0. -1.
       11   -1    0    0    0    0 -0.00000000000E+00 -0.00000000000E+00 -0.35740347158E-01  0.35744000000E-01  0.51099999109E-03 0.  1.
       22    1    1    2    0    0 -0.10969558195E-02  0.42668656968E-02 -0.35464406522E-01  0.35737005818E-01  0.00000000000E+00 0.  1.
  9000001    1    1    2    0    0  0.10969558195E-02 -0.42668656968E-02  0.35464406522E-01  0.35750994182E-01  0.10000000475E-02 0. -1.
</event>
<event>
 4   0  0.4809415E-02  0.9118800E+02  0.7818609E-02  0.1379984E+01
      -11   -1    0    0    0    0  0.00000000000E+00  0.00000000000E+00  0.35740347158E-01  0.35744000000E-01  0.51099999109E-03 0. -1.
       11   -1    0    0    0    0 -0.00000000000E+00 -0.00000000000E+00 -0.35740347158E-01  0.35744000000E-01  0.51099999109E-03 0.  1.
       22    1    1    2    0    0 -0.23242722058E-02 -0.24571141562E-02 -0.35576592496E-01  0.35737005818E-01  0.00000000000E+00 0.  1.
  9000001    1    1    2    0    0  0.23242722058E-02  0.24571141562E-02  0.35576592496E-01  0.35750994182E-01  0.10000000475E-02 0. -1.
</event>
<event>
 4   0  0.4809415E-02  0.9118800E+02  0.7818609E-02  0.1379984E+01
      -11   -1    0    0    0    0  0.00000000000E+00  0.00000000000E+00  0.35740347158E-01  0.35744000000E-01  0.51099999109E-03 0. -1.
       11   -1    0    0    0    0 -0.00000000000E+00 -0.00000000000E+00 -0.35740347158E-01  0.35744000000E-01  0.51099999109E-03 0.  1.
       22    1    1    2    0    0  0.18962434425E-01  0.12451498191E-01  0.27613762119E-01  0.35737005818E-01  0.00000000000E+00 0. -1.
  9000001    1    1    2    0    0 -0.18962434425E-01 -0.12451498191E-01 -0.27613762119E-01  0.35750994182E-01  0.10000000475E-02 0.  1.
</event>
<event>
 4   0  0.4809415E-02  0.9118800E+02  0.7818609E-02  0.1379984E+01
      -11   -1    0    0    0    0  0.00000000000E+00  0.00000000000E+00  0.35740347158E-01  0.35744000000E-01  0.51099999109E-03 0. -1.
       11   -1    0    0    0    0 -0.00000000000E+00 -0.00000000000E+00 -0.35740347158E-01  0.35744000000E-01  0.51099999109E-03 0.  1.
       22    1    1    2    0    0  0.16882677023E-01 -0.14528377355E-01 -0.27947004362E-01  0.35737005818E-01  0.00000000000E+00 0.  1.
  9000001    1    1    2    0    0 -0.16882677023E-01  0.14528377355E-01  0.27947004362E-01  0.35750994182E-01  0.10000000475E-02 0. -1.
</event>
<event>
 4   0  0.4809415E-02  0.9118800E+02  0.7818609E-02  0.1379984E+01
      -11   -1    0    0    0    0  0.00000000000E+00  0.00000000000E+00  0.35740347158E-01  0.35744000000E-01  0.51099999109E-03 0.  1.
       11   -1    0    0    0    0 -0.00000000000E+00 -0.00000000000E+00 -0.35740347158E-01  0.35744000000E-01  0.51099999109E-03 0. -1.
       22    1    1    2    0    0  0.22817796045E-01  0.35796562260E-02  0.27270273739E-01  0.35737005818E-01  0.00000000000E+00 0.  1.
  9000001    1    1    2    0    0 -0.22817796045E-01 -0.35796562260E-02 -0.27270273739E-01  0.35750994182E-01  0.10000000475E-02 0. -1.
</event>
<event>
 4   0  0.4809415E-02  0.9118800E+02  0.7818609E-02  0.1379984E+01
      -11   -1    0    0    0    0  0.00000000000E+00  0.00000000000E+00  0.35740347158E-01  0.35744000000E-01  0.51099999109E-03 0. -1.
       11   -1    0    0    0    0 -0.00000000000E+00 -0.00000000000E+00 -0.35740347158E-01  0.35744000000E-01  0.51099999109E-03 0.  1.
       22    1    1    2    0    0  0.39004817425E-02 -0.12907868193E-02  0.35500052062E-01  0.35737005818E-01  0.00000000000E+00 0. -1.
  9000001    1    1    2    0    0 -0.39004817425E-02  0.12907868193E-02 -0.35500052062E-01  0.35750994182E-01  0.10000000475E-02 0.  1.
</event>
<event>
 4   0  0.4809415E-02  0.9118800E+02  0.7818609E-02  0.1379984E+01
      -11   -1    0    0    0    0  0.00000000000E+00  0.00000000000E+00  0.35740347158E-01  0.35744000000E-01  0.51099999109E-03 0. -1.
       11   -1    0    0    0    0 -0.00000000000E+00 -0.00000000000E+00 -0.35740347158E-01  0.35744000000E-01  0.51099999109E-03 0.  1.
       22    1    1    2    0    0 -0.66221913773E-02  0.83800074752E-02  0.34103601583E-01  0.35737005818E-01  0.00000000000E+00 0. -1.
  9000001    1    1    2    0    0  0.66221913773E-02 -0.83800074752E-02 -0.34103601583E-01  0.35750994182E-01  0.10000000475E-02 0.  1.
</event>
<event>
 4   0  0.4809415E-02  0.9118800E+02  0.7818609E-02  0.1379984E+01
      -11   -1    0    0    0    0  0.00000000000E+00  0.00000000000E+00  0.35740347158E-01  0.35744000000E-01  0.51099999109E-03 0.  1.
       11   -1    0    0    0    0 -0.00000000000E+00 -0.00000000000E+00 -0.35740347158E-01  0.35744000000E-01  0.51099999109E-03 0. -1.
       22    1    1    2    0    0 -0.64703222676E-02 -0.11466546407E-02 -0.35127677090E-01  0.35737005818E-01  0.00000000000E+00 0. -1.
  9000001    1    1    2    0    0  0.64703222676E-02  0.11466546407E-02  0.35127677090E-01  0.35750994182E-01  0.10000000475E-02 0.  1.
</event>
<event>
 4   0  0.4809415E-02  0.9118800E+02  0.7818609E-02  0.1379984E+01
      -11   -1    0    0    0    0  0.00000000000E+00  0.00000000000E+00  0.35740347158E-01  0.35744000000E-01  0.51099999109E-03 0. -1.
       11   -1    0    0    0    0 -0.00000000000E+00 -0.00000000000E+00 -0.35740347158E-01  0.35744000000E-01  0.51099999109E-03 0.  1.
       22    1    1    2    0    0  0.57348402520E-02  0.67410428157E-02 -0.34623742344E-01  0.35737005818E-01  0.00000000000E+00 0.  1.
  9000001    1    1    2    0    0 -0.57348402520E-02 -0.67410428157E-02  0.34623742344E-01  0.35750994182E-01  0.10000000475E-02 0. -1.
</event>
<event>
 4   0  0.4809415E-02  0.9118800E+02  0.7818609E-02  0.1379984E+01
      -11   -1    0    0    0    0  0.00000000000E+00  0.00000000000E+00  0.35740347158E-01  0.35744000000E-01  0.51099999109E-03 0.  1.
       11   -1    0    0    0    0 -0.00000000000E+00 -0.00000000000E+00 -0.35740347158E-01  0.35744000000E-01  0.51099999109E-03 0. -1.
       22    1    1    2    0    0  0.35803752914E-02  0.92055948389E-02 -0.34344890760E-01  0.35737005818E-01  0.00000000000E+00 0. -1.
  9000001    1    1    2    0    0 -0.35803752914E-02 -0.92055948389E-02  0.34344890760E-01  0.35750994182E-01  0.10000000475E-02 0.  1.
</event>
<event>
 4   0  0.4809415E-02  0.9118800E+02  0.7818609E-02  0.1379984E+01
      -11   -1    0    0    0    0  0.00000000000E+00  0.00000000000E+00  0.35740347158E-01  0.35744000000E-01  0.51099999109E-03 0.  1.
       11   -1    0    0    0    0 -0.00000000000E+00 -0.00000000000E+00 -0.35740347158E-01  0.35744000000E-01  0.51099999109E-03 0. -1.
       22    1    1    2    0    0  0.60612595939E-02 -0.61459565161E-02  0.34678839881E-01  0.35737005818E-01  0.00000000000E+00 0.  1.
  9000001    1    1    2    0    0 -0.60612595939E-02  0.61459565161E-02 -0.34678839881E-01  0.35750994182E-01  0.10000000475E-02 0. -1.
</event>
<event>
 4   0  0.4809415E-02  0.9118800E+02  0.7818609E-02  0.1379984E+01
      -11   -1    0    0    0    0  0.00000000000E+00  0.00000000000E+00  0.35740347158E-01  0.35744000000E-01  0.51099999109E-03 0.  1.
       11   -1    0    0    0    0 -0.00000000000E+00 -0.00000000000E+00 -0.35740347158E-01  0.35744000000E-01  0.51099999109E-03 0. -1.
       22    1    1    2    0    0 -0.15110155553E-01 -0.37258599559E-02  0.32170401794E-01  0.35737005818E-01  0.00000000000E+00 0.  1.
  9000001    1    1    2    0    0  0.15110155553E-01  0.37258599559E-02 -0.32170401794E-01  0.35750994182E-01  0.10000000475E-02 0. -1.
</event>
<event>
 4   0  0.4809415E-02  0.9118800E+02  0.7818609E-02  0.1379984E+01
      -11   -1    0    0    0    0  0.00000000000E+00  0.00000000000E+00  0.35740347158E-01  0.35744000000E-01  0.51099999109E-03 0. -1.
       11   -1    0    0    0    0 -0.00000000000E+00 -0.00000000000E+00 -0.35740347158E-01  0.35744000000E-01  0.51099999109E-03 0.  1.
       22    1    1    2    0    0  0.40242090739E-02  0.14224179915E-02 -0.35481207043E-01  0.35737005818E-01  0.00000000000E+00 0.  1.
  9000001    1    1    2    0    0 -0.40242090739E-02 -0.14224179915E-02  0.35481207043E-01  0.35750994182E-01  0.10000000475E-02 0. -1.
</event>
<event>
 4   0  0.4809415E-02  0.9118800E+02  0.7818609E-02  0.1379984E+01
      -11   -1    0    0    0    0  0.00000000000E+00  0.00000000000E+00  0.35740347158E-01  0.35744000000E-01  0.51099999109E-03 0.  1.
       11   -1    0    0    0    0 -0.00000000000E+00 -0.00000000000E+00 -0.35740347158E-01  0.35744000000E-01  0.51099999109E-03 0. -1.
       22    1    1    2    0    0 -0.72928432450E-03  0.94106787304E-02  0.34467968537E-01  0.35737005818E-01  0.00000000000E+00 0.  1.
  9000001    1    1    2    0    0  0.72928432450E-03 -0.94106787304E-02 -0.34467968537E-01  0.35750994182E-01  0.10000000475E-02 0. -1.
</event>
<event>
 4   0  0.4809415E-02  0.9118800E+02  0.7818609E-02  0.1379984E+01
      -11   -1    0    0    0    0  0.00000000000E+00  0.00000000000E+00  0.35740347158E-01  0.35744000000E-01  0.51099999109E-03 0.  1.
       11   -1    0    0    0    0 -0.00000000000E+00 -0.00000000000E+00 -0.35740347158E-01  0.35744000000E-01  0.51099999109E-03 0. -1.
       22    1    1    2    0    0  0.32601017045E-02  0.69279739259E-02 -0.34907141089E-01  0.35737005818E-01  0.00000000000E+00 0. -1.
  9000001    1    1    2    0    0 -0.32601017045E-02 -0.69279739259E-02  0.34907141089E-01  0.35750994182E-01  0.10000000475E-02 0.  1.
</event>
<event>
 4   0  0.4809415E-02  0.9118800E+02  0.7818609E-02  0.1379984E+01
      -11   -1    0    0    0    0  0.00000000000E+00  0.00000000000E+00  0.35740347158E-01  0.35744000000E-01  0.51099999109E-03 0.  1.
       11   -1    0    0    0    0 -0.00000000000E+00 -0.00000000000E+00 -0.35740347158E-01  0.35744000000E-01  0.51099999109E-03 0. -1.
       22    1    1    2    0    0  0.25950406674E-02  0.37243596943E-02  0.35447545665E-01  0.35737005818E-01  0.00000000000E+00 0.  1.
  9000001    1    1    2    0    0 -0.25950406674E-02 -0.37243596943E-02 -0.35447545665E-01  0.35750994182E-01  0.10000000475E-02 0. -1.
</event>
<event>
 4   0  0.4809415E-02  0.9118800E+02  0.7818609E-02  0.1379984E+01
      -11   -1    0    0    0    0  0.00000000000E+00  0.00000000000E+00  0.35740347158E-01  0.35744000000E-01  0.51099999109E-03 0.  1.
       11   -1    0    0    0    0 -0.00000000000E+00 -0.00000000000E+00 -0.35740347158E-01  0.35744000000E-01  0.51099999109E-03 0. -1.
       22    1    1    2    0    0  0.32536915643E-01  0.41592786426E-03  0.14775307418E-01  0.35737005818E-01  0.00000000000E+00 0.  1.
  9000001    1    1    2    0    0 -0.32536915643E-01 -0.41592786426E-03 -0.14775307418E-01  0.35750994182E-01  0.10000000475E-02 0. -1.
</event>
<event>
 4   0  0.4809415E-02  0.9118800E+02  0.7818609E-02  0.1379984E+01
      -11   -1    0    0    0    0  0.00000000000E+00  0.00000000000E+00  0.35740347158E-01  0.35744000000E-01  0.51099999109E-03 0. -1.
       11   -1    0    0    0    0 -0.00000000000E+00 -0.00000000000E+00 -0.35740347158E-01  0.35744000000E-01  0.51099999109E-03 0.  1.
       22    1    1    2    0    0  0.61889363679E-02 -0.24475251345E-01  0.25294124280E-01  0.35737005818E-01  0.00000000000E+00 0. -1.
  9000001    1    1    2    0    0 -0.61889363679E-02  0.24475251345E-01 -0.25294124280E-01  0.35750994182E-01  0.10000000475E-02 0.  1.
</event>
<event>
 4   0  0.4809415E-02  0.9118800E+02  0.7818609E-02  0.1379984E+01
      -11   -1    0    0    0    0  0.00000000000E+00  0.00000000000E+00  0.35740347158E-01  0.35744000000E-01  0.51099999109E-03 0.  1.
       11   -1    0    0    0    0 -0.00000000000E+00 -0.00000000000E+00 -0.35740347158E-01  0.35744000000E-01  0.51099999109E-03 0. -1.
       22    1    1    2    0    0  0.33046322392E-02 -0.17211598877E-01 -0.31144403265E-01  0.35737005818E-01  0.00000000000E+00 0. -1.
  9000001    1    1    2    0    0 -0.33046322392E-02  0.17211598877E-01  0.31144403265E-01  0.35750994182E-01  0.10000000475E-02 0.  1.
</event>
<event>
 4   0  0.4809415E-02  0.9118800E+02  0.7818609E-02  0.1379984E+01
      -11   -1    0    0    0    0  0.00000000000E+00  0.00000000000E+00  0.35740347158E-01  0.35744000000E-01  0.51099999109E-03 0.  1.
       11   -1    0    0    0    0 -0.00000000000E+00 -0.00000000000E+00 -0.35740347158E-01  0.35744000000E-01  0.51099999109E-03 0. -1.
       22    1    1    2    0    0  0.30804280133E-01  0.15875168618E-01  0.87297727169E-02  0.35737005818E-01  0.00000000000E+00 0.  1.
  9000001    1    1    2    0    0 -0.30804280133E-01 -0.15875168618E-01 -0.87297727169E-02  0.35750994182E-01  0.10000000475E-02 0. -1.
</event>
<event>
 4   0  0.4809415E-02  0.9118800E+02  0.7818609E-02  0.1379984E+01
      -11   -1    0    0    0    0  0.00000000000E+00  0.00000000000E+00  0.35740347158E-01  0.35744000000E-01  0.51099999109E-03 0. -1.
       11   -1    0    0    0    0 -0.00000000000E+00 -0.00000000000E+00 -0.35740347158E-01  0.35744000000E-01  0.51099999109E-03 0.  1.
       22    1    1    2    0    0 -0.38252831023E-02  0.64037415322E-02 -0.34949862495E-01  0.35737005818E-01  0.00000000000E+00 0.  1.
  9000001    1    1    2    0    0  0.38252831023E-02 -0.64037415322E-02  0.34949862495E-01  0.35750994182E-01  0.10000000475E-02 0. -1.
</event>
<event>
 4   0  0.4809415E-02  0.9118800E+02  0.7818609E-02  0.1379984E+01
      -11   -1    0    0    0    0  0.00000000000E+00  0.00000000000E+00  0.35740347158E-01  0.35744000000E-01  0.51099999109E-03 0.  1.
       11   -1    0    0    0    0 -0.00000000000E+00 -0.00000000000E+00 -0.35740347158E-01  0.35744000000E-01  0.51099999109E-03 0. -1.
       22    1    1    2    0    0 -0.41788584691E-03  0.34413044375E-02 -0.35568474525E-01  0.35737005818E-01  0.00000000000E+00 0. -1.
  9000001    1    1    2    0    0  0.41788584691E-03 -0.34413044375E-02  0.35568474525E-01  0.35750994182E-01  0.10000000475E-02 0.  1.
</event>
<event>
 4   0  0.4809415E-02  0.9118800E+02  0.7818609E-02  0.1379984E+01
      -11   -1    0    0    0    0  0.00000000000E+00  0.00000000000E+00  0.35740347158E-01  0.35744000000E-01  0.51099999109E-03 0.  1.
       11   -1    0    0    0    0 -0.00000000000E+00 -0.00000000000E+00 -0.35740347158E-01  0.35744000000E-01  0.51099999109E-03 0. -1.
       22    1    1    2    0    0  0.13126690571E-02 -0.67572898260E-02  0.35067784632E-01  0.35737005818E-01  0.00000000000E+00 0.  1.
  9000001    1    1    2    0    0 -0.13126690571E-02  0.67572898260E-02 -0.35067784632E-01  0.35750994182E-01  0.10000000475E-02 0. -1.
</event>
<event>
 4   0  0.4809415E-02  0.9118800E+02  0.7818609E-02  0.1379984E+01
      -11   -1    0    0    0    0  0.00000000000E+00  0.00000000000E+00  0.35740347158E-01  0.35744000000E-01  0.51099999109E-03 0.  1.
       11   -1    0    0    0    0 -0.00000000000E+00 -0.00000000000E+00 -0.35740347158E-01  0.35744000000E-01  0.51099999109E-03 0. -1.
       22    1    1    2    0    0 -0.45116164457E-02  0.13694436419E-01 -0.32699255543E-01  0.35737005818E-01  0.00000000000E+00 0. -1.
  9000001    1    1    2    0    0  0.45116164457E-02 -0.13694436419E-01  0.32699255543E-01  0.35750994182E-01  0.10000000475E-02 0.  1.
</event>
<event>
 4   0  0.4809415E-02  0.9118800E+02  0.7818609E-02  0.1379984E+01
      -11   -1    0    0    0    0  0.00000000000E+00  0.00000000000E+00  0.35740347158E-01  0.35744000000E-01  0.51099999109E-03 0. -1.
       11   -1    0    0    0    0 -0.00000000000E+00 -0.00000000000E+00 -0.35740347158E-01  0.35744000000E-01  0.51099999109E-03 0.  1.
       22    1    1    2    0    0 -0.13492215055E-01 -0.23495323182E-01  0.23303723015E-01  0.35737005818E-01  0.00000000000E+00 0. -1.
  9000001    1    1    2    0    0  0.13492215055E-01  0.23495323182E-01 -0.23303723015E-01  0.35750994182E-01  0.10000000475E-02 0.  1.
</event>
<event>
 4   0  0.4809415E-02  0.9118800E+02  0.7818609E-02  0.1379984E+01
      -11   -1    0    0    0    0  0.00000000000E+00  0.00000000000E+00  0.35740347158E-01  0.35744000000E-01  0.51099999109E-03 0.  1.
       11   -1    0    0    0    0 -0.00000000000E+00 -0.00000000000E+00 -0.35740347158E-01  0.35744000000E-01  0.51099999109E-03 0. -1.
       22    1    1    2    0    0  0.69004515968E-02  0.67295544939E-02  0.34412649548E-01  0.35737005818E-01  0.00000000000E+00 0.  1.
  9000001    1    1    2    0    0 -0.69004515968E-02 -0.67295544939E-02 -0.34412649548E-01  0.35750994182E-01  0.10000000475E-02 0. -1.
</event>
<event>
 4   0  0.4809415E-02  0.9118800E+02  0.7818609E-02  0.1379984E+01
      -11   -1    0    0    0    0  0.00000000000E+00  0.00000000000E+00  0.35740347158E-01  0.35744000000E-01  0.51099999109E-03 0.  1.
       11   -1    0    0    0    0 -0.00000000000E+00 -0.00000000000E+00 -0.35740347158E-01  0.35744000000E-01  0.51099999109E-03 0. -1.
       22    1    1    2    0    0  0.25553634455E-02 -0.43593893837E-02 -0.35377951138E-01  0.35737005818E-01  0.00000000000E+00 0. -1.
  9000001    1    1    2    0    0 -0.25553634455E-02  0.43593893837E-02  0.35377951138E-01  0.35750994182E-01  0.10000000475E-02 0.  1.
</event>
<event>
 4   0  0.4809415E-02  0.9118800E+02  0.7818609E-02  0.1379984E+01
      -11   -1    0    0    0    0  0.00000000000E+00  0.00000000000E+00  0.35740347158E-01  0.35744000000E-01  0.51099999109E-03 0. -1.
       11   -1    0    0    0    0 -0.00000000000E+00 -0.00000000000E+00 -0.35740347158E-01  0.35744000000E-01  0.51099999109E-03 0.  1.
       22    1    1    2    0    0 -0.19356324697E-01 -0.21532420644E-01  0.20948058151E-01  0.35737005818E-01  0.00000000000E+00 0. -1.
  9000001    1    1    2    0    0  0.19356324697E-01  0.21532420644E-01 -0.20948058151E-01  0.35750994182E-01  0.10000000475E-02 0.  1.
</event>
<event>
 4   0  0.4809415E-02  0.9118800E+02  0.7818609E-02  0.1379984E+01
      -11   -1    0    0    0    0  0.00000000000E+00  0.00000000000E+00  0.35740347158E-01  0.35744000000E-01  0.51099999109E-03 0.  1.
       11   -1    0    0    0    0 -0.00000000000E+00 -0.00000000000E+00 -0.35740347158E-01  0.35744000000E-01  0.51099999109E-03 0. -1.
       22    1    1    2    0    0  0.25339034167E-01  0.19174910843E-01  0.16352055727E-01  0.35737005818E-01  0.00000000000E+00 0. -1.
  9000001    1    1    2    0    0 -0.25339034167E-01 -0.19174910843E-01 -0.16352055727E-01  0.35750994182E-01  0.10000000475E-02 0.  1.
</event>
<event>
 4   0  0.4809415E-02  0.9118800E+02  0.7818609E-02  0.1379984E+01
      -11   -1    0    0    0    0  0.00000000000E+00  0.00000000000E+00  0.35740347158E-01  0.35744000000E-01  0.51099999109E-03 0. -1.
       11   -1    0    0    0    0 -0.00000000000E+00 -0.00000000000E+00 -0.35740347158E-01  0.35744000000E-01  0.51099999109E-03 0.  1.
       22    1    1    2    0    0 -0.58931319216E-02  0.28716522179E-02  0.35130587734E-01  0.35737005818E-01  0.00000000000E+00 0. -1.
  9000001    1    1    2    0    0  0.58931319216E-02 -0.28716522179E-02 -0.35130587734E-01  0.35750994182E-01  0.10000000475E-02 0.  1.
</event>
<event>
 4   0  0.4809415E-02  0.9118800E+02  0.7818609E-02  0.1379984E+01
      -11   -1    0    0    0    0  0.00000000000E+00  0.00000000000E+00  0.35740347158E-01  0.35744000000E-01  0.51099999109E-03 0.  1.
       11   -1    0    0    0    0 -0.00000000000E+00 -0.00000000000E+00 -0.35740347158E-01  0.35744000000E-01  0.51099999109E-03 0. -1.
       22    1    1    2    0    0 -0.34351201298E-02 -0.19968227559E-02  0.35515436552E-01  0.35737005818E-01  0.00000000000E+00 0.  1.
  9000001    1    1    2    0    0  0.34351201298E-02  0.19968227559E-02 -0.35515436552E-01  0.35750994182E-01  0.10000000475E-02 0. -1.
</event>
<event>
 4   0  0.4809415E-02  0.9118800E+02  0.7818609E-02  0.1379984E+01
      -11   -1    0    0    0    0  0.00000000000E+00  0.00000000000E+00  0.35740347158E-01  0.35744000000E-01  0.51099999109E-03 0.  1.
       11   -1    0    0    0    0 -0.00000000000E+00 -0.00000000000E+00 -0.35740347158E-01  0.35744000000E-01  0.51099999109E-03 0. -1.
       22    1    1    2    0    0  0.36894107665E-02  0.16794542420E-01  0.31328344642E-01  0.35737005818E-01  0.00000000000E+00 0.  1.
  9000001    1    1    2    0    0 -0.36894107665E-02 -0.16794542420E-01 -0.31328344642E-01  0.35750994182E-01  0.10000000475E-02 0. -1.
</event>
<event>
 4   0  0.4809415E-02  0.9118800E+02  0.7818609E-02  0.1379984E+01
      -11   -1    0    0    0    0  0.00000000000E+00  0.00000000000E+00  0.35740347158E-01  0.35744000000E-01  0.51099999109E-03 0.  1.
       11   -1    0    0    0    0 -0.00000000000E+00 -0.00000000000E+00 -0.35740347158E-01  0.35744000000E-01  0.51099999109E-03 0. -1.
       22    1    1    2    0    0 -0.31346481428E-02 -0.43909343189E-02 -0.35327429311E-01  0.35737005818E-01  0.00000000000E+00 0. -1.
  9000001    1    1    2    0    0  0.31346481428E-02  0.43909343189E-02  0.35327429311E-01  0.35750994182E-01  0.10000000475E-02 0.  1.
</event>
<event>
 4   0  0.4809415E-02  0.9118800E+02  0.7818609E-02  0.1379984E+01
      -11   -1    0    0    0    0  0.00000000000E+00  0.00000000000E+00  0.35740347158E-01  0.35744000000E-01  0.51099999109E-03 0.  1.
       11   -1    0    0    0    0 -0.00000000000E+00 -0.00000000000E+00 -0.35740347158E-01  0.35744000000E-01  0.51099999109E-03 0. -1.
       22    1    1    2    0    0  0.12001344738E-02 -0.23886953878E-01  0.26553845231E-01  0.35737005818E-01  0.00000000000E+00 0.  1.
  9000001    1    1    2    0    0 -0.12001344738E-02  0.23886953878E-01 -0.26553845231E-01  0.35750994182E-01  0.10000000475E-02 0. -1.
</event>
<event>
 4   0  0.4809415E-02  0.9118800E+02  0.7818609E-02  0.1379984E+01
      -11   -1    0    0    0    0  0.00000000000E+00  0.00000000000E+00  0.35740347158E-01  0.35744000000E-01  0.51099999109E-03 0.  1.
       11   -1    0    0    0    0 -0.00000000000E+00 -0.00000000000E+00 -0.35740347158E-01  0.35744000000E-01  0.51099999109E-03 0. -1.
       22    1    1    2    0    0  0.43704274799E-03 -0.39142639363E-02  0.35519306248E-01  0.35737005818E-01  0.00000000000E+00 0.  1.
  9000001    1    1    2    0    0 -0.43704274799E-03  0.39142639363E-02 -0.35519306248E-01  0.35750994182E-01  0.10000000475E-02 0. -1.
</event>
<event>
 4   0  0.4809415E-02  0.9118800E+02  0.7818609E-02  0.1379984E+01
      -11   -1    0    0    0    0  0.00000000000E+00  0.00000000000E+00  0.35740347158E-01  0.35744000000E-01  0.51099999109E-03 0.  1.
       11   -1    0    0    0    0 -0.00000000000E+00 -0.00000000000E+00 -0.35740347158E-01  0.35744000000E-01  0.51099999109E-03 0. -1.
       22    1    1    2    0    0  0.27767637785E-02  0.90429466253E-02  0.34462273345E-01  0.35737005818E-01  0.00000000000E+00 0.  1.
  9000001    1    1    2    0    0 -0.27767637785E-02 -0.90429466253E-02 -0.34462273345E-01  0.35750994182E-01  0.10000000475E-02 0. -1.
</event>
<event>
 4   0  0.4809415E-02  0.9118800E+02  0.7818609E-02  0.1379984E+01
      -11   -1    0    0    0    0  0.00000000000E+00  0.00000000000E+00  0.35740347158E-01  0.35744000000E-01  0.51099999109E-03 0. -1.
       11   -1    0    0    0    0 -0.00000000000E+00 -0.00000000000E+00 -0.35740347158E-01  0.35744000000E-01  0.51099999109E-03 0.  1.
       22    1    1    2    0    0  0.72662601204E-03  0.16832981884E-01 -0.31515969292E-01  0.35737005818E-01  0.00000000000E+00 0.  1.
  9000001    1    1    2    0    0 -0.72662601204E-03 -0.16832981884E-01  0.31515969292E-01  0.35750994182E-01  0.10000000475E-02 0. -1.
</event>
<event>
 4   0  0.4809415E-02  0.9118800E+02  0.7818609E-02  0.1379984E+01
      -11   -1    0    0    0    0  0.00000000000E+00  0.00000000000E+00  0.35740347158E-01  0.35744000000E-01  0.51099999109E-03 0. -1.
       11   -1    0    0    0    0 -0.00000000000E+00 -0.00000000000E+00 -0.35740347158E-01  0.35744000000E-01  0.51099999109E-03 0.  1.
       22    1    1    2    0    0 -0.14546504420E-01  0.85256071569E-02 -0.31509471856E-01  0.35737005818E-01  0.00000000000E+00 0.  1.
  9000001    1    1    2    0    0  0.14546504420E-01 -0.85256071569E-02  0.31509471856E-01  0.35750994182E-01  0.10000000475E-02 0. -1.
</event>
<event>
 4   0  0.4809415E-02  0.9118800E+02  0.7818609E-02  0.1379984E+01
      -11   -1    0    0    0    0  0.00000000000E+00  0.00000000000E+00  0.35740347158E-01  0.35744000000E-01  0.51099999109E-03 0. -1.
       11   -1    0    0    0    0 -0.00000000000E+00 -0.00000000000E+00 -0.35740347158E-01  0.35744000000E-01  0.51099999109E-03 0.  1.
       22    1    1    2    0    0  0.10587098678E-01  0.48168993920E-02 -0.33791188300E-01  0.35737005818E-01  0.00000000000E+00 0.  1.
  9000001    1    1    2    0    0 -0.10587098678E-01 -0.48168993920E-02  0.33791188300E-01  0.35750994182E-01  0.10000000475E-02 0. -1.
</event>
<event>
 4   0  0.4809415E-02  0.9118800E+02  0.7818609E-02  0.1379984E+01
      -11   -1    0    0    0    0  0.00000000000E+00  0.00000000000E+00  0.35740347158E-01  0.35744000000E-01  0.51099999109E-03 0.  1.
       11   -1    0    0    0    0 -0.00000000000E+00 -0.00000000000E+00 -0.35740347158E-01  0.35744000000E-01  0.51099999109E-03 0. -1.
       22    1    1    2    0    0 -0.11983982883E-01 -0.47279132214E-02  0.33334135293E-01  0.35737005818E-01  0.00000000000E+00 0.  1.
  9000001    1    1    2    0    0  0.11983982883E-01  0.47279132214E-02 -0.33334135293E-01  0.35750994182E-01  0.10000000475E-02 0. -1.
</event>
<event>
 4   0  0.4809415E-02  0.9118800E+02  0.7818609E-02  0.1379984E+01
      -11   -1    0    0    0    0  0.00000000000E+00  0.00000000000E+00  0.35740347158E-01  0.35744000000E-01  0.51099999109E-03 0. -1.
       11   -1    0    0    0    0 -0.00000000000E+00 -0.00000000000E+00 -0.35740347158E-01  0.35744000000E-01  0.51099999109E-03 0.  1.
       22    1    1    2    0    0 -0.66626037279E-02 -0.15452867349E-03 -0.35110104206E-01  0.35737005818E-01  0.00000000000E+00 0.  1.
  9000001    1    1    2    0    0  0.66626037279E-02  0.15452867349E-03  0.35110104206E-01  0.35750994182E-01  0.10000000475E-02 0. -1.
</event>
<event>
 4   0  0.4809415E-02  0.9118800E+02  0.7818609E-02  0.1379984E+01
      -11   -1    0    0    0    0  0.00000000000E+00  0.00000000000E+00  0.35740347158E-01  0.35744000000E-01  0.51099999109E-03 0.  1.
       11   -1    0    0    0    0 -0.00000000000E+00 -0.00000000000E+00 -0.35740347158E-01  0.35744000000E-01  0.51099999109E-03 0. -1.
       22    1    1    2    0    0 -0.27086883854E-01 -0.23290953640E-01 -0.98274437208E-03  0.35737005818E-01  0.00000000000E+00 0. -1.
  9000001    1    1    2    0    0  0.27086883854E-01  0.23290953640E-01  0.98274437208E-03  0.35750994182E-01  0.10000000475E-02 0.  1.
</event>
<event>
 4   0  0.4809415E-02  0.9118800E+02  0.7818609E-02  0.1379984E+01
      -11   -1    0    0    0    0  0.00000000000E+00  0.00000000000E+00  0.35740347158E-01  0.35744000000E-01  0.51099999109E-03 0. -1.
       11   -1    0    0    0    0 -0.00000000000E+00 -0.00000000000E+00 -0.35740347158E-01  0.35744000000E-01  0.51099999109E-03 0.  1.
       22    1    1    2    0    0 -0.27614374745E-02  0.16628059479E-02  0.35591334961E-01  0.35737005818E-01  0.00000000000E+00 0. -1.
  9000001    1    1    2    0    0  0.27614374745E-02 -0.16628059479E-02 -0.35591334961E-01  0.35750994182E-01  0.10000000475E-02 0.  1.
</event>
<event>
 4   0  0.4809415E-02  0.9118800E+02  0.7818609E-02  0.1379984E+01
      -11   -1    0    0    0    0  0.00000000000E+00  0.00000000000E+00  0.35740347158E-01  0.35744000000E-01  0.51099999109E-03 0.  1.
       11   -1    0    0    0    0 -0.00000000000E+00 -0.00000000000E+00 -0.35740347158E-01  0.35744000000E-01  0.51099999109E-03 0. -1.
       22    1    1    2    0    0  0.14495737809E-01 -0.64065112964E-02 -0.32030669416E-01  0.35737005818E-01  0.00000000000E+00 0. -1.
  9000001    1    1    2    0    0 -0.14495737809E-01  0.64065112964E-02  0.32030669416E-01  0.35750994182E-01  0.10000000475E-02 0.  1.
</event>
<event>
 4   0  0.4809415E-02  0.9118800E+02  0.7818609E-02  0.1379984E+01
      -11   -1    0    0    0    0  0.00000000000E+00  0.00000000000E+00  0.35740347158E-01  0.35744000000E-01  0.51099999109E-03 0.  1.
       11   -1    0    0    0    0 -0.00000000000E+00 -0.00000000000E+00 -0.35740347158E-01  0.35744000000E-01  0.51099999109E-03 0. -1.
       22    1    1    2    0    0 -0.80834713094E-02  0.27179189005E-01  0.21750465776E-01  0.35737005818E-01  0.00000000000E+00 0.  1.
  9000001    1    1    2    0    0  0.80834713094E-02 -0.27179189005E-01 -0.21750465776E-01  0.35750994182E-01  0.10000000475E-02 0. -1.
</event>
<event>
 4   0  0.4809415E-02  0.9118800E+02  0.7818609E-02  0.1379984E+01
      -11   -1    0    0    0    0  0.00000000000E+00  0.00000000000E+00  0.35740347158E-01  0.35744000000E-01  0.51099999109E-03 0.  1.
       11   -1    0    0    0    0 -0.00000000000E+00 -0.00000000000E+00 -0.35740347158E-01  0.35744000000E-01  0.51099999109E-03 0. -1.
       22    1    1    2    0    0  0.43018897297E-02 -0.11818172800E-01  0.33450831399E-01  0.35737005818E-01  0.00000000000E+00 0.  1.
  9000001    1    1    2    0    0 -0.43018897297E-02  0.11818172800E-01 -0.33450831399E-01  0.35750994182E-01  0.10000000475E-02 0. -1.
</event>
<event>
 4   0  0.4809415E-02  0.9118800E+02  0.7818609E-02  0.1379984E+01
      -11   -1    0    0    0    0  0.00000000000E+00  0.00000000000E+00  0.35740347158E-01  0.35744000000E-01  0.51099999109E-03 0.  1.
       11   -1    0    0    0    0 -0.00000000000E+00 -0.00000000000E+00 -0.35740347158E-01  0.35744000000E-01  0.51099999109E-03 0. -1.
       22    1    1    2    0    0  0.11499643955E-02  0.41970948491E-02  0.35471052445E-01  0.35737005818E-01  0.00000000000E+00 0.  1.
  9000001    1    1    2    0    0 -0.11499643955E-02 -0.41970948491E-02 -0.35471052445E-01  0.35750994182E-01  0.10000000475E-02 0. -1.
</event>
<event>
 4   0  0.4809415E-02  0.9118800E+02  0.7818609E-02  0.1379984E+01
      -11   -1    0    0    0    0  0.00000000000E+00  0.00000000000E+00  0.35740347158E-01  0.35744000000E-01  0.51099999109E-03 0. -1.
       11   -1    0    0    0    0 -0.00000000000E+00 -0.00000000000E+00 -0.35740347158E-01  0.35744000000E-01  0.51099999109E-03 0.  1.
       22    1    1    2    0    0 -0.75400107950E-03 -0.40591396134E-02  0.35497724615E-01  0.35737005818E-01  0.00000000000E+00 0. -1.
  9000001    1    1    2    0    0  0.75400107950E-03  0.40591396134E-02 -0.35497724615E-01  0.35750994182E-01  0.10000000475E-02 0.  1.
</event>
<event>
 4   0  0.4809415E-02  0.9118800E+02  0.7818609E-02  0.1379984E+01
      -11   -1    0    0    0    0  0.00000000000E+00  0.00000000000E+00  0.35740347158E-01  0.35744000000E-01  0.51099999109E-03 0.  1.
       11   -1    0    0    0    0 -0.00000000000E+00 -0.00000000000E+00 -0.35740347158E-01  0.35744000000E-01  0.51099999109E-03 0. -1.
       22    1    1    2    0    0 -0.75607482060E-02 -0.27659604887E-02  0.34818359152E-01  0.35737005818E-01  0.00000000000E+00 0.  1.
  9000001    1    1    2    0    0  0.75607482060E-02  0.27659604887E-02 -0.34818359152E-01  0.35750994182E-01  0.10000000475E-02 0. -1.
</event>
<event>
 4   0  0.4809415E-02  0.9118800E+02  0.7818609E-02  0.1379984E+01
      -11   -1    0    0    0    0  0.00000000000E+00  0.00000000000E+00  0.35740347158E-01  0.35744000000E-01  0.51099999109E-03 0.  1.
       11   -1    0    0    0    0 -0.00000000000E+00 -0.00000000000E+00 -0.35740347158E-01  0.35744000000E-01  0.51099999109E-03 0. -1.
       22    1    1    2    0    0  0.36580660209E-02  0.12820960480E-01 -0.33156825998E-01  0.35737005818E-01  0.00000000000E+00 0. -1.
  9000001    1    1    2    0    0 -0.36580660209E-02 -0.12820960480E-01  0.33156825998E-01  0.35750994182E-01  0.10000000475E-02 0.  1.
</event>
<event>
 4   0  0.4809415E-02  0.9118800E+02  0.7818609E-02  0.1379984E+01
      -11   -1    0    0    0    0  0.00000000000E+00  0.00000000000E+00  0.35740347158E-01  0.35744000000E-01  0.51099999109E-03 0.  1.
       11   -1    0    0    0    0 -0.00000000000E+00 -0.00000000000E+00 -0.35740347158E-01  0.35744000000E-01  0.51099999109E-03 0. -1.
       22    1    1    2    0    0 -0.69508765350E-02  0.41956863767E-02 -0.34802515945E-01  0.35737005818E-01  0.00000000000E+00 0. -1.
  9000001    1    1    2    0    0  0.69508765350E-02 -0.41956863767E-02  0.34802515945E-01  0.35750994182E-01  0.10000000475E-02 0.  1.
</event>
<event>
 4   0  0.4809415E-02  0.9118800E+02  0.7818609E-02  0.1379984E+01
      -11   -1    0    0    0    0  0.00000000000E+00  0.00000000000E+00  0.35740347158E-01  0.35744000000E-01  0.51099999109E-03 0.  1.
       11   -1    0    0    0    0 -0.00000000000E+00 -0.00000000000E+00 -0.35740347158E-01  0.35744000000E-01  0.51099999109E-03 0. -1.
       22    1    1    2    0    0  0.53815851288E-02  0.26407849441E-01 -0.23469077832E-01  0.35737005818E-01  0.00000000000E+00 0. -1.
  9000001    1    1    2    0    0 -0.53815851288E-02 -0.26407849441E-01  0.23469077832E-01  0.35750994182E-01  0.10000000475E-02 0.  1.
</event>
<event>
 4   0  0.4809415E-02  0.9118800E+02  0.7818609E-02  0.1379984E+01
      -11   -1    0    0    0    0  0.00000000000E+00  0.00000000000E+00  0.35740347158E-01  0.35744000000E-01  0.51099999109E-03 0.  1.
       11   -1    0    0    0    0 -0.00000000000E+00 -0.00000000000E+00 -0.35740347158E-01  0.35744000000E-01  0.51099999109E-03 0. -1.
       22    1    1    2    0    0  0.49911549582E-02 -0.10841680542E-01 -0.33685010317E-01  0.35737005818E-01  0.00000000000E+00 0. -1.
  9000001    1    1    2    0    0 -0.49911549582E-02  0.10841680542E-01  0.33685010317E-01  0.35750994182E-01  0.10000000475E-02 0.  1.
</event>
<event>
 4   0  0.4809415E-02  0.9118800E+02  0.7818609E-02  0.1379984E+01
      -11   -1    0    0    0    0  0.00000000000E+00  0.00000000000E+00  0.35740347158E-01  0.35744000000E-01  0.51099999109E-03 0.  1.
       11   -1    0    0    0    0 -0.00000000000E+00 -0.00000000000E+00 -0.35740347158E-01  0.35744000000E-01  0.51099999109E-03 0. -1.
       22    1    1    2    0    0 -0.14280475551E-02  0.81364066057E-02  0.34769140809E-01  0.35737005818E-01  0.00000000000E+00 0.  1.
  9000001    1    1    2    0    0  0.14280475551E-02 -0.81364066057E-02 -0.34769140809E-01  0.35750994182E-01  0.10000000475E-02 0. -1.
</event>
<event>
 4   0  0.4809415E-02  0.9118800E+02  0.7818609E-02  0.1379984E+01
      -11   -1    0    0    0    0  0.00000000000E+00  0.00000000000E+00  0.35740347158E-01  0.35744000000E-01  0.51099999109E-03 0. -1.
       11   -1    0    0    0    0 -0.00000000000E+00 -0.00000000000E+00 -0.35740347158E-01  0.35744000000E-01  0.51099999109E-03 0.  1.
       22    1    1    2    0    0 -0.72130053804E-02 -0.61170823484E-02 -0.34462841464E-01  0.35737005818E-01  0.00000000000E+00 0.  1.
  9000001    1    1    2    0    0  0.72130053804E-02  0.61170823484E-02  0.34462841464E-01  0.35750994182E-01  0.10000000475E-02 0. -1.
</event>
<event>
 4   0  0.4809415E-02  0.9118800E+02  0.7818609E-02  0.1379984E+01
      -11   -1    0    0    0    0  0.00000000000E+00  0.00000000000E+00  0.35740347158E-01  0.35744000000E-01  0.51099999109E-03 0. -1.
       11   -1    0    0    0    0 -0.00000000000E+00 -0.00000000000E+00 -0.35740347158E-01  0.35744000000E-01  0.51099999109E-03 0.  1.
       22    1    1    2    0    0 -0.29671613645E-01 -0.19422671105E-01  0.44146093483E-02  0.35737005818E-01  0.00000000000E+00 0.  1.
  9000001    1    1    2    0    0  0.29671613645E-01  0.19422671105E-01 -0.44146093483E-02  0.35750994182E-01  0.10000000475E-02 0. -1.
</event>
<event>
 4   0  0.4809415E-02  0.9118800E+02  0.7818609E-02  0.1379984E+01
      -11   -1    0    0    0    0  0.00000000000E+00  0.00000000000E+00  0.35740347158E-01  0.35744000000E-01  0.51099999109E-03 0.  1.
       11   -1    0    0    0    0 -0.00000000000E+00 -0.00000000000E+00 -0.35740347158E-01  0.35744000000E-01  0.51099999109E-03 0. -1.
       22    1    1    2    0    0  0.66188787548E-02  0.65696011284E-02  0.34498758962E-01  0.35737005818E-01  0.00000000000E+00 0.  1.
  9000001    1    1    2    0    0 -0.66188787548E-02 -0.65696011284E-02 -0.34498758962E-01  0.35750994182E-01  0.10000000475E-02 0. -1.
</event>
<event>
 4   0  0.4809415E-02  0.9118800E+02  0.7818609E-02  0.1379984E+01
      -11   -1    0    0    0    0  0.00000000000E+00  0.00000000000E+00  0.35740347158E-01  0.35744000000E-01  0.51099999109E-03 0. -1.
       11   -1    0    0    0    0 -0.00000000000E+00 -0.00000000000E+00 -0.35740347158E-01  0.35744000000E-01  0.51099999109E-03 0.  1.
       22    1    1    2    0    0  0.10331902757E-01  0.32908728510E-02 -0.34052247006E-01  0.35737005818E-01  0.00000000000E+00 0.  1.
  9000001    1    1    2    0    0 -0.10331902757E-01 -0.32908728510E-02  0.34052247006E-01  0.35750994182E-01  0.10000000475E-02 0. -1.
</event>
<event>
 4   0  0.4809415E-02  0.9118800E+02  0.7818609E-02  0.1379984E+01
      -11   -1    0    0    0    0  0.00000000000E+00  0.00000000000E+00  0.35740347158E-01  0.35744000000E-01  0.51099999109E-03 0. -1.
       11   -1    0    0    0    0 -0.00000000000E+00 -0.00000000000E+00 -0.35740347158E-01  0.35744000000E-01  0.51099999109E-03 0.  1.
       22    1    1    2    0    0  0.14308119272E-01 -0.23077162957E-02 -0.32666278534E-01  0.35737005818E-01  0.00000000000E+00 0.  1.
  9000001    1    1    2    0    0 -0.14308119272E-01  0.23077162957E-02  0.32666278534E-01  0.35750994182E-01  0.10000000475E-02 0. -1.
</event>
<event>
 4   0  0.4809415E-02  0.9118800E+02  0.7818609E-02  0.1379984E+01
      -11   -1    0    0    0    0  0.00000000000E+00  0.00000000000E+00  0.35740347158E-01  0.35744000000E-01  0.51099999109E-03 0.  1.
       11   -1    0    0    0    0 -0.00000000000E+00 -0.00000000000E+00 -0.35740347158E-01  0.35744000000E-01  0.51099999109E-03 0. -1.
       22    1    1    2    0    0  0.34050654228E-02  0.13076729111E-01 -0.33083806766E-01  0.35737005818E-01  0.00000000000E+00 0. -1.
  9000001    1    1    2    0    0 -0.34050654228E-02 -0.13076729111E-01  0.33083806766E-01  0.35750994182E-01  0.10000000475E-02 0.  1.
</event>
<event>
 4   0  0.4809415E-02  0.9118800E+02  0.7818609E-02  0.1379984E+01
      -11   -1    0    0    0    0  0.00000000000E+00  0.00000000000E+00  0.35740347158E-01  0.35744000000E-01  0.51099999109E-03 0. -1.
       11   -1    0    0    0    0 -0.00000000000E+00 -0.00000000000E+00 -0.35740347158E-01  0.35744000000E-01  0.51099999109E-03 0.  1.
       22    1    1    2    0    0  0.13664277643E-02  0.48439936298E-02 -0.35380816635E-01  0.35737005818E-01  0.00000000000E+00 0.  1.
  9000001    1    1    2    0    0 -0.13664277643E-02 -0.48439936298E-02  0.35380816635E-01  0.35750994182E-01  0.10000000475E-02 0. -1.
</event>
<event>
 4   0  0.4809415E-02  0.9118800E+02  0.7818609E-02  0.1379984E+01
      -11   -1    0    0    0    0  0.00000000000E+00  0.00000000000E+00  0.35740347158E-01  0.35744000000E-01  0.51099999109E-03 0.  1.
       11   -1    0    0    0    0 -0.00000000000E+00 -0.00000000000E+00 -0.35740347158E-01  0.35744000000E-01  0.51099999109E-03 0. -1.
       22    1    1    2    0    0  0.19427882704E-01  0.42204586204E-02 -0.29696442338E-01  0.35737005818E-01  0.00000000000E+00 0. -1.
  9000001    1    1    2    0    0 -0.19427882704E-01 -0.42204586204E-02  0.29696442338E-01  0.35750994182E-01  0.10000000475E-02 0.  1.
</event>
<event>
 4   0  0.4809415E-02  0.9118800E+02  0.7818609E-02  0.1379984E+01
      -11   -1    0    0    0    0  0.00000000000E+00  0.00000000000E+00  0.35740347158E-01  0.35744000000E-01  0.51099999109E-03 0.  1.
       11   -1    0    0    0    0 -0.00000000000E+00 -0.00000000000E+00 -0.35740347158E-01  0.35744000000E-01  0.51099999109E-03 0. -1.
       22    1    1    2    0    0 -0.30294145857E-02  0.21451486543E-02 -0.35543699433E-01  0.35737005818E-01  0.00000000000E+00 0. -1.
  9000001    1    1    2    0    0  0.30294145857E-02 -0.21451486543E-02  0.35543699433E-01  0.35750994182E-01  0.10000000475E-02 0.  1.
</event>
<event>
 4   0  0.4809415E-02  0.9118800E+02  0.7818609E-02  0.1379984E+01
      -11   -1    0    0    0    0  0.00000000000E+00  0.00000000000E+00  0.35740347158E-01  0.35744000000E-01  0.51099999109E-03 0. -1.
       11   -1    0    0    0    0 -0.00000000000E+00 -0.00000000000E+00 -0.35740347158E-01  0.35744000000E-01  0.51099999109E-03 0.  1.
       22    1    1    2    0    0  0.13030819326E-01 -0.29754089461E-01 -0.14900519887E-01  0.35737005818E-01  0.00000000000E+00 0. -1.
  9000001    1    1    2    0    0 -0.13030819326E-01  0.29754089461E-01  0.14900519887E-01  0.35750994182E-01  0.10000000475E-02 0.  1.
</event>
<event>
 4   0  0.4809415E-02  0.9118800E+02  0.7818609E-02  0.1379984E+01
      -11   -1    0    0    0    0  0.00000000000E+00  0.00000000000E+00  0.35740347158E-01  0.35744000000E-01  0.51099999109E-03 0. -1.
       11   -1    0    0    0    0 -0.00000000000E+00 -0.00000000000E+00 -0.35740347158E-01  0.35744000000E-01  0.51099999109E-03 0.  1.
       22    1    1    2    0    0  0.31821331801E-01  0.11691656935E-01  0.11306705330E-01  0.35737005818E-01  0.00000000000E+00 0. -1.
  9000001    1    1    2    0    0 -0.31821331801E-01 -0.11691656935E-01 -0.11306705330E-01  0.35750994182E-01  0.10000000475E-02 0.  1.
</event>
<event>
 4   0  0.4809415E-02  0.9118800E+02  0.7818609E-02  0.1379984E+01
      -11   -1    0    0    0    0  0.00000000000E+00  0.00000000000E+00  0.35740347158E-01  0.35744000000E-01  0.51099999109E-03 0.  1.
       11   -1    0    0    0    0 -0.00000000000E+00 -0.00000000000E+00 -0.35740347158E-01  0.35744000000E-01  0.51099999109E-03 0. -1.
       22    1    1    2    0    0 -0.10711070706E-01  0.10978933577E-01 -0.32278004379E-01  0.35737005818E-01  0.00000000000E+00 0. -1.
  9000001    1    1    2    0    0  0.10711070706E-01 -0.10978933577E-01  0.32278004379E-01  0.35750994182E-01  0.10000000475E-02 0.  1.
</event>
<event>
 4   0  0.4809415E-02  0.9118800E+02  0.7818609E-02  0.1379984E+01
      -11   -1    0    0    0    0  0.00000000000E+00  0.00000000000E+00  0.35740347158E-01  0.35744000000E-01  0.51099999109E-03 0. -1.
       11   -1    0    0    0    0 -0.00000000000E+00 -0.00000000000E+00 -0.35740347158E-01  0.35744000000E-01  0.51099999109E-03 0.  1.
       22    1    1    2    0    0  0.51925832811E-02 -0.34517741437E-01  0.76613438653E-02  0.35737005818E-01  0.00000000000E+00 0.  1.
  9000001    1    1    2    0    0 -0.51925832811E-02  0.34517741437E-01 -0.76613438653E-02  0.35750994182E-01  0.10000000475E-02 0. -1.
</event>
<event>
 4   0  0.4809415E-02  0.9118800E+02  0.7818609E-02  0.1379984E+01
      -11   -1    0    0    0    0  0.00000000000E+00  0.00000000000E+00  0.35740347158E-01  0.35744000000E-01  0.51099999109E-03 0.  1.
       11   -1    0    0    0    0 -0.00000000000E+00 -0.00000000000E+00 -0.35740347158E-01  0.35744000000E-01  0.51099999109E-03 0. -1.
       22    1    1    2    0    0 -0.19999435144E-01 -0.18725622626E-01  0.22945745489E-01  0.35737005818E-01  0.00000000000E+00 0.  1.
  9000001    1    1    2    0    0  0.19999435144E-01  0.18725622626E-01 -0.22945745489E-01  0.35750994182E-01  0.10000000475E-02 0. -1.
</event>
<event>
 4   0  0.4809415E-02  0.9118800E+02  0.7818609E-02  0.1379984E+01
      -11   -1    0    0    0    0  0.00000000000E+00  0.00000000000E+00  0.35740347158E-01  0.35744000000E-01  0.51099999109E-03 0. -1.
       11   -1    0    0    0    0 -0.00000000000E+00 -0.00000000000E+00 -0.35740347158E-01  0.35744000000E-01  0.51099999109E-03 0.  1.
       22    1    1    2    0    0 -0.67545521466E-02 -0.15284189429E-01 -0.31589605311E-01  0.35737005818E-01  0.00000000000E+00 0.  1.
  9000001    1    1    2    0    0  0.67545521466E-02  0.15284189429E-01  0.31589605311E-01  0.35750994182E-01  0.10000000475E-02 0. -1.
</event>
<event>
 4   0  0.4809415E-02  0.9118800E+02  0.7818609E-02  0.1379984E+01
      -11   -1    0    0    0    0  0.00000000000E+00  0.00000000000E+00  0.35740347158E-01  0.35744000000E-01  0.51099999109E-03 0.  1.
       11   -1    0    0    0    0 -0.00000000000E+00 -0.00000000000E+00 -0.35740347158E-01  0.35744000000E-01  0.51099999109E-03 0. -1.
       22    1    1    2    0    0 -0.12198334620E-01 -0.14108680151E-01  0.30484083745E-01  0.35737005818E-01  0.00000000000E+00 0.  1.
  9000001    1    1    2    0    0  0.12198334620E-01  0.14108680151E-01 -0.30484083745E-01  0.35750994182E-01  0.10000000475E-02 0. -1.
</event>
<event>
 4   0  0.4809415E-02  0.9118800E+02  0.7818609E-02  0.1379984E+01
      -11   -1    0    0    0    0  0.00000000000E+00  0.00000000000E+00  0.35740347158E-01  0.35744000000E-01  0.51099999109E-03 0. -1.
       11   -1    0    0    0    0 -0.00000000000E+00 -0.00000000000E+00 -0.35740347158E-01  0.35744000000E-01  0.51099999109E-03 0.  1.
       22    1    1    2    0    0 -0.39668005755E-02  0.67755671803E-02  0.34863874820E-01  0.35737005818E-01  0.00000000000E+00 0. -1.
  9000001    1    1    2    0    0  0.39668005755E-02 -0.67755671803E-02 -0.34863874820E-01  0.35750994182E-01  0.10000000475E-02 0.  1.
</event>
<event>
 4   0  0.4809415E-02  0.9118800E+02  0.7818609E-02  0.1379984E+01
      -11   -1    0    0    0    0  0.00000000000E+00  0.00000000000E+00  0.35740347158E-01  0.35744000000E-01  0.51099999109E-03 0.  1.
       11   -1    0    0    0    0 -0.00000000000E+00 -0.00000000000E+00 -0.35740347158E-01  0.35744000000E-01  0.51099999109E-03 0. -1.
       22    1    1    2    0    0 -0.12439183491E-01  0.32460407906E-01 -0.82898864583E-02  0.35737005818E-01  0.00000000000E+00 0. -1.
  9000001    1    1    2    0    0  0.12439183491E-01 -0.32460407906E-01  0.82898864583E-02  0.35750994182E-01  0.10000000475E-02 0.  1.
</event>
<event>
 4   0  0.4809415E-02  0.9118800E+02  0.7818609E-02  0.1379984E+01
      -11   -1    0    0    0    0  0.00000000000E+00  0.00000000000E+00  0.35740347158E-01  0.35744000000E-01  0.51099999109E-03 0.  1.
       11   -1    0    0    0    0 -0.00000000000E+00 -0.00000000000E+00 -0.35740347158E-01  0.35744000000E-01  0.51099999109E-03 0. -1.
       22    1    1    2    0    0 -0.21547904774E-02 -0.23007369350E-02 -0.35597711618E-01  0.35737005818E-01  0.00000000000E+00 0. -1.
  9000001    1    1    2    0    0  0.21547904774E-02  0.23007369350E-02  0.35597711618E-01  0.35750994182E-01  0.10000000475E-02 0.  1.
</event>
<event>
 4   0  0.4809415E-02  0.9118800E+02  0.7818609E-02  0.1379984E+01
      -11   -1    0    0    0    0  0.00000000000E+00  0.00000000000E+00  0.35740347158E-01  0.35744000000E-01  0.51099999109E-03 0.  1.
       11   -1    0    0    0    0 -0.00000000000E+00 -0.00000000000E+00 -0.35740347158E-01  0.35744000000E-01  0.51099999109E-03 0. -1.
       22    1    1    2    0    0  0.45859191467E-02  0.69581721748E-02  0.34751788018E-01  0.35737005818E-01  0.00000000000E+00 0.  1.
  9000001    1    1    2    0    0 -0.45859191467E-02 -0.69581721748E-02 -0.34751788018E-01  0.35750994182E-01  0.10000000475E-02 0. -1.
</event>
<event>
 4   0  0.4809415E-02  0.9118800E+02  0.7818609E-02  0.1379984E+01
      -11   -1    0    0    0    0  0.00000000000E+00  0.00000000000E+00  0.35740347158E-01  0.35744000000E-01  0.51099999109E-03 0. -1.
       11   -1    0    0    0    0 -0.00000000000E+00 -0.00000000000E+00 -0.35740347158E-01  0.35744000000E-01  0.51099999109E-03 0.  1.
       22    1    1    2    0    0  0.42896780164E-02 -0.98971612544E-02  0.34070198803E-01  0.35737005818E-01  0.00000000000E+00 0. -1.
  9000001    1    1    2    0    0 -0.42896780164E-02  0.98971612544E-02 -0.34070198803E-01  0.35750994182E-01  0.10000000475E-02 0.  1.
</event>
<event>
 4   0  0.4809415E-02  0.9118800E+02  0.7818609E-02  0.1379984E+01
      -11   -1    0    0    0    0  0.00000000000E+00  0.00000000000E+00  0.35740347158E-01  0.35744000000E-01  0.51099999109E-03 0.  1.
       11   -1    0    0    0    0 -0.00000000000E+00 -0.00000000000E+00 -0.35740347158E-01  0.35744000000E-01  0.51099999109E-03 0. -1.
       22    1    1    2    0    0 -0.24721238109E-03 -0.62668749748E-02  0.35182364175E-01  0.35737005818E-01  0.00000000000E+00 0.  1.
  9000001    1    1    2    0    0  0.24721238109E-03  0.62668749748E-02 -0.35182364175E-01  0.35750994182E-01  0.10000000475E-02 0. -1.
</event>
<event>
 4   0  0.4809415E-02  0.9118800E+02  0.7818609E-02  0.1379984E+01
      -11   -1    0    0    0    0  0.00000000000E+00  0.00000000000E+00  0.35740347158E-01  0.35744000000E-01  0.51099999109E-03 0. -1.
       11   -1    0    0    0    0 -0.00000000000E+00 -0.00000000000E+00 -0.35740347158E-01  0.35744000000E-01  0.51099999109E-03 0.  1.
       22    1    1    2    0    0  0.15751401560E-01 -0.12326581568E-03 -0.32078212845E-01  0.35737005818E-01  0.00000000000E+00 0.  1.
  9000001    1    1    2    0    0 -0.15751401560E-01  0.12326581568E-03  0.32078212845E-01  0.35750994182E-01  0.10000000475E-02 0. -1.
</event>
<event>
 4   0  0.4809415E-02  0.9118800E+02  0.7818609E-02  0.1379984E+01
      -11   -1    0    0    0    0  0.00000000000E+00  0.00000000000E+00  0.35740347158E-01  0.35744000000E-01  0.51099999109E-03 0.  1.
       11   -1    0    0    0    0 -0.00000000000E+00 -0.00000000000E+00 -0.35740347158E-01  0.35744000000E-01  0.51099999109E-03 0. -1.
       22    1    1    2    0    0 -0.64289249258E-02  0.12828857864E-01  0.32729541932E-01  0.35737005818E-01  0.00000000000E+00 0.  1.
  9000001    1    1    2    0    0  0.64289249258E-02 -0.12828857864E-01 -0.32729541932E-01  0.35750994182E-01  0.10000000475E-02 0. -1.
</event>
<event>
 4   0  0.4809415E-02  0.9118800E+02  0.7818609E-02  0.1379984E+01
      -11   -1    0    0    0    0  0.00000000000E+00  0.00000000000E+00  0.35740347158E-01  0.35744000000E-01  0.51099999109E-03 0. -1.
       11   -1    0    0    0    0 -0.00000000000E+00 -0.00000000000E+00 -0.35740347158E-01  0.35744000000E-01  0.51099999109E-03 0.  1.
       22    1    1    2    0    0  0.21203640580E-01  0.21557272372E-01 -0.19047919018E-01  0.35737005818E-01  0.00000000000E+00 0. -1.
  9000001    1    1    2    0    0 -0.21203640580E-01 -0.21557272372E-01  0.19047919018E-01  0.35750994182E-01  0.10000000475E-02 0.  1.
</event>
<event>
 4   0  0.4809415E-02  0.9118800E+02  0.7818609E-02  0.1379984E+01
      -11   -1    0    0    0    0  0.00000000000E+00  0.00000000000E+00  0.35740347158E-01  0.35744000000E-01  0.51099999109E-03 0. -1.
       11   -1    0    0    0    0 -0.00000000000E+00 -0.00000000000E+00 -0.35740347158E-01  0.35744000000E-01  0.51099999109E-03 0.  1.
       22    1    1    2    0    0 -0.25408445161E-02  0.74224013867E-02  0.34865249916E-01  0.35737005818E-01  0.00000000000E+00 0. -1.
  9000001    1    1    2    0    0  0.25408445161E-02 -0.74224013867E-02 -0.34865249916E-01  0.35750994182E-01  0.10000000475E-02 0.  1.
</event>
<event>
 4   0  0.4809415E-02  0.9118800E+02  0.7818609E-02  0.1379984E+01
      -11   -1    0    0    0    0  0.00000000000E+00  0.00000000000E+00  0.35740347158E-01  0.35744000000E-01  0.51099999109E-03 0. -1.
       11   -1    0    0    0    0 -0.00000000000E+00 -0.00000000000E+00 -0.35740347158E-01  0.35744000000E-01  0.51099999109E-03 0.  1.
       22    1    1    2    0    0  0.18958623194E-01  0.97208484440E-02 -0.28691624161E-01  0.35737005818E-01  0.00000000000E+00 0.  1.
  9000001    1    1    2    0    0 -0.18958623194E-01 -0.97208484440E-02  0.28691624161E-01  0.35750994182E-01  0.10000000475E-02 0. -1.
</event>
<event>
 4   0  0.4809415E-02  0.9118800E+02  0.7818609E-02  0.1379984E+01
      -11   -1    0    0    0    0  0.00000000000E+00  0.00000000000E+00  0.35740347158E-01  0.35744000000E-01  0.51099999109E-03 0. -1.
       11   -1    0    0    0    0 -0.00000000000E+00 -0.00000000000E+00 -0.35740347158E-01  0.35744000000E-01  0.51099999109E-03 0.  1.
       22    1    1    2    0    0 -0.19850995135E-01 -0.44641407129E-02  0.29379295851E-01  0.35737005818E-01  0.00000000000E+00 0. -1.
  9000001    1    1    2    0    0  0.19850995135E-01  0.44641407129E-02 -0.29379295851E-01  0.35750994182E-01  0.10000000475E-02 0.  1.
</event>
<event>
 4   0  0.4809415E-02  0.9118800E+02  0.7818609E-02  0.1379984E+01
      -11   -1    0    0    0    0  0.00000000000E+00  0.00000000000E+00  0.35740347158E-01  0.35744000000E-01  0.51099999109E-03 0. -1.
       11   -1    0    0    0    0 -0.00000000000E+00 -0.00000000000E+00 -0.35740347158E-01  0.35744000000E-01  0.51099999109E-03 0.  1.
       22    1    1    2    0    0 -0.12713208822E-01 -0.94981245871E-02  0.32020205116E-01  0.35737005818E-01  0.00000000000E+00 0. -1.
  9000001    1    1    2    0    0  0.12713208822E-01  0.94981245871E-02 -0.32020205116E-01  0.35750994182E-01  0.10000000475E-02 0.  1.
</event>
<event>
 4   0  0.4809415E-02  0.9118800E+02  0.7818609E-02  0.1379984E+01
      -11   -1    0    0    0    0  0.00000000000E+00  0.00000000000E+00  0.35740347158E-01  0.35744000000E-01  0.51099999109E-03 0. -1.
       11   -1    0    0    0    0 -0.00000000000E+00 -0.00000000000E+00 -0.35740347158E-01  0.35744000000E-01  0.51099999109E-03 0.  1.
       22    1    1    2    0    0  0.59784403155E-02  0.55978932114E-02  0.34785850972E-01  0.35737005818E-01  0.00000000000E+00 0. -1.
  9000001    1    1    2    0    0 -0.59784403155E-02 -0.55978932114E-02 -0.34785850972E-01  0.35750994182E-01  0.10000000475E-02 0.  1.
</event>
<event>
 4   0  0.4809415E-02  0.9118800E+02  0.7818609E-02  0.1379984E+01
      -11   -1    0    0    0    0  0.00000000000E+00  0.00000000000E+00  0.35740347158E-01  0.35744000000E-01  0.51099999109E-03 0.  1.
       11   -1    0    0    0    0 -0.00000000000E+00 -0.00000000000E+00 -0.35740347158E-01  0.35744000000E-01  0.51099999109E-03 0. -1.
       22    1    1    2    0    0  0.22121447560E-02  0.78156835334E-02  0.34801653572E-01  0.35737005818E-01  0.00000000000E+00 0.  1.
  9000001    1    1    2    0    0 -0.22121447560E-02 -0.78156835334E-02 -0.34801653572E-01  0.35750994182E-01  0.10000000475E-02 0. -1.
</event>
<event>
 4   0  0.4809415E-02  0.9118800E+02  0.7818609E-02  0.1379984E+01
      -11   -1    0    0    0    0  0.00000000000E+00  0.00000000000E+00  0.35740347158E-01  0.35744000000E-01  0.51099999109E-03 0. -1.
       11   -1    0    0    0    0 -0.00000000000E+00 -0.00000000000E+00 -0.35740347158E-01  0.35744000000E-01  0.51099999109E-03 0.  1.
       22    1    1    2    0    0 -0.30793857241E-01 -0.17859860151E-01  0.31460032502E-02  0.35737005818E-01  0.00000000000E+00 0. -1.
  9000001    1    1    2    0    0  0.30793857241E-01  0.17859860151E-01 -0.31460032502E-02  0.35750994182E-01  0.10000000475E-02 0.  1.
</event>
<event>
 4   0  0.4809415E-02  0.9118800E+02  0.7818609E-02  0.1379984E+01
      -11   -1    0    0    0    0  0.00000000000E+00  0.00000000000E+00  0.35740347158E-01  0.35744000000E-01  0.51099999109E-03 0.  1.
       11   -1    0    0    0    0 -0.00000000000E+00 -0.00000000000E+00 -0.35740347158E-01  0.35744000000E-01  0.51099999109E-03 0. -1.
       22    1    1    2    0    0 -0.20238419946E-01 -0.20681871309E-01  0.20971412497E-01  0.35737005818E-01  0.00000000000E+00 0.  1.
  9000001    1    1    2    0    0  0.20238419946E-01  0.20681871309E-01 -0.20971412497E-01  0.35750994182E-01  0.10000000475E-02 0. -1.
</event>
<event>
 4   0  0.4809415E-02  0.9118800E+02  0.7818609E-02  0.1379984E+01
      -11   -1    0    0    0    0  0.00000000000E+00  0.00000000000E+00  0.35740347158E-01  0.35744000000E-01  0.51099999109E-03 0. -1.
       11   -1    0    0    0    0 -0.00000000000E+00 -0.00000000000E+00 -0.35740347158E-01  0.35744000000E-01  0.51099999109E-03 0.  1.
       22    1    1    2    0    0  0.44388556054E-02  0.12108680382E-01 -0.33328816439E-01  0.35737005818E-01  0.00000000000E+00 0.  1.
  9000001    1    1    2    0    0 -0.44388556054E-02 -0.12108680382E-01  0.33328816439E-01  0.35750994182E-01  0.10000000475E-02 0. -1.
</event>
<event>
 4   0  0.4809415E-02  0.9118800E+02  0.7818609E-02  0.1379984E+01
      -11   -1    0    0    0    0  0.00000000000E+00  0.00000000000E+00  0.35740347158E-01  0.35744000000E-01  0.51099999109E-03 0.  1.
       11   -1    0    0    0    0 -0.00000000000E+00 -0.00000000000E+00 -0.35740347158E-01  0.35744000000E-01  0.51099999109E-03 0. -1.
       22    1    1    2    0    0 -0.77597332094E-02 -0.15677509415E-01  0.31163052224E-01  0.35737005818E-01  0.00000000000E+00 0.  1.
  9000001    1    1    2    0    0  0.77597332094E-02  0.15677509415E-01 -0.31163052224E-01  0.35750994182E-01  0.10000000475E-02 0. -1.
</event>
<event>
 4   0  0.4809415E-02  0.9118800E+02  0.7818609E-02  0.1379984E+01
      -11   -1    0    0    0    0  0.00000000000E+00  0.00000000000E+00  0.35740347158E-01  0.35744000000E-01  0.51099999109E-03 0. -1.
       11   -1    0    0    0    0 -0.00000000000E+00 -0.00000000000E+00 -0.35740347158E-01  0.35744000000E-01  0.51099999109E-03 0.  1.
       22    1    1    2    0    0 -0.74283374707E-03  0.31153412803E-02 -0.35593207661E-01  0.35737005818E-01  0.00000000000E+00 0.  1.
  9000001    1    1    2    0    0  0.74283374707E-03 -0.31153412803E-02  0.35593207661E-01  0.35750994182E-01  0.10000000475E-02 0. -1.
</event>
<event>
 4   0  0.4809415E-02  0.9118800E+02  0.7818609E-02  0.1379984E+01
      -11   -1    0    0    0    0  0.00000000000E+00  0.00000000000E+00  0.35740347158E-01  0.35744000000E-01  0.51099999109E-03 0. -1.
       11   -1    0    0    0    0 -0.00000000000E+00 -0.00000000000E+00 -0.35740347158E-01  0.35744000000E-01  0.51099999109E-03 0.  1.
       22    1    1    2    0    0  0.14372981551E-01 -0.19124528113E-01 -0.26548133846E-01  0.35737005818E-01  0.00000000000E+00 0.  1.
  9000001    1    1    2    0    0 -0.14372981551E-01  0.19124528113E-01  0.26548133846E-01  0.35750994182E-01  0.10000000475E-02 0. -1.
</event>
<event>
 4   0  0.4809415E-02  0.9118800E+02  0.7818609E-02  0.1379984E+01
      -11   -1    0    0    0    0  0.00000000000E+00  0.00000000000E+00  0.35740347158E-01  0.35744000000E-01  0.51099999109E-03 0.  1.
       11   -1    0    0    0    0 -0.00000000000E+00 -0.00000000000E+00 -0.35740347158E-01  0.35744000000E-01  0.51099999109E-03 0. -1.
       22    1    1    2    0    0  0.96895671520E-02 -0.42878022290E-02  0.34130054575E-01  0.35737005818E-01  0.00000000000E+00 0.  1.
  9000001    1    1    2    0    0 -0.96895671520E-02  0.42878022290E-02 -0.34130054575E-01  0.35750994182E-01  0.10000000475E-02 0. -1.
</event>
<event>
 4   0  0.4809415E-02  0.9118800E+02  0.7818609E-02  0.1379984E+01
      -11   -1    0    0    0    0  0.00000000000E+00  0.00000000000E+00  0.35740347158E-01  0.35744000000E-01  0.51099999109E-03 0.  1.
       11   -1    0    0    0    0 -0.00000000000E+00 -0.00000000000E+00 -0.35740347158E-01  0.35744000000E-01  0.51099999109E-03 0. -1.
       22    1    1    2    0    0  0.33757544019E-02 -0.18682456413E-02  0.35528123020E-01  0.35737005818E-01  0.00000000000E+00 0.  1.
  9000001    1    1    2    0    0 -0.33757544019E-02  0.18682456413E-02 -0.35528123020E-01  0.35750994182E-01  0.10000000475E-02 0. -1.
</event>
<event>
 4   0  0.4809415E-02  0.9118800E+02  0.7818609E-02  0.1379984E+01
      -11   -1    0    0    0    0  0.00000000000E+00  0.00000000000E+00  0.35740347158E-01  0.35744000000E-01  0.51099999109E-03 0.  1.
       11   -1    0    0    0    0 -0.00000000000E+00 -0.00000000000E+00 -0.35740347158E-01  0.35744000000E-01  0.51099999109E-03 0. -1.
       22    1    1    2    0    0  0.15376303361E-03 -0.53996460198E-02 -0.35326389069E-01  0.35737005818E-01  0.00000000000E+00 0. -1.
  9000001    1    1    2    0    0 -0.15376303361E-03  0.53996460198E-02  0.35326389069E-01  0.35750994182E-01  0.10000000475E-02 0.  1.
</event>
<event>
 4   0  0.4809415E-02  0.9118800E+02  0.7818609E-02  0.1379984E+01
      -11   -1    0    0    0    0  0.00000000000E+00  0.00000000000E+00  0.35740347158E-01  0.35744000000E-01  0.51099999109E-03 0.  1.
       11   -1    0    0    0    0 -0.00000000000E+00 -0.00000000000E+00 -0.35740347158E-01  0.35744000000E-01  0.51099999109E-03 0. -1.
       22    1    1    2    0    0  0.18273912053E-02 -0.34467663758E-02  0.35523429280E-01  0.35737005818E-01  0.00000000000E+00 0.  1.
  9000001    1    1    2    0    0 -0.18273912053E-02  0.34467663758E-02 -0.35523429280E-01  0.35750994182E-01  0.10000000475E-02 0. -1.
</event>
<event>
 4   0  0.4809415E-02  0.9118800E+02  0.7818609E-02  0.1379984E+01
      -11   -1    0    0    0    0  0.00000000000E+00  0.00000000000E+00  0.35740347158E-01  0.35744000000E-01  0.51099999109E-03 0. -1.
       11   -1    0    0    0    0 -0.00000000000E+00 -0.00000000000E+00 -0.35740347158E-01  0.35744000000E-01  0.51099999109E-03 0.  1.
       22    1    1    2    0    0  0.30859274418E-02 -0.52397488072E-03 -0.35599664142E-01  0.35737005818E-01  0.00000000000E+00 0.  1.
  9000001    1    1    2    0    0 -0.30859274418E-02  0.52397488072E-03  0.35599664142E-01  0.35750994182E-01  0.10000000475E-02 0. -1.
</event>
<event>
 4   0  0.4809415E-02  0.9118800E+02  0.7818609E-02  0.1379984E+01
      -11   -1    0    0    0    0  0.00000000000E+00  0.00000000000E+00  0.35740347158E-01  0.35744000000E-01  0.51099999109E-03 0.  1.
       11   -1    0    0    0    0 -0.00000000000E+00 -0.00000000000E+00 -0.35740347158E-01  0.35744000000E-01  0.51099999109E-03 0. -1.
       22    1    1    2    0    0  0.28342362704E-02  0.13183053070E-01 -0.33095434751E-01  0.35737005818E-01  0.00000000000E+00 0. -1.
  9000001    1    1    2    0    0 -0.28342362704E-02 -0.13183053070E-01  0.33095434751E-01  0.35750994182E-01  0.10000000475E-02 0.  1.
</event>
<event>
 4   0  0.4809415E-02  0.9118800E+02  0.7818609E-02  0.1379984E+01
      -11   -1    0    0    0    0  0.00000000000E+00  0.00000000000E+00  0.35740347158E-01  0.35744000000E-01  0.51099999109E-03 0. -1.
       11   -1    0    0    0    0 -0.00000000000E+00 -0.00000000000E+00 -0.35740347158E-01  0.35744000000E-01  0.51099999109E-03 0.  1.
       22    1    1    2    0    0 -0.13170122804E-01 -0.12467826108E-01  0.30793420764E-01  0.35737005818E-01  0.00000000000E+00 0. -1.
  9000001    1    1    2    0    0  0.13170122804E-01  0.12467826108E-01 -0.30793420764E-01  0.35750994182E-01  0.10000000475E-02 0.  1.
</event>
<event>
 4   0  0.4809415E-02  0.9118800E+02  0.7818609E-02  0.1379984E+01
      -11   -1    0    0    0    0  0.00000000000E+00  0.00000000000E+00  0.35740347158E-01  0.35744000000E-01  0.51099999109E-03 0.  1.
       11   -1    0    0    0    0 -0.00000000000E+00 -0.00000000000E+00 -0.35740347158E-01  0.35744000000E-01  0.51099999109E-03 0. -1.
       22    1    1    2    0    0 -0.27873165584E-03  0.34764203789E-02 -0.35566422295E-01  0.35737005818E-01  0.00000000000E+00 0. -1.
  9000001    1    1    2    0    0  0.27873165584E-03 -0.34764203789E-02  0.35566422295E-01  0.35750994182E-01  0.10000000475E-02 0.  1.
</event>
<event>
 4   0  0.4809415E-02  0.9118800E+02  0.7818609E-02  0.1379984E+01
      -11   -1    0    0    0    0  0.00000000000E+00  0.00000000000E+00  0.35740347158E-01  0.35744000000E-01  0.51099999109E-03 0.  1.
       11   -1    0    0    0    0 -0.00000000000E+00 -0.00000000000E+00 -0.35740347158E-01  0.35744000000E-01  0.51099999109E-03 0. -1.
       22    1    1    2    0    0 -0.74874893704E-02  0.25791431501E-03  0.34942875783E-01  0.35737005818E-01  0.00000000000E+00 0.  1.
  9000001    1    1    2    0    0  0.74874893704E-02 -0.25791431501E-03 -0.34942875783E-01  0.35750994182E-01  0.10000000475E-02 0. -1.
</event>
<event>
 4   0  0.4809415E-02  0.9118800E+02  0.7818609E-02  0.1379984E+01
      -11   -1    0    0    0    0  0.00000000000E+00  0.00000000000E+00  0.35740347158E-01  0.35744000000E-01  0.51099999109E-03 0.  1.
       11   -1    0    0    0    0 -0.00000000000E+00 -0.00000000000E+00 -0.35740347158E-01  0.35744000000E-01  0.51099999109E-03 0. -1.
       22    1    1    2    0    0  0.16657400449E-01 -0.20384642866E-01 -0.24168800764E-01  0.35737005818E-01  0.00000000000E+00 0. -1.
  9000001    1    1    2    0    0 -0.16657400449E-01  0.20384642866E-01  0.24168800764E-01  0.35750994182E-01  0.10000000475E-02 0.  1.
</event>
<event>
 4   0  0.4809415E-02  0.9118800E+02  0.7818609E-02  0.1379984E+01
      -11   -1    0    0    0    0  0.00000000000E+00  0.00000000000E+00  0.35740347158E-01  0.35744000000E-01  0.51099999109E-03 0. -1.
       11   -1    0    0    0    0 -0.00000000000E+00 -0.00000000000E+00 -0.35740347158E-01  0.35744000000E-01  0.51099999109E-03 0.  1.
       22    1    1    2    0    0 -0.19519714712E-02  0.13601577928E-01 -0.32989702486E-01  0.35737005818E-01  0.00000000000E+00 0.  1.
  9000001    1    1    2    0    0  0.19519714712E-02 -0.13601577928E-01  0.32989702486E-01  0.35750994182E-01  0.10000000475E-02 0. -1.
</event>
<event>
 4   0  0.4809415E-02  0.9118800E+02  0.7818609E-02  0.1379984E+01
      -11   -1    0    0    0    0  0.00000000000E+00  0.00000000000E+00  0.35740347158E-01  0.35744000000E-01  0.51099999109E-03 0. -1.
       11   -1    0    0    0    0 -0.00000000000E+00 -0.00000000000E+00 -0.35740347158E-01  0.35744000000E-01  0.51099999109E-03 0.  1.
       22    1    1    2    0    0 -0.21216859662E-04 -0.33045754969E-02  0.35583885616E-01  0.35737005818E-01  0.00000000000E+00 0. -1.
  9000001    1    1    2    0    0  0.21216859662E-04  0.33045754969E-02 -0.35583885616E-01  0.35750994182E-01  0.10000000475E-02 0.  1.
</event>
<event>
 4   0  0.4809415E-02  0.9118800E+02  0.7818609E-02  0.1379984E+01
      -11   -1    0    0    0    0  0.00000000000E+00  0.00000000000E+00  0.35740347158E-01  0.35744000000E-01  0.51099999109E-03 0.  1.
       11   -1    0    0    0    0 -0.00000000000E+00 -0.00000000000E+00 -0.35740347158E-01  0.35744000000E-01  0.51099999109E-03 0. -1.
       22    1    1    2    0    0 -0.28902442928E-01  0.20806920688E-01  0.29756392836E-02  0.35737005818E-01  0.00000000000E+00 0. -1.
  9000001    1    1    2    0    0  0.28902442928E-01 -0.20806920688E-01 -0.29756392836E-02  0.35750994182E-01  0.10000000475E-02 0.  1.
</event>
<event>
 4   0  0.4809415E-02  0.9118800E+02  0.7818609E-02  0.1379984E+01
      -11   -1    0    0    0    0  0.00000000000E+00  0.00000000000E+00  0.35740347158E-01  0.35744000000E-01  0.51099999109E-03 0.  1.
       11   -1    0    0    0    0 -0.00000000000E+00 -0.00000000000E+00 -0.35740347158E-01  0.35744000000E-01  0.51099999109E-03 0. -1.
       22    1    1    2    0    0  0.75827894080E-02  0.75758215917E-02 -0.34091667851E-01  0.35737005818E-01  0.00000000000E+00 0. -1.
  9000001    1    1    2    0    0 -0.75827894080E-02 -0.75758215917E-02  0.34091667851E-01  0.35750994182E-01  0.10000000475E-02 0.  1.
</event>
<event>
 4   0  0.4809415E-02  0.9118800E+02  0.7818609E-02  0.1379984E+01
      -11   -1    0    0    0    0  0.00000000000E+00  0.00000000000E+00  0.35740347158E-01  0.35744000000E-01  0.51099999109E-03 0.  1.
       11   -1    0    0    0    0 -0.00000000000E+00 -0.00000000000E+00 -0.35740347158E-01  0.35744000000E-01  0.51099999109E-03 0. -1.
       22    1    1    2    0    0 -0.18298033810E-01 -0.29791674192E-01 -0.74007899865E-02  0.35737005818E-01  0.00000000000E+00 0. -1.
  9000001    1    1    2    0    0  0.18298033810E-01  0.29791674192E-01  0.74007899865E-02  0.35750994182E-01  0.10000000475E-02 0.  1.
</event>
<event>
 4   0  0.4809415E-02  0.9118800E+02  0.7818609E-02  0.1379984E+01
      -11   -1    0    0    0    0  0.00000000000E+00  0.00000000000E+00  0.35740347158E-01  0.35744000000E-01  0.51099999109E-03 0. -1.
       11   -1    0    0    0    0 -0.00000000000E+00 -0.00000000000E+00 -0.35740347158E-01  0.35744000000E-01  0.51099999109E-03 0.  1.
       22    1    1    2    0    0 -0.43904167584E-02  0.23631839267E-02 -0.35387472180E-01  0.35737005818E-01  0.00000000000E+00 0.  1.
  9000001    1    1    2    0    0  0.43904167584E-02 -0.23631839267E-02  0.35387472180E-01  0.35750994182E-01  0.10000000475E-02 0. -1.
</event>
<event>
 4   0  0.4809415E-02  0.9118800E+02  0.7818609E-02  0.1379984E+01
      -11   -1    0    0    0    0  0.00000000000E+00  0.00000000000E+00  0.35740347158E-01  0.35744000000E-01  0.51099999109E-03 0.  1.
       11   -1    0    0    0    0 -0.00000000000E+00 -0.00000000000E+00 -0.35740347158E-01  0.35744000000E-01  0.51099999109E-03 0. -1.
       22    1    1    2    0    0 -0.10144332474E-01 -0.10327355092E-01 -0.32673717884E-01  0.35737005818E-01  0.00000000000E+00 0. -1.
  9000001    1    1    2    0    0  0.10144332474E-01  0.10327355092E-01  0.32673717884E-01  0.35750994182E-01  0.10000000475E-02 0.  1.
</event>
<event>
 4   0  0.4809415E-02  0.9118800E+02  0.7818609E-02  0.1379984E+01
      -11   -1    0    0    0    0  0.00000000000E+00  0.00000000000E+00  0.35740347158E-01  0.35744000000E-01  0.51099999109E-03 0. -1.
       11   -1    0    0    0    0 -0.00000000000E+00 -0.00000000000E+00 -0.35740347158E-01  0.35744000000E-01  0.51099999109E-03 0.  1.
       22    1    1    2    0    0 -0.26436369868E-01  0.10286865891E-01 -0.21735508349E-01  0.35737005818E-01  0.00000000000E+00 0.  1.
  9000001    1    1    2    0    0  0.26436369868E-01 -0.10286865891E-01  0.21735508349E-01  0.35750994182E-01  0.10000000475E-02 0. -1.
</event>
<event>
 4   0  0.4809415E-02  0.9118800E+02  0.7818609E-02  0.1379984E+01
      -11   -1    0    0    0    0  0.00000000000E+00  0.00000000000E+00  0.35740347158E-01  0.35744000000E-01  0.51099999109E-03 0.  1.
       11   -1    0    0    0    0 -0.00000000000E+00 -0.00000000000E+00 -0.35740347158E-01  0.35744000000E-01  0.51099999109E-03 0. -1.
       22    1    1    2    0    0 -0.29180963181E-02 -0.58993499091E-02  0.35125716639E-01  0.35737005818E-01  0.00000000000E+00 0.  1.
  9000001    1    1    2    0    0  0.29180963181E-02  0.58993499091E-02 -0.35125716639E-01  0.35750994182E-01  0.10000000475E-02 0. -1.
</event>
<event>
 4   0  0.4809415E-02  0.9118800E+02  0.7818609E-02  0.1379984E+01
      -11   -1    0    0    0    0  0.00000000000E+00  0.00000000000E+00  0.35740347158E-01  0.35744000000E-01  0.51099999109E-03 0. -1.
       11   -1    0    0    0    0 -0.00000000000E+00 -0.00000000000E+00 -0.35740347158E-01  0.35744000000E-01  0.51099999109E-03 0.  1.
       22    1    1    2    0    0  0.11872239402E-01  0.57616357957E-03 -0.33702396829E-01  0.35737005818E-01  0.00000000000E+00 0.  1.
  9000001    1    1    2    0    0 -0.11872239402E-01 -0.57616357957E-03  0.33702396829E-01  0.35750994182E-01  0.10000000475E-02 0. -1.
</event>
<event>
 4   0  0.4809415E-02  0.9118800E+02  0.7818609E-02  0.1379984E+01
      -11   -1    0    0    0    0  0.00000000000E+00  0.00000000000E+00  0.35740347158E-01  0.35744000000E-01  0.51099999109E-03 0.  1.
       11   -1    0    0    0    0 -0.00000000000E+00 -0.00000000000E+00 -0.35740347158E-01  0.35744000000E-01  0.51099999109E-03 0. -1.
       22    1    1    2    0    0 -0.26075978060E-01  0.21676304969E-01  0.11283384065E-01  0.35737005818E-01  0.00000000000E+00 0. -1.
  9000001    1    1    2    0    0  0.26075978060E-01 -0.21676304969E-01 -0.11283384065E-01  0.35750994182E-01  0.10000000475E-02 0.  1.
</event>
<event>
 4   0  0.4809415E-02  0.9118800E+02  0.7818609E-02  0.1379984E+01
      -11   -1    0    0    0    0  0.00000000000E+00  0.00000000000E+00  0.35740347158E-01  0.35744000000E-01  0.51099999109E-03 0.  1.
       11   -1    0    0    0    0 -0.00000000000E+00 -0.00000000000E+00 -0.35740347158E-01  0.35744000000E-01  0.51099999109E-03 0. -1.
       22    1    1    2    0    0  0.19480053562E-01 -0.11952740710E-01 -0.27473497913E-01  0.35737005818E-01  0.00000000000E+00 0. -1.
  9000001    1    1    2    0    0 -0.19480053562E-01  0.11952740710E-01  0.27473497913E-01  0.35750994182E-01  0.10000000475E-02 0.  1.
</event>
<event>
 4   0  0.4809415E-02  0.9118800E+02  0.7818609E-02  0.1379984E+01
      -11   -1    0    0    0    0  0.00000000000E+00  0.00000000000E+00  0.35740347158E-01  0.35744000000E-01  0.51099999109E-03 0. -1.
       11   -1    0    0    0    0 -0.00000000000E+00 -0.00000000000E+00 -0.35740347158E-01  0.35744000000E-01  0.51099999109E-03 0.  1.
       22    1    1    2    0    0 -0.56332524311E-02  0.10803908430E-01 -0.33595767807E-01  0.35737005818E-01  0.00000000000E+00 0.  1.
  9000001    1    1    2    0    0  0.56332524311E-02 -0.10803908430E-01  0.33595767807E-01  0.35750994182E-01  0.10000000475E-02 0. -1.
</event>
<event>
 4   0  0.4809415E-02  0.9118800E+02  0.7818609E-02  0.1379984E+01
      -11   -1    0    0    0    0  0.00000000000E+00  0.00000000000E+00  0.35740347158E-01  0.35744000000E-01  0.51099999109E-03 0.  1.
       11   -1    0    0    0    0 -0.00000000000E+00 -0.00000000000E+00 -0.35740347158E-01  0.35744000000E-01  0.51099999109E-03 0. -1.
       22    1    1    2    0    0 -0.19449037623E-01  0.83033922699E-02 -0.28808370264E-01  0.35737005818E-01  0.00000000000E+00 0. -1.
  9000001    1    1    2    0    0  0.19449037623E-01 -0.83033922699E-02  0.28808370264E-01  0.35750994182E-01  0.10000000475E-02 0.  1.
</event>
<event>
 4   0  0.4809415E-02  0.9118800E+02  0.7818609E-02  0.1379984E+01
      -11   -1    0    0    0    0  0.00000000000E+00  0.00000000000E+00  0.35740347158E-01  0.35744000000E-01  0.51099999109E-03 0. -1.
       11   -1    0    0    0    0 -0.00000000000E+00 -0.00000000000E+00 -0.35740347158E-01  0.35744000000E-01  0.51099999109E-03 0.  1.
       22    1    1    2    0    0 -0.10775833175E-01  0.73977728351E-03  0.34065638609E-01  0.35737005818E-01  0.00000000000E+00 0. -1.
  9000001    1    1    2    0    0  0.10775833175E-01 -0.73977728351E-03 -0.34065638609E-01  0.35750994182E-01  0.10000000475E-02 0.  1.
</event>
<event>
 4   0  0.4809415E-02  0.9118800E+02  0.7818609E-02  0.1379984E+01
      -11   -1    0    0    0    0  0.00000000000E+00  0.00000000000E+00  0.35740347158E-01  0.35744000000E-01  0.51099999109E-03 0.  1.
       11   -1    0    0    0    0 -0.00000000000E+00 -0.00000000000E+00 -0.35740347158E-01  0.35744000000E-01  0.51099999109E-03 0. -1.
       22    1    1    2    0    0 -0.11947902273E-02 -0.40316894290E-02  0.35488752324E-01  0.35737005818E-01  0.00000000000E+00 0.  1.
  9000001    1    1    2    0    0  0.11947902273E-02  0.40316894290E-02 -0.35488752324E-01  0.35750994182E-01  0.10000000475E-02 0. -1.
</event>
<event>
 4   0  0.4809415E-02  0.9118800E+02  0.7818609E-02  0.1379984E+01
      -11   -1    0    0    0    0  0.00000000000E+00  0.00000000000E+00  0.35740347158E-01  0.35744000000E-01  0.51099999109E-03 0. -1.
       11   -1    0    0    0    0 -0.00000000000E+00 -0.00000000000E+00 -0.35740347158E-01  0.35744000000E-01  0.51099999109E-03 0.  1.
       22    1    1    2    0    0 -0.37741082098E-03  0.25867212549E-01 -0.24655191358E-01  0.35737005818E-01  0.00000000000E+00 0.  1.
  9000001    1    1    2    0    0  0.37741082098E-03 -0.25867212549E-01  0.24655191358E-01  0.35750994182E-01  0.10000000475E-02 0. -1.
</event>
<event>
 4   0  0.4809415E-02  0.9118800E+02  0.7818609E-02  0.1379984E+01
      -11   -1    0    0    0    0  0.00000000000E+00  0.00000000000E+00  0.35740347158E-01  0.35744000000E-01  0.51099999109E-03 0.  1.
       11   -1    0    0    0    0 -0.00000000000E+00 -0.00000000000E+00 -0.35740347158E-01  0.35744000000E-01  0.51099999109E-03 0. -1.
       22    1    1    2    0    0  0.29243067455E-02  0.59481488264E-02  0.35116969409E-01  0.35737005818E-01  0.00000000000E+00 0.  1.
  9000001    1    1    2    0    0 -0.29243067455E-02 -0.59481488264E-02 -0.35116969409E-01  0.35750994182E-01  0.10000000475E-02 0. -1.
</event>
<event>
 4   0  0.4809415E-02  0.9118800E+02  0.7818609E-02  0.1379984E+01
      -11   -1    0    0    0    0  0.00000000000E+00  0.00000000000E+00  0.35740347158E-01  0.35744000000E-01  0.51099999109E-03 0. -1.
       11   -1    0    0    0    0 -0.00000000000E+00 -0.00000000000E+00 -0.35740347158E-01  0.35744000000E-01  0.51099999109E-03 0.  1.
       22    1    1    2    0    0 -0.48372713815E-02 -0.24125101566E-02  0.35325828868E-01  0.35737005818E-01  0.00000000000E+00 0. -1.
  9000001    1    1    2    0    0  0.48372713815E-02  0.24125101566E-02 -0.35325828868E-01  0.35750994182E-01  0.10000000475E-02 0.  1.
</event>
<event>
 4   0  0.4809415E-02  0.9118800E+02  0.7818609E-02  0.1379984E+01
      -11   -1    0    0    0    0  0.00000000000E+00  0.00000000000E+00  0.35740347158E-01  0.35744000000E-01  0.51099999109E-03 0.  1.
       11   -1    0    0    0    0 -0.00000000000E+00 -0.00000000000E+00 -0.35740347158E-01  0.35744000000E-01  0.51099999109E-03 0. -1.
       22    1    1    2    0    0  0.22409375600E-02 -0.55638427173E-02 -0.35230036020E-01  0.35737005818E-01  0.00000000000E+00 0. -1.
  9000001    1    1    2    0    0 -0.22409375600E-02  0.55638427173E-02  0.35230036020E-01  0.35750994182E-01  0.10000000475E-02 0.  1.
</event>
<event>
 4   0  0.4809415E-02  0.9118800E+02  0.7818609E-02  0.1379984E+01
      -11   -1    0    0    0    0  0.00000000000E+00  0.00000000000E+00  0.35740347158E-01  0.35744000000E-01  0.51099999109E-03 0.  1.
       11   -1    0    0    0    0 -0.00000000000E+00 -0.00000000000E+00 -0.35740347158E-01  0.35744000000E-01  0.51099999109E-03 0. -1.
       22    1    1    2    0    0  0.10466152118E-02 -0.37226459689E-02 -0.35527173944E-01  0.35737005818E-01  0.00000000000E+00 0. -1.
  9000001    1    1    2    0    0 -0.10466152118E-02  0.37226459689E-02  0.35527173944E-01  0.35750994182E-01  0.10000000475E-02 0.  1.
</event>
<event>
 4   0  0.4809415E-02  0.9118800E+02  0.7818609E-02  0.1379984E+01
      -11   -1    0    0    0    0  0.00000000000E+00  0.00000000000E+00  0.35740347158E-01  0.35744000000E-01  0.51099999109E-03 0.  1.
       11   -1    0    0    0    0 -0.00000000000E+00 -0.00000000000E+00 -0.35740347158E-01  0.35744000000E-01  0.51099999109E-03 0. -1.
       22    1    1    2    0    0 -0.33658293174E-02  0.11722257692E-01  0.33591568175E-01  0.35737005818E-01  0.00000000000E+00 0.  1.
  9000001    1    1    2    0    0  0.33658293174E-02 -0.11722257692E-01 -0.33591568175E-01  0.35750994182E-01  0.10000000475E-02 0. -1.
</event>
<event>
 4   0  0.4809415E-02  0.9118800E+02  0.7818609E-02  0.1379984E+01
      -11   -1    0    0    0    0  0.00000000000E+00  0.00000000000E+00  0.35740347158E-01  0.35744000000E-01  0.51099999109E-03 0.  1.
       11   -1    0    0    0    0 -0.00000000000E+00 -0.00000000000E+00 -0.35740347158E-01  0.35744000000E-01  0.51099999109E-03 0. -1.
       22    1    1    2    0    0 -0.56777842291E-02  0.85454817710E-02  0.34232602770E-01  0.35737005818E-01  0.00000000000E+00 0.  1.
  9000001    1    1    2    0    0  0.56777842291E-02 -0.85454817710E-02 -0.34232602770E-01  0.35750994182E-01  0.10000000475E-02 0. -1.
</event>
<event>
 4   0  0.4809415E-02  0.9118800E+02  0.7818609E-02  0.1379984E+01
      -11   -1    0    0    0    0  0.00000000000E+00  0.00000000000E+00  0.35740347158E-01  0.35744000000E-01  0.51099999109E-03 0. -1.
       11   -1    0    0    0    0 -0.00000000000E+00 -0.00000000000E+00 -0.35740347158E-01  0.35744000000E-01  0.51099999109E-03 0.  1.
       22    1    1    2    0    0  0.14433786072E-02  0.23096646191E-01 -0.27232245184E-01  0.35737005818E-01  0.00000000000E+00 0.  1.
  9000001    1    1    2    0    0 -0.14433786072E-02 -0.23096646191E-01  0.27232245184E-01  0.35750994182E-01  0.10000000475E-02 0. -1.
</event>
<event>
 4   0  0.4809415E-02  0.9118800E+02  0.7818609E-02  0.1379984E+01
      -11   -1    0    0    0    0  0.00000000000E+00  0.00000000000E+00  0.35740347158E-01  0.35744000000E-01  0.51099999109E-03 0.  1.
       11   -1    0    0    0    0 -0.00000000000E+00 -0.00000000000E+00 -0.35740347158E-01  0.35744000000E-01  0.51099999109E-03 0. -1.
       22    1    1    2    0    0 -0.31588450309E-02  0.11304727277E-02 -0.35579169669E-01  0.35737005818E-01  0.00000000000E+00 0. -1.
  9000001    1    1    2    0    0  0.31588450309E-02 -0.11304727277E-02  0.35579169669E-01  0.35750994182E-01  0.10000000475E-02 0.  1.
</event>
<event>
 4   0  0.4809415E-02  0.9118800E+02  0.7818609E-02  0.1379984E+01
      -11   -1    0    0    0    0  0.00000000000E+00  0.00000000000E+00  0.35740347158E-01  0.35744000000E-01  0.51099999109E-03 0. -1.
       11   -1    0    0    0    0 -0.00000000000E+00 -0.00000000000E+00 -0.35740347158E-01  0.35744000000E-01  0.51099999109E-03 0.  1.
       22    1    1    2    0    0 -0.12195005084E-01  0.50515250377E-02  0.33209901094E-01  0.35737005818E-01  0.00000000000E+00 0. -1.
  9000001    1    1    2    0    0  0.12195005084E-01 -0.50515250377E-02 -0.33209901094E-01  0.35750994182E-01  0.10000000475E-02 0.  1.
</event>
<event>
 4   0  0.4809415E-02  0.9118800E+02  0.7818609E-02  0.1379984E+01
      -11   -1    0    0    0    0  0.00000000000E+00  0.00000000000E+00  0.35740347158E-01  0.35744000000E-01  0.51099999109E-03 0.  1.
       11   -1    0    0    0    0 -0.00000000000E+00 -0.00000000000E+00 -0.35740347158E-01  0.35744000000E-01  0.51099999109E-03 0. -1.
       22    1    1    2    0    0  0.61675038063E-02 -0.46977656533E-02  0.34885906603E-01  0.35737005818E-01  0.00000000000E+00 0.  1.
  9000001    1    1    2    0    0 -0.61675038063E-02  0.46977656533E-02 -0.34885906603E-01  0.35750994182E-01  0.10000000475E-02 0. -1.
</event>
<event>
 4   0  0.4809415E-02  0.9118800E+02  0.7818609E-02  0.1379984E+01
      -11   -1    0    0    0    0  0.00000000000E+00  0.00000000000E+00  0.35740347158E-01  0.35744000000E-01  0.51099999109E-03 0. -1.
       11   -1    0    0    0    0 -0.00000000000E+00 -0.00000000000E+00 -0.35740347158E-01  0.35744000000E-01  0.51099999109E-03 0.  1.
       22    1    1    2    0    0  0.30102753876E-01 -0.93521799575E-02  0.16837295625E-01  0.35737005818E-01  0.00000000000E+00 0. -1.
  9000001    1    1    2    0    0 -0.30102753876E-01  0.93521799575E-02 -0.16837295625E-01  0.35750994182E-01  0.10000000475E-02 0.  1.
</event>
<event>
 4   0  0.4809415E-02  0.9118800E+02  0.7818609E-02  0.1379984E+01
      -11   -1    0    0    0    0  0.00000000000E+00  0.00000000000E+00  0.35740347158E-01  0.35744000000E-01  0.51099999109E-03 0. -1.
       11   -1    0    0    0    0 -0.00000000000E+00 -0.00000000000E+00 -0.35740347158E-01  0.35744000000E-01  0.51099999109E-03 0.  1.
       22    1    1    2    0    0  0.61139377063E-02  0.24583299677E-02  0.35124207669E-01  0.35737005818E-01  0.00000000000E+00 0. -1.
  9000001    1    1    2    0    0 -0.61139377063E-02 -0.24583299677E-02 -0.35124207669E-01  0.35750994182E-01  0.10000000475E-02 0.  1.
</event>
<event>
 4   0  0.4809415E-02  0.9118800E+02  0.7818609E-02  0.1379984E+01
      -11   -1    0    0    0    0  0.00000000000E+00  0.00000000000E+00  0.35740347158E-01  0.35744000000E-01  0.51099999109E-03 0. -1.
       11   -1    0    0    0    0 -0.00000000000E+00 -0.00000000000E+00 -0.35740347158E-01  0.35744000000E-01  0.51099999109E-03 0.  1.
       22    1    1    2    0    0 -0.32793812443E-01 -0.13656405606E-01  0.38989788734E-02  0.35737005818E-01  0.00000000000E+00 0. -1.
  9000001    1    1    2    0    0  0.32793812443E-01  0.13656405606E-01 -0.38989788734E-02  0.35750994182E-01  0.10000000475E-02 0.  1.
</event>
<event>
 4   0  0.4809415E-02  0.9118800E+02  0.7818609E-02  0.1379984E+01
      -11   -1    0    0    0    0  0.00000000000E+00  0.00000000000E+00  0.35740347158E-01  0.35744000000E-01  0.51099999109E-03 0. -1.
       11   -1    0    0    0    0 -0.00000000000E+00 -0.00000000000E+00 -0.35740347158E-01  0.35744000000E-01  0.51099999109E-03 0.  1.
       22    1    1    2    0    0  0.93931979613E-02 -0.20803201608E-01 -0.27497785725E-01  0.35737005818E-01  0.00000000000E+00 0.  1.
  9000001    1    1    2    0    0 -0.93931979613E-02  0.20803201608E-01  0.27497785725E-01  0.35750994182E-01  0.10000000475E-02 0. -1.
</event>
<event>
 4   0  0.4809415E-02  0.9118800E+02  0.7818609E-02  0.1379984E+01
      -11   -1    0    0    0    0  0.00000000000E+00  0.00000000000E+00  0.35740347158E-01  0.35744000000E-01  0.51099999109E-03 0. -1.
       11   -1    0    0    0    0 -0.00000000000E+00 -0.00000000000E+00 -0.35740347158E-01  0.35744000000E-01  0.51099999109E-03 0.  1.
       22    1    1    2    0    0  0.12145209198E-01 -0.11644845662E-01  0.31528162774E-01  0.35737005818E-01  0.00000000000E+00 0. -1.
  9000001    1    1    2    0    0 -0.12145209198E-01  0.11644845662E-01 -0.31528162774E-01  0.35750994182E-01  0.10000000475E-02 0.  1.
</event>
<event>
 4   0  0.4809415E-02  0.9118800E+02  0.7818609E-02  0.1379984E+01
      -11   -1    0    0    0    0  0.00000000000E+00  0.00000000000E+00  0.35740347158E-01  0.35744000000E-01  0.51099999109E-03 0. -1.
       11   -1    0    0    0    0 -0.00000000000E+00 -0.00000000000E+00 -0.35740347158E-01  0.35744000000E-01  0.51099999109E-03 0.  1.
       22    1    1    2    0    0 -0.11406939346E-01  0.69977374312E-02  0.33136792097E-01  0.35737005818E-01  0.00000000000E+00 0. -1.
  9000001    1    1    2    0    0  0.11406939346E-01 -0.69977374312E-02 -0.33136792097E-01  0.35750994182E-01  0.10000000475E-02 0.  1.
</event>
<event>
 4   0  0.4809415E-02  0.9118800E+02  0.7818609E-02  0.1379984E+01
      -11   -1    0    0    0    0  0.00000000000E+00  0.00000000000E+00  0.35740347158E-01  0.35744000000E-01  0.51099999109E-03 0. -1.
       11   -1    0    0    0    0 -0.00000000000E+00 -0.00000000000E+00 -0.35740347158E-01  0.35744000000E-01  0.51099999109E-03 0.  1.
       22    1    1    2    0    0  0.25928961751E-01 -0.24376925112E-01 -0.32539283096E-02  0.35737005818E-01  0.00000000000E+00 0. -1.
  9000001    1    1    2    0    0 -0.25928961751E-01  0.24376925112E-01  0.32539283096E-02  0.35750994182E-01  0.10000000475E-02 0.  1.
</event>
<event>
 4   0  0.4809415E-02  0.9118800E+02  0.7818609E-02  0.1379984E+01
      -11   -1    0    0    0    0  0.00000000000E+00  0.00000000000E+00  0.35740347158E-01  0.35744000000E-01  0.51099999109E-03 0. -1.
       11   -1    0    0    0    0 -0.00000000000E+00 -0.00000000000E+00 -0.35740347158E-01  0.35744000000E-01  0.51099999109E-03 0.  1.
       22    1    1    2    0    0 -0.67564031078E-02 -0.10690629519E-02 -0.35076227082E-01  0.35737005818E-01  0.00000000000E+00 0.  1.
  9000001    1    1    2    0    0  0.67564031078E-02  0.10690629519E-02  0.35076227082E-01  0.35750994182E-01  0.10000000475E-02 0. -1.
</event>
<event>
 4   0  0.4809415E-02  0.9118800E+02  0.7818609E-02  0.1379984E+01
      -11   -1    0    0    0    0  0.00000000000E+00  0.00000000000E+00  0.35740347158E-01  0.35744000000E-01  0.51099999109E-03 0. -1.
       11   -1    0    0    0    0 -0.00000000000E+00 -0.00000000000E+00 -0.35740347158E-01  0.35744000000E-01  0.51099999109E-03 0.  1.
       22    1    1    2    0    0 -0.52396489456E-03 -0.61756086301E-02  0.35195467090E-01  0.35737005818E-01  0.00000000000E+00 0. -1.
  9000001    1    1    2    0    0  0.52396489456E-03  0.61756086301E-02 -0.35195467090E-01  0.35750994182E-01  0.10000000475E-02 0.  1.
</event>
<event>
 4   0  0.4809415E-02  0.9118800E+02  0.7818609E-02  0.1379984E+01
      -11   -1    0    0    0    0  0.00000000000E+00  0.00000000000E+00  0.35740347158E-01  0.35744000000E-01  0.51099999109E-03 0.  1.
       11   -1    0    0    0    0 -0.00000000000E+00 -0.00000000000E+00 -0.35740347158E-01  0.35744000000E-01  0.51099999109E-03 0. -1.
       22    1    1    2    0    0  0.10614813653E-01  0.16032605398E-01  0.30123327840E-01  0.35737005818E-01  0.00000000000E+00 0.  1.
  9000001    1    1    2    0    0 -0.10614813653E-01 -0.16032605398E-01 -0.30123327840E-01  0.35750994182E-01  0.10000000475E-02 0. -1.
</event>
<event>
 4   0  0.4809415E-02  0.9118800E+02  0.7818609E-02  0.1379984E+01
      -11   -1    0    0    0    0  0.00000000000E+00  0.00000000000E+00  0.35740347158E-01  0.35744000000E-01  0.51099999109E-03 0.  1.
       11   -1    0    0    0    0 -0.00000000000E+00 -0.00000000000E+00 -0.35740347158E-01  0.35744000000E-01  0.51099999109E-03 0. -1.
       22    1    1    2    0    0 -0.21522295039E-02 -0.89819286579E-02 -0.34522839550E-01  0.35737005818E-01  0.00000000000E+00 0. -1.
  9000001    1    1    2    0    0  0.21522295039E-02  0.89819286579E-02  0.34522839550E-01  0.35750994182E-01  0.10000000475E-02 0.  1.
</event>
<event>
 4   0  0.4809415E-02  0.9118800E+02  0.7818609E-02  0.1379984E+01
      -11   -1    0    0    0    0  0.00000000000E+00  0.00000000000E+00  0.35740347158E-01  0.35744000000E-01  0.51099999109E-03 0. -1.
       11   -1    0    0    0    0 -0.00000000000E+00 -0.00000000000E+00 -0.35740347158E-01  0.35744000000E-01  0.51099999109E-03 0.  1.
       22    1    1    2    0    0  0.56410524814E-02  0.79618698854E-02  0.34379074154E-01  0.35737005818E-01  0.00000000000E+00 0. -1.
  9000001    1    1    2    0    0 -0.56410524814E-02 -0.79618698854E-02 -0.34379074154E-01  0.35750994182E-01  0.10000000475E-02 0.  1.
</event>
<event>
 4   0  0.4809415E-02  0.9118800E+02  0.7818609E-02  0.1379984E+01
      -11   -1    0    0    0    0  0.00000000000E+00  0.00000000000E+00  0.35740347158E-01  0.35744000000E-01  0.51099999109E-03 0.  1.
       11   -1    0    0    0    0 -0.00000000000E+00 -0.00000000000E+00 -0.35740347158E-01  0.35744000000E-01  0.51099999109E-03 0. -1.
       22    1    1    2    0    0  0.55504228158E-02 -0.67963695521E-02 -0.34642975512E-01  0.35737005818E-01  0.00000000000E+00 0. -1.
  9000001    1    1    2    0    0 -0.55504228158E-02  0.67963695521E-02  0.34642975512E-01  0.35750994182E-01  0.10000000475E-02 0.  1.
</event>
<event>
 4   0  0.4809415E-02  0.9118800E+02  0.7818609E-02  0.1379984E+01
      -11   -1    0    0    0    0  0.00000000000E+00  0.00000000000E+00  0.35740347158E-01  0.35744000000E-01  0.51099999109E-03 0. -1.
       11   -1    0    0    0    0 -0.00000000000E+00 -0.00000000000E+00 -0.35740347158E-01  0.35744000000E-01  0.51099999109E-03 0.  1.
       22    1    1    2    0    0  0.24187772166E-01 -0.22788507504E-01 -0.13144169363E-01  0.35737005818E-01  0.00000000000E+00 0.  1.
  9000001    1    1    2    0    0 -0.24187772166E-01  0.22788507504E-01  0.13144169363E-01  0.35750994182E-01  0.10000000475E-02 0. -1.
</event>
<event>
 4   0  0.4809415E-02  0.9118800E+02  0.7818609E-02  0.1379984E+01
      -11   -1    0    0    0    0  0.00000000000E+00  0.00000000000E+00  0.35740347158E-01  0.35744000000E-01  0.51099999109E-03 0. -1.
       11   -1    0    0    0    0 -0.00000000000E+00 -0.00000000000E+00 -0.35740347158E-01  0.35744000000E-01  0.51099999109E-03 0.  1.
       22    1    1    2    0    0 -0.75044769040E-02 -0.32876260098E-03 -0.34938636585E-01  0.35737005818E-01  0.00000000000E+00 0.  1.
  9000001    1    1    2    0    0  0.75044769040E-02  0.32876260098E-03  0.34938636585E-01  0.35750994182E-01  0.10000000475E-02 0. -1.
</event>
<event>
 4   0  0.4809415E-02  0.9118800E+02  0.7818609E-02  0.1379984E+01
      -11   -1    0    0    0    0  0.00000000000E+00  0.00000000000E+00  0.35740347158E-01  0.35744000000E-01  0.51099999109E-03 0.  1.
       11   -1    0    0    0    0 -0.00000000000E+00 -0.00000000000E+00 -0.35740347158E-01  0.35744000000E-01  0.51099999109E-03 0. -1.
       22    1    1    2    0    0  0.31764766031E-02 -0.74506887179E-02  0.34807051281E-01  0.35737005818E-01  0.00000000000E+00 0.  1.
  9000001    1    1    2    0    0 -0.31764766031E-02  0.74506887179E-02 -0.34807051281E-01  0.35750994182E-01  0.10000000475E-02 0. -1.
</event>
<event>
 4   0  0.4809415E-02  0.9118800E+02  0.7818609E-02  0.1379984E+01
      -11   -1    0    0    0    0  0.00000000000E+00  0.00000000000E+00  0.35740347158E-01  0.35744000000E-01  0.51099999109E-03 0.  1.
       11   -1    0    0    0    0 -0.00000000000E+00 -0.00000000000E+00 -0.35740347158E-01  0.35744000000E-01  0.51099999109E-03 0. -1.
       22    1    1    2    0    0  0.31502187432E-03 -0.39476976214E-02 -0.35516897803E-01  0.35737005818E-01  0.00000000000E+00 0. -1.
  9000001    1    1    2    0    0 -0.31502187432E-03  0.39476976214E-02  0.35516897803E-01  0.35750994182E-01  0.10000000475E-02 0.  1.
</event>
<event>
 4   0  0.4809415E-02  0.9118800E+02  0.7818609E-02  0.1379984E+01
      -11   -1    0    0    0    0  0.00000000000E+00  0.00000000000E+00  0.35740347158E-01  0.35744000000E-01  0.51099999109E-03 0. -1.
       11   -1    0    0    0    0 -0.00000000000E+00 -0.00000000000E+00 -0.35740347158E-01  0.35744000000E-01  0.51099999109E-03 0.  1.
       22    1    1    2    0    0  0.15428109697E-01 -0.26089707228E-01 -0.18932358353E-01  0.35737005818E-01  0.00000000000E+00 0.  1.
  9000001    1    1    2    0    0 -0.15428109697E-01  0.26089707228E-01  0.18932358353E-01  0.35750994182E-01  0.10000000475E-02 0. -1.
</event>
<event>
 4   0  0.4809415E-02  0.9118800E+02  0.7818609E-02  0.1379984E+01
      -11   -1    0    0    0    0  0.00000000000E+00  0.00000000000E+00  0.35740347158E-01  0.35744000000E-01  0.51099999109E-03 0. -1.
       11   -1    0    0    0    0 -0.00000000000E+00 -0.00000000000E+00 -0.35740347158E-01  0.35744000000E-01  0.51099999109E-03 0.  1.
       22    1    1    2    0    0 -0.18478045107E-01 -0.28093951918E-01  0.12100632195E-01  0.35737005818E-01  0.00000000000E+00 0. -1.
  9000001    1    1    2    0    0  0.18478045107E-01  0.28093951918E-01 -0.12100632195E-01  0.35750994182E-01  0.10000000475E-02 0.  1.
</event>
<event>
 4   0  0.4809415E-02  0.9118800E+02  0.7818609E-02  0.1379984E+01
      -11   -1    0    0    0    0  0.00000000000E+00  0.00000000000E+00  0.35740347158E-01  0.35744000000E-01  0.51099999109E-03 0.  1.
       11   -1    0    0    0    0 -0.00000000000E+00 -0.00000000000E+00 -0.35740347158E-01  0.35744000000E-01  0.51099999109E-03 0. -1.
       22    1    1    2    0    0 -0.20798773265E-02  0.25899951710E-02 -0.35582293633E-01  0.35737005818E-01  0.00000000000E+00 0. -1.
  9000001    1    1    2    0    0  0.20798773265E-02 -0.25899951710E-02  0.35582293633E-01  0.35750994182E-01  0.10000000475E-02 0.  1.
</event>
<event>
 4   0  0.4809415E-02  0.9118800E+02  0.7818609E-02  0.1379984E+01
      -11   -1    0    0    0    0  0.00000000000E+00  0.00000000000E+00  0.35740347158E-01  0.35744000000E-01  0.51099999109E-03 0.  1.
       11   -1    0    0    0    0 -0.00000000000E+00 -0.00000000000E+00 -0.35740347158E-01  0.35744000000E-01  0.51099999109E-03 0. -1.
       22    1    1    2    0    0  0.52856134667E-02  0.64140794769E-02  0.34757092220E-01  0.35737005818E-01  0.00000000000E+00 0.  1.
  9000001    1    1    2    0    0 -0.52856134667E-02 -0.64140794769E-02 -0.34757092220E-01  0.35750994182E-01  0.10000000475E-02 0. -1.
</event>
<event>
 4   0  0.4809415E-02  0.9118800E+02  0.7818609E-02  0.1379984E+01
      -11   -1    0    0    0    0  0.00000000000E+00  0.00000000000E+00  0.35740347158E-01  0.35744000000E-01  0.51099999109E-03 0. -1.
       11   -1    0    0    0    0 -0.00000000000E+00 -0.00000000000E+00 -0.35740347158E-01  0.35744000000E-01  0.51099999109E-03 0.  1.
       22    1    1    2    0    0  0.27708501021E-02 -0.54302612115E-02  0.35213182727E-01  0.35737005818E-01  0.00000000000E+00 0. -1.
  9000001    1    1    2    0    0 -0.27708501021E-02  0.54302612115E-02 -0.35213182727E-01  0.35750994182E-01  0.10000000475E-02 0.  1.
</event>
<event>
 4   0  0.4809415E-02  0.9118800E+02  0.7818609E-02  0.1379984E+01
      -11   -1    0    0    0    0  0.00000000000E+00  0.00000000000E+00  0.35740347158E-01  0.35744000000E-01  0.51099999109E-03 0. -1.
       11   -1    0    0    0    0 -0.00000000000E+00 -0.00000000000E+00 -0.35740347158E-01  0.35744000000E-01  0.51099999109E-03 0.  1.
       22    1    1    2    0    0 -0.91862449972E-03  0.32987877864E-01  0.13714577205E-01  0.35737005818E-01  0.00000000000E+00 0. -1.
  9000001    1    1    2    0    0  0.91862449972E-03 -0.32987877864E-01 -0.13714577205E-01  0.35750994182E-01  0.10000000475E-02 0.  1.
</event>
<event>
 4   0  0.4809415E-02  0.9118800E+02  0.7818609E-02  0.1379984E+01
      -11   -1    0    0    0    0  0.00000000000E+00  0.00000000000E+00  0.35740347158E-01  0.35744000000E-01  0.51099999109E-03 0.  1.
       11   -1    0    0    0    0 -0.00000000000E+00 -0.00000000000E+00 -0.35740347158E-01  0.35744000000E-01  0.51099999109E-03 0. -1.
       22    1    1    2    0    0 -0.29781259212E-01  0.11898336718E-01 -0.15768315318E-01  0.35737005818E-01  0.00000000000E+00 0. -1.
  9000001    1    1    2    0    0  0.29781259212E-01 -0.11898336718E-01  0.15768315318E-01  0.35750994182E-01  0.10000000475E-02 0.  1.
</event>
<event>
 4   0  0.4809415E-02  0.9118800E+02  0.7818609E-02  0.1379984E+01
      -11   -1    0    0    0    0  0.00000000000E+00  0.00000000000E+00  0.35740347158E-01  0.35744000000E-01  0.51099999109E-03 0. -1.
       11   -1    0    0    0    0 -0.00000000000E+00 -0.00000000000E+00 -0.35740347158E-01  0.35744000000E-01  0.51099999109E-03 0.  1.
       22    1    1    2    0    0  0.66322500252E-04  0.55773393377E-02 -0.35299043501E-01  0.35737005818E-01  0.00000000000E+00 0.  1.
  9000001    1    1    2    0    0 -0.66322500252E-04 -0.55773393377E-02  0.35299043501E-01  0.35750994182E-01  0.10000000475E-02 0. -1.
</event>
<event>
 4   0  0.4809415E-02  0.9118800E+02  0.7818609E-02  0.1379984E+01
      -11   -1    0    0    0    0  0.00000000000E+00  0.00000000000E+00  0.35740347158E-01  0.35744000000E-01  0.51099999109E-03 0.  1.
       11   -1    0    0    0    0 -0.00000000000E+00 -0.00000000000E+00 -0.35740347158E-01  0.35744000000E-01  0.51099999109E-03 0. -1.
       22    1    1    2    0    0 -0.21312100758E-01 -0.35648414898E-02 -0.28464361073E-01  0.35737005818E-01  0.00000000000E+00 0. -1.
  9000001    1    1    2    0    0  0.21312100758E-01  0.35648414898E-02  0.28464361073E-01  0.35750994182E-01  0.10000000475E-02 0.  1.
</event>
<event>
 4   0  0.4809415E-02  0.9118800E+02  0.7818609E-02  0.1379984E+01
      -11   -1    0    0    0    0  0.00000000000E+00  0.00000000000E+00  0.35740347158E-01  0.35744000000E-01  0.51099999109E-03 0.  1.
       11   -1    0    0    0    0 -0.00000000000E+00 -0.00000000000E+00 -0.35740347158E-01  0.35744000000E-01  0.51099999109E-03 0. -1.
       22    1    1    2    0    0 -0.34969771335E-02 -0.72496656746E-03 -0.35558109613E-01  0.35737005818E-01  0.00000000000E+00 0. -1.
  9000001    1    1    2    0    0  0.34969771335E-02  0.72496656746E-03  0.35558109613E-01  0.35750994182E-01  0.10000000475E-02 0.  1.
</event>
<event>
 4   0  0.4809415E-02  0.9118800E+02  0.7818609E-02  0.1379984E+01
      -11   -1    0    0    0    0  0.00000000000E+00  0.00000000000E+00  0.35740347158E-01  0.35744000000E-01  0.51099999109E-03 0.  1.
       11   -1    0    0    0    0 -0.00000000000E+00 -0.00000000000E+00 -0.35740347158E-01  0.35744000000E-01  0.51099999109E-03 0. -1.
       22    1    1    2    0    0  0.28562184789E-02  0.73558551674E-02  0.34854942198E-01  0.35737005818E-01  0.00000000000E+00 0.  1.
  9000001    1    1    2    0    0 -0.28562184789E-02 -0.73558551674E-02 -0.34854942198E-01  0.35750994182E-01  0.10000000475E-02 0. -1.
</event>
<event>
 4   0  0.4809415E-02  0.9118800E+02  0.7818609E-02  0.1379984E+01
      -11   -1    0    0    0    0  0.00000000000E+00  0.00000000000E+00  0.35740347158E-01  0.35744000000E-01  0.51099999109E-03 0. -1.
       11   -1    0    0    0    0 -0.00000000000E+00 -0.00000000000E+00 -0.35740347158E-01  0.35744000000E-01  0.51099999109E-03 0.  1.
       22    1    1    2    0    0 -0.24413509174E-02 -0.26826380818E-02  0.35552452004E-01  0.35737005818E-01  0.00000000000E+00 0. -1.
  9000001    1    1    2    0    0  0.24413509174E-02  0.26826380818E-02 -0.35552452004E-01  0.35750994182E-01  0.10000000475E-02 0.  1.
</event>
<event>
 4   0  0.4809415E-02  0.9118800E+02  0.7818609E-02  0.1379984E+01
      -11   -1    0    0    0    0  0.00000000000E+00  0.00000000000E+00  0.35740347158E-01  0.35744000000E-01  0.51099999109E-03 0.  1.
       11   -1    0    0    0    0 -0.00000000000E+00 -0.00000000000E+00 -0.35740347158E-01  0.35744000000E-01  0.51099999109E-03 0. -1.
       22    1    1    2    0    0  0.17279224602E-01 -0.29802930766E-01 -0.95051196595E-02  0.35737005818E-01  0.00000000000E+00 0. -1.
  9000001    1    1    2    0    0 -0.17279224602E-01  0.29802930766E-01  0.95051196595E-02  0.35750994182E-01  0.10000000475E-02 0.  1.
</event>
<event>
 4   0  0.4809415E-02  0.9118800E+02  0.7818609E-02  0.1379984E+01
      -11   -1    0    0    0    0  0.00000000000E+00  0.00000000000E+00  0.35740347158E-01  0.35744000000E-01  0.51099999109E-03 0.  1.
       11   -1    0    0    0    0 -0.00000000000E+00 -0.00000000000E+00 -0.35740347158E-01  0.35744000000E-01  0.51099999109E-03 0. -1.
       22    1    1    2    0    0 -0.35059575928E-03  0.21287867806E-01 -0.28702566989E-01  0.35737005818E-01  0.00000000000E+00 0. -1.
  9000001    1    1    2    0    0  0.35059575928E-03 -0.21287867806E-01  0.28702566989E-01  0.35750994182E-01  0.10000000475E-02 0.  1.
</event>
<event>
 4   0  0.4809415E-02  0.9118800E+02  0.7818609E-02  0.1379984E+01
      -11   -1    0    0    0    0  0.00000000000E+00  0.00000000000E+00  0.35740347158E-01  0.35744000000E-01  0.51099999109E-03 0.  1.
       11   -1    0    0    0    0 -0.00000000000E+00 -0.00000000000E+00 -0.35740347158E-01  0.35744000000E-01  0.51099999109E-03 0. -1.
       22    1    1    2    0    0  0.98629734541E-02 -0.35915500559E-02  0.34160739273E-01  0.35737005818E-01  0.00000000000E+00 0.  1.
  9000001    1    1    2    0    0 -0.98629734541E-02  0.35915500559E-02 -0.34160739273E-01  0.35750994182E-01  0.10000000475E-02 0. -1.
</event>
<event>
 4   0  0.4809415E-02  0.9118800E+02  0.7818609E-02  0.1379984E+01
      -11   -1    0    0    0    0  0.00000000000E+00  0.00000000000E+00  0.35740347158E-01  0.35744000000E-01  0.51099999109E-03 0.  1.
       11   -1    0    0    0    0 -0.00000000000E+00 -0.00000000000E+00 -0.35740347158E-01  0.35744000000E-01  0.51099999109E-03 0. -1.
       22    1    1    2    0    0  0.26452901865E-02 -0.26743333754E-01  0.23556954906E-01  0.35737005818E-01  0.00000000000E+00 0.  1.
  9000001    1    1    2    0    0 -0.26452901865E-02  0.26743333754E-01 -0.23556954906E-01  0.35750994182E-01  0.10000000475E-02 0. -1.
</event>
<event>
 4   0  0.4809415E-02  0.9118800E+02  0.7818609E-02  0.1379984E+01
      -11   -1    0    0    0    0  0.00000000000E+00  0.00000000000E+00  0.35740347158E-01  0.35744000000E-01  0.51099999109E-03 0. -1.
       11   -1    0    0    0    0 -0.00000000000E+00 -0.00000000000E+00 -0.35740347158E-01  0.35744000000E-01  0.51099999109E-03 0.  1.
       22    1    1    2    0    0 -0.27826369495E-02  0.42219408369E-02  0.35377474925E-01  0.35737005818E-01  0.00000000000E+00 0. -1.
  9000001    1    1    2    0    0  0.27826369495E-02 -0.42219408369E-02 -0.35377474925E-01  0.35750994182E-01  0.10000000475E-02 0.  1.
</event>
<event>
 4   0  0.4809415E-02  0.9118800E+02  0.7818609E-02  0.1379984E+01
      -11   -1    0    0    0    0  0.00000000000E+00  0.00000000000E+00  0.35740347158E-01  0.35744000000E-01  0.51099999109E-03 0.  1.
       11   -1    0    0    0    0 -0.00000000000E+00 -0.00000000000E+00 -0.35740347158E-01  0.35744000000E-01  0.51099999109E-03 0. -1.
       22    1    1    2    0    0  0.27433042425E-02 -0.20106455324E-02 -0.35574782800E-01  0.35737005818E-01  0.00000000000E+00 0. -1.
  9000001    1    1    2    0    0 -0.27433042425E-02  0.20106455324E-02  0.35574782800E-01  0.35750994182E-01  0.10000000475E-02 0.  1.
</event>
<event>
 4   0  0.4809415E-02  0.9118800E+02  0.7818609E-02  0.1379984E+01
      -11   -1    0    0    0    0  0.00000000000E+00  0.00000000000E+00  0.35740347158E-01  0.35744000000E-01  0.51099999109E-03 0.  1.
       11   -1    0    0    0    0 -0.00000000000E+00 -0.00000000000E+00 -0.35740347158E-01  0.35744000000E-01  0.51099999109E-03 0. -1.
       22    1    1    2    0    0 -0.54246195093E-02  0.44922964513E-02  0.35036072278E-01  0.35737005818E-01  0.00000000000E+00 0.  1.
  9000001    1    1    2    0    0  0.54246195093E-02 -0.44922964513E-02 -0.35036072278E-01  0.35750994182E-01  0.10000000475E-02 0. -1.
</event>
<event>
 4   0  0.4809415E-02  0.9118800E+02  0.7818609E-02  0.1379984E+01
      -11   -1    0    0    0    0  0.00000000000E+00  0.00000000000E+00  0.35740347158E-01  0.35744000000E-01  0.51099999109E-03 0. -1.
       11   -1    0    0    0    0 -0.00000000000E+00 -0.00000000000E+00 -0.35740347158E-01  0.35744000000E-01  0.51099999109E-03 0.  1.
       22    1    1    2    0    0  0.23989671843E-03  0.33613474590E-02 -0.35577765215E-01  0.35737005818E-01  0.00000000000E+00 0.  1.
  9000001    1    1    2    0    0 -0.23989671843E-03 -0.33613474590E-02  0.35577765215E-01  0.35750994182E-01  0.10000000475E-02 0. -1.
</event>
<event>
 4   0  0.4809415E-02  0.9118800E+02  0.7818609E-02  0.1379984E+01
      -11   -1    0    0    0    0  0.00000000000E+00  0.00000000000E+00  0.35740347158E-01  0.35744000000E-01  0.51099999109E-03 0.  1.
       11   -1    0    0    0    0 -0.00000000000E+00 -0.00000000000E+00 -0.35740347158E-01  0.35744000000E-01  0.51099999109E-03 0. -1.
       22    1    1    2    0    0 -0.65217734173E-02 -0.15791684212E-02  0.35101371532E-01  0.35737005818E-01  0.00000000000E+00 0.  1.
  9000001    1    1    2    0    0  0.65217734173E-02  0.15791684212E-02 -0.35101371532E-01  0.35750994182E-01  0.10000000475E-02 0. -1.
</event>
<event>
 4   0  0.4809415E-02  0.9118800E+02  0.7818609E-02  0.1379984E+01
      -11   -1    0    0    0    0  0.00000000000E+00  0.00000000000E+00  0.35740347158E-01  0.35744000000E-01  0.51099999109E-03 0.  1.
       11   -1    0    0    0    0 -0.00000000000E+00 -0.00000000000E+00 -0.35740347158E-01  0.35744000000E-01  0.51099999109E-03 0. -1.
       22    1    1    2    0    0 -0.69687133433E-02  0.71900920667E-02 -0.34305585482E-01  0.35737005818E-01  0.00000000000E+00 0. -1.
  9000001    1    1    2    0    0  0.69687133433E-02 -0.71900920667E-02  0.34305585482E-01  0.35750994182E-01  0.10000000475E-02 0.  1.
</event>
<event>
 4   0  0.4809415E-02  0.9118800E+02  0.7818609E-02  0.1379984E+01
      -11   -1    0    0    0    0  0.00000000000E+00  0.00000000000E+00  0.35740347158E-01  0.35744000000E-01  0.51099999109E-03 0.  1.
       11   -1    0    0    0    0 -0.00000000000E+00 -0.00000000000E+00 -0.35740347158E-01  0.35744000000E-01  0.51099999109E-03 0. -1.
       22    1    1    2    0    0 -0.19580437896E-01 -0.11026263685E-02  0.29875144381E-01  0.35737005818E-01  0.00000000000E+00 0.  1.
  9000001    1    1    2    0    0  0.19580437896E-01  0.11026263685E-02 -0.29875144381E-01  0.35750994182E-01  0.10000000475E-02 0. -1.
</event>
<event>
 4   0  0.4809415E-02  0.9118800E+02  0.7818609E-02  0.1379984E+01
      -11   -1    0    0    0    0  0.00000000000E+00  0.00000000000E+00  0.35740347158E-01  0.35744000000E-01  0.51099999109E-03 0. -1.
       11   -1    0    0    0    0 -0.00000000000E+00 -0.00000000000E+00 -0.35740347158E-01  0.35744000000E-01  0.51099999109E-03 0.  1.
       22    1    1    2    0    0  0.69648726182E-02 -0.40545340655E-02 -0.34816445651E-01  0.35737005818E-01  0.00000000000E+00 0.  1.
  9000001    1    1    2    0    0 -0.69648726182E-02  0.40545340655E-02  0.34816445651E-01  0.35750994182E-01  0.10000000475E-02 0. -1.
</event>
<event>
 4   0  0.4809415E-02  0.9118800E+02  0.7818609E-02  0.1379984E+01
      -11   -1    0    0    0    0  0.00000000000E+00  0.00000000000E+00  0.35740347158E-01  0.35744000000E-01  0.51099999109E-03 0. -1.
       11   -1    0    0    0    0 -0.00000000000E+00 -0.00000000000E+00 -0.35740347158E-01  0.35744000000E-01  0.51099999109E-03 0.  1.
       22    1    1    2    0    0 -0.17904757172E-01 -0.24146193825E-01 -0.19326525276E-01  0.35737005818E-01  0.00000000000E+00 0.  1.
  9000001    1    1    2    0    0  0.17904757172E-01  0.24146193825E-01  0.19326525276E-01  0.35750994182E-01  0.10000000475E-02 0. -1.
</event>
<event>
 4   0  0.4809415E-02  0.9118800E+02  0.7818609E-02  0.1379984E+01
      -11   -1    0    0    0    0  0.00000000000E+00  0.00000000000E+00  0.35740347158E-01  0.35744000000E-01  0.51099999109E-03 0. -1.
       11   -1    0    0    0    0 -0.00000000000E+00 -0.00000000000E+00 -0.35740347158E-01  0.35744000000E-01  0.51099999109E-03 0.  1.
       22    1    1    2    0    0 -0.14041234286E-02 -0.62127559166E-02  0.35164807495E-01  0.35737005818E-01  0.00000000000E+00 0. -1.
  9000001    1    1    2    0    0  0.14041234286E-02  0.62127559166E-02 -0.35164807495E-01  0.35750994182E-01  0.10000000475E-02 0.  1.
</event>
<event>
 4   0  0.4809415E-02  0.9118800E+02  0.7818609E-02  0.1379984E+01
      -11   -1    0    0    0    0  0.00000000000E+00  0.00000000000E+00  0.35740347158E-01  0.35744000000E-01  0.51099999109E-03 0.  1.
       11   -1    0    0    0    0 -0.00000000000E+00 -0.00000000000E+00 -0.35740347158E-01  0.35744000000E-01  0.51099999109E-03 0. -1.
       22    1    1    2    0    0  0.74433016604E-02  0.20051014635E-01  0.28630187868E-01  0.35737005818E-01  0.00000000000E+00 0.  1.
  9000001    1    1    2    0    0 -0.74433016604E-02 -0.20051014635E-01 -0.28630187868E-01  0.35750994182E-01  0.10000000475E-02 0. -1.
</event>
<event>
 4   0  0.4809415E-02  0.9118800E+02  0.7818609E-02  0.1379984E+01
      -11   -1    0    0    0    0  0.00000000000E+00  0.00000000000E+00  0.35740347158E-01  0.35744000000E-01  0.51099999109E-03 0.  1.
       11   -1    0    0    0    0 -0.00000000000E+00 -0.00000000000E+00 -0.35740347158E-01  0.35744000000E-01  0.51099999109E-03 0. -1.
       22    1    1    2    0    0 -0.11831936161E-01  0.20897052013E-01  0.26466055405E-01  0.35737005818E-01  0.00000000000E+00 0.  1.
  9000001    1    1    2    0    0  0.11831936161E-01 -0.20897052013E-01 -0.26466055405E-01  0.35750994182E-01  0.10000000475E-02 0. -1.
</event>
<event>
 4   0  0.4809415E-02  0.9118800E+02  0.7818609E-02  0.1379984E+01
      -11   -1    0    0    0    0  0.00000000000E+00  0.00000000000E+00  0.35740347158E-01  0.35744000000E-01  0.51099999109E-03 0.  1.
       11   -1    0    0    0    0 -0.00000000000E+00 -0.00000000000E+00 -0.35740347158E-01  0.35744000000E-01  0.51099999109E-03 0. -1.
       22    1    1    2    0    0  0.26763372579E-01 -0.23477581590E-01  0.31078345790E-02  0.35737005818E-01  0.00000000000E+00 0. -1.
  9000001    1    1    2    0    0 -0.26763372579E-01  0.23477581590E-01 -0.31078345790E-02  0.35750994182E-01  0.10000000475E-02 0.  1.
</event>
<event>
 4   0  0.4809415E-02  0.9118800E+02  0.7818609E-02  0.1379984E+01
      -11   -1    0    0    0    0  0.00000000000E+00  0.00000000000E+00  0.35740347158E-01  0.35744000000E-01  0.51099999109E-03 0. -1.
       11   -1    0    0    0    0 -0.00000000000E+00 -0.00000000000E+00 -0.35740347158E-01  0.35744000000E-01  0.51099999109E-03 0.  1.
       22    1    1    2    0    0 -0.13567334401E-02  0.35711240336E-01  0.13149407589E-04  0.35737005818E-01  0.00000000000E+00 0. -1.
  9000001    1    1    2    0    0  0.13567334401E-02 -0.35711240336E-01 -0.13149407589E-04  0.35750994182E-01  0.10000000475E-02 0.  1.
</event>
<event>
 4   0  0.4809415E-02  0.9118800E+02  0.7818609E-02  0.1379984E+01
      -11   -1    0    0    0    0  0.00000000000E+00  0.00000000000E+00  0.35740347158E-01  0.35744000000E-01  0.51099999109E-03 0.  1.
       11   -1    0    0    0    0 -0.00000000000E+00 -0.00000000000E+00 -0.35740347158E-01  0.35744000000E-01  0.51099999109E-03 0. -1.
       22    1    1    2    0    0  0.25282386977E-02  0.63654034992E-02 -0.35074538233E-01  0.35737005818E-01  0.00000000000E+00 0. -1.
  9000001    1    1    2    0    0 -0.25282386977E-02 -0.63654034992E-02  0.35074538233E-01  0.35750994182E-01  0.10000000475E-02 0.  1.
</event>
<event>
 4   0  0.4809415E-02  0.9118800E+02  0.7818609E-02  0.1379984E+01
      -11   -1    0    0    0    0  0.00000000000E+00  0.00000000000E+00  0.35740347158E-01  0.35744000000E-01  0.51099999109E-03 0.  1.
       11   -1    0    0    0    0 -0.00000000000E+00 -0.00000000000E+00 -0.35740347158E-01  0.35744000000E-01  0.51099999109E-03 0. -1.
       22    1    1    2    0    0  0.19722792125E-01  0.13106458946E-01  0.26765010546E-01  0.35737005818E-01  0.00000000000E+00 0.  1.
  9000001    1    1    2    0    0 -0.19722792125E-01 -0.13106458946E-01 -0.26765010546E-01  0.35750994182E-01  0.10000000475E-02 0. -1.
</event>
<event>
 4   0  0.4809415E-02  0.9118800E+02  0.7818609E-02  0.1379984E+01
      -11   -1    0    0    0    0  0.00000000000E+00  0.00000000000E+00  0.35740347158E-01  0.35744000000E-01  0.51099999109E-03 0. -1.
       11   -1    0    0    0    0 -0.00000000000E+00 -0.00000000000E+00 -0.35740347158E-01  0.35744000000E-01  0.51099999109E-03 0.  1.
       22    1    1    2    0    0  0.15275294929E-01  0.32013670034E-02  0.32148875548E-01  0.35737005818E-01  0.00000000000E+00 0. -1.
  9000001    1    1    2    0    0 -0.15275294929E-01 -0.32013670034E-02 -0.32148875548E-01  0.35750994182E-01  0.10000000475E-02 0.  1.
</event>
<event>
 4   0  0.4809415E-02  0.9118800E+02  0.7818609E-02  0.1379984E+01
      -11   -1    0    0    0    0  0.00000000000E+00  0.00000000000E+00  0.35740347158E-01  0.35744000000E-01  0.51099999109E-03 0. -1.
       11   -1    0    0    0    0 -0.00000000000E+00 -0.00000000000E+00 -0.35740347158E-01  0.35744000000E-01  0.51099999109E-03 0.  1.
       22    1    1    2    0    0 -0.54986186379E-02 -0.80870099650E-02  0.34372940633E-01  0.35737005818E-01  0.00000000000E+00 0. -1.
  9000001    1    1    2    0    0  0.54986186379E-02  0.80870099650E-02 -0.34372940633E-01  0.35750994182E-01  0.10000000475E-02 0.  1.
</event>
<event>
 4   0  0.4809415E-02  0.9118800E+02  0.7818609E-02  0.1379984E+01
      -11   -1    0    0    0    0  0.00000000000E+00  0.00000000000E+00  0.35740347158E-01  0.35744000000E-01  0.51099999109E-03 0. -1.
       11   -1    0    0    0    0 -0.00000000000E+00 -0.00000000000E+00 -0.35740347158E-01  0.35744000000E-01  0.51099999109E-03 0.  1.
       22    1    1    2    0    0 -0.84066002193E-02  0.33058724430E-02  0.34576492954E-01  0.35737005818E-01  0.00000000000E+00 0. -1.
  9000001    1    1    2    0    0  0.84066002193E-02 -0.33058724430E-02 -0.34576492954E-01  0.35750994182E-01  0.10000000475E-02 0.  1.
</event>
<event>
 4   0  0.4809415E-02  0.9118800E+02  0.7818609E-02  0.1379984E+01
      -11   -1    0    0    0    0  0.00000000000E+00  0.00000000000E+00  0.35740347158E-01  0.35744000000E-01  0.51099999109E-03 0. -1.
       11   -1    0    0    0    0 -0.00000000000E+00 -0.00000000000E+00 -0.35740347158E-01  0.35744000000E-01  0.51099999109E-03 0.  1.
       22    1    1    2    0    0 -0.86325201574E-02 -0.54303542371E-02 -0.34250904126E-01  0.35737005818E-01  0.00000000000E+00 0.  1.
  9000001    1    1    2    0    0  0.86325201574E-02  0.54303542371E-02  0.34250904126E-01  0.35750994182E-01  0.10000000475E-02 0. -1.
</event>
<event>
 4   0  0.4809415E-02  0.9118800E+02  0.7818609E-02  0.1379984E+01
      -11   -1    0    0    0    0  0.00000000000E+00  0.00000000000E+00  0.35740347158E-01  0.35744000000E-01  0.51099999109E-03 0.  1.
       11   -1    0    0    0    0 -0.00000000000E+00 -0.00000000000E+00 -0.35740347158E-01  0.35744000000E-01  0.51099999109E-03 0. -1.
       22    1    1    2    0    0 -0.22007318141E-01  0.26599308977E-01 -0.92351662159E-02  0.35737005818E-01  0.00000000000E+00 0. -1.
  9000001    1    1    2    0    0  0.22007318141E-01 -0.26599308977E-01  0.92351662159E-02  0.35750994182E-01  0.10000000475E-02 0.  1.
</event>
<event>
 4   0  0.4809415E-02  0.9118800E+02  0.7818609E-02  0.1379984E+01
      -11   -1    0    0    0    0  0.00000000000E+00  0.00000000000E+00  0.35740347158E-01  0.35744000000E-01  0.51099999109E-03 0.  1.
       11   -1    0    0    0    0 -0.00000000000E+00 -0.00000000000E+00 -0.35740347158E-01  0.35744000000E-01  0.51099999109E-03 0. -1.
       22    1    1    2    0    0  0.66886428789E-02  0.19247165812E-01 -0.29358853001E-01  0.35737005818E-01  0.00000000000E+00 0. -1.
  9000001    1    1    2    0    0 -0.66886428789E-02 -0.19247165812E-01  0.29358853001E-01  0.35750994182E-01  0.10000000475E-02 0.  1.
</event>
<event>
 4   0  0.4809415E-02  0.9118800E+02  0.7818609E-02  0.1379984E+01
      -11   -1    0    0    0    0  0.00000000000E+00  0.00000000000E+00  0.35740347158E-01  0.35744000000E-01  0.51099999109E-03 0.  1.
       11   -1    0    0    0    0 -0.00000000000E+00 -0.00000000000E+00 -0.35740347158E-01  0.35744000000E-01  0.51099999109E-03 0. -1.
       22    1    1    2    0    0 -0.73714544525E-03 -0.39029471261E-02  0.35515591016E-01  0.35737005818E-01  0.00000000000E+00 0.  1.
  9000001    1    1    2    0    0  0.73714544525E-03  0.39029471261E-02 -0.35515591016E-01  0.35750994182E-01  0.10000000475E-02 0. -1.
</event>
<event>
 4   0  0.4809415E-02  0.9118800E+02  0.7818609E-02  0.1379984E+01
      -11   -1    0    0    0    0  0.00000000000E+00  0.00000000000E+00  0.35740347158E-01  0.35744000000E-01  0.51099999109E-03 0. -1.
       11   -1    0    0    0    0 -0.00000000000E+00 -0.00000000000E+00 -0.35740347158E-01  0.35744000000E-01  0.51099999109E-03 0.  1.
       22    1    1    2    0    0  0.12761518309E-01 -0.11664639165E-01 -0.31276403701E-01  0.35737005818E-01  0.00000000000E+00 0.  1.
  9000001    1    1    2    0    0 -0.12761518309E-01  0.11664639165E-01  0.31276403701E-01  0.35750994182E-01  0.10000000475E-02 0. -1.
</event>
<event>
 4   0  0.4809415E-02  0.9118800E+02  0.7818609E-02  0.1379984E+01
      -11   -1    0    0    0    0  0.00000000000E+00  0.00000000000E+00  0.35740347158E-01  0.35744000000E-01  0.51099999109E-03 0. -1.
       11   -1    0    0    0    0 -0.00000000000E+00 -0.00000000000E+00 -0.35740347158E-01  0.35744000000E-01  0.51099999109E-03 0.  1.
       22    1    1    2    0    0  0.66306306523E-02 -0.27870903230E-02  0.35005720240E-01  0.35737005818E-01  0.00000000000E+00 0. -1.
  9000001    1    1    2    0    0 -0.66306306523E-02  0.27870903230E-02 -0.35005720240E-01  0.35750994182E-01  0.10000000475E-02 0.  1.
</event>
<event>
 4   0  0.4809415E-02  0.9118800E+02  0.7818609E-02  0.1379984E+01
      -11   -1    0    0    0    0  0.00000000000E+00  0.00000000000E+00  0.35740347158E-01  0.35744000000E-01  0.51099999109E-03 0. -1.
       11   -1    0    0    0    0 -0.00000000000E+00 -0.00000000000E+00 -0.35740347158E-01  0.35744000000E-01  0.51099999109E-03 0.  1.
       22    1    1    2    0    0  0.12644573321E-01  0.33412113928E-01 -0.93754641096E-03  0.35737005818E-01  0.00000000000E+00 0.  1.
  9000001    1    1    2    0    0 -0.12644573321E-01 -0.33412113928E-01  0.93754641096E-03  0.35750994182E-01  0.10000000475E-02 0. -1.
</event>
<event>
 4   0  0.4809415E-02  0.9118800E+02  0.7818609E-02  0.1379984E+01
      -11   -1    0    0    0    0  0.00000000000E+00  0.00000000000E+00  0.35740347158E-01  0.35744000000E-01  0.51099999109E-03 0. -1.
       11   -1    0    0    0    0 -0.00000000000E+00 -0.00000000000E+00 -0.35740347158E-01  0.35744000000E-01  0.51099999109E-03 0.  1.
       22    1    1    2    0    0  0.58164257075E-02 -0.99889551948E-03  0.35246347110E-01  0.35737005818E-01  0.00000000000E+00 0. -1.
  9000001    1    1    2    0    0 -0.58164257075E-02  0.99889551948E-03 -0.35246347110E-01  0.35750994182E-01  0.10000000475E-02 0.  1.
</event>
<event>
 4   0  0.4809415E-02  0.9118800E+02  0.7818609E-02  0.1379984E+01
      -11   -1    0    0    0    0  0.00000000000E+00  0.00000000000E+00  0.35740347158E-01  0.35744000000E-01  0.51099999109E-03 0.  1.
       11   -1    0    0    0    0 -0.00000000000E+00 -0.00000000000E+00 -0.35740347158E-01  0.35744000000E-01  0.51099999109E-03 0. -1.
       22    1    1    2    0    0 -0.17733592568E-03  0.55822015961E-02 -0.35297891753E-01  0.35737005818E-01  0.00000000000E+00 0. -1.
  9000001    1    1    2    0    0  0.17733592568E-03 -0.55822015961E-02  0.35297891753E-01  0.35750994182E-01  0.10000000475E-02 0.  1.
</event>
<event>
 4   0  0.4809415E-02  0.9118800E+02  0.7818609E-02  0.1379984E+01
      -11   -1    0    0    0    0  0.00000000000E+00  0.00000000000E+00  0.35740347158E-01  0.35744000000E-01  0.51099999109E-03 0. -1.
       11   -1    0    0    0    0 -0.00000000000E+00 -0.00000000000E+00 -0.35740347158E-01  0.35744000000E-01  0.51099999109E-03 0.  1.
       22    1    1    2    0    0 -0.85375425576E-02 -0.54964219765E-02 -0.34264169294E-01  0.35737005818E-01  0.00000000000E+00 0.  1.
  9000001    1    1    2    0    0  0.85375425576E-02  0.54964219765E-02  0.34264169294E-01  0.35750994182E-01  0.10000000475E-02 0. -1.
</event>
<event>
 4   0  0.4809415E-02  0.9118800E+02  0.7818609E-02  0.1379984E+01
      -11   -1    0    0    0    0  0.00000000000E+00  0.00000000000E+00  0.35740347158E-01  0.35744000000E-01  0.51099999109E-03 0. -1.
       11   -1    0    0    0    0 -0.00000000000E+00 -0.00000000000E+00 -0.35740347158E-01  0.35744000000E-01  0.51099999109E-03 0.  1.
       22    1    1    2    0    0 -0.18633889214E-02 -0.99950464374E-02 -0.34260187001E-01  0.35737005818E-01  0.00000000000E+00 0.  1.
  9000001    1    1    2    0    0  0.18633889214E-02  0.99950464374E-02  0.34260187001E-01  0.35750994182E-01  0.10000000475E-02 0. -1.
</event>
<event>
 4   0  0.4809415E-02  0.9118800E+02  0.7818609E-02  0.1379984E+01
      -11   -1    0    0    0    0  0.00000000000E+00  0.00000000000E+00  0.35740347158E-01  0.35744000000E-01  0.51099999109E-03 0. -1.
       11   -1    0    0    0    0 -0.00000000000E+00 -0.00000000000E+00 -0.35740347158E-01  0.35744000000E-01  0.51099999109E-03 0.  1.
       22    1    1    2    0    0 -0.91816437460E-02 -0.86175120321E-02  0.33445021892E-01  0.35737005818E-01  0.00000000000E+00 0. -1.
  9000001    1    1    2    0    0  0.91816437460E-02  0.86175120321E-02 -0.33445021892E-01  0.35750994182E-01  0.10000000475E-02 0.  1.
</event>
<event>
 4   0  0.4809415E-02  0.9118800E+02  0.7818609E-02  0.1379984E+01
      -11   -1    0    0    0    0  0.00000000000E+00  0.00000000000E+00  0.35740347158E-01  0.35744000000E-01  0.51099999109E-03 0. -1.
       11   -1    0    0    0    0 -0.00000000000E+00 -0.00000000000E+00 -0.35740347158E-01  0.35744000000E-01  0.51099999109E-03 0.  1.
       22    1    1    2    0    0 -0.28362884867E-02  0.16637433447E-01 -0.31500553341E-01  0.35737005818E-01  0.00000000000E+00 0.  1.
  9000001    1    1    2    0    0  0.28362884867E-02 -0.16637433447E-01  0.31500553341E-01  0.35750994182E-01  0.10000000475E-02 0. -1.
</event>
<event>
 4   0  0.4809415E-02  0.9118800E+02  0.7818609E-02  0.1379984E+01
      -11   -1    0    0    0    0  0.00000000000E+00  0.00000000000E+00  0.35740347158E-01  0.35744000000E-01  0.51099999109E-03 0.  1.
       11   -1    0    0    0    0 -0.00000000000E+00 -0.00000000000E+00 -0.35740347158E-01  0.35744000000E-01  0.51099999109E-03 0. -1.
       22    1    1    2    0    0 -0.23193352513E-03 -0.32995836733E-02 -0.35583599302E-01  0.35737005818E-01  0.00000000000E+00 0. -1.
  9000001    1    1    2    0    0  0.23193352513E-03  0.32995836733E-02  0.35583599302E-01  0.35750994182E-01  0.10000000475E-02 0.  1.
</event>
<event>
 4   0  0.4809415E-02  0.9118800E+02  0.7818609E-02  0.1379984E+01
      -11   -1    0    0    0    0  0.00000000000E+00  0.00000000000E+00  0.35740347158E-01  0.35744000000E-01  0.51099999109E-03 0.  1.
       11   -1    0    0    0    0 -0.00000000000E+00 -0.00000000000E+00 -0.35740347158E-01  0.35744000000E-01  0.51099999109E-03 0. -1.
       22    1    1    2    0    0  0.27559983484E-01  0.22380323666E-01 -0.40868090050E-02  0.35737005818E-01  0.00000000000E+00 0. -1.
  9000001    1    1    2    0    0 -0.27559983484E-01 -0.22380323666E-01  0.40868090050E-02  0.35750994182E-01  0.10000000475E-02 0.  1.
</event>
<event>
 4   0  0.4809415E-02  0.9118800E+02  0.7818609E-02  0.1379984E+01
      -11   -1    0    0    0    0  0.00000000000E+00  0.00000000000E+00  0.35740347158E-01  0.35744000000E-01  0.51099999109E-03 0.  1.
       11   -1    0    0    0    0 -0.00000000000E+00 -0.00000000000E+00 -0.35740347158E-01  0.35744000000E-01  0.51099999109E-03 0. -1.
       22    1    1    2    0    0 -0.74325445208E-03  0.43790544181E-02 -0.35459907503E-01  0.35737005818E-01  0.00000000000E+00 0. -1.
  9000001    1    1    2    0    0  0.74325445208E-03 -0.43790544181E-02  0.35459907503E-01  0.35750994182E-01  0.10000000475E-02 0.  1.
</event>
<event>
 4   0  0.4809415E-02  0.9118800E+02  0.7818609E-02  0.1379984E+01
      -11   -1    0    0    0    0  0.00000000000E+00  0.00000000000E+00  0.35740347158E-01  0.35744000000E-01  0.51099999109E-03 0. -1.
       11   -1    0    0    0    0 -0.00000000000E+00 -0.00000000000E+00 -0.35740347158E-01  0.35744000000E-01  0.51099999109E-03 0.  1.
       22    1    1    2    0    0 -0.13275971802E-01  0.81818761435E-03 -0.33169454723E-01  0.35737005818E-01  0.00000000000E+00 0.  1.
  9000001    1    1    2    0    0  0.13275971802E-01 -0.81818761435E-03  0.33169454723E-01  0.35750994182E-01  0.10000000475E-02 0. -1.
</event>
<event>
 4   0  0.4809415E-02  0.9118800E+02  0.7818609E-02  0.1379984E+01
      -11   -1    0    0    0    0  0.00000000000E+00  0.00000000000E+00  0.35740347158E-01  0.35744000000E-01  0.51099999109E-03 0. -1.
       11   -1    0    0    0    0 -0.00000000000E+00 -0.00000000000E+00 -0.35740347158E-01  0.35744000000E-01  0.51099999109E-03 0.  1.
       22    1    1    2    0    0  0.28530746946E-01 -0.55081959989E-02  0.20803601621E-01  0.35737005818E-01  0.00000000000E+00 0. -1.
  9000001    1    1    2    0    0 -0.28530746946E-01  0.55081959989E-02 -0.20803601621E-01  0.35750994182E-01  0.10000000475E-02 0.  1.
</event>
<event>
 4   0  0.4809415E-02  0.9118800E+02  0.7818609E-02  0.1379984E+01
      -11   -1    0    0    0    0  0.00000000000E+00  0.00000000000E+00  0.35740347158E-01  0.35744000000E-01  0.51099999109E-03 0.  1.
       11   -1    0    0    0    0 -0.00000000000E+00 -0.00000000000E+00 -0.35740347158E-01  0.35744000000E-01  0.51099999109E-03 0. -1.
       22    1    1    2    0    0 -0.66290559755E-02 -0.18738681909E-01  0.29699343462E-01  0.35737005818E-01  0.00000000000E+00 0.  1.
  9000001    1    1    2    0    0  0.66290559755E-02  0.18738681909E-01 -0.29699343462E-01  0.35750994182E-01  0.10000000475E-02 0. -1.
</event>
<event>
 4   0  0.4809415E-02  0.9118800E+02  0.7818609E-02  0.1379984E+01
      -11   -1    0    0    0    0  0.00000000000E+00  0.00000000000E+00  0.35740347158E-01  0.35744000000E-01  0.51099999109E-03 0.  1.
       11   -1    0    0    0    0 -0.00000000000E+00 -0.00000000000E+00 -0.35740347158E-01  0.35744000000E-01  0.51099999109E-03 0. -1.
       22    1    1    2    0    0  0.52637092822E-02  0.44840268086E-02  0.35061666433E-01  0.35737005818E-01  0.00000000000E+00 0.  1.
  9000001    1    1    2    0    0 -0.52637092822E-02 -0.44840268086E-02 -0.35061666433E-01  0.35750994182E-01  0.10000000475E-02 0. -1.
</event>
<event>
 4   0  0.4809415E-02  0.9118800E+02  0.7818609E-02  0.1379984E+01
      -11   -1    0    0    0    0  0.00000000000E+00  0.00000000000E+00  0.35740347158E-01  0.35744000000E-01  0.51099999109E-03 0. -1.
       11   -1    0    0    0    0 -0.00000000000E+00 -0.00000000000E+00 -0.35740347158E-01  0.35744000000E-01  0.51099999109E-03 0.  1.
       22    1    1    2    0    0  0.25081393319E-02 -0.66892745100E-02 -0.35015659761E-01  0.35737005818E-01  0.00000000000E+00 0.  1.
  9000001    1    1    2    0    0 -0.25081393319E-02  0.66892745100E-02  0.35015659761E-01  0.35750994182E-01  0.10000000475E-02 0. -1.
</event>
<event>
 4   0  0.4809415E-02  0.9118800E+02  0.7818609E-02  0.1379984E+01
      -11   -1    0    0    0    0  0.00000000000E+00  0.00000000000E+00  0.35740347158E-01  0.35744000000E-01  0.51099999109E-03 0.  1.
       11   -1    0    0    0    0 -0.00000000000E+00 -0.00000000000E+00 -0.35740347158E-01  0.35744000000E-01  0.51099999109E-03 0. -1.
       22    1    1    2    0    0 -0.33445820848E-02  0.38514936759E-02 -0.35371080730E-01  0.35737005818E-01  0.00000000000E+00 0. -1.
  9000001    1    1    2    0    0  0.33445820848E-02 -0.38514936759E-02  0.35371080730E-01  0.35750994182E-01  0.10000000475E-02 0.  1.
</event>
<event>
 4   0  0.4809415E-02  0.9118800E+02  0.7818609E-02  0.1379984E+01
      -11   -1    0    0    0    0  0.00000000000E+00  0.00000000000E+00  0.35740347158E-01  0.35744000000E-01  0.51099999109E-03 0. -1.
       11   -1    0    0    0    0 -0.00000000000E+00 -0.00000000000E+00 -0.35740347158E-01  0.35744000000E-01  0.51099999109E-03 0.  1.
       22    1    1    2    0    0 -0.38030573350E-02 -0.70394672567E-04  0.35534003213E-01  0.35737005818E-01  0.00000000000E+00 0. -1.
  9000001    1    1    2    0    0  0.38030573350E-02  0.70394672567E-04 -0.35534003213E-01  0.35750994182E-01  0.10000000475E-02 0.  1.
</event>
<event>
 4   0  0.4809415E-02  0.9118800E+02  0.7818609E-02  0.1379984E+01
      -11   -1    0    0    0    0  0.00000000000E+00  0.00000000000E+00  0.35740347158E-01  0.35744000000E-01  0.51099999109E-03 0. -1.
       11   -1    0    0    0    0 -0.00000000000E+00 -0.00000000000E+00 -0.35740347158E-01  0.35744000000E-01  0.51099999109E-03 0.  1.
       22    1    1    2    0    0 -0.11212860310E-01 -0.24465066466E-03 -0.33931482352E-01  0.35737005818E-01  0.00000000000E+00 0.  1.
  9000001    1    1    2    0    0  0.11212860310E-01  0.24465066466E-03  0.33931482352E-01  0.35750994182E-01  0.10000000475E-02 0. -1.
</event>
<event>
 4   0  0.4809415E-02  0.9118800E+02  0.7818609E-02  0.1379984E+01
      -11   -1    0    0    0    0  0.00000000000E+00  0.00000000000E+00  0.35740347158E-01  0.35744000000E-01  0.51099999109E-03 0.  1.
       11   -1    0    0    0    0 -0.00000000000E+00 -0.00000000000E+00 -0.35740347158E-01  0.35744000000E-01  0.51099999109E-03 0. -1.
       22    1    1    2    0    0  0.12150417883E-01 -0.15035278569E-01  0.30057300752E-01  0.35737005818E-01  0.00000000000E+00 0.  1.
  9000001    1    1    2    0    0 -0.12150417883E-01  0.15035278569E-01 -0.30057300752E-01  0.35750994182E-01  0.10000000475E-02 0. -1.
</event>
<event>
 4   0  0.4809415E-02  0.9118800E+02  0.7818609E-02  0.1379984E+01
      -11   -1    0    0    0    0  0.00000000000E+00  0.00000000000E+00  0.35740347158E-01  0.35744000000E-01  0.51099999109E-03 0. -1.
       11   -1    0    0    0    0 -0.00000000000E+00 -0.00000000000E+00 -0.35740347158E-01  0.35744000000E-01  0.51099999109E-03 0.  1.
       22    1    1    2    0    0  0.64033066468E-02  0.36656444998E-02  0.34967045904E-01  0.35737005818E-01  0.00000000000E+00 0. -1.
  9000001    1    1    2    0    0 -0.64033066468E-02 -0.36656444998E-02 -0.34967045904E-01  0.35750994182E-01  0.10000000475E-02 0.  1.
</event>
<event>
 4   0  0.4809415E-02  0.9118800E+02  0.7818609E-02  0.1379984E+01
      -11   -1    0    0    0    0  0.00000000000E+00  0.00000000000E+00  0.35740347158E-01  0.35744000000E-01  0.51099999109E-03 0.  1.
       11   -1    0    0    0    0 -0.00000000000E+00 -0.00000000000E+00 -0.35740347158E-01  0.35744000000E-01  0.51099999109E-03 0. -1.
       22    1    1    2    0    0 -0.54238938807E-02 -0.42009106507E-02  0.35072315432E-01  0.35737005818E-01  0.00000000000E+00 0.  1.
  9000001    1    1    2    0    0  0.54238938807E-02  0.42009106507E-02 -0.35072315432E-01  0.35750994182E-01  0.10000000475E-02 0. -1.
</event>
<event>
 4   0  0.4809415E-02  0.9118800E+02  0.7818609E-02  0.1379984E+01
      -11   -1    0    0    0    0  0.00000000000E+00  0.00000000000E+00  0.35740347158E-01  0.35744000000E-01  0.51099999109E-03 0.  1.
       11   -1    0    0    0    0 -0.00000000000E+00 -0.00000000000E+00 -0.35740347158E-01  0.35744000000E-01  0.51099999109E-03 0. -1.
       22    1    1    2    0    0 -0.46996087646E-02  0.17107193608E-02 -0.35385317599E-01  0.35737005818E-01  0.00000000000E+00 0. -1.
  9000001    1    1    2    0    0  0.46996087646E-02 -0.17107193608E-02  0.35385317599E-01  0.35750994182E-01  0.10000000475E-02 0.  1.
</event>
<event>
 4   0  0.4809415E-02  0.9118800E+02  0.7818609E-02  0.1379984E+01
      -11   -1    0    0    0    0  0.00000000000E+00  0.00000000000E+00  0.35740347158E-01  0.35744000000E-01  0.51099999109E-03 0.  1.
       11   -1    0    0    0    0 -0.00000000000E+00 -0.00000000000E+00 -0.35740347158E-01  0.35744000000E-01  0.51099999109E-03 0. -1.
       22    1    1    2    0    0 -0.12842553085E-01 -0.16134989934E-01  0.29186718126E-01  0.35737005818E-01  0.00000000000E+00 0.  1.
  9000001    1    1    2    0    0  0.12842553085E-01  0.16134989934E-01 -0.29186718126E-01  0.35750994182E-01  0.10000000475E-02 0. -1.
</event>
<event>
 4   0  0.4809415E-02  0.9118800E+02  0.7818609E-02  0.1379984E+01
      -11   -1    0    0    0    0  0.00000000000E+00  0.00000000000E+00  0.35740347158E-01  0.35744000000E-01  0.51099999109E-03 0. -1.
       11   -1    0    0    0    0 -0.00000000000E+00 -0.00000000000E+00 -0.35740347158E-01  0.35744000000E-01  0.51099999109E-03 0.  1.
       22    1    1    2    0    0 -0.21470216128E-01 -0.18945098189E-01  0.21383326657E-01  0.35737005818E-01  0.00000000000E+00 0.  1.
  9000001    1    1    2    0    0  0.21470216128E-01  0.18945098189E-01 -0.21383326657E-01  0.35750994182E-01  0.10000000475E-02 0. -1.
</event>
<event>
 4   0  0.4809415E-02  0.9118800E+02  0.7818609E-02  0.1379984E+01
      -11   -1    0    0    0    0  0.00000000000E+00  0.00000000000E+00  0.35740347158E-01  0.35744000000E-01  0.51099999109E-03 0.  1.
       11   -1    0    0    0    0 -0.00000000000E+00 -0.00000000000E+00 -0.35740347158E-01  0.35744000000E-01  0.51099999109E-03 0. -1.
       22    1    1    2    0    0 -0.40396060312E-02  0.17699967958E-02  0.35463816480E-01  0.35737005818E-01  0.00000000000E+00 0.  1.
  9000001    1    1    2    0    0  0.40396060312E-02 -0.17699967958E-02 -0.35463816480E-01  0.35750994182E-01  0.10000000475E-02 0. -1.
</event>
<event>
 4   0  0.4809415E-02  0.9118800E+02  0.7818609E-02  0.1379984E+01
      -11   -1    0    0    0    0  0.00000000000E+00  0.00000000000E+00  0.35740347158E-01  0.35744000000E-01  0.51099999109E-03 0.  1.
       11   -1    0    0    0    0 -0.00000000000E+00 -0.00000000000E+00 -0.35740347158E-01  0.35744000000E-01  0.51099999109E-03 0. -1.
       22    1    1    2    0    0 -0.10653504723E-01  0.33574386638E-02 -0.33946487706E-01  0.35737005818E-01  0.00000000000E+00 0. -1.
  9000001    1    1    2    0    0  0.10653504723E-01 -0.33574386638E-02  0.33946487706E-01  0.35750994182E-01  0.10000000475E-02 0.  1.
</event>
<event>
 4   0  0.4809415E-02  0.9118800E+02  0.7818609E-02  0.1379984E+01
      -11   -1    0    0    0    0  0.00000000000E+00  0.00000000000E+00  0.35740347158E-01  0.35744000000E-01  0.51099999109E-03 0.  1.
       11   -1    0    0    0    0 -0.00000000000E+00 -0.00000000000E+00 -0.35740347158E-01  0.35744000000E-01  0.51099999109E-03 0. -1.
       22    1    1    2    0    0  0.67814801324E-03 -0.30242803936E-02 -0.35602351443E-01  0.35737005818E-01  0.00000000000E+00 0. -1.
  9000001    1    1    2    0    0 -0.67814801324E-03  0.30242803936E-02  0.35602351443E-01  0.35750994182E-01  0.10000000475E-02 0.  1.
</event>
<event>
 4   0  0.4809415E-02  0.9118800E+02  0.7818609E-02  0.1379984E+01
      -11   -1    0    0    0    0  0.00000000000E+00  0.00000000000E+00  0.35740347158E-01  0.35744000000E-01  0.51099999109E-03 0.  1.
       11   -1    0    0    0    0 -0.00000000000E+00 -0.00000000000E+00 -0.35740347158E-01  0.35744000000E-01  0.51099999109E-03 0. -1.
       22    1    1    2    0    0 -0.10235352707E-02 -0.47135910340E-02 -0.35409998870E-01  0.35737005818E-01  0.00000000000E+00 0. -1.
  9000001    1    1    2    0    0  0.10235352707E-02  0.47135910340E-02  0.35409998870E-01  0.35750994182E-01  0.10000000475E-02 0.  1.
</event>
<event>
 4   0  0.4809415E-02  0.9118800E+02  0.7818609E-02  0.1379984E+01
      -11   -1    0    0    0    0  0.00000000000E+00  0.00000000000E+00  0.35740347158E-01  0.35744000000E-01  0.51099999109E-03 0. -1.
       11   -1    0    0    0    0 -0.00000000000E+00 -0.00000000000E+00 -0.35740347158E-01  0.35744000000E-01  0.51099999109E-03 0.  1.
       22    1    1    2    0    0 -0.58726594969E-02  0.60772652335E-02  0.34723368249E-01  0.35737005818E-01  0.00000000000E+00 0. -1.
  9000001    1    1    2    0    0  0.58726594969E-02 -0.60772652335E-02 -0.34723368249E-01  0.35750994182E-01  0.10000000475E-02 0.  1.
</event>
<event>
 4   0  0.4809415E-02  0.9118800E+02  0.7818609E-02  0.1379984E+01
      -11   -1    0    0    0    0  0.00000000000E+00  0.00000000000E+00  0.35740347158E-01  0.35744000000E-01  0.51099999109E-03 0. -1.
       11   -1    0    0    0    0 -0.00000000000E+00 -0.00000000000E+00 -0.35740347158E-01  0.35744000000E-01  0.51099999109E-03 0.  1.
       22    1    1    2    0    0  0.27956200975E-01 -0.13497410373E-01  0.17703229229E-01  0.35737005818E-01  0.00000000000E+00 0. -1.
  9000001    1    1    2    0    0 -0.27956200975E-01  0.13497410373E-01 -0.17703229229E-01  0.35750994182E-01  0.10000000475E-02 0.  1.
</event>
<event>
 4   0  0.4809415E-02  0.9118800E+02  0.7818609E-02  0.1379984E+01
      -11   -1    0    0    0    0  0.00000000000E+00  0.00000000000E+00  0.35740347158E-01  0.35744000000E-01  0.51099999109E-03 0. -1.
       11   -1    0    0    0    0 -0.00000000000E+00 -0.00000000000E+00 -0.35740347158E-01  0.35744000000E-01  0.51099999109E-03 0.  1.
       22    1    1    2    0    0  0.15520007618E-01 -0.69861173792E-02 -0.31423830326E-01  0.35737005818E-01  0.00000000000E+00 0.  1.
  9000001    1    1    2    0    0 -0.15520007618E-01  0.69861173792E-02  0.31423830326E-01  0.35750994182E-01  0.10000000475E-02 0. -1.
</event>
<event>
 4   0  0.4809415E-02  0.9118800E+02  0.7818609E-02  0.1379984E+01
      -11   -1    0    0    0    0  0.00000000000E+00  0.00000000000E+00  0.35740347158E-01  0.35744000000E-01  0.51099999109E-03 0.  1.
       11   -1    0    0    0    0 -0.00000000000E+00 -0.00000000000E+00 -0.35740347158E-01  0.35744000000E-01  0.51099999109E-03 0. -1.
       22    1    1    2    0    0 -0.15914041213E-01 -0.60292722261E-02  0.31424906580E-01  0.35737005818E-01  0.00000000000E+00 0.  1.
  9000001    1    1    2    0    0  0.15914041213E-01  0.60292722261E-02 -0.31424906580E-01  0.35750994182E-01  0.10000000475E-02 0. -1.
</event>
<event>
 4   0  0.4809415E-02  0.9118800E+02  0.7818609E-02  0.1379984E+01
      -11   -1    0    0    0    0  0.00000000000E+00  0.00000000000E+00  0.35740347158E-01  0.35744000000E-01  0.51099999109E-03 0. -1.
       11   -1    0    0    0    0 -0.00000000000E+00 -0.00000000000E+00 -0.35740347158E-01  0.35744000000E-01  0.51099999109E-03 0.  1.
       22    1    1    2    0    0 -0.35950201903E-02 -0.14626635522E-03 -0.35555421821E-01  0.35737005818E-01  0.00000000000E+00 0.  1.
  9000001    1    1    2    0    0  0.35950201903E-02  0.14626635522E-03  0.35555421821E-01  0.35750994182E-01  0.10000000475E-02 0. -1.
</event>
<event>
 4   0  0.4809415E-02  0.9118800E+02  0.7818609E-02  0.1379984E+01
      -11   -1    0    0    0    0  0.00000000000E+00  0.00000000000E+00  0.35740347158E-01  0.35744000000E-01  0.51099999109E-03 0. -1.
       11   -1    0    0    0    0 -0.00000000000E+00 -0.00000000000E+00 -0.35740347158E-01  0.35744000000E-01  0.51099999109E-03 0.  1.
       22    1    1    2    0    0 -0.13178108434E-01  0.75088737260E-02 -0.32358736971E-01  0.35737005818E-01  0.00000000000E+00 0.  1.
  9000001    1    1    2    0    0  0.13178108434E-01 -0.75088737260E-02  0.32358736971E-01  0.35750994182E-01  0.10000000475E-02 0. -1.
</event>
<event>
 4   0  0.4809415E-02  0.9118800E+02  0.7818609E-02  0.1379984E+01
      -11   -1    0    0    0    0  0.00000000000E+00  0.00000000000E+00  0.35740347158E-01  0.35744000000E-01  0.51099999109E-03 0. -1.
       11   -1    0    0    0    0 -0.00000000000E+00 -0.00000000000E+00 -0.35740347158E-01  0.35744000000E-01  0.51099999109E-03 0.  1.
       22    1    1    2    0    0  0.20822596494E-02 -0.26472839247E-02 -0.35577937931E-01  0.35737005818E-01  0.00000000000E+00 0.  1.
  9000001    1    1    2    0    0 -0.20822596494E-02  0.26472839247E-02  0.35577937931E-01  0.35750994182E-01  0.10000000475E-02 0. -1.
</event>
<event>
 4   0  0.4809415E-02  0.9118800E+02  0.7818609E-02  0.1379984E+01
      -11   -1    0    0    0    0  0.00000000000E+00  0.00000000000E+00  0.35740347158E-01  0.35744000000E-01  0.51099999109E-03 0. -1.
       11   -1    0    0    0    0 -0.00000000000E+00 -0.00000000000E+00 -0.35740347158E-01  0.35744000000E-01  0.51099999109E-03 0.  1.
       22    1    1    2    0    0 -0.17021439164E-01 -0.85599359226E-02  0.30234610807E-01  0.35737005818E-01  0.00000000000E+00 0. -1.
  9000001    1    1    2    0    0  0.17021439164E-01  0.85599359226E-02 -0.30234610807E-01  0.35750994182E-01  0.10000000475E-02 0.  1.
</event>
<event>
 4   0  0.4809415E-02  0.9118800E+02  0.7818609E-02  0.1379984E+01
      -11   -1    0    0    0    0  0.00000000000E+00  0.00000000000E+00  0.35740347158E-01  0.35744000000E-01  0.51099999109E-03 0.  1.
       11   -1    0    0    0    0 -0.00000000000E+00 -0.00000000000E+00 -0.35740347158E-01  0.35744000000E-01  0.51099999109E-03 0. -1.
       22    1    1    2    0    0 -0.84897169124E-03 -0.66255915702E-02 -0.35107183998E-01  0.35737005818E-01  0.00000000000E+00 0. -1.
  9000001    1    1    2    0    0  0.84897169124E-03  0.66255915702E-02  0.35107183998E-01  0.35750994182E-01  0.10000000475E-02 0.  1.
</event>
<event>
 4   0  0.4809415E-02  0.9118800E+02  0.7818609E-02  0.1379984E+01
      -11   -1    0    0    0    0  0.00000000000E+00  0.00000000000E+00  0.35740347158E-01  0.35744000000E-01  0.51099999109E-03 0. -1.
       11   -1    0    0    0    0 -0.00000000000E+00 -0.00000000000E+00 -0.35740347158E-01  0.35744000000E-01  0.51099999109E-03 0.  1.
       22    1    1    2    0    0 -0.10502178669E-01 -0.11455531410E-01 -0.32180873639E-01  0.35737005818E-01  0.00000000000E+00 0.  1.
  9000001    1    1    2    0    0  0.10502178669E-01  0.11455531410E-01  0.32180873639E-01  0.35750994182E-01  0.10000000475E-02 0. -1.
</event>
<event>
 4   0  0.4809415E-02  0.9118800E+02  0.7818609E-02  0.1379984E+01
      -11   -1    0    0    0    0  0.00000000000E+00  0.00000000000E+00  0.35740347158E-01  0.35744000000E-01  0.51099999109E-03 0.  1.
       11   -1    0    0    0    0 -0.00000000000E+00 -0.00000000000E+00 -0.35740347158E-01  0.35744000000E-01  0.51099999109E-03 0. -1.
       22    1    1    2    0    0 -0.79964016021E-02 -0.19882170483E-01  0.28598783946E-01  0.35737005818E-01  0.00000000000E+00 0.  1.
  9000001    1    1    2    0    0  0.79964016021E-02  0.19882170483E-01 -0.28598783946E-01  0.35750994182E-01  0.10000000475E-02 0. -1.
</event>
<event>
 4   0  0.4809415E-02  0.9118800E+02  0.7818609E-02  0.1379984E+01
      -11   -1    0    0    0    0  0.00000000000E+00  0.00000000000E+00  0.35740347158E-01  0.35744000000E-01  0.51099999109E-03 0.  1.
       11   -1    0    0    0    0 -0.00000000000E+00 -0.00000000000E+00 -0.35740347158E-01  0.35744000000E-01  0.51099999109E-03 0. -1.
       22    1    1    2    0    0 -0.34690483086E-02  0.14484497728E-02  0.35538729324E-01  0.35737005818E-01  0.00000000000E+00 0.  1.
  9000001    1    1    2    0    0  0.34690483086E-02 -0.14484497728E-02 -0.35538729324E-01  0.35750994182E-01  0.10000000475E-02 0. -1.
</event>
<event>
 4   0  0.4809415E-02  0.9118800E+02  0.7818609E-02  0.1379984E+01
      -11   -1    0    0    0    0  0.00000000000E+00  0.00000000000E+00  0.35740347158E-01  0.35744000000E-01  0.51099999109E-03 0. -1.
       11   -1    0    0    0    0 -0.00000000000E+00 -0.00000000000E+00 -0.35740347158E-01  0.35744000000E-01  0.51099999109E-03 0.  1.
       22    1    1    2    0    0 -0.30814096606E-01  0.18018744289E-01 -0.17175242329E-02  0.35737005818E-01  0.00000000000E+00 0.  1.
  9000001    1    1    2    0    0  0.30814096606E-01 -0.18018744289E-01  0.17175242329E-02  0.35750994182E-01  0.10000000475E-02 0. -1.
</event>
<event>
 4   0  0.4809415E-02  0.9118800E+02  0.7818609E-02  0.1379984E+01
      -11   -1    0    0    0    0  0.00000000000E+00  0.00000000000E+00  0.35740347158E-01  0.35744000000E-01  0.51099999109E-03 0. -1.
       11   -1    0    0    0    0 -0.00000000000E+00 -0.00000000000E+00 -0.35740347158E-01  0.35744000000E-01  0.51099999109E-03 0.  1.
       22    1    1    2    0    0 -0.38766424581E-02 -0.21070863384E-02 -0.35463578715E-01  0.35737005818E-01  0.00000000000E+00 0.  1.
  9000001    1    1    2    0    0  0.38766424581E-02  0.21070863384E-02  0.35463578715E-01  0.35750994182E-01  0.10000000475E-02 0. -1.
</event>
<event>
 4   0  0.4809415E-02  0.9118800E+02  0.7818609E-02  0.1379984E+01
      -11   -1    0    0    0    0  0.00000000000E+00  0.00000000000E+00  0.35740347158E-01  0.35744000000E-01  0.51099999109E-03 0. -1.
       11   -1    0    0    0    0 -0.00000000000E+00 -0.00000000000E+00 -0.35740347158E-01  0.35744000000E-01  0.51099999109E-03 0.  1.
       22    1    1    2    0    0 -0.33935370200E-01 -0.74172699615E-02 -0.83969244717E-02  0.35737005818E-01  0.00000000000E+00 0.  1.
  9000001    1    1    2    0    0  0.33935370200E-01  0.74172699615E-02  0.83969244717E-02  0.35750994182E-01  0.10000000475E-02 0. -1.
</event>
<event>
 4   0  0.4809415E-02  0.9118800E+02  0.7818609E-02  0.1379984E+01
      -11   -1    0    0    0    0  0.00000000000E+00  0.00000000000E+00  0.35740347158E-01  0.35744000000E-01  0.51099999109E-03 0. -1.
       11   -1    0    0    0    0 -0.00000000000E+00 -0.00000000000E+00 -0.35740347158E-01  0.35744000000E-01  0.51099999109E-03 0.  1.
       22    1    1    2    0    0 -0.10955811385E-02  0.29556001665E-02 -0.35597720636E-01  0.35737005818E-01  0.00000000000E+00 0.  1.
  9000001    1    1    2    0    0  0.10955811385E-02 -0.29556001665E-02  0.35597720636E-01  0.35750994182E-01  0.10000000475E-02 0. -1.
</event>
<event>
 4   0  0.4809415E-02  0.9118800E+02  0.7818609E-02  0.1379984E+01
      -11   -1    0    0    0    0  0.00000000000E+00  0.00000000000E+00  0.35740347158E-01  0.35744000000E-01  0.51099999109E-03 0. -1.
       11   -1    0    0    0    0 -0.00000000000E+00 -0.00000000000E+00 -0.35740347158E-01  0.35744000000E-01  0.51099999109E-03 0.  1.
       22    1    1    2    0    0 -0.66927463904E-02  0.65708936320E-02 -0.34484258547E-01  0.35737005818E-01  0.00000000000E+00 0.  1.
  9000001    1    1    2    0    0  0.66927463904E-02 -0.65708936320E-02  0.34484258547E-01  0.35750994182E-01  0.10000000475E-02 0. -1.
</event>
<event>
 4   0  0.4809415E-02  0.9118800E+02  0.7818609E-02  0.1379984E+01
      -11   -1    0    0    0    0  0.00000000000E+00  0.00000000000E+00  0.35740347158E-01  0.35744000000E-01  0.51099999109E-03 0. -1.
       11   -1    0    0    0    0 -0.00000000000E+00 -0.00000000000E+00 -0.35740347158E-01  0.35744000000E-01  0.51099999109E-03 0.  1.
       22    1    1    2    0    0 -0.54715332030E-02 -0.23318293830E-02  0.35238593630E-01  0.35737005818E-01  0.00000000000E+00 0. -1.
  9000001    1    1    2    0    0  0.54715332030E-02  0.23318293830E-02 -0.35238593630E-01  0.35750994182E-01  0.10000000475E-02 0.  1.
</event>
<event>
 4   0  0.4809415E-02  0.9118800E+02  0.7818609E-02  0.1379984E+01
      -11   -1    0    0    0    0  0.00000000000E+00  0.00000000000E+00  0.35740347158E-01  0.35744000000E-01  0.51099999109E-03 0. -1.
       11   -1    0    0    0    0 -0.00000000000E+00 -0.00000000000E+00 -0.35740347158E-01  0.35744000000E-01  0.51099999109E-03 0.  1.
       22    1    1    2    0    0  0.21357669211E-02  0.51820448680E-02 -0.35294737505E-01  0.35737005818E-01  0.00000000000E+00 0.  1.
  9000001    1    1    2    0    0 -0.21357669211E-02 -0.51820448680E-02  0.35294737505E-01  0.35750994182E-01  0.10000000475E-02 0. -1.
</event>
<event>
 4   0  0.4809415E-02  0.9118800E+02  0.7818609E-02  0.1379984E+01
      -11   -1    0    0    0    0  0.00000000000E+00  0.00000000000E+00  0.35740347158E-01  0.35744000000E-01  0.51099999109E-03 0. -1.
       11   -1    0    0    0    0 -0.00000000000E+00 -0.00000000000E+00 -0.35740347158E-01  0.35744000000E-01  0.51099999109E-03 0.  1.
       22    1    1    2    0    0 -0.12499275798E-01 -0.83293302914E-02 -0.32427209968E-01  0.35737005818E-01  0.00000000000E+00 0.  1.
  9000001    1    1    2    0    0  0.12499275798E-01  0.83293302914E-02  0.32427209968E-01  0.35750994182E-01  0.10000000475E-02 0. -1.
</event>
<event>
 4   0  0.4809415E-02  0.9118800E+02  0.7818609E-02  0.1379984E+01
      -11   -1    0    0    0    0  0.00000000000E+00  0.00000000000E+00  0.35740347158E-01  0.35744000000E-01  0.51099999109E-03 0. -1.
       11   -1    0    0    0    0 -0.00000000000E+00 -0.00000000000E+00 -0.35740347158E-01  0.35744000000E-01  0.51099999109E-03 0.  1.
       22    1    1    2    0    0 -0.20946265208E-01  0.16626880785E-01 -0.23705155432E-01  0.35737005818E-01  0.00000000000E+00 0.  1.
  9000001    1    1    2    0    0  0.20946265208E-01 -0.16626880785E-01  0.23705155432E-01  0.35750994182E-01  0.10000000475E-02 0. -1.
</event>
<event>
 4   0  0.4809415E-02  0.9118800E+02  0.7818609E-02  0.1379984E+01
      -11   -1    0    0    0    0  0.00000000000E+00  0.00000000000E+00  0.35740347158E-01  0.35744000000E-01  0.51099999109E-03 0.  1.
       11   -1    0    0    0    0 -0.00000000000E+00 -0.00000000000E+00 -0.35740347158E-01  0.35744000000E-01  0.51099999109E-03 0. -1.
       22    1    1    2    0    0 -0.14943372481E-01  0.15792573705E-01 -0.28362366254E-01  0.35737005818E-01  0.00000000000E+00 0. -1.
  9000001    1    1    2    0    0  0.14943372481E-01 -0.15792573705E-01  0.28362366254E-01  0.35750994182E-01  0.10000000475E-02 0.  1.
</event>
<event>
 4   0  0.4809415E-02  0.9118800E+02  0.7818609E-02  0.1379984E+01
      -11   -1    0    0    0    0  0.00000000000E+00  0.00000000000E+00  0.35740347158E-01  0.35744000000E-01  0.51099999109E-03 0. -1.
       11   -1    0    0    0    0 -0.00000000000E+00 -0.00000000000E+00 -0.35740347158E-01  0.35744000000E-01  0.51099999109E-03 0.  1.
       22    1    1    2    0    0  0.29355074016E-01  0.76180706848E-02  0.18904449566E-01  0.35737005818E-01  0.00000000000E+00 0. -1.
  9000001    1    1    2    0    0 -0.29355074016E-01 -0.76180706848E-02 -0.18904449566E-01  0.35750994182E-01  0.10000000475E-02 0.  1.
</event>
<event>
 4   0  0.4809415E-02  0.9118800E+02  0.7818609E-02  0.1379984E+01
      -11   -1    0    0    0    0  0.00000000000E+00  0.00000000000E+00  0.35740347158E-01  0.35744000000E-01  0.51099999109E-03 0.  1.
       11   -1    0    0    0    0 -0.00000000000E+00 -0.00000000000E+00 -0.35740347158E-01  0.35744000000E-01  0.51099999109E-03 0. -1.
       22    1    1    2    0    0  0.12906567624E-02  0.57021572629E-02 -0.35255541303E-01  0.35737005818E-01  0.00000000000E+00 0. -1.
  9000001    1    1    2    0    0 -0.12906567624E-02 -0.57021572629E-02  0.35255541303E-01  0.35750994182E-01  0.10000000475E-02 0.  1.
</event>
<event>
 4   0  0.4809415E-02  0.9118800E+02  0.7818609E-02  0.1379984E+01
      -11   -1    0    0    0    0  0.00000000000E+00  0.00000000000E+00  0.35740347158E-01  0.35744000000E-01  0.51099999109E-03 0. -1.
       11   -1    0    0    0    0 -0.00000000000E+00 -0.00000000000E+00 -0.35740347158E-01  0.35744000000E-01  0.51099999109E-03 0.  1.
       22    1    1    2    0    0  0.11110282692E-01 -0.33887170070E-01  0.23140674135E-02  0.35737005818E-01  0.00000000000E+00 0. -1.
  9000001    1    1    2    0    0 -0.11110282692E-01  0.33887170070E-01 -0.23140674135E-02  0.35750994182E-01  0.10000000475E-02 0.  1.
</event>
<event>
 4   0  0.4809415E-02  0.9118800E+02  0.7818609E-02  0.1379984E+01
      -11   -1    0    0    0    0  0.00000000000E+00  0.00000000000E+00  0.35740347158E-01  0.35744000000E-01  0.51099999109E-03 0.  1.
       11   -1    0    0    0    0 -0.00000000000E+00 -0.00000000000E+00 -0.35740347158E-01  0.35744000000E-01  0.51099999109E-03 0. -1.
       22    1    1    2    0    0  0.35214571526E-02 -0.12745136927E-01  0.33200819404E-01  0.35737005818E-01  0.00000000000E+00 0.  1.
  9000001    1    1    2    0    0 -0.35214571526E-02  0.12745136927E-01 -0.33200819404E-01  0.35750994182E-01  0.10000000475E-02 0. -1.
</event>
<event>
 4   0  0.4809415E-02  0.9118800E+02  0.7818609E-02  0.1379984E+01
      -11   -1    0    0    0    0  0.00000000000E+00  0.00000000000E+00  0.35740347158E-01  0.35744000000E-01  0.51099999109E-03 0.  1.
       11   -1    0    0    0    0 -0.00000000000E+00 -0.00000000000E+00 -0.35740347158E-01  0.35744000000E-01  0.51099999109E-03 0. -1.
       22    1    1    2    0    0  0.57262492209E-02 -0.25740861978E-03 -0.35274316372E-01  0.35737005818E-01  0.00000000000E+00 0. -1.
  9000001    1    1    2    0    0 -0.57262492209E-02  0.25740861978E-03  0.35274316372E-01  0.35750994182E-01  0.10000000475E-02 0.  1.
</event>
<event>
 4   0  0.4809415E-02  0.9118800E+02  0.7818609E-02  0.1379984E+01
      -11   -1    0    0    0    0  0.00000000000E+00  0.00000000000E+00  0.35740347158E-01  0.35744000000E-01  0.51099999109E-03 0.  1.
       11   -1    0    0    0    0 -0.00000000000E+00 -0.00000000000E+00 -0.35740347158E-01  0.35744000000E-01  0.51099999109E-03 0. -1.
       22    1    1    2    0    0  0.35159110784E-02 -0.83239404643E-02  0.34575771420E-01  0.35737005818E-01  0.00000000000E+00 0.  1.
  9000001    1    1    2    0    0 -0.35159110784E-02  0.83239404643E-02 -0.34575771420E-01  0.35750994182E-01  0.10000000475E-02 0. -1.
</event>
<event>
 4   0  0.4809415E-02  0.9118800E+02  0.7818609E-02  0.1379984E+01
      -11   -1    0    0    0    0  0.00000000000E+00  0.00000000000E+00  0.35740347158E-01  0.35744000000E-01  0.51099999109E-03 0. -1.
       11   -1    0    0    0    0 -0.00000000000E+00 -0.00000000000E+00 -0.35740347158E-01  0.35744000000E-01  0.51099999109E-03 0.  1.
       22    1    1    2    0    0 -0.19868752429E-02 -0.67647381020E-02 -0.35034614741E-01  0.35737005818E-01  0.00000000000E+00 0.  1.
  9000001    1    1    2    0    0  0.19868752429E-02  0.67647381020E-02  0.35034614741E-01  0.35750994182E-01  0.10000000475E-02 0. -1.
</event>
<event>
 4   0  0.4809415E-02  0.9118800E+02  0.7818609E-02  0.1379984E+01
      -11   -1    0    0    0    0  0.00000000000E+00  0.00000000000E+00  0.35740347158E-01  0.35744000000E-01  0.51099999109E-03 0.  1.
       11   -1    0    0    0    0 -0.00000000000E+00 -0.00000000000E+00 -0.35740347158E-01  0.35744000000E-01  0.51099999109E-03 0. -1.
       22    1    1    2    0    0  0.43952893222E-02  0.34453722109E-01  0.84116615181E-02  0.35737005818E-01  0.00000000000E+00 0.  1.
  9000001    1    1    2    0    0 -0.43952893222E-02 -0.34453722109E-01 -0.84116615181E-02  0.35750994182E-01  0.10000000475E-02 0. -1.
</event>
<event>
 4   0  0.4809415E-02  0.9118800E+02  0.7818609E-02  0.1379984E+01
      -11   -1    0    0    0    0  0.00000000000E+00  0.00000000000E+00  0.35740347158E-01  0.35744000000E-01  0.51099999109E-03 0. -1.
       11   -1    0    0    0    0 -0.00000000000E+00 -0.00000000000E+00 -0.35740347158E-01  0.35744000000E-01  0.51099999109E-03 0.  1.
       22    1    1    2    0    0 -0.10852181838E-01  0.32613126952E-01  0.97850745840E-02  0.35737005818E-01  0.00000000000E+00 0. -1.
  9000001    1    1    2    0    0  0.10852181838E-01 -0.32613126952E-01 -0.97850745840E-02  0.35750994182E-01  0.10000000475E-02 0.  1.
</event>
<event>
 4   0  0.4809415E-02  0.9118800E+02  0.7818609E-02  0.1379984E+01
      -11   -1    0    0    0    0  0.00000000000E+00  0.00000000000E+00  0.35740347158E-01  0.35744000000E-01  0.51099999109E-03 0.  1.
       11   -1    0    0    0    0 -0.00000000000E+00 -0.00000000000E+00 -0.35740347158E-01  0.35744000000E-01  0.51099999109E-03 0. -1.
       22    1    1    2    0    0  0.14473347682E-01 -0.19780527254E-01  0.26007432271E-01  0.35737005818E-01  0.00000000000E+00 0.  1.
  9000001    1    1    2    0    0 -0.14473347682E-01  0.19780527254E-01 -0.26007432271E-01  0.35750994182E-01  0.10000000475E-02 0. -1.
</event>
<event>
 4   0  0.4809415E-02  0.9118800E+02  0.7818609E-02  0.1379984E+01
      -11   -1    0    0    0    0  0.00000000000E+00  0.00000000000E+00  0.35740347158E-01  0.35744000000E-01  0.51099999109E-03 0.  1.
       11   -1    0    0    0    0 -0.00000000000E+00 -0.00000000000E+00 -0.35740347158E-01  0.35744000000E-01  0.51099999109E-03 0. -1.
       22    1    1    2    0    0 -0.66501076872E-02 -0.79717799309E-02  0.34195911705E-01  0.35737005818E-01  0.00000000000E+00 0.  1.
  9000001    1    1    2    0    0  0.66501076872E-02  0.79717799309E-02 -0.34195911705E-01  0.35750994182E-01  0.10000000475E-02 0. -1.
</event>
<event>
 4   0  0.4809415E-02  0.9118800E+02  0.7818609E-02  0.1379984E+01
      -11   -1    0    0    0    0  0.00000000000E+00  0.00000000000E+00  0.35740347158E-01  0.35744000000E-01  0.51099999109E-03 0.  1.
       11   -1    0    0    0    0 -0.00000000000E+00 -0.00000000000E+00 -0.35740347158E-01  0.35744000000E-01  0.51099999109E-03 0. -1.
       22    1    1    2    0    0  0.33514264150E-02  0.72635548873E-02  0.34830192309E-01  0.35737005818E-01  0.00000000000E+00 0.  1.
  9000001    1    1    2    0    0 -0.33514264150E-02 -0.72635548873E-02 -0.34830192309E-01  0.35750994182E-01  0.10000000475E-02 0. -1.
</event>
<event>
 4   0  0.4809415E-02  0.9118800E+02  0.7818609E-02  0.1379984E+01
      -11   -1    0    0    0    0  0.00000000000E+00  0.00000000000E+00  0.35740347158E-01  0.35744000000E-01  0.51099999109E-03 0.  1.
       11   -1    0    0    0    0 -0.00000000000E+00 -0.00000000000E+00 -0.35740347158E-01  0.35744000000E-01  0.51099999109E-03 0. -1.
       22    1    1    2    0    0  0.12837839440E-02 -0.58729731386E-02  0.35227740066E-01  0.35737005818E-01  0.00000000000E+00 0.  1.
  9000001    1    1    2    0    0 -0.12837839440E-02  0.58729731386E-02 -0.35227740066E-01  0.35750994182E-01  0.10000000475E-02 0. -1.
</event>
<event>
 4   0  0.4809415E-02  0.9118800E+02  0.7818609E-02  0.1379984E+01
      -11   -1    0    0    0    0  0.00000000000E+00  0.00000000000E+00  0.35740347158E-01  0.35744000000E-01  0.51099999109E-03 0. -1.
       11   -1    0    0    0    0 -0.00000000000E+00 -0.00000000000E+00 -0.35740347158E-01  0.35744000000E-01  0.51099999109E-03 0.  1.
       22    1    1    2    0    0 -0.47153668112E-02 -0.21775225587E-02  0.35357563494E-01  0.35737005818E-01  0.00000000000E+00 0. -1.
  9000001    1    1    2    0    0  0.47153668112E-02  0.21775225587E-02 -0.35357563494E-01  0.35750994182E-01  0.10000000475E-02 0.  1.
</event>
<event>
 4   0  0.4809415E-02  0.9118800E+02  0.7818609E-02  0.1379984E+01
      -11   -1    0    0    0    0  0.00000000000E+00  0.00000000000E+00  0.35740347158E-01  0.35744000000E-01  0.51099999109E-03 0. -1.
       11   -1    0    0    0    0 -0.00000000000E+00 -0.00000000000E+00 -0.35740347158E-01  0.35744000000E-01  0.51099999109E-03 0.  1.
       22    1    1    2    0    0 -0.40658441406E-02 -0.11507693972E-02  0.35486310404E-01  0.35737005818E-01  0.00000000000E+00 0. -1.
  9000001    1    1    2    0    0  0.40658441406E-02  0.11507693972E-02 -0.35486310404E-01  0.35750994182E-01  0.10000000475E-02 0.  1.
</event>
<event>
 4   0  0.4809415E-02  0.9118800E+02  0.7818609E-02  0.1379984E+01
      -11   -1    0    0    0    0  0.00000000000E+00  0.00000000000E+00  0.35740347158E-01  0.35744000000E-01  0.51099999109E-03 0. -1.
       11   -1    0    0    0    0 -0.00000000000E+00 -0.00000000000E+00 -0.35740347158E-01  0.35744000000E-01  0.51099999109E-03 0.  1.
       22    1    1    2    0    0  0.13624281566E-01  0.27595332488E-01  0.18166181810E-01  0.35737005818E-01  0.00000000000E+00 0. -1.
  9000001    1    1    2    0    0 -0.13624281566E-01 -0.27595332488E-01 -0.18166181810E-01  0.35750994182E-01  0.10000000475E-02 0.  1.
</event>
<event>
 4   0  0.4809415E-02  0.9118800E+02  0.7818609E-02  0.1379984E+01
      -11   -1    0    0    0    0  0.00000000000E+00  0.00000000000E+00  0.35740347158E-01  0.35744000000E-01  0.51099999109E-03 0. -1.
       11   -1    0    0    0    0 -0.00000000000E+00 -0.00000000000E+00 -0.35740347158E-01  0.35744000000E-01  0.51099999109E-03 0.  1.
       22    1    1    2    0    0  0.69873001998E-02  0.51443574756E-02  0.34667662265E-01  0.35737005818E-01  0.00000000000E+00 0. -1.
  9000001    1    1    2    0    0 -0.69873001998E-02 -0.51443574756E-02 -0.34667662265E-01  0.35750994182E-01  0.10000000475E-02 0.  1.
</event>
<event>
 4   0  0.4809415E-02  0.9118800E+02  0.7818609E-02  0.1379984E+01
      -11   -1    0    0    0    0  0.00000000000E+00  0.00000000000E+00  0.35740347158E-01  0.35744000000E-01  0.51099999109E-03 0.  1.
       11   -1    0    0    0    0 -0.00000000000E+00 -0.00000000000E+00 -0.35740347158E-01  0.35744000000E-01  0.51099999109E-03 0. -1.
       22    1    1    2    0    0 -0.58927571151E-02  0.72562527032E-03  0.35240352814E-01  0.35737005818E-01  0.00000000000E+00 0.  1.
  9000001    1    1    2    0    0  0.58927571151E-02 -0.72562527032E-03 -0.35240352814E-01  0.35750994182E-01  0.10000000475E-02 0. -1.
</event>
<event>
 4   0  0.4809415E-02  0.9118800E+02  0.7818609E-02  0.1379984E+01
      -11   -1    0    0    0    0  0.00000000000E+00  0.00000000000E+00  0.35740347158E-01  0.35744000000E-01  0.51099999109E-03 0.  1.
       11   -1    0    0    0    0 -0.00000000000E+00 -0.00000000000E+00 -0.35740347158E-01  0.35744000000E-01  0.51099999109E-03 0. -1.
       22    1    1    2    0    0  0.18123218799E-03  0.34799684707E-02  0.35566705768E-01  0.35737005818E-01  0.00000000000E+00 0.  1.
  9000001    1    1    2    0    0 -0.18123218799E-03 -0.34799684707E-02 -0.35566705768E-01  0.35750994182E-01  0.10000000475E-02 0. -1.
</event>
<event>
 4   0  0.4809415E-02  0.9118800E+02  0.7818609E-02  0.1379984E+01
      -11   -1    0    0    0    0  0.00000000000E+00  0.00000000000E+00  0.35740347158E-01  0.35744000000E-01  0.51099999109E-03 0. -1.
       11   -1    0    0    0    0 -0.00000000000E+00 -0.00000000000E+00 -0.35740347158E-01  0.35744000000E-01  0.51099999109E-03 0.  1.
       22    1    1    2    0    0 -0.32971253858E-02  0.26590568975E-02  0.35485094976E-01  0.35737005818E-01  0.00000000000E+00 0. -1.
  9000001    1    1    2    0    0  0.32971253858E-02 -0.26590568975E-02 -0.35485094976E-01  0.35750994182E-01  0.10000000475E-02 0.  1.
</event>
<event>
 4   0  0.4809415E-02  0.9118800E+02  0.7818609E-02  0.1379984E+01
      -11   -1    0    0    0    0  0.00000000000E+00  0.00000000000E+00  0.35740347158E-01  0.35744000000E-01  0.51099999109E-03 0.  1.
       11   -1    0    0    0    0 -0.00000000000E+00 -0.00000000000E+00 -0.35740347158E-01  0.35744000000E-01  0.51099999109E-03 0. -1.
       22    1    1    2    0    0 -0.88631541757E-02  0.29753682417E-02 -0.34492394332E-01  0.35737005818E-01  0.00000000000E+00 0. -1.
  9000001    1    1    2    0    0  0.88631541757E-02 -0.29753682417E-02  0.34492394332E-01  0.35750994182E-01  0.10000000475E-02 0.  1.
</event>
<event>
 4   0  0.4809415E-02  0.9118800E+02  0.7818609E-02  0.1379984E+01
      -11   -1    0    0    0    0  0.00000000000E+00  0.00000000000E+00  0.35740347158E-01  0.35744000000E-01  0.51099999109E-03 0. -1.
       11   -1    0    0    0    0 -0.00000000000E+00 -0.00000000000E+00 -0.35740347158E-01  0.35744000000E-01  0.51099999109E-03 0.  1.
       22    1    1    2    0    0 -0.71674869291E-02  0.60089004728E-02  0.34491358789E-01  0.35737005818E-01  0.00000000000E+00 0. -1.
  9000001    1    1    2    0    0  0.71674869291E-02 -0.60089004728E-02 -0.34491358789E-01  0.35750994182E-01  0.10000000475E-02 0.  1.
</event>
<event>
 4   0  0.4809415E-02  0.9118800E+02  0.7818609E-02  0.1379984E+01
      -11   -1    0    0    0    0  0.00000000000E+00  0.00000000000E+00  0.35740347158E-01  0.35744000000E-01  0.51099999109E-03 0.  1.
       11   -1    0    0    0    0 -0.00000000000E+00 -0.00000000000E+00 -0.35740347158E-01  0.35744000000E-01  0.51099999109E-03 0. -1.
       22    1    1    2    0    0 -0.40739670635E-02  0.13892748043E-01  0.32673045910E-01  0.35737005818E-01  0.00000000000E+00 0.  1.
  9000001    1    1    2    0    0  0.40739670635E-02 -0.13892748043E-01 -0.32673045910E-01  0.35750994182E-01  0.10000000475E-02 0. -1.
</event>
<event>
 4   0  0.4809415E-02  0.9118800E+02  0.7818609E-02  0.1379984E+01
      -11   -1    0    0    0    0  0.00000000000E+00  0.00000000000E+00  0.35740347158E-01  0.35744000000E-01  0.51099999109E-03 0. -1.
       11   -1    0    0    0    0 -0.00000000000E+00 -0.00000000000E+00 -0.35740347158E-01  0.35744000000E-01  0.51099999109E-03 0.  1.
       22    1    1    2    0    0  0.65851494766E-02 -0.70871215453E-02  0.34402646692E-01  0.35737005818E-01  0.00000000000E+00 0. -1.
  9000001    1    1    2    0    0 -0.65851494766E-02  0.70871215453E-02 -0.34402646692E-01  0.35750994182E-01  0.10000000475E-02 0.  1.
</event>
<event>
 4   0  0.4809415E-02  0.9118800E+02  0.7818609E-02  0.1379984E+01
      -11   -1    0    0    0    0  0.00000000000E+00  0.00000000000E+00  0.35740347158E-01  0.35744000000E-01  0.51099999109E-03 0. -1.
       11   -1    0    0    0    0 -0.00000000000E+00 -0.00000000000E+00 -0.35740347158E-01  0.35744000000E-01  0.51099999109E-03 0.  1.
       22    1    1    2    0    0  0.36561585122E-02 -0.51882967417E-02  0.35168845115E-01  0.35737005818E-01  0.00000000000E+00 0. -1.
  9000001    1    1    2    0    0 -0.36561585122E-02  0.51882967417E-02 -0.35168845115E-01  0.35750994182E-01  0.10000000475E-02 0.  1.
</event>
<event>
 4   0  0.4809415E-02  0.9118800E+02  0.7818609E-02  0.1379984E+01
      -11   -1    0    0    0    0  0.00000000000E+00  0.00000000000E+00  0.35740347158E-01  0.35744000000E-01  0.51099999109E-03 0.  1.
       11   -1    0    0    0    0 -0.00000000000E+00 -0.00000000000E+00 -0.35740347158E-01  0.35744000000E-01  0.51099999109E-03 0. -1.
       22    1    1    2    0    0  0.20784901037E-02  0.37855158907E-02 -0.35475108643E-01  0.35737005818E-01  0.00000000000E+00 0. -1.
  9000001    1    1    2    0    0 -0.20784901037E-02 -0.37855158907E-02  0.35475108643E-01  0.35750994182E-01  0.10000000475E-02 0.  1.
</event>
<event>
 4   0  0.4809415E-02  0.9118800E+02  0.7818609E-02  0.1379984E+01
      -11   -1    0    0    0    0  0.00000000000E+00  0.00000000000E+00  0.35740347158E-01  0.35744000000E-01  0.51099999109E-03 0.  1.
       11   -1    0    0    0    0 -0.00000000000E+00 -0.00000000000E+00 -0.35740347158E-01  0.35744000000E-01  0.51099999109E-03 0. -1.
       22    1    1    2    0    0  0.52044334076E-02  0.19076281990E-01 -0.29768152835E-01  0.35737005818E-01  0.00000000000E+00 0. -1.
  9000001    1    1    2    0    0 -0.52044334076E-02 -0.19076281990E-01  0.29768152835E-01  0.35750994182E-01  0.10000000475E-02 0.  1.
</event>
<event>
 4   0  0.4809415E-02  0.9118800E+02  0.7818609E-02  0.1379984E+01
      -11   -1    0    0    0    0  0.00000000000E+00  0.00000000000E+00  0.35740347158E-01  0.35744000000E-01  0.51099999109E-03 0. -1.
       11   -1    0    0    0    0 -0.00000000000E+00 -0.00000000000E+00 -0.35740347158E-01  0.35744000000E-01  0.51099999109E-03 0.  1.
       22    1    1    2    0    0  0.28044372605E-02 -0.18284284072E-02 -0.35579847752E-01  0.35737005818E-01  0.00000000000E+00 0.  1.
  9000001    1    1    2    0    0 -0.28044372605E-02  0.18284284072E-02  0.35579847752E-01  0.35750994182E-01  0.10000000475E-02 0. -1.
</event>
<event>
 4   0  0.4809415E-02  0.9118800E+02  0.7818609E-02  0.1379984E+01
      -11   -1    0    0    0    0  0.00000000000E+00  0.00000000000E+00  0.35740347158E-01  0.35744000000E-01  0.51099999109E-03 0.  1.
       11   -1    0    0    0    0 -0.00000000000E+00 -0.00000000000E+00 -0.35740347158E-01  0.35744000000E-01  0.51099999109E-03 0. -1.
       22    1    1    2    0    0  0.14207496025E-03  0.11738114691E-01 -0.33753963665E-01  0.35737005818E-01  0.00000000000E+00 0. -1.
  9000001    1    1    2    0    0 -0.14207496025E-03 -0.11738114691E-01  0.33753963665E-01  0.35750994182E-01  0.10000000475E-02 0.  1.
</event>
<event>
 4   0  0.4809415E-02  0.9118800E+02  0.7818609E-02  0.1379984E+01
      -11   -1    0    0    0    0  0.00000000000E+00  0.00000000000E+00  0.35740347158E-01  0.35744000000E-01  0.51099999109E-03 0. -1.
       11   -1    0    0    0    0 -0.00000000000E+00 -0.00000000000E+00 -0.35740347158E-01  0.35744000000E-01  0.51099999109E-03 0.  1.
       22    1    1    2    0    0  0.37725429892E-02 -0.72365303450E-02  0.34792731034E-01  0.35737005818E-01  0.00000000000E+00 0. -1.
  9000001    1    1    2    0    0 -0.37725429892E-02  0.72365303450E-02 -0.34792731034E-01  0.35750994182E-01  0.10000000475E-02 0.  1.
</event>
<event>
 4   0  0.4809415E-02  0.9118800E+02  0.7818609E-02  0.1379984E+01
      -11   -1    0    0    0    0  0.00000000000E+00  0.00000000000E+00  0.35740347158E-01  0.35744000000E-01  0.51099999109E-03 0.  1.
       11   -1    0    0    0    0 -0.00000000000E+00 -0.00000000000E+00 -0.35740347158E-01  0.35744000000E-01  0.51099999109E-03 0. -1.
       22    1    1    2    0    0  0.28811538084E-02  0.21708734263E-01 -0.28241164890E-01  0.35737005818E-01  0.00000000000E+00 0. -1.
  9000001    1    1    2    0    0 -0.28811538084E-02 -0.21708734263E-01  0.28241164890E-01  0.35750994182E-01  0.10000000475E-02 0.  1.
</event>
<event>
 4   0  0.4809415E-02  0.9118800E+02  0.7818609E-02  0.1379984E+01
      -11   -1    0    0    0    0  0.00000000000E+00  0.00000000000E+00  0.35740347158E-01  0.35744000000E-01  0.51099999109E-03 0.  1.
       11   -1    0    0    0    0 -0.00000000000E+00 -0.00000000000E+00 -0.35740347158E-01  0.35744000000E-01  0.51099999109E-03 0. -1.
       22    1    1    2    0    0  0.10137173810E-01  0.23120056088E-01 -0.25294946106E-01  0.35737005818E-01  0.00000000000E+00 0. -1.
  9000001    1    1    2    0    0 -0.10137173810E-01 -0.23120056088E-01  0.25294946106E-01  0.35750994182E-01  0.10000000475E-02 0.  1.
</event>
<event>
 4   0  0.4809415E-02  0.9118800E+02  0.7818609E-02  0.1379984E+01
      -11   -1    0    0    0    0  0.00000000000E+00  0.00000000000E+00  0.35740347158E-01  0.35744000000E-01  0.51099999109E-03 0. -1.
       11   -1    0    0    0    0 -0.00000000000E+00 -0.00000000000E+00 -0.35740347158E-01  0.35744000000E-01  0.51099999109E-03 0.  1.
       22    1    1    2    0    0 -0.55454548913E-02  0.44353976280E-02  0.35024402390E-01  0.35737005818E-01  0.00000000000E+00 0. -1.
  9000001    1    1    2    0    0  0.55454548913E-02 -0.44353976280E-02 -0.35024402390E-01  0.35750994182E-01  0.10000000475E-02 0.  1.
</event>
<event>
 4   0  0.4809415E-02  0.9118800E+02  0.7818609E-02  0.1379984E+01
      -11   -1    0    0    0    0  0.00000000000E+00  0.00000000000E+00  0.35740347158E-01  0.35744000000E-01  0.51099999109E-03 0.  1.
       11   -1    0    0    0    0 -0.00000000000E+00 -0.00000000000E+00 -0.35740347158E-01  0.35744000000E-01  0.51099999109E-03 0. -1.
       22    1    1    2    0    0 -0.39481981973E-02 -0.45473107573E-02 -0.35225946130E-01  0.35737005818E-01  0.00000000000E+00 0. -1.
  9000001    1    1    2    0    0  0.39481981973E-02  0.45473107573E-02  0.35225946130E-01  0.35750994182E-01  0.10000000475E-02 0.  1.
</event>
<event>
 4   0  0.4809415E-02  0.9118800E+02  0.7818609E-02  0.1379984E+01
      -11   -1    0    0    0    0  0.00000000000E+00  0.00000000000E+00  0.35740347158E-01  0.35744000000E-01  0.51099999109E-03 0.  1.
       11   -1    0    0    0    0 -0.00000000000E+00 -0.00000000000E+00 -0.35740347158E-01  0.35744000000E-01  0.51099999109E-03 0. -1.
       22    1    1    2    0    0 -0.19922964922E-01  0.83141663828E-02 -0.28479531087E-01  0.35737005818E-01  0.00000000000E+00 0. -1.
  9000001    1    1    2    0    0  0.19922964922E-01 -0.83141663828E-02  0.28479531087E-01  0.35750994182E-01  0.10000000475E-02 0.  1.
</event>
<event>
 4   0  0.4809415E-02  0.9118800E+02  0.7818609E-02  0.1379984E+01
      -11   -1    0    0    0    0  0.00000000000E+00  0.00000000000E+00  0.35740347158E-01  0.35744000000E-01  0.51099999109E-03 0.  1.
       11   -1    0    0    0    0 -0.00000000000E+00 -0.00000000000E+00 -0.35740347158E-01  0.35744000000E-01  0.51099999109E-03 0. -1.
       22    1    1    2    0    0 -0.10544997740E-02 -0.59375114385E-02 -0.35224530842E-01  0.35737005818E-01  0.00000000000E+00 0. -1.
  9000001    1    1    2    0    0  0.10544997740E-02  0.59375114385E-02  0.35224530842E-01  0.35750994182E-01  0.10000000475E-02 0.  1.
</event>
<event>
 4   0  0.4809415E-02  0.9118800E+02  0.7818609E-02  0.1379984E+01
      -11   -1    0    0    0    0  0.00000000000E+00  0.00000000000E+00  0.35740347158E-01  0.35744000000E-01  0.51099999109E-03 0.  1.
       11   -1    0    0    0    0 -0.00000000000E+00 -0.00000000000E+00 -0.35740347158E-01  0.35744000000E-01  0.51099999109E-03 0. -1.
       22    1    1    2    0    0  0.41350503069E-02  0.26371339157E-01  0.23761048271E-01  0.35737005818E-01  0.00000000000E+00 0.  1.
  9000001    1    1    2    0    0 -0.41350503069E-02 -0.26371339157E-01 -0.23761048271E-01  0.35750994182E-01  0.10000000475E-02 0. -1.
</event>
<event>
 4   0  0.4809415E-02  0.9118800E+02  0.7818609E-02  0.1379984E+01
      -11   -1    0    0    0    0  0.00000000000E+00  0.00000000000E+00  0.35740347158E-01  0.35744000000E-01  0.51099999109E-03 0. -1.
       11   -1    0    0    0    0 -0.00000000000E+00 -0.00000000000E+00 -0.35740347158E-01  0.35744000000E-01  0.51099999109E-03 0.  1.
       22    1    1    2    0    0 -0.86270119828E-02 -0.98391024966E-02  0.33255079479E-01  0.35737005818E-01  0.00000000000E+00 0. -1.
  9000001    1    1    2    0    0  0.86270119828E-02  0.98391024966E-02 -0.33255079479E-01  0.35750994182E-01  0.10000000475E-02 0.  1.
</event>
<event>
 4   0  0.4809415E-02  0.9118800E+02  0.7818609E-02  0.1379984E+01
      -11   -1    0    0    0    0  0.00000000000E+00  0.00000000000E+00  0.35740347158E-01  0.35744000000E-01  0.51099999109E-03 0. -1.
       11   -1    0    0    0    0 -0.00000000000E+00 -0.00000000000E+00 -0.35740347158E-01  0.35744000000E-01  0.51099999109E-03 0.  1.
       22    1    1    2    0    0 -0.14236453206E-01  0.30667448928E-01  0.11574306081E-01  0.35737005818E-01  0.00000000000E+00 0. -1.
  9000001    1    1    2    0    0  0.14236453206E-01 -0.30667448928E-01 -0.11574306081E-01  0.35750994182E-01  0.10000000475E-02 0.  1.
</event>
<event>
 4   0  0.4809415E-02  0.9118800E+02  0.7818609E-02  0.1379984E+01
      -11   -1    0    0    0    0  0.00000000000E+00  0.00000000000E+00  0.35740347158E-01  0.35744000000E-01  0.51099999109E-03 0.  1.
       11   -1    0    0    0    0 -0.00000000000E+00 -0.00000000000E+00 -0.35740347158E-01  0.35744000000E-01  0.51099999109E-03 0. -1.
       22    1    1    2    0    0 -0.44041151043E-02 -0.21358547937E-02  0.35400218634E-01  0.35737005818E-01  0.00000000000E+00 0.  1.
  9000001    1    1    2    0    0  0.44041151043E-02  0.21358547937E-02 -0.35400218634E-01  0.35750994182E-01  0.10000000475E-02 0. -1.
</event>
<event>
 4   0  0.4809415E-02  0.9118800E+02  0.7818609E-02  0.1379984E+01
      -11   -1    0    0    0    0  0.00000000000E+00  0.00000000000E+00  0.35740347158E-01  0.35744000000E-01  0.51099999109E-03 0. -1.
       11   -1    0    0    0    0 -0.00000000000E+00 -0.00000000000E+00 -0.35740347158E-01  0.35744000000E-01  0.51099999109E-03 0.  1.
       22    1    1    2    0    0  0.29966558886E-02 -0.16400719245E-03 -0.35610767192E-01  0.35737005818E-01  0.00000000000E+00 0.  1.
  9000001    1    1    2    0    0 -0.29966558886E-02  0.16400719245E-03  0.35610767192E-01  0.35750994182E-01  0.10000000475E-02 0. -1.
</event>
<event>
 4   0  0.4809415E-02  0.9118800E+02  0.7818609E-02  0.1379984E+01
      -11   -1    0    0    0    0  0.00000000000E+00  0.00000000000E+00  0.35740347158E-01  0.35744000000E-01  0.51099999109E-03 0.  1.
       11   -1    0    0    0    0 -0.00000000000E+00 -0.00000000000E+00 -0.35740347158E-01  0.35744000000E-01  0.51099999109E-03 0. -1.
       22    1    1    2    0    0 -0.16028002461E-01 -0.74077505839E-02  0.31070274432E-01  0.35737005818E-01  0.00000000000E+00 0.  1.
  9000001    1    1    2    0    0  0.16028002461E-01  0.74077505839E-02 -0.31070274432E-01  0.35750994182E-01  0.10000000475E-02 0. -1.
</event>
<event>
 4   0  0.4809415E-02  0.9118800E+02  0.7818609E-02  0.1379984E+01
      -11   -1    0    0    0    0  0.00000000000E+00  0.00000000000E+00  0.35740347158E-01  0.35744000000E-01  0.51099999109E-03 0.  1.
       11   -1    0    0    0    0 -0.00000000000E+00 -0.00000000000E+00 -0.35740347158E-01  0.35744000000E-01  0.51099999109E-03 0. -1.
       22    1    1    2    0    0 -0.95453347795E-03  0.14056643125E-01  0.32842552196E-01  0.35737005818E-01  0.00000000000E+00 0.  1.
  9000001    1    1    2    0    0  0.95453347795E-03 -0.14056643125E-01 -0.32842552196E-01  0.35750994182E-01  0.10000000475E-02 0. -1.
</event>
<event>
 4   0  0.4809415E-02  0.9118800E+02  0.7818609E-02  0.1379984E+01
      -11   -1    0    0    0    0  0.00000000000E+00  0.00000000000E+00  0.35740347158E-01  0.35744000000E-01  0.51099999109E-03 0. -1.
       11   -1    0    0    0    0 -0.00000000000E+00 -0.00000000000E+00 -0.35740347158E-01  0.35744000000E-01  0.51099999109E-03 0.  1.
       22    1    1    2    0    0  0.42273983387E-02 -0.11519005067E-02 -0.35467390845E-01  0.35737005818E-01  0.00000000000E+00 0.  1.
  9000001    1    1    2    0    0 -0.42273983387E-02  0.11519005067E-02  0.35467390845E-01  0.35750994182E-01  0.10000000475E-02 0. -1.
</event>
<event>
 4   0  0.4809415E-02  0.9118800E+02  0.7818609E-02  0.1379984E+01
      -11   -1    0    0    0    0  0.00000000000E+00  0.00000000000E+00  0.35740347158E-01  0.35744000000E-01  0.51099999109E-03 0.  1.
       11   -1    0    0    0    0 -0.00000000000E+00 -0.00000000000E+00 -0.35740347158E-01  0.35744000000E-01  0.51099999109E-03 0. -1.
       22    1    1    2    0    0 -0.33927141146E-02  0.69762451717E-02 -0.34884883246E-01  0.35737005818E-01  0.00000000000E+00 0. -1.
  9000001    1    1    2    0    0  0.33927141146E-02 -0.69762451717E-02  0.34884883246E-01  0.35750994182E-01  0.10000000475E-02 0.  1.
</event>
<event>
 4   0  0.4809415E-02  0.9118800E+02  0.7818609E-02  0.1379984E+01
      -11   -1    0    0    0    0  0.00000000000E+00  0.00000000000E+00  0.35740347158E-01  0.35744000000E-01  0.51099999109E-03 0. -1.
       11   -1    0    0    0    0 -0.00000000000E+00 -0.00000000000E+00 -0.35740347158E-01  0.35744000000E-01  0.51099999109E-03 0.  1.
       22    1    1    2    0    0  0.20721526399E-02 -0.17178220176E-01  0.31268970560E-01  0.35737005818E-01  0.00000000000E+00 0. -1.
  9000001    1    1    2    0    0 -0.20721526399E-02  0.17178220176E-01 -0.31268970560E-01  0.35750994182E-01  0.10000000475E-02 0.  1.
</event>
<event>
 4   0  0.4809415E-02  0.9118800E+02  0.7818609E-02  0.1379984E+01
      -11   -1    0    0    0    0  0.00000000000E+00  0.00000000000E+00  0.35740347158E-01  0.35744000000E-01  0.51099999109E-03 0. -1.
       11   -1    0    0    0    0 -0.00000000000E+00 -0.00000000000E+00 -0.35740347158E-01  0.35744000000E-01  0.51099999109E-03 0.  1.
       22    1    1    2    0    0 -0.13982264839E-01 -0.12630229436E-01 -0.30366217401E-01  0.35737005818E-01  0.00000000000E+00 0.  1.
  9000001    1    1    2    0    0  0.13982264839E-01  0.12630229436E-01  0.30366217401E-01  0.35750994182E-01  0.10000000475E-02 0. -1.
</event>
<event>
 4   0  0.4809415E-02  0.9118800E+02  0.7818609E-02  0.1379984E+01
      -11   -1    0    0    0    0  0.00000000000E+00  0.00000000000E+00  0.35740347158E-01  0.35744000000E-01  0.51099999109E-03 0. -1.
       11   -1    0    0    0    0 -0.00000000000E+00 -0.00000000000E+00 -0.35740347158E-01  0.35744000000E-01  0.51099999109E-03 0.  1.
       22    1    1    2    0    0  0.23748937467E-01  0.17213370549E-01 -0.20416205044E-01  0.35737005818E-01  0.00000000000E+00 0.  1.
  9000001    1    1    2    0    0 -0.23748937467E-01 -0.17213370549E-01  0.20416205044E-01  0.35750994182E-01  0.10000000475E-02 0. -1.
</event>
<event>
 4   0  0.4809415E-02  0.9118800E+02  0.7818609E-02  0.1379984E+01
      -11   -1    0    0    0    0  0.00000000000E+00  0.00000000000E+00  0.35740347158E-01  0.35744000000E-01  0.51099999109E-03 0.  1.
       11   -1    0    0    0    0 -0.00000000000E+00 -0.00000000000E+00 -0.35740347158E-01  0.35744000000E-01  0.51099999109E-03 0. -1.
       22    1    1    2    0    0 -0.23968091297E-01  0.11353657571E-01  0.23953259574E-01  0.35737005818E-01  0.00000000000E+00 0.  1.
  9000001    1    1    2    0    0  0.23968091297E-01 -0.11353657571E-01 -0.23953259574E-01  0.35750994182E-01  0.10000000475E-02 0. -1.
</event>
<event>
 4   0  0.4809415E-02  0.9118800E+02  0.7818609E-02  0.1379984E+01
      -11   -1    0    0    0    0  0.00000000000E+00  0.00000000000E+00  0.35740347158E-01  0.35744000000E-01  0.51099999109E-03 0.  1.
       11   -1    0    0    0    0 -0.00000000000E+00 -0.00000000000E+00 -0.35740347158E-01  0.35744000000E-01  0.51099999109E-03 0. -1.
       22    1    1    2    0    0 -0.18538373518E-01  0.10759284670E-01 -0.28595455680E-01  0.35737005818E-01  0.00000000000E+00 0. -1.
  9000001    1    1    2    0    0  0.18538373518E-01 -0.10759284670E-01  0.28595455680E-01  0.35750994182E-01  0.10000000475E-02 0.  1.
</event>
<event>
 4   0  0.4809415E-02  0.9118800E+02  0.7818609E-02  0.1379984E+01
      -11   -1    0    0    0    0  0.00000000000E+00  0.00000000000E+00  0.35740347158E-01  0.35744000000E-01  0.51099999109E-03 0. -1.
       11   -1    0    0    0    0 -0.00000000000E+00 -0.00000000000E+00 -0.35740347158E-01  0.35744000000E-01  0.51099999109E-03 0.  1.
       22    1    1    2    0    0  0.90524147123E-02 -0.13880428708E-01 -0.31662613152E-01  0.35737005818E-01  0.00000000000E+00 0.  1.
  9000001    1    1    2    0    0 -0.90524147123E-02  0.13880428708E-01  0.31662613152E-01  0.35750994182E-01  0.10000000475E-02 0. -1.
</event>
<event>
 4   0  0.4809415E-02  0.9118800E+02  0.7818609E-02  0.1379984E+01
      -11   -1    0    0    0    0  0.00000000000E+00  0.00000000000E+00  0.35740347158E-01  0.35744000000E-01  0.51099999109E-03 0.  1.
       11   -1    0    0    0    0 -0.00000000000E+00 -0.00000000000E+00 -0.35740347158E-01  0.35744000000E-01  0.51099999109E-03 0. -1.
       22    1    1    2    0    0  0.11218516546E-01  0.42500250114E-02 -0.33663270174E-01  0.35737005818E-01  0.00000000000E+00 0. -1.
  9000001    1    1    2    0    0 -0.11218516546E-01 -0.42500250114E-02  0.33663270174E-01  0.35750994182E-01  0.10000000475E-02 0.  1.
</event>
<event>
 4   0  0.4809415E-02  0.9118800E+02  0.7818609E-02  0.1379984E+01
      -11   -1    0    0    0    0  0.00000000000E+00  0.00000000000E+00  0.35740347158E-01  0.35744000000E-01  0.51099999109E-03 0.  1.
       11   -1    0    0    0    0 -0.00000000000E+00 -0.00000000000E+00 -0.35740347158E-01  0.35744000000E-01  0.51099999109E-03 0. -1.
       22    1    1    2    0    0 -0.44971937662E-02  0.30490840517E-01 -0.18089153591E-01  0.35737005818E-01  0.00000000000E+00 0. -1.
  9000001    1    1    2    0    0  0.44971937662E-02 -0.30490840517E-01  0.18089153591E-01  0.35750994182E-01  0.10000000475E-02 0.  1.
</event>
<event>
 4   0  0.4809415E-02  0.9118800E+02  0.7818609E-02  0.1379984E+01
      -11   -1    0    0    0    0  0.00000000000E+00  0.00000000000E+00  0.35740347158E-01  0.35744000000E-01  0.51099999109E-03 0.  1.
       11   -1    0    0    0    0 -0.00000000000E+00 -0.00000000000E+00 -0.35740347158E-01  0.35744000000E-01  0.51099999109E-03 0. -1.
       22    1    1    2    0    0 -0.26138833323E-02  0.12394906635E-01 -0.33416575054E-01  0.35737005818E-01  0.00000000000E+00 0. -1.
  9000001    1    1    2    0    0  0.26138833323E-02 -0.12394906635E-01  0.33416575054E-01  0.35750994182E-01  0.10000000475E-02 0.  1.
</event>
<event>
 4   0  0.4809415E-02  0.9118800E+02  0.7818609E-02  0.1379984E+01
      -11   -1    0    0    0    0  0.00000000000E+00  0.00000000000E+00  0.35740347158E-01  0.35744000000E-01  0.51099999109E-03 0. -1.
       11   -1    0    0    0    0 -0.00000000000E+00 -0.00000000000E+00 -0.35740347158E-01  0.35744000000E-01  0.51099999109E-03 0.  1.
       22    1    1    2    0    0  0.37861286779E-02 -0.64942043248E-02 -0.34937431570E-01  0.35737005818E-01  0.00000000000E+00 0.  1.
  9000001    1    1    2    0    0 -0.37861286779E-02  0.64942043248E-02  0.34937431570E-01  0.35750994182E-01  0.10000000475E-02 0. -1.
</event>
<event>
 4   0  0.4809415E-02  0.9118800E+02  0.7818609E-02  0.1379984E+01
      -11   -1    0    0    0    0  0.00000000000E+00  0.00000000000E+00  0.35740347158E-01  0.35744000000E-01  0.51099999109E-03 0.  1.
       11   -1    0    0    0    0 -0.00000000000E+00 -0.00000000000E+00 -0.35740347158E-01  0.35744000000E-01  0.51099999109E-03 0. -1.
       22    1    1    2    0    0 -0.20346928158E-02  0.34254889030E-02  0.35514217375E-01  0.35737005818E-01  0.00000000000E+00 0.  1.
  9000001    1    1    2    0    0  0.20346928158E-02 -0.34254889030E-02 -0.35514217375E-01  0.35750994182E-01  0.10000000475E-02 0. -1.
</event>
<event>
 4   0  0.4809415E-02  0.9118800E+02  0.7818609E-02  0.1379984E+01
      -11   -1    0    0    0    0  0.00000000000E+00  0.00000000000E+00  0.35740347158E-01  0.35744000000E-01  0.51099999109E-03 0.  1.
       11   -1    0    0    0    0 -0.00000000000E+00 -0.00000000000E+00 -0.35740347158E-01  0.35744000000E-01  0.51099999109E-03 0. -1.
       22    1    1    2    0    0 -0.92438644695E-02  0.48407648631E-02  0.34179694997E-01  0.35737005818E-01  0.00000000000E+00 0.  1.
  9000001    1    1    2    0    0  0.92438644695E-02 -0.48407648631E-02 -0.34179694997E-01  0.35750994182E-01  0.10000000475E-02 0. -1.
</event>
<event>
 4   0  0.4809415E-02  0.9118800E+02  0.7818609E-02  0.1379984E+01
      -11   -1    0    0    0    0  0.00000000000E+00  0.00000000000E+00  0.35740347158E-01  0.35744000000E-01  0.51099999109E-03 0.  1.
       11   -1    0    0    0    0 -0.00000000000E+00 -0.00000000000E+00 -0.35740347158E-01  0.35744000000E-01  0.51099999109E-03 0. -1.
       22    1    1    2    0    0  0.60014724556E-02 -0.16759238257E-02  0.35189589264E-01  0.35737005818E-01  0.00000000000E+00 0.  1.
  9000001    1    1    2    0    0 -0.60014724556E-02  0.16759238257E-02 -0.35189589264E-01  0.35750994182E-01  0.10000000475E-02 0. -1.
</event>
<event>
 4   0  0.4809415E-02  0.9118800E+02  0.7818609E-02  0.1379984E+01
      -11   -1    0    0    0    0  0.00000000000E+00  0.00000000000E+00  0.35740347158E-01  0.35744000000E-01  0.51099999109E-03 0.  1.
       11   -1    0    0    0    0 -0.00000000000E+00 -0.00000000000E+00 -0.35740347158E-01  0.35744000000E-01  0.51099999109E-03 0. -1.
       22    1    1    2    0    0  0.20331162926E-01 -0.26784187258E-01 -0.12098954991E-01  0.35737005818E-01  0.00000000000E+00 0. -1.
  9000001    1    1    2    0    0 -0.20331162926E-01  0.26784187258E-01  0.12098954991E-01  0.35750994182E-01  0.10000000475E-02 0.  1.
</event>
<event>
 4   0  0.4809415E-02  0.9118800E+02  0.7818609E-02  0.1379984E+01
      -11   -1    0    0    0    0  0.00000000000E+00  0.00000000000E+00  0.35740347158E-01  0.35744000000E-01  0.51099999109E-03 0. -1.
       11   -1    0    0    0    0 -0.00000000000E+00 -0.00000000000E+00 -0.35740347158E-01  0.35744000000E-01  0.51099999109E-03 0.  1.
       22    1    1    2    0    0  0.65529222834E-02  0.13383168273E-02 -0.35105579364E-01  0.35737005818E-01  0.00000000000E+00 0.  1.
  9000001    1    1    2    0    0 -0.65529222834E-02 -0.13383168273E-02  0.35105579364E-01  0.35750994182E-01  0.10000000475E-02 0. -1.
</event>
<event>
 4   0  0.4809415E-02  0.9118800E+02  0.7818609E-02  0.1379984E+01
      -11   -1    0    0    0    0  0.00000000000E+00  0.00000000000E+00  0.35740347158E-01  0.35744000000E-01  0.51099999109E-03 0.  1.
       11   -1    0    0    0    0 -0.00000000000E+00 -0.00000000000E+00 -0.35740347158E-01  0.35744000000E-01  0.51099999109E-03 0. -1.
       22    1    1    2    0    0 -0.34604055431E-01  0.59221844526E-02 -0.66798700526E-02  0.35737005818E-01  0.00000000000E+00 0. -1.
  9000001    1    1    2    0    0  0.34604055431E-01 -0.59221844526E-02  0.66798700526E-02  0.35750994182E-01  0.10000000475E-02 0.  1.
</event>
<event>
 4   0  0.4809415E-02  0.9118800E+02  0.7818609E-02  0.1379984E+01
      -11   -1    0    0    0    0  0.00000000000E+00  0.00000000000E+00  0.35740347158E-01  0.35744000000E-01  0.51099999109E-03 0.  1.
       11   -1    0    0    0    0 -0.00000000000E+00 -0.00000000000E+00 -0.35740347158E-01  0.35744000000E-01  0.51099999109E-03 0. -1.
       22    1    1    2    0    0  0.11768634659E-01  0.18473792630E-01  0.28237418596E-01  0.35737005818E-01  0.00000000000E+00 0.  1.
  9000001    1    1    2    0    0 -0.11768634659E-01 -0.18473792630E-01 -0.28237418596E-01  0.35750994182E-01  0.10000000475E-02 0. -1.
</event>
<event>
 4   0  0.4809415E-02  0.9118800E+02  0.7818609E-02  0.1379984E+01
      -11   -1    0    0    0    0  0.00000000000E+00  0.00000000000E+00  0.35740347158E-01  0.35744000000E-01  0.51099999109E-03 0. -1.
       11   -1    0    0    0    0 -0.00000000000E+00 -0.00000000000E+00 -0.35740347158E-01  0.35744000000E-01  0.51099999109E-03 0.  1.
       22    1    1    2    0    0  0.18304056084E-02  0.79557030108E-02  0.34792096657E-01  0.35737005818E-01  0.00000000000E+00 0. -1.
  9000001    1    1    2    0    0 -0.18304056084E-02 -0.79557030108E-02 -0.34792096657E-01  0.35750994182E-01  0.10000000475E-02 0.  1.
</event>
<event>
 4   0  0.4809415E-02  0.9118800E+02  0.7818609E-02  0.1379984E+01
      -11   -1    0    0    0    0  0.00000000000E+00  0.00000000000E+00  0.35740347158E-01  0.35744000000E-01  0.51099999109E-03 0.  1.
       11   -1    0    0    0    0 -0.00000000000E+00 -0.00000000000E+00 -0.35740347158E-01  0.35744000000E-01  0.51099999109E-03 0. -1.
       22    1    1    2    0    0  0.28096570274E-02 -0.14619532586E-01  0.32488593063E-01  0.35737005818E-01  0.00000000000E+00 0.  1.
  9000001    1    1    2    0    0 -0.28096570274E-02  0.14619532586E-01 -0.32488593063E-01  0.35750994182E-01  0.10000000475E-02 0. -1.
</event>
<event>
 4   0  0.4809415E-02  0.9118800E+02  0.7818609E-02  0.1379984E+01
      -11   -1    0    0    0    0  0.00000000000E+00  0.00000000000E+00  0.35740347158E-01  0.35744000000E-01  0.51099999109E-03 0. -1.
       11   -1    0    0    0    0 -0.00000000000E+00 -0.00000000000E+00 -0.35740347158E-01  0.35744000000E-01  0.51099999109E-03 0.  1.
       22    1    1    2    0    0 -0.27812050111E-01 -0.86498792828E-02 -0.20707560018E-01  0.35737005818E-01  0.00000000000E+00 0.  1.
  9000001    1    1    2    0    0  0.27812050111E-01  0.86498792828E-02  0.20707560018E-01  0.35750994182E-01  0.10000000475E-02 0. -1.
</event>
<event>
 4   0  0.4809415E-02  0.9118800E+02  0.7818609E-02  0.1379984E+01
      -11   -1    0    0    0    0  0.00000000000E+00  0.00000000000E+00  0.35740347158E-01  0.35744000000E-01  0.51099999109E-03 0.  1.
       11   -1    0    0    0    0 -0.00000000000E+00 -0.00000000000E+00 -0.35740347158E-01  0.35744000000E-01  0.51099999109E-03 0. -1.
       22    1    1    2    0    0 -0.46989590032E-02 -0.49878208974E-03 -0.35423220994E-01  0.35737005818E-01  0.00000000000E+00 0. -1.
  9000001    1    1    2    0    0  0.46989590032E-02  0.49878208974E-03  0.35423220994E-01  0.35750994182E-01  0.10000000475E-02 0.  1.
</event>
<event>
 4   0  0.4809415E-02  0.9118800E+02  0.7818609E-02  0.1379984E+01
      -11   -1    0    0    0    0  0.00000000000E+00  0.00000000000E+00  0.35740347158E-01  0.35744000000E-01  0.51099999109E-03 0. -1.
       11   -1    0    0    0    0 -0.00000000000E+00 -0.00000000000E+00 -0.35740347158E-01  0.35744000000E-01  0.51099999109E-03 0.  1.
       22    1    1    2    0    0 -0.99702095612E-02 -0.25786291646E-01  0.22644992146E-01  0.35737005818E-01  0.00000000000E+00 0. -1.
  9000001    1    1    2    0    0  0.99702095612E-02  0.25786291646E-01 -0.22644992146E-01  0.35750994182E-01  0.10000000475E-02 0.  1.
</event>
<event>
 4   0  0.4809415E-02  0.9118800E+02  0.7818609E-02  0.1379984E+01
      -11   -1    0    0    0    0  0.00000000000E+00  0.00000000000E+00  0.35740347158E-01  0.35744000000E-01  0.51099999109E-03 0. -1.
       11   -1    0    0    0    0 -0.00000000000E+00 -0.00000000000E+00 -0.35740347158E-01  0.35744000000E-01  0.51099999109E-03 0.  1.
       22    1    1    2    0    0 -0.20538011553E-01 -0.27110896926E-01 -0.10969181110E-01  0.35737005818E-01  0.00000000000E+00 0.  1.
  9000001    1    1    2    0    0  0.20538011553E-01  0.27110896926E-01  0.10969181110E-01  0.35750994182E-01  0.10000000475E-02 0. -1.
</event>
<event>
 4   0  0.4809415E-02  0.9118800E+02  0.7818609E-02  0.1379984E+01
      -11   -1    0    0    0    0  0.00000000000E+00  0.00000000000E+00  0.35740347158E-01  0.35744000000E-01  0.51099999109E-03 0. -1.
       11   -1    0    0    0    0 -0.00000000000E+00 -0.00000000000E+00 -0.35740347158E-01  0.35744000000E-01  0.51099999109E-03 0.  1.
       22    1    1    2    0    0 -0.30594002250E-01  0.15500734687E-01 -0.10043298033E-01  0.35737005818E-01  0.00000000000E+00 0.  1.
  9000001    1    1    2    0    0  0.30594002250E-01 -0.15500734687E-01  0.10043298033E-01  0.35750994182E-01  0.10000000475E-02 0. -1.
</event>
<event>
 4   0  0.4809415E-02  0.9118800E+02  0.7818609E-02  0.1379984E+01
      -11   -1    0    0    0    0  0.00000000000E+00  0.00000000000E+00  0.35740347158E-01  0.35744000000E-01  0.51099999109E-03 0.  1.
       11   -1    0    0    0    0 -0.00000000000E+00 -0.00000000000E+00 -0.35740347158E-01  0.35744000000E-01  0.51099999109E-03 0. -1.
       22    1    1    2    0    0 -0.43550014095E-02 -0.17072917132E-02 -0.35429545617E-01  0.35737005818E-01  0.00000000000E+00 0. -1.
  9000001    1    1    2    0    0  0.43550014095E-02  0.17072917132E-02  0.35429545617E-01  0.35750994182E-01  0.10000000475E-02 0.  1.
</event>
<event>
 4   0  0.4809415E-02  0.9118800E+02  0.7818609E-02  0.1379984E+01
      -11   -1    0    0    0    0  0.00000000000E+00  0.00000000000E+00  0.35740347158E-01  0.35744000000E-01  0.51099999109E-03 0. -1.
       11   -1    0    0    0    0 -0.00000000000E+00 -0.00000000000E+00 -0.35740347158E-01  0.35744000000E-01  0.51099999109E-03 0.  1.
       22    1    1    2    0    0 -0.14354887726E-01  0.24492096591E-01 -0.21707325671E-01  0.35737005818E-01  0.00000000000E+00 0.  1.
  9000001    1    1    2    0    0  0.14354887726E-01 -0.24492096591E-01  0.21707325671E-01  0.35750994182E-01  0.10000000475E-02 0. -1.
</event>
<event>
 4   0  0.4809415E-02  0.9118800E+02  0.7818609E-02  0.1379984E+01
      -11   -1    0    0    0    0  0.00000000000E+00  0.00000000000E+00  0.35740347158E-01  0.35744000000E-01  0.51099999109E-03 0.  1.
       11   -1    0    0    0    0 -0.00000000000E+00 -0.00000000000E+00 -0.35740347158E-01  0.35744000000E-01  0.51099999109E-03 0. -1.
       22    1    1    2    0    0  0.36511309555E-02 -0.16607765151E-01  0.31432228116E-01  0.35737005818E-01  0.00000000000E+00 0.  1.
  9000001    1    1    2    0    0 -0.36511309555E-02  0.16607765151E-01 -0.31432228116E-01  0.35750994182E-01  0.10000000475E-02 0. -1.
</event>
<event>
 4   0  0.4809415E-02  0.9118800E+02  0.7818609E-02  0.1379984E+01
      -11   -1    0    0    0    0  0.00000000000E+00  0.00000000000E+00  0.35740347158E-01  0.35744000000E-01  0.51099999109E-03 0.  1.
       11   -1    0    0    0    0 -0.00000000000E+00 -0.00000000000E+00 -0.35740347158E-01  0.35744000000E-01  0.51099999109E-03 0. -1.
       22    1    1    2    0    0  0.19613222936E-02 -0.12852234292E-01 -0.33288239266E-01  0.35737005818E-01  0.00000000000E+00 0. -1.
  9000001    1    1    2    0    0 -0.19613222936E-02  0.12852234292E-01  0.33288239266E-01  0.35750994182E-01  0.10000000475E-02 0.  1.
</event>
<event>
 4   0  0.4809415E-02  0.9118800E+02  0.7818609E-02  0.1379984E+01
      -11   -1    0    0    0    0  0.00000000000E+00  0.00000000000E+00  0.35740347158E-01  0.35744000000E-01  0.51099999109E-03 0.  1.
       11   -1    0    0    0    0 -0.00000000000E+00 -0.00000000000E+00 -0.35740347158E-01  0.35744000000E-01  0.51099999109E-03 0. -1.
       22    1    1    2    0    0 -0.15406160255E-01  0.46989829499E-02 -0.31901463451E-01  0.35737005818E-01  0.00000000000E+00 0. -1.
  9000001    1    1    2    0    0  0.15406160255E-01 -0.46989829499E-02  0.31901463451E-01  0.35750994182E-01  0.10000000475E-02 0.  1.
</event>
<event>
 4   0  0.4809415E-02  0.9118800E+02  0.7818609E-02  0.1379984E+01
      -11   -1    0    0    0    0  0.00000000000E+00  0.00000000000E+00  0.35740347158E-01  0.35744000000E-01  0.51099999109E-03 0.  1.
       11   -1    0    0    0    0 -0.00000000000E+00 -0.00000000000E+00 -0.35740347158E-01  0.35744000000E-01  0.51099999109E-03 0. -1.
       22    1    1    2    0    0 -0.14549029460E-02  0.43856847527E-02 -0.35437023175E-01  0.35737005818E-01  0.00000000000E+00 0. -1.
  9000001    1    1    2    0    0  0.14549029460E-02 -0.43856847527E-02  0.35437023175E-01  0.35750994182E-01  0.10000000475E-02 0.  1.
</event>
<event>
 4   0  0.4809415E-02  0.9118800E+02  0.7818609E-02  0.1379984E+01
      -11   -1    0    0    0    0  0.00000000000E+00  0.00000000000E+00  0.35740347158E-01  0.35744000000E-01  0.51099999109E-03 0. -1.
       11   -1    0    0    0    0 -0.00000000000E+00 -0.00000000000E+00 -0.35740347158E-01  0.35744000000E-01  0.51099999109E-03 0.  1.
       22    1    1    2    0    0 -0.50575710391E-02 -0.78953358279E-02 -0.34485043602E-01  0.35737005818E-01  0.00000000000E+00 0.  1.
  9000001    1    1    2    0    0  0.50575710391E-02  0.78953358279E-02  0.34485043602E-01  0.35750994182E-01  0.10000000475E-02 0. -1.
</event>
<event>
 4   0  0.4809415E-02  0.9118800E+02  0.7818609E-02  0.1379984E+01
      -11   -1    0    0    0    0  0.00000000000E+00  0.00000000000E+00  0.35740347158E-01  0.35744000000E-01  0.51099999109E-03 0.  1.
       11   -1    0    0    0    0 -0.00000000000E+00 -0.00000000000E+00 -0.35740347158E-01  0.35744000000E-01  0.51099999109E-03 0. -1.
       22    1    1    2    0    0  0.30522874544E-01 -0.10035396320E-01 -0.15645399808E-01  0.35737005818E-01  0.00000000000E+00 0. -1.
  9000001    1    1    2    0    0 -0.30522874544E-01  0.10035396320E-01  0.15645399808E-01  0.35750994182E-01  0.10000000475E-02 0.  1.
</event>
<event>
 4   0  0.4809415E-02  0.9118800E+02  0.7818609E-02  0.1379984E+01
      -11   -1    0    0    0    0  0.00000000000E+00  0.00000000000E+00  0.35740347158E-01  0.35744000000E-01  0.51099999109E-03 0. -1.
       11   -1    0    0    0    0 -0.00000000000E+00 -0.00000000000E+00 -0.35740347158E-01  0.35744000000E-01  0.51099999109E-03 0.  1.
       22    1    1    2    0    0 -0.21340078204E-02  0.24397090360E-01  0.26026171010E-01  0.35737005818E-01  0.00000000000E+00 0. -1.
  9000001    1    1    2    0    0  0.21340078204E-02 -0.24397090360E-01 -0.26026171010E-01  0.35750994182E-01  0.10000000475E-02 0.  1.
</event>
<event>
 4   0  0.4809415E-02  0.9118800E+02  0.7818609E-02  0.1379984E+01
      -11   -1    0    0    0    0  0.00000000000E+00  0.00000000000E+00  0.35740347158E-01  0.35744000000E-01  0.51099999109E-03 0.  1.
       11   -1    0    0    0    0 -0.00000000000E+00 -0.00000000000E+00 -0.35740347158E-01  0.35744000000E-01  0.51099999109E-03 0. -1.
       22    1    1    2    0    0  0.53842673789E-02 -0.54492707888E-02  0.34906284499E-01  0.35737005818E-01  0.00000000000E+00 0.  1.
  9000001    1    1    2    0    0 -0.53842673789E-02  0.54492707888E-02 -0.34906284499E-01  0.35750994182E-01  0.10000000475E-02 0. -1.
</event>
<event>
 4   0  0.4809415E-02  0.9118800E+02  0.7818609E-02  0.1379984E+01
      -11   -1    0    0    0    0  0.00000000000E+00  0.00000000000E+00  0.35740347158E-01  0.35744000000E-01  0.51099999109E-03 0. -1.
       11   -1    0    0    0    0 -0.00000000000E+00 -0.00000000000E+00 -0.35740347158E-01  0.35744000000E-01  0.51099999109E-03 0.  1.
       22    1    1    2    0    0  0.10214622167E-01  0.10879910104E-01 -0.32471874522E-01  0.35737005818E-01  0.00000000000E+00 0.  1.
  9000001    1    1    2    0    0 -0.10214622167E-01 -0.10879910104E-01  0.32471874522E-01  0.35750994182E-01  0.10000000475E-02 0. -1.
</event>
<event>
 4   0  0.4809415E-02  0.9118800E+02  0.7818609E-02  0.1379984E+01
      -11   -1    0    0    0    0  0.00000000000E+00  0.00000000000E+00  0.35740347158E-01  0.35744000000E-01  0.51099999109E-03 0.  1.
       11   -1    0    0    0    0 -0.00000000000E+00 -0.00000000000E+00 -0.35740347158E-01  0.35744000000E-01  0.51099999109E-03 0. -1.
       22    1    1    2    0    0 -0.24461009666E-02  0.25408886861E-02 -0.35562537306E-01  0.35737005818E-01  0.00000000000E+00 0. -1.
  9000001    1    1    2    0    0  0.24461009666E-02 -0.25408886861E-02  0.35562537306E-01  0.35750994182E-01  0.10000000475E-02 0.  1.
</event>
<event>
 4   0  0.4809415E-02  0.9118800E+02  0.7818609E-02  0.1379984E+01
      -11   -1    0    0    0    0  0.00000000000E+00  0.00000000000E+00  0.35740347158E-01  0.35744000000E-01  0.51099999109E-03 0.  1.
       11   -1    0    0    0    0 -0.00000000000E+00 -0.00000000000E+00 -0.35740347158E-01  0.35744000000E-01  0.51099999109E-03 0. -1.
       22    1    1    2    0    0 -0.14727624281E-02  0.39032049416E-02 -0.35492668917E-01  0.35737005818E-01  0.00000000000E+00 0. -1.
  9000001    1    1    2    0    0  0.14727624281E-02 -0.39032049416E-02  0.35492668917E-01  0.35750994182E-01  0.10000000475E-02 0.  1.
</event>
<event>
 4   0  0.4809415E-02  0.9118800E+02  0.7818609E-02  0.1379984E+01
      -11   -1    0    0    0    0  0.00000000000E+00  0.00000000000E+00  0.35740347158E-01  0.35744000000E-01  0.51099999109E-03 0. -1.
       11   -1    0    0    0    0 -0.00000000000E+00 -0.00000000000E+00 -0.35740347158E-01  0.35744000000E-01  0.51099999109E-03 0.  1.
       22    1    1    2    0    0 -0.39590655288E-02 -0.47589665146E-03 -0.35513841068E-01  0.35737005818E-01  0.00000000000E+00 0.  1.
  9000001    1    1    2    0    0  0.39590655288E-02  0.47589665146E-03  0.35513841068E-01  0.35750994182E-01  0.10000000475E-02 0. -1.
</event>
<event>
 4   0  0.4809415E-02  0.9118800E+02  0.7818609E-02  0.1379984E+01
      -11   -1    0    0    0    0  0.00000000000E+00  0.00000000000E+00  0.35740347158E-01  0.35744000000E-01  0.51099999109E-03 0. -1.
       11   -1    0    0    0    0 -0.00000000000E+00 -0.00000000000E+00 -0.35740347158E-01  0.35744000000E-01  0.51099999109E-03 0.  1.
       22    1    1    2    0    0  0.26198259496E-01  0.23229494499E-01 -0.71536962178E-02  0.35737005818E-01  0.00000000000E+00 0. -1.
  9000001    1    1    2    0    0 -0.26198259496E-01 -0.23229494499E-01  0.71536962178E-02  0.35750994182E-01  0.10000000475E-02 0.  1.
</event>
<event>
 4   0  0.4809415E-02  0.9118800E+02  0.7818609E-02  0.1379984E+01
      -11   -1    0    0    0    0  0.00000000000E+00  0.00000000000E+00  0.35740347158E-01  0.35744000000E-01  0.51099999109E-03 0. -1.
       11   -1    0    0    0    0 -0.00000000000E+00 -0.00000000000E+00 -0.35740347158E-01  0.35744000000E-01  0.51099999109E-03 0.  1.
       22    1    1    2    0    0  0.59741020102E-03 -0.78026162344E-02 -0.34869698390E-01  0.35737005818E-01  0.00000000000E+00 0.  1.
  9000001    1    1    2    0    0 -0.59741020102E-03  0.78026162344E-02  0.34869698390E-01  0.35750994182E-01  0.10000000475E-02 0. -1.
</event>
<event>
 4   0  0.4809415E-02  0.9118800E+02  0.7818609E-02  0.1379984E+01
      -11   -1    0    0    0    0  0.00000000000E+00  0.00000000000E+00  0.35740347158E-01  0.35744000000E-01  0.51099999109E-03 0.  1.
       11   -1    0    0    0    0 -0.00000000000E+00 -0.00000000000E+00 -0.35740347158E-01  0.35744000000E-01  0.51099999109E-03 0. -1.
       22    1    1    2    0    0  0.21537497115E-02 -0.31448254244E-01 -0.16837525116E-01  0.35737005818E-01  0.00000000000E+00 0. -1.
  9000001    1    1    2    0    0 -0.21537497115E-02  0.31448254244E-01  0.16837525116E-01  0.35750994182E-01  0.10000000475E-02 0.  1.
</event>
<event>
 4   0  0.4809415E-02  0.9118800E+02  0.7818609E-02  0.1379984E+01
      -11   -1    0    0    0    0  0.00000000000E+00  0.00000000000E+00  0.35740347158E-01  0.35744000000E-01  0.51099999109E-03 0.  1.
       11   -1    0    0    0    0 -0.00000000000E+00 -0.00000000000E+00 -0.35740347158E-01  0.35744000000E-01  0.51099999109E-03 0. -1.
       22    1    1    2    0    0  0.54522656696E-03  0.81974525597E-02 -0.34779851702E-01  0.35737005818E-01  0.00000000000E+00 0. -1.
  9000001    1    1    2    0    0 -0.54522656696E-03 -0.81974525597E-02  0.34779851702E-01  0.35750994182E-01  0.10000000475E-02 0.  1.
</event>
<event>
 4   0  0.4809415E-02  0.9118800E+02  0.7818609E-02  0.1379984E+01
      -11   -1    0    0    0    0  0.00000000000E+00  0.00000000000E+00  0.35740347158E-01  0.35744000000E-01  0.51099999109E-03 0.  1.
       11   -1    0    0    0    0 -0.00000000000E+00 -0.00000000000E+00 -0.35740347158E-01  0.35744000000E-01  0.51099999109E-03 0. -1.
       22    1    1    2    0    0  0.60426994839E-03 -0.34594694284E-02  0.35564033995E-01  0.35737005818E-01  0.00000000000E+00 0.  1.
  9000001    1    1    2    0    0 -0.60426994839E-03  0.34594694284E-02 -0.35564033995E-01  0.35750994182E-01  0.10000000475E-02 0. -1.
</event>
<event>
 4   0  0.4809415E-02  0.9118800E+02  0.7818609E-02  0.1379984E+01
      -11   -1    0    0    0    0  0.00000000000E+00  0.00000000000E+00  0.35740347158E-01  0.35744000000E-01  0.51099999109E-03 0.  1.
       11   -1    0    0    0    0 -0.00000000000E+00 -0.00000000000E+00 -0.35740347158E-01  0.35744000000E-01  0.51099999109E-03 0. -1.
       22    1    1    2    0    0  0.16186063972E-01  0.31346979915E-01  0.57019091669E-02  0.35737005818E-01  0.00000000000E+00 0.  1.
  9000001    1    1    2    0    0 -0.16186063972E-01 -0.31346979915E-01 -0.57019091669E-02  0.35750994182E-01  0.10000000475E-02 0. -1.
</event>
<event>
 4   0  0.4809415E-02  0.9118800E+02  0.7818609E-02  0.1379984E+01
      -11   -1    0    0    0    0  0.00000000000E+00  0.00000000000E+00  0.35740347158E-01  0.35744000000E-01  0.51099999109E-03 0.  1.
       11   -1    0    0    0    0 -0.00000000000E+00 -0.00000000000E+00 -0.35740347158E-01  0.35744000000E-01  0.51099999109E-03 0. -1.
       22    1    1    2    0    0 -0.11919778361E-02  0.70731407515E-02 -0.35009762262E-01  0.35737005818E-01  0.00000000000E+00 0. -1.
  9000001    1    1    2    0    0  0.11919778361E-02 -0.70731407515E-02  0.35009762262E-01  0.35750994182E-01  0.10000000475E-02 0.  1.
</event>
<event>
 4   0  0.4809415E-02  0.9118800E+02  0.7818609E-02  0.1379984E+01
      -11   -1    0    0    0    0  0.00000000000E+00  0.00000000000E+00  0.35740347158E-01  0.35744000000E-01  0.51099999109E-03 0. -1.
       11   -1    0    0    0    0 -0.00000000000E+00 -0.00000000000E+00 -0.35740347158E-01  0.35744000000E-01  0.51099999109E-03 0.  1.
       22    1    1    2    0    0  0.17121348395E-01  0.25238589064E-01  0.18628114130E-01  0.35737005818E-01  0.00000000000E+00 0. -1.
  9000001    1    1    2    0    0 -0.17121348395E-01 -0.25238589064E-01 -0.18628114130E-01  0.35750994182E-01  0.10000000475E-02 0.  1.
</event>
<event>
 4   0  0.4809415E-02  0.9118800E+02  0.7818609E-02  0.1379984E+01
      -11   -1    0    0    0    0  0.00000000000E+00  0.00000000000E+00  0.35740347158E-01  0.35744000000E-01  0.51099999109E-03 0.  1.
       11   -1    0    0    0    0 -0.00000000000E+00 -0.00000000000E+00 -0.35740347158E-01  0.35744000000E-01  0.51099999109E-03 0. -1.
       22    1    1    2    0    0 -0.11143356966E-02  0.39253524018E-02 -0.35503287867E-01  0.35737005818E-01  0.00000000000E+00 0. -1.
  9000001    1    1    2    0    0  0.11143356966E-02 -0.39253524018E-02  0.35503287867E-01  0.35750994182E-01  0.10000000475E-02 0.  1.
</event>
<event>
 4   0  0.4809415E-02  0.9118800E+02  0.7818609E-02  0.1379984E+01
      -11   -1    0    0    0    0  0.00000000000E+00  0.00000000000E+00  0.35740347158E-01  0.35744000000E-01  0.51099999109E-03 0.  1.
       11   -1    0    0    0    0 -0.00000000000E+00 -0.00000000000E+00 -0.35740347158E-01  0.35744000000E-01  0.51099999109E-03 0. -1.
       22    1    1    2    0    0 -0.24871815198E-02  0.29803635248E-02  0.35525553426E-01  0.35737005818E-01  0.00000000000E+00 0.  1.
  9000001    1    1    2    0    0  0.24871815198E-02 -0.29803635248E-02 -0.35525553426E-01  0.35750994182E-01  0.10000000475E-02 0. -1.
</event>
<event>
 4   0  0.4809415E-02  0.9118800E+02  0.7818609E-02  0.1379984E+01
      -11   -1    0    0    0    0  0.00000000000E+00  0.00000000000E+00  0.35740347158E-01  0.35744000000E-01  0.51099999109E-03 0. -1.
       11   -1    0    0    0    0 -0.00000000000E+00 -0.00000000000E+00 -0.35740347158E-01  0.35744000000E-01  0.51099999109E-03 0.  1.
       22    1    1    2    0    0  0.77787827095E-04  0.42176709760E-02  0.35487163672E-01  0.35737005818E-01  0.00000000000E+00 0. -1.
  9000001    1    1    2    0    0 -0.77787827095E-04 -0.42176709760E-02 -0.35487163672E-01  0.35750994182E-01  0.10000000475E-02 0.  1.
</event>
<event>
 4   0  0.4809415E-02  0.9118800E+02  0.7818609E-02  0.1379984E+01
      -11   -1    0    0    0    0  0.00000000000E+00  0.00000000000E+00  0.35740347158E-01  0.35744000000E-01  0.51099999109E-03 0. -1.
       11   -1    0    0    0    0 -0.00000000000E+00 -0.00000000000E+00 -0.35740347158E-01  0.35744000000E-01  0.51099999109E-03 0.  1.
       22    1    1    2    0    0  0.24064952482E-02  0.45400032339E-02  0.35365671719E-01  0.35737005818E-01  0.00000000000E+00 0. -1.
  9000001    1    1    2    0    0 -0.24064952482E-02 -0.45400032339E-02 -0.35365671719E-01  0.35750994182E-01  0.10000000475E-02 0.  1.
</event>
<event>
 4   0  0.4809415E-02  0.9118800E+02  0.7818609E-02  0.1379984E+01
      -11   -1    0    0    0    0  0.00000000000E+00  0.00000000000E+00  0.35740347158E-01  0.35744000000E-01  0.51099999109E-03 0.  1.
       11   -1    0    0    0    0 -0.00000000000E+00 -0.00000000000E+00 -0.35740347158E-01  0.35744000000E-01  0.51099999109E-03 0. -1.
       22    1    1    2    0    0  0.26649025700E-02 -0.17404998794E-01  0.31098197635E-01  0.35737005818E-01  0.00000000000E+00 0.  1.
  9000001    1    1    2    0    0 -0.26649025700E-02  0.17404998794E-01 -0.31098197635E-01  0.35750994182E-01  0.10000000475E-02 0. -1.
</event>
<event>
 4   0  0.4809415E-02  0.9118800E+02  0.7818609E-02  0.1379984E+01
      -11   -1    0    0    0    0  0.00000000000E+00  0.00000000000E+00  0.35740347158E-01  0.35744000000E-01  0.51099999109E-03 0.  1.
       11   -1    0    0    0    0 -0.00000000000E+00 -0.00000000000E+00 -0.35740347158E-01  0.35744000000E-01  0.51099999109E-03 0. -1.
       22    1    1    2    0    0  0.75444644906E-02  0.25434868085E-01  0.23943310672E-01  0.35737005818E-01  0.00000000000E+00 0.  1.
  9000001    1    1    2    0    0 -0.75444644906E-02 -0.25434868085E-01 -0.23943310672E-01  0.35750994182E-01  0.10000000475E-02 0. -1.
</event>
<event>
 4   0  0.4809415E-02  0.9118800E+02  0.7818609E-02  0.1379984E+01
      -11   -1    0    0    0    0  0.00000000000E+00  0.00000000000E+00  0.35740347158E-01  0.35744000000E-01  0.51099999109E-03 0. -1.
       11   -1    0    0    0    0 -0.00000000000E+00 -0.00000000000E+00 -0.35740347158E-01  0.35744000000E-01  0.51099999109E-03 0.  1.
       22    1    1    2    0    0  0.22411407295E-02  0.26276327472E-02 -0.35569740219E-01  0.35737005818E-01  0.00000000000E+00 0.  1.
  9000001    1    1    2    0    0 -0.22411407295E-02 -0.26276327472E-02  0.35569740219E-01  0.35750994182E-01  0.10000000475E-02 0. -1.
</event>
<event>
 4   0  0.4809415E-02  0.9118800E+02  0.7818609E-02  0.1379984E+01
      -11   -1    0    0    0    0  0.00000000000E+00  0.00000000000E+00  0.35740347158E-01  0.35744000000E-01  0.51099999109E-03 0.  1.
       11   -1    0    0    0    0 -0.00000000000E+00 -0.00000000000E+00 -0.35740347158E-01  0.35744000000E-01  0.51099999109E-03 0. -1.
       22    1    1    2    0    0  0.37137461450E-02  0.41503236044E-03  0.35541094842E-01  0.35737005818E-01  0.00000000000E+00 0.  1.
  9000001    1    1    2    0    0 -0.37137461450E-02 -0.41503236044E-03 -0.35541094842E-01  0.35750994182E-01  0.10000000475E-02 0. -1.
</event>
<event>
 4   0  0.4809415E-02  0.9118800E+02  0.7818609E-02  0.1379984E+01
      -11   -1    0    0    0    0  0.00000000000E+00  0.00000000000E+00  0.35740347158E-01  0.35744000000E-01  0.51099999109E-03 0. -1.
       11   -1    0    0    0    0 -0.00000000000E+00 -0.00000000000E+00 -0.35740347158E-01  0.35744000000E-01  0.51099999109E-03 0.  1.
       22    1    1    2    0    0 -0.66662074786E-02 -0.49891771974E-02  0.34753465635E-01  0.35737005818E-01  0.00000000000E+00 0. -1.
  9000001    1    1    2    0    0  0.66662074786E-02  0.49891771974E-02 -0.34753465635E-01  0.35750994182E-01  0.10000000475E-02 0.  1.
</event>
<event>
 4   0  0.4809415E-02  0.9118800E+02  0.7818609E-02  0.1379984E+01
      -11   -1    0    0    0    0  0.00000000000E+00  0.00000000000E+00  0.35740347158E-01  0.35744000000E-01  0.51099999109E-03 0.  1.
       11   -1    0    0    0    0 -0.00000000000E+00 -0.00000000000E+00 -0.35740347158E-01  0.35744000000E-01  0.51099999109E-03 0. -1.
       22    1    1    2    0    0  0.11975056596E-01  0.88756058819E-02 -0.32480074271E-01  0.35737005818E-01  0.00000000000E+00 0. -1.
  9000001    1    1    2    0    0 -0.11975056596E-01 -0.88756058819E-02  0.32480074271E-01  0.35750994182E-01  0.10000000475E-02 0.  1.
</event>
<event>
 4   0  0.4809415E-02  0.9118800E+02  0.7818609E-02  0.1379984E+01
      -11   -1    0    0    0    0  0.00000000000E+00  0.00000000000E+00  0.35740347158E-01  0.35744000000E-01  0.51099999109E-03 0.  1.
       11   -1    0    0    0    0 -0.00000000000E+00 -0.00000000000E+00 -0.35740347158E-01  0.35744000000E-01  0.51099999109E-03 0. -1.
       22    1    1    2    0    0  0.95633601355E-02  0.10365269881E-02 -0.34418037997E-01  0.35737005818E-01  0.00000000000E+00 0. -1.
  9000001    1    1    2    0    0 -0.95633601355E-02 -0.10365269881E-02  0.34418037997E-01  0.35750994182E-01  0.10000000475E-02 0.  1.
</event>
<event>
 4   0  0.4809415E-02  0.9118800E+02  0.7818609E-02  0.1379984E+01
      -11   -1    0    0    0    0  0.00000000000E+00  0.00000000000E+00  0.35740347158E-01  0.35744000000E-01  0.51099999109E-03 0.  1.
       11   -1    0    0    0    0 -0.00000000000E+00 -0.00000000000E+00 -0.35740347158E-01  0.35744000000E-01  0.51099999109E-03 0. -1.
       22    1    1    2    0    0 -0.26249312750E-01 -0.22425433698E-01  0.92307685767E-02  0.35737005818E-01  0.00000000000E+00 0.  1.
  9000001    1    1    2    0    0  0.26249312750E-01  0.22425433698E-01 -0.92307685767E-02  0.35750994182E-01  0.10000000475E-02 0. -1.
</event>
<event>
 4   0  0.4809415E-02  0.9118800E+02  0.7818609E-02  0.1379984E+01
      -11   -1    0    0    0    0  0.00000000000E+00  0.00000000000E+00  0.35740347158E-01  0.35744000000E-01  0.51099999109E-03 0. -1.
       11   -1    0    0    0    0 -0.00000000000E+00 -0.00000000000E+00 -0.35740347158E-01  0.35744000000E-01  0.51099999109E-03 0.  1.
       22    1    1    2    0    0  0.78500815894E-02  0.39337138284E-02 -0.34641531424E-01  0.35737005818E-01  0.00000000000E+00 0.  1.
  9000001    1    1    2    0    0 -0.78500815894E-02 -0.39337138284E-02  0.34641531424E-01  0.35750994182E-01  0.10000000475E-02 0. -1.
</event>
<event>
 4   0  0.4809415E-02  0.9118800E+02  0.7818609E-02  0.1379984E+01
      -11   -1    0    0    0    0  0.00000000000E+00  0.00000000000E+00  0.35740347158E-01  0.35744000000E-01  0.51099999109E-03 0.  1.
       11   -1    0    0    0    0 -0.00000000000E+00 -0.00000000000E+00 -0.35740347158E-01  0.35744000000E-01  0.51099999109E-03 0. -1.
       22    1    1    2    0    0  0.81616093695E-02 -0.28272848775E-02 -0.34677488052E-01  0.35737005818E-01  0.00000000000E+00 0. -1.
  9000001    1    1    2    0    0 -0.81616093695E-02  0.28272848775E-02  0.34677488052E-01  0.35750994182E-01  0.10000000475E-02 0.  1.
</event>
<event>
 4   0  0.4809415E-02  0.9118800E+02  0.7818609E-02  0.1379984E+01
      -11   -1    0    0    0    0  0.00000000000E+00  0.00000000000E+00  0.35740347158E-01  0.35744000000E-01  0.51099999109E-03 0. -1.
       11   -1    0    0    0    0 -0.00000000000E+00 -0.00000000000E+00 -0.35740347158E-01  0.35744000000E-01  0.51099999109E-03 0.  1.
       22    1    1    2    0    0  0.19395645940E-01 -0.25937803814E-01  0.15105390983E-01  0.35737005818E-01  0.00000000000E+00 0. -1.
  9000001    1    1    2    0    0 -0.19395645940E-01  0.25937803814E-01 -0.15105390983E-01  0.35750994182E-01  0.10000000475E-02 0.  1.
</event>
<event>
 4   0  0.4809415E-02  0.9118800E+02  0.7818609E-02  0.1379984E+01
      -11   -1    0    0    0    0  0.00000000000E+00  0.00000000000E+00  0.35740347158E-01  0.35744000000E-01  0.51099999109E-03 0.  1.
       11   -1    0    0    0    0 -0.00000000000E+00 -0.00000000000E+00 -0.35740347158E-01  0.35744000000E-01  0.51099999109E-03 0. -1.
       22    1    1    2    0    0  0.85066658583E-02 -0.20889864043E-01 -0.27719736671E-01  0.35737005818E-01  0.00000000000E+00 0. -1.
  9000001    1    1    2    0    0 -0.85066658583E-02  0.20889864043E-01  0.27719736671E-01  0.35750994182E-01  0.10000000475E-02 0.  1.
</event>
<event>
 4   0  0.4809415E-02  0.9118800E+02  0.7818609E-02  0.1379984E+01
      -11   -1    0    0    0    0  0.00000000000E+00  0.00000000000E+00  0.35740347158E-01  0.35744000000E-01  0.51099999109E-03 0.  1.
       11   -1    0    0    0    0 -0.00000000000E+00 -0.00000000000E+00 -0.35740347158E-01  0.35744000000E-01  0.51099999109E-03 0. -1.
       22    1    1    2    0    0  0.78724332153E-02 -0.39075783941E-02  0.34639417016E-01  0.35737005818E-01  0.00000000000E+00 0.  1.
  9000001    1    1    2    0    0 -0.78724332153E-02  0.39075783941E-02 -0.34639417016E-01  0.35750994182E-01  0.10000000475E-02 0. -1.
</event>
<event>
 4   0  0.4809415E-02  0.9118800E+02  0.7818609E-02  0.1379984E+01
      -11   -1    0    0    0    0  0.00000000000E+00  0.00000000000E+00  0.35740347158E-01  0.35744000000E-01  0.51099999109E-03 0.  1.
       11   -1    0    0    0    0 -0.00000000000E+00 -0.00000000000E+00 -0.35740347158E-01  0.35744000000E-01  0.51099999109E-03 0. -1.
       22    1    1    2    0    0  0.87904480132E-02 -0.81593313136E-03 -0.34629407470E-01  0.35737005818E-01  0.00000000000E+00 0. -1.
  9000001    1    1    2    0    0 -0.87904480132E-02  0.81593313136E-03  0.34629407470E-01  0.35750994182E-01  0.10000000475E-02 0.  1.
</event>
<event>
 4   0  0.4809415E-02  0.9118800E+02  0.7818609E-02  0.1379984E+01
      -11   -1    0    0    0    0  0.00000000000E+00  0.00000000000E+00  0.35740347158E-01  0.35744000000E-01  0.51099999109E-03 0.  1.
       11   -1    0    0    0    0 -0.00000000000E+00 -0.00000000000E+00 -0.35740347158E-01  0.35744000000E-01  0.51099999109E-03 0. -1.
       22    1    1    2    0    0  0.33201284269E-02 -0.64491029303E-02 -0.34993133662E-01  0.35737005818E-01  0.00000000000E+00 0. -1.
  9000001    1    1    2    0    0 -0.33201284269E-02  0.64491029303E-02  0.34993133662E-01  0.35750994182E-01  0.10000000475E-02 0.  1.
</event>
<event>
 4   0  0.4809415E-02  0.9118800E+02  0.7818609E-02  0.1379984E+01
      -11   -1    0    0    0    0  0.00000000000E+00  0.00000000000E+00  0.35740347158E-01  0.35744000000E-01  0.51099999109E-03 0.  1.
       11   -1    0    0    0    0 -0.00000000000E+00 -0.00000000000E+00 -0.35740347158E-01  0.35744000000E-01  0.51099999109E-03 0. -1.
       22    1    1    2    0    0  0.25527530567E-02  0.28462028314E-02 -0.35531903497E-01  0.35737005818E-01  0.00000000000E+00 0. -1.
  9000001    1    1    2    0    0 -0.25527530567E-02 -0.28462028314E-02  0.35531903497E-01  0.35750994182E-01  0.10000000475E-02 0.  1.
</event>
<event>
 4   0  0.4809415E-02  0.9118800E+02  0.7818609E-02  0.1379984E+01
      -11   -1    0    0    0    0  0.00000000000E+00  0.00000000000E+00  0.35740347158E-01  0.35744000000E-01  0.51099999109E-03 0. -1.
       11   -1    0    0    0    0 -0.00000000000E+00 -0.00000000000E+00 -0.35740347158E-01  0.35744000000E-01  0.51099999109E-03 0.  1.
       22    1    1    2    0    0  0.93921200679E-02 -0.88386200449E-02  0.33328673259E-01  0.35737005818E-01  0.00000000000E+00 0. -1.
  9000001    1    1    2    0    0 -0.93921200679E-02  0.88386200449E-02 -0.33328673259E-01  0.35750994182E-01  0.10000000475E-02 0.  1.
</event>
<event>
 4   0  0.4809415E-02  0.9118800E+02  0.7818609E-02  0.1379984E+01
      -11   -1    0    0    0    0  0.00000000000E+00  0.00000000000E+00  0.35740347158E-01  0.35744000000E-01  0.51099999109E-03 0.  1.
       11   -1    0    0    0    0 -0.00000000000E+00 -0.00000000000E+00 -0.35740347158E-01  0.35744000000E-01  0.51099999109E-03 0. -1.
       22    1    1    2    0    0 -0.92260565631E-02  0.68621921347E-03  0.34518727792E-01  0.35737005818E-01  0.00000000000E+00 0.  1.
  9000001    1    1    2    0    0  0.92260565631E-02 -0.68621921347E-03 -0.34518727792E-01  0.35750994182E-01  0.10000000475E-02 0. -1.
</event>
<event>
 4   0  0.4809415E-02  0.9118800E+02  0.7818609E-02  0.1379984E+01
      -11   -1    0    0    0    0  0.00000000000E+00  0.00000000000E+00  0.35740347158E-01  0.35744000000E-01  0.51099999109E-03 0. -1.
       11   -1    0    0    0    0 -0.00000000000E+00 -0.00000000000E+00 -0.35740347158E-01  0.35744000000E-01  0.51099999109E-03 0.  1.
       22    1    1    2    0    0  0.31464021678E-02  0.27904190331E-02 -0.35488692564E-01  0.35737005818E-01  0.00000000000E+00 0.  1.
  9000001    1    1    2    0    0 -0.31464021678E-02 -0.27904190331E-02  0.35488692564E-01  0.35750994182E-01  0.10000000475E-02 0. -1.
</event>
<event>
 4   0  0.4809415E-02  0.9118800E+02  0.7818609E-02  0.1379984E+01
      -11   -1    0    0    0    0  0.00000000000E+00  0.00000000000E+00  0.35740347158E-01  0.35744000000E-01  0.51099999109E-03 0.  1.
       11   -1    0    0    0    0 -0.00000000000E+00 -0.00000000000E+00 -0.35740347158E-01  0.35744000000E-01  0.51099999109E-03 0. -1.
       22    1    1    2    0    0  0.64191608772E-02 -0.17150778309E-02 -0.35113907025E-01  0.35737005818E-01  0.00000000000E+00 0. -1.
  9000001    1    1    2    0    0 -0.64191608772E-02  0.17150778309E-02  0.35113907025E-01  0.35750994182E-01  0.10000000475E-02 0.  1.
</event>
<event>
 4   0  0.4809415E-02  0.9118800E+02  0.7818609E-02  0.1379984E+01
      -11   -1    0    0    0    0  0.00000000000E+00  0.00000000000E+00  0.35740347158E-01  0.35744000000E-01  0.51099999109E-03 0.  1.
       11   -1    0    0    0    0 -0.00000000000E+00 -0.00000000000E+00 -0.35740347158E-01  0.35744000000E-01  0.51099999109E-03 0. -1.
       22    1    1    2    0    0  0.64231257294E-02  0.46413252662E-02 -0.34847311812E-01  0.35737005818E-01  0.00000000000E+00 0. -1.
  9000001    1    1    2    0    0 -0.64231257294E-02 -0.46413252662E-02  0.34847311812E-01  0.35750994182E-01  0.10000000475E-02 0.  1.
</event>
<event>
 4   0  0.4809415E-02  0.9118800E+02  0.7818609E-02  0.1379984E+01
      -11   -1    0    0    0    0  0.00000000000E+00  0.00000000000E+00  0.35740347158E-01  0.35744000000E-01  0.51099999109E-03 0.  1.
       11   -1    0    0    0    0 -0.00000000000E+00 -0.00000000000E+00 -0.35740347158E-01  0.35744000000E-01  0.51099999109E-03 0. -1.
       22    1    1    2    0    0 -0.23711948531E-01  0.15610148475E-01  0.21707149659E-01  0.35737005818E-01  0.00000000000E+00 0.  1.
  9000001    1    1    2    0    0  0.23711948531E-01 -0.15610148475E-01 -0.21707149659E-01  0.35750994182E-01  0.10000000475E-02 0. -1.
</event>
<event>
 4   0  0.4809415E-02  0.9118800E+02  0.7818609E-02  0.1379984E+01
      -11   -1    0    0    0    0  0.00000000000E+00  0.00000000000E+00  0.35740347158E-01  0.35744000000E-01  0.51099999109E-03 0.  1.
       11   -1    0    0    0    0 -0.00000000000E+00 -0.00000000000E+00 -0.35740347158E-01  0.35744000000E-01  0.51099999109E-03 0. -1.
       22    1    1    2    0    0  0.13083173774E-01 -0.82024174606E-02  0.32228628526E-01  0.35737005818E-01  0.00000000000E+00 0.  1.
  9000001    1    1    2    0    0 -0.13083173774E-01  0.82024174606E-02 -0.32228628526E-01  0.35750994182E-01  0.10000000475E-02 0. -1.
</event>
<event>
 4   0  0.4809415E-02  0.9118800E+02  0.7818609E-02  0.1379984E+01
      -11   -1    0    0    0    0  0.00000000000E+00  0.00000000000E+00  0.35740347158E-01  0.35744000000E-01  0.51099999109E-03 0. -1.
       11   -1    0    0    0    0 -0.00000000000E+00 -0.00000000000E+00 -0.35740347158E-01  0.35744000000E-01  0.51099999109E-03 0.  1.
       22    1    1    2    0    0 -0.51602103390E-02 -0.13465628791E-02 -0.35336844547E-01  0.35737005818E-01  0.00000000000E+00 0.  1.
  9000001    1    1    2    0    0  0.51602103390E-02  0.13465628791E-02  0.35336844547E-01  0.35750994182E-01  0.10000000475E-02 0. -1.
</event>
<event>
 4   0  0.4809415E-02  0.9118800E+02  0.7818609E-02  0.1379984E+01
      -11   -1    0    0    0    0  0.00000000000E+00  0.00000000000E+00  0.35740347158E-01  0.35744000000E-01  0.51099999109E-03 0.  1.
       11   -1    0    0    0    0 -0.00000000000E+00 -0.00000000000E+00 -0.35740347158E-01  0.35744000000E-01  0.51099999109E-03 0. -1.
       22    1    1    2    0    0  0.27970037818E-02 -0.14334353568E-02 -0.35598533928E-01  0.35737005818E-01  0.00000000000E+00 0. -1.
  9000001    1    1    2    0    0 -0.27970037818E-02  0.14334353568E-02  0.35598533928E-01  0.35750994182E-01  0.10000000475E-02 0.  1.
</event>
<event>
 4   0  0.4809415E-02  0.9118800E+02  0.7818609E-02  0.1379984E+01
      -11   -1    0    0    0    0  0.00000000000E+00  0.00000000000E+00  0.35740347158E-01  0.35744000000E-01  0.51099999109E-03 0.  1.
       11   -1    0    0    0    0 -0.00000000000E+00 -0.00000000000E+00 -0.35740347158E-01  0.35744000000E-01  0.51099999109E-03 0. -1.
       22    1    1    2    0    0  0.25345292638E-02  0.30581417928E-02 -0.35515595378E-01  0.35737005818E-01  0.00000000000E+00 0. -1.
  9000001    1    1    2    0    0 -0.25345292638E-02 -0.30581417928E-02  0.35515595378E-01  0.35750994182E-01  0.10000000475E-02 0.  1.
</event>
<event>
 4   0  0.4809415E-02  0.9118800E+02  0.7818609E-02  0.1379984E+01
      -11   -1    0    0    0    0  0.00000000000E+00  0.00000000000E+00  0.35740347158E-01  0.35744000000E-01  0.51099999109E-03 0.  1.
       11   -1    0    0    0    0 -0.00000000000E+00 -0.00000000000E+00 -0.35740347158E-01  0.35744000000E-01  0.51099999109E-03 0. -1.
       22    1    1    2    0    0 -0.22006708805E-04  0.50349437435E-02  0.35380537617E-01  0.35737005818E-01  0.00000000000E+00 0.  1.
  9000001    1    1    2    0    0  0.22006708805E-04 -0.50349437435E-02 -0.35380537617E-01  0.35750994182E-01  0.10000000475E-02 0. -1.
</event>
<event>
 4   0  0.4809415E-02  0.9118800E+02  0.7818609E-02  0.1379984E+01
      -11   -1    0    0    0    0  0.00000000000E+00  0.00000000000E+00  0.35740347158E-01  0.35744000000E-01  0.51099999109E-03 0. -1.
       11   -1    0    0    0    0 -0.00000000000E+00 -0.00000000000E+00 -0.35740347158E-01  0.35744000000E-01  0.51099999109E-03 0.  1.
       22    1    1    2    0    0 -0.40891020416E-02 -0.36184379414E-03 -0.35500449271E-01  0.35737005818E-01  0.00000000000E+00 0.  1.
  9000001    1    1    2    0    0  0.40891020416E-02  0.36184379414E-03  0.35500449271E-01  0.35750994182E-01  0.10000000475E-02 0. -1.
</event>
<event>
 4   0  0.4809415E-02  0.9118800E+02  0.7818609E-02  0.1379984E+01
      -11   -1    0    0    0    0  0.00000000000E+00  0.00000000000E+00  0.35740347158E-01  0.35744000000E-01  0.51099999109E-03 0. -1.
       11   -1    0    0    0    0 -0.00000000000E+00 -0.00000000000E+00 -0.35740347158E-01  0.35744000000E-01  0.51099999109E-03 0.  1.
       22    1    1    2    0    0 -0.26310660695E-02 -0.49119461501E-02 -0.35299913048E-01  0.35737005818E-01  0.00000000000E+00 0.  1.
  9000001    1    1    2    0    0  0.26310660695E-02  0.49119461501E-02  0.35299913048E-01  0.35750994182E-01  0.10000000475E-02 0. -1.
</event>
<event>
 4   0  0.4809415E-02  0.9118800E+02  0.7818609E-02  0.1379984E+01
      -11   -1    0    0    0    0  0.00000000000E+00  0.00000000000E+00  0.35740347158E-01  0.35744000000E-01  0.51099999109E-03 0.  1.
       11   -1    0    0    0    0 -0.00000000000E+00 -0.00000000000E+00 -0.35740347158E-01  0.35744000000E-01  0.51099999109E-03 0. -1.
       22    1    1    2    0    0  0.27397515074E-02  0.22846600034E-02  0.35558510588E-01  0.35737005818E-01  0.00000000000E+00 0.  1.
  9000001    1    1    2    0    0 -0.27397515074E-02 -0.22846600034E-02 -0.35558510588E-01  0.35750994182E-01  0.10000000475E-02 0. -1.
</event>
<event>
 4   0  0.4809415E-02  0.9118800E+02  0.7818609E-02  0.1379984E+01
      -11   -1    0    0    0    0  0.00000000000E+00  0.00000000000E+00  0.35740347158E-01  0.35744000000E-01  0.51099999109E-03 0. -1.
       11   -1    0    0    0    0 -0.00000000000E+00 -0.00000000000E+00 -0.35740347158E-01  0.35744000000E-01  0.51099999109E-03 0.  1.
       22    1    1    2    0    0 -0.24967539885E-02 -0.33613164649E-01  0.11876656377E-01  0.35737005818E-01  0.00000000000E+00 0.  1.
  9000001    1    1    2    0    0  0.24967539885E-02  0.33613164649E-01 -0.11876656377E-01  0.35750994182E-01  0.10000000475E-02 0. -1.
</event>
<event>
 4   0  0.4809415E-02  0.9118800E+02  0.7818609E-02  0.1379984E+01
      -11   -1    0    0    0    0  0.00000000000E+00  0.00000000000E+00  0.35740347158E-01  0.35744000000E-01  0.51099999109E-03 0.  1.
       11   -1    0    0    0    0 -0.00000000000E+00 -0.00000000000E+00 -0.35740347158E-01  0.35744000000E-01  0.51099999109E-03 0. -1.
       22    1    1    2    0    0  0.46165997197E-02  0.36187455877E-02 -0.35252308751E-01  0.35737005818E-01  0.00000000000E+00 0. -1.
  9000001    1    1    2    0    0 -0.46165997197E-02 -0.36187455877E-02  0.35252308751E-01  0.35750994182E-01  0.10000000475E-02 0.  1.
</event>
<event>
 4   0  0.4809415E-02  0.9118800E+02  0.7818609E-02  0.1379984E+01
      -11   -1    0    0    0    0  0.00000000000E+00  0.00000000000E+00  0.35740347158E-01  0.35744000000E-01  0.51099999109E-03 0. -1.
       11   -1    0    0    0    0 -0.00000000000E+00 -0.00000000000E+00 -0.35740347158E-01  0.35744000000E-01  0.51099999109E-03 0.  1.
       22    1    1    2    0    0 -0.15641794993E-01  0.27887826637E-01 -0.15960481187E-01  0.35737005818E-01  0.00000000000E+00 0.  1.
  9000001    1    1    2    0    0  0.15641794993E-01 -0.27887826637E-01  0.15960481187E-01  0.35750994182E-01  0.10000000475E-02 0. -1.
</event>
<event>
 4   0  0.4809415E-02  0.9118800E+02  0.7818609E-02  0.1379984E+01
      -11   -1    0    0    0    0  0.00000000000E+00  0.00000000000E+00  0.35740347158E-01  0.35744000000E-01  0.51099999109E-03 0. -1.
       11   -1    0    0    0    0 -0.00000000000E+00 -0.00000000000E+00 -0.35740347158E-01  0.35744000000E-01  0.51099999109E-03 0.  1.
       22    1    1    2    0    0 -0.69345950849E-02  0.36569535698E-02 -0.34866483426E-01  0.35737005818E-01  0.00000000000E+00 0.  1.
  9000001    1    1    2    0    0  0.69345950849E-02 -0.36569535698E-02  0.34866483426E-01  0.35750994182E-01  0.10000000475E-02 0. -1.
</event>
<event>
 4   0  0.4809415E-02  0.9118800E+02  0.7818609E-02  0.1379984E+01
      -11   -1    0    0    0    0  0.00000000000E+00  0.00000000000E+00  0.35740347158E-01  0.35744000000E-01  0.51099999109E-03 0.  1.
       11   -1    0    0    0    0 -0.00000000000E+00 -0.00000000000E+00 -0.35740347158E-01  0.35744000000E-01  0.51099999109E-03 0. -1.
       22    1    1    2    0    0  0.29901651208E-02  0.20252819826E-01  0.29291906502E-01  0.35737005818E-01  0.00000000000E+00 0.  1.
  9000001    1    1    2    0    0 -0.29901651208E-02 -0.20252819826E-01 -0.29291906502E-01  0.35750994182E-01  0.10000000475E-02 0. -1.
</event>
<event>
 4   0  0.4809415E-02  0.9118800E+02  0.7818609E-02  0.1379984E+01
      -11   -1    0    0    0    0  0.00000000000E+00  0.00000000000E+00  0.35740347158E-01  0.35744000000E-01  0.51099999109E-03 0.  1.
       11   -1    0    0    0    0 -0.00000000000E+00 -0.00000000000E+00 -0.35740347158E-01  0.35744000000E-01  0.51099999109E-03 0. -1.
       22    1    1    2    0    0 -0.68577471856E-02  0.13006102126E-02 -0.35048727530E-01  0.35737005818E-01  0.00000000000E+00 0. -1.
  9000001    1    1    2    0    0  0.68577471856E-02 -0.13006102126E-02  0.35048727530E-01  0.35750994182E-01  0.10000000475E-02 0.  1.
</event>
<event>
 4   0  0.4809415E-02  0.9118800E+02  0.7818609E-02  0.1379984E+01
      -11   -1    0    0    0    0  0.00000000000E+00  0.00000000000E+00  0.35740347158E-01  0.35744000000E-01  0.51099999109E-03 0.  1.
       11   -1    0    0    0    0 -0.00000000000E+00 -0.00000000000E+00 -0.35740347158E-01  0.35744000000E-01  0.51099999109E-03 0. -1.
       22    1    1    2    0    0  0.55282873645E-03 -0.30035342522E-02  0.35606273987E-01  0.35737005818E-01  0.00000000000E+00 0.  1.
  9000001    1    1    2    0    0 -0.55282873645E-03  0.30035342522E-02 -0.35606273987E-01  0.35750994182E-01  0.10000000475E-02 0. -1.
</event>
<event>
 4   0  0.4809415E-02  0.9118800E+02  0.7818609E-02  0.1379984E+01
      -11   -1    0    0    0    0  0.00000000000E+00  0.00000000000E+00  0.35740347158E-01  0.35744000000E-01  0.51099999109E-03 0.  1.
       11   -1    0    0    0    0 -0.00000000000E+00 -0.00000000000E+00 -0.35740347158E-01  0.35744000000E-01  0.51099999109E-03 0. -1.
       22    1    1    2    0    0  0.76851637299E-02  0.27038387118E-01  0.22068019063E-01  0.35737005818E-01  0.00000000000E+00 0.  1.
  9000001    1    1    2    0    0 -0.76851637299E-02 -0.27038387118E-01 -0.22068019063E-01  0.35750994182E-01  0.10000000475E-02 0. -1.
</event>
<event>
 4   0  0.4809415E-02  0.9118800E+02  0.7818609E-02  0.1379984E+01
      -11   -1    0    0    0    0  0.00000000000E+00  0.00000000000E+00  0.35740347158E-01  0.35744000000E-01  0.51099999109E-03 0. -1.
       11   -1    0    0    0    0 -0.00000000000E+00 -0.00000000000E+00 -0.35740347158E-01  0.35744000000E-01  0.51099999109E-03 0.  1.
       22    1    1    2    0    0  0.17975922590E-01  0.18499316273E-01 -0.24734087599E-01  0.35737005818E-01  0.00000000000E+00 0.  1.
  9000001    1    1    2    0    0 -0.17975922590E-01 -0.18499316273E-01  0.24734087599E-01  0.35750994182E-01  0.10000000475E-02 0. -1.
</event>
<event>
 4   0  0.4809415E-02  0.9118800E+02  0.7818609E-02  0.1379984E+01
      -11   -1    0    0    0    0  0.00000000000E+00  0.00000000000E+00  0.35740347158E-01  0.35744000000E-01  0.51099999109E-03 0.  1.
       11   -1    0    0    0    0 -0.00000000000E+00 -0.00000000000E+00 -0.35740347158E-01  0.35744000000E-01  0.51099999109E-03 0. -1.
       22    1    1    2    0    0  0.98811008481E-02 -0.52893652115E-03  0.34339738745E-01  0.35737005818E-01  0.00000000000E+00 0.  1.
  9000001    1    1    2    0    0 -0.98811008481E-02  0.52893652115E-03 -0.34339738745E-01  0.35750994182E-01  0.10000000475E-02 0. -1.
</event>
<event>
 4   0  0.4809415E-02  0.9118800E+02  0.7818609E-02  0.1379984E+01
      -11   -1    0    0    0    0  0.00000000000E+00  0.00000000000E+00  0.35740347158E-01  0.35744000000E-01  0.51099999109E-03 0.  1.
       11   -1    0    0    0    0 -0.00000000000E+00 -0.00000000000E+00 -0.35740347158E-01  0.35744000000E-01  0.51099999109E-03 0. -1.
       22    1    1    2    0    0 -0.10451313065E-01  0.18826514257E-02 -0.34122708915E-01  0.35737005818E-01  0.00000000000E+00 0. -1.
  9000001    1    1    2    0    0  0.10451313065E-01 -0.18826514257E-02  0.34122708915E-01  0.35750994182E-01  0.10000000475E-02 0.  1.
</event>
<event>
 4   0  0.4809415E-02  0.9118800E+02  0.7818609E-02  0.1379984E+01
      -11   -1    0    0    0    0  0.00000000000E+00  0.00000000000E+00  0.35740347158E-01  0.35744000000E-01  0.51099999109E-03 0.  1.
       11   -1    0    0    0    0 -0.00000000000E+00 -0.00000000000E+00 -0.35740347158E-01  0.35744000000E-01  0.51099999109E-03 0. -1.
       22    1    1    2    0    0  0.57009508521E-02 -0.16562916741E-02 -0.35240451787E-01  0.35737005818E-01  0.00000000000E+00 0. -1.
  9000001    1    1    2    0    0 -0.57009508521E-02  0.16562916741E-02  0.35240451787E-01  0.35750994182E-01  0.10000000475E-02 0.  1.
</event>
<event>
 4   0  0.4809415E-02  0.9118800E+02  0.7818609E-02  0.1379984E+01
      -11   -1    0    0    0    0  0.00000000000E+00  0.00000000000E+00  0.35740347158E-01  0.35744000000E-01  0.51099999109E-03 0. -1.
       11   -1    0    0    0    0 -0.00000000000E+00 -0.00000000000E+00 -0.35740347158E-01  0.35744000000E-01  0.51099999109E-03 0.  1.
       22    1    1    2    0    0 -0.80359189365E-02  0.80068731606E-02  0.33888752912E-01  0.35737005818E-01  0.00000000000E+00 0. -1.
  9000001    1    1    2    0    0  0.80359189365E-02 -0.80068731606E-02 -0.33888752912E-01  0.35750994182E-01  0.10000000475E-02 0.  1.
</event>
<event>
 4   0  0.4809415E-02  0.9118800E+02  0.7818609E-02  0.1379984E+01
      -11   -1    0    0    0    0  0.00000000000E+00  0.00000000000E+00  0.35740347158E-01  0.35744000000E-01  0.51099999109E-03 0. -1.
       11   -1    0    0    0    0 -0.00000000000E+00 -0.00000000000E+00 -0.35740347158E-01  0.35744000000E-01  0.51099999109E-03 0.  1.
       22    1    1    2    0    0 -0.10366392798E-01  0.46371186469E-02 -0.33884636871E-01  0.35737005818E-01  0.00000000000E+00 0.  1.
  9000001    1    1    2    0    0  0.10366392798E-01 -0.46371186469E-02  0.33884636871E-01  0.35750994182E-01  0.10000000475E-02 0. -1.
</event>
<event>
 4   0  0.4809415E-02  0.9118800E+02  0.7818609E-02  0.1379984E+01
      -11   -1    0    0    0    0  0.00000000000E+00  0.00000000000E+00  0.35740347158E-01  0.35744000000E-01  0.51099999109E-03 0.  1.
       11   -1    0    0    0    0 -0.00000000000E+00 -0.00000000000E+00 -0.35740347158E-01  0.35744000000E-01  0.51099999109E-03 0. -1.
       22    1    1    2    0    0 -0.27122235202E-02  0.15892716890E-02 -0.35598478113E-01  0.35737005818E-01  0.00000000000E+00 0. -1.
  9000001    1    1    2    0    0  0.27122235202E-02 -0.15892716890E-02  0.35598478113E-01  0.35750994182E-01  0.10000000475E-02 0.  1.
</event>
<event>
 4   0  0.4809415E-02  0.9118800E+02  0.7818609E-02  0.1379984E+01
      -11   -1    0    0    0    0  0.00000000000E+00  0.00000000000E+00  0.35740347158E-01  0.35744000000E-01  0.51099999109E-03 0.  1.
       11   -1    0    0    0    0 -0.00000000000E+00 -0.00000000000E+00 -0.35740347158E-01  0.35744000000E-01  0.51099999109E-03 0. -1.
       22    1    1    2    0    0 -0.14578238370E-01  0.77447553948E-02 -0.31695856429E-01  0.35737005818E-01  0.00000000000E+00 0. -1.
  9000001    1    1    2    0    0  0.14578238370E-01 -0.77447553948E-02  0.31695856429E-01  0.35750994182E-01  0.10000000475E-02 0.  1.
</event>
<event>
 4   0  0.4809415E-02  0.9118800E+02  0.7818609E-02  0.1379984E+01
      -11   -1    0    0    0    0  0.00000000000E+00  0.00000000000E+00  0.35740347158E-01  0.35744000000E-01  0.51099999109E-03 0. -1.
       11   -1    0    0    0    0 -0.00000000000E+00 -0.00000000000E+00 -0.35740347158E-01  0.35744000000E-01  0.51099999109E-03 0.  1.
       22    1    1    2    0    0 -0.25883144250E-01  0.23858869241E-01 -0.61604210218E-02  0.35737005818E-01  0.00000000000E+00 0. -1.
  9000001    1    1    2    0    0  0.25883144250E-01 -0.23858869241E-01  0.61604210218E-02  0.35750994182E-01  0.10000000475E-02 0.  1.
</event>
<event>
 4   0  0.4809415E-02  0.9118800E+02  0.7818609E-02  0.1379984E+01
      -11   -1    0    0    0    0  0.00000000000E+00  0.00000000000E+00  0.35740347158E-01  0.35744000000E-01  0.51099999109E-03 0.  1.
       11   -1    0    0    0    0 -0.00000000000E+00 -0.00000000000E+00 -0.35740347158E-01  0.35744000000E-01  0.51099999109E-03 0. -1.
       22    1    1    2    0    0  0.29777368682E-02  0.93601457127E-03  0.35600428997E-01  0.35737005818E-01  0.00000000000E+00 0.  1.
  9000001    1    1    2    0    0 -0.29777368682E-02 -0.93601457127E-03 -0.35600428997E-01  0.35750994182E-01  0.10000000475E-02 0. -1.
</event>
<event>
 4   0  0.4809415E-02  0.9118800E+02  0.7818609E-02  0.1379984E+01
      -11   -1    0    0    0    0  0.00000000000E+00  0.00000000000E+00  0.35740347158E-01  0.35744000000E-01  0.51099999109E-03 0.  1.
       11   -1    0    0    0    0 -0.00000000000E+00 -0.00000000000E+00 -0.35740347158E-01  0.35744000000E-01  0.51099999109E-03 0. -1.
       22    1    1    2    0    0 -0.78583011202E-02 -0.79094803490E-02  0.33953215002E-01  0.35737005818E-01  0.00000000000E+00 0.  1.
  9000001    1    1    2    0    0  0.78583011202E-02  0.79094803490E-02 -0.33953215002E-01  0.35750994182E-01  0.10000000475E-02 0. -1.
</event>
<event>
 4   0  0.4809415E-02  0.9118800E+02  0.7818609E-02  0.1379984E+01
      -11   -1    0    0    0    0  0.00000000000E+00  0.00000000000E+00  0.35740347158E-01  0.35744000000E-01  0.51099999109E-03 0. -1.
       11   -1    0    0    0    0 -0.00000000000E+00 -0.00000000000E+00 -0.35740347158E-01  0.35744000000E-01  0.51099999109E-03 0.  1.
       22    1    1    2    0    0  0.15405250859E-02 -0.78353982524E-02  0.34833416450E-01  0.35737005818E-01  0.00000000000E+00 0. -1.
  9000001    1    1    2    0    0 -0.15405250859E-02  0.78353982524E-02 -0.34833416450E-01  0.35750994182E-01  0.10000000475E-02 0.  1.
</event>
<event>
 4   0  0.4809415E-02  0.9118800E+02  0.7818609E-02  0.1379984E+01
      -11   -1    0    0    0    0  0.00000000000E+00  0.00000000000E+00  0.35740347158E-01  0.35744000000E-01  0.51099999109E-03 0.  1.
       11   -1    0    0    0    0 -0.00000000000E+00 -0.00000000000E+00 -0.35740347158E-01  0.35744000000E-01  0.51099999109E-03 0. -1.
       22    1    1    2    0    0 -0.64741994106E-02 -0.18380887290E-01 -0.29955989539E-01  0.35737005818E-01  0.00000000000E+00 0. -1.
  9000001    1    1    2    0    0  0.64741994106E-02  0.18380887290E-01  0.29955989539E-01  0.35750994182E-01  0.10000000475E-02 0.  1.
</event>
<event>
 4   0  0.4809415E-02  0.9118800E+02  0.7818609E-02  0.1379984E+01
      -11   -1    0    0    0    0  0.00000000000E+00  0.00000000000E+00  0.35740347158E-01  0.35744000000E-01  0.51099999109E-03 0.  1.
       11   -1    0    0    0    0 -0.00000000000E+00 -0.00000000000E+00 -0.35740347158E-01  0.35744000000E-01  0.51099999109E-03 0. -1.
       22    1    1    2    0    0  0.50132658969E-03 -0.30610170222E-02 -0.35602140825E-01  0.35737005818E-01  0.00000000000E+00 0. -1.
  9000001    1    1    2    0    0 -0.50132658969E-03  0.30610170222E-02  0.35602140825E-01  0.35750994182E-01  0.10000000475E-02 0.  1.
</event>
<event>
 4   0  0.4809415E-02  0.9118800E+02  0.7818609E-02  0.1379984E+01
      -11   -1    0    0    0    0  0.00000000000E+00  0.00000000000E+00  0.35740347158E-01  0.35744000000E-01  0.51099999109E-03 0.  1.
       11   -1    0    0    0    0 -0.00000000000E+00 -0.00000000000E+00 -0.35740347158E-01  0.35744000000E-01  0.51099999109E-03 0. -1.
       22    1    1    2    0    0  0.48344164437E-02 -0.79107525999E-02  0.34513504543E-01  0.35737005818E-01  0.00000000000E+00 0.  1.
  9000001    1    1    2    0    0 -0.48344164437E-02  0.79107525999E-02 -0.34513504543E-01  0.35750994182E-01  0.10000000475E-02 0. -1.
</event>
<event>
 4   0  0.4809415E-02  0.9118800E+02  0.7818609E-02  0.1379984E+01
      -11   -1    0    0    0    0  0.00000000000E+00  0.00000000000E+00  0.35740347158E-01  0.35744000000E-01  0.51099999109E-03 0.  1.
       11   -1    0    0    0    0 -0.00000000000E+00 -0.00000000000E+00 -0.35740347158E-01  0.35744000000E-01  0.51099999109E-03 0. -1.
       22    1    1    2    0    0  0.27684272620E-01  0.12018635790E-01 -0.19138104089E-01  0.35737005818E-01  0.00000000000E+00 0. -1.
  9000001    1    1    2    0    0 -0.27684272620E-01 -0.12018635790E-01  0.19138104089E-01  0.35750994182E-01  0.10000000475E-02 0.  1.
</event>
<event>
 4   0  0.4809415E-02  0.9118800E+02  0.7818609E-02  0.1379984E+01
      -11   -1    0    0    0    0  0.00000000000E+00  0.00000000000E+00  0.35740347158E-01  0.35744000000E-01  0.51099999109E-03 0.  1.
       11   -1    0    0    0    0 -0.00000000000E+00 -0.00000000000E+00 -0.35740347158E-01  0.35744000000E-01  0.51099999109E-03 0. -1.
       22    1    1    2    0    0 -0.73328722282E-02 -0.18152175197E-02 -0.34929465428E-01  0.35737005818E-01  0.00000000000E+00 0. -1.
  9000001    1    1    2    0    0  0.73328722282E-02  0.18152175197E-02  0.34929465428E-01  0.35750994182E-01  0.10000000475E-02 0.  1.
</event>
<event>
 4   0  0.4809415E-02  0.9118800E+02  0.7818609E-02  0.1379984E+01
      -11   -1    0    0    0    0  0.00000000000E+00  0.00000000000E+00  0.35740347158E-01  0.35744000000E-01  0.51099999109E-03 0. -1.
       11   -1    0    0    0    0 -0.00000000000E+00 -0.00000000000E+00 -0.35740347158E-01  0.35744000000E-01  0.51099999109E-03 0.  1.
       22    1    1    2    0    0 -0.45927656859E-02 -0.71482677128E-02  0.34712279627E-01  0.35737005818E-01  0.00000000000E+00 0. -1.
  9000001    1    1    2    0    0  0.45927656859E-02  0.71482677128E-02 -0.34712279627E-01  0.35750994182E-01  0.10000000475E-02 0.  1.
</event>
<event>
 4   0  0.4809415E-02  0.9118800E+02  0.7818609E-02  0.1379984E+01
      -11   -1    0    0    0    0  0.00000000000E+00  0.00000000000E+00  0.35740347158E-01  0.35744000000E-01  0.51099999109E-03 0. -1.
       11   -1    0    0    0    0 -0.00000000000E+00 -0.00000000000E+00 -0.35740347158E-01  0.35744000000E-01  0.51099999109E-03 0.  1.
       22    1    1    2    0    0  0.10319558973E-01  0.17452506505E-01  0.29428732629E-01  0.35737005818E-01  0.00000000000E+00 0. -1.
  9000001    1    1    2    0    0 -0.10319558973E-01 -0.17452506505E-01 -0.29428732629E-01  0.35750994182E-01  0.10000000475E-02 0.  1.
</event>
<event>
 4   0  0.4809415E-02  0.9118800E+02  0.7818609E-02  0.1379984E+01
      -11   -1    0    0    0    0  0.00000000000E+00  0.00000000000E+00  0.35740347158E-01  0.35744000000E-01  0.51099999109E-03 0.  1.
       11   -1    0    0    0    0 -0.00000000000E+00 -0.00000000000E+00 -0.35740347158E-01  0.35744000000E-01  0.51099999109E-03 0. -1.
       22    1    1    2    0    0 -0.39074032796E-02  0.19920163976E-02 -0.35466852907E-01  0.35737005818E-01  0.00000000000E+00 0. -1.
  9000001    1    1    2    0    0  0.39074032796E-02 -0.19920163976E-02  0.35466852907E-01  0.35750994182E-01  0.10000000475E-02 0.  1.
</event>
<event>
 4   0  0.4809415E-02  0.9118800E+02  0.7818609E-02  0.1379984E+01
      -11   -1    0    0    0    0  0.00000000000E+00  0.00000000000E+00  0.35740347158E-01  0.35744000000E-01  0.51099999109E-03 0.  1.
       11   -1    0    0    0    0 -0.00000000000E+00 -0.00000000000E+00 -0.35740347158E-01  0.35744000000E-01  0.51099999109E-03 0. -1.
       22    1    1    2    0    0  0.20828257605E-01 -0.76891462345E-02  0.28003469431E-01  0.35737005818E-01  0.00000000000E+00 0.  1.
  9000001    1    1    2    0    0 -0.20828257605E-01  0.76891462345E-02 -0.28003469431E-01  0.35750994182E-01  0.10000000475E-02 0. -1.
</event>
<event>
 4   0  0.4809415E-02  0.9118800E+02  0.7818609E-02  0.1379984E+01
      -11   -1    0    0    0    0  0.00000000000E+00  0.00000000000E+00  0.35740347158E-01  0.35744000000E-01  0.51099999109E-03 0.  1.
       11   -1    0    0    0    0 -0.00000000000E+00 -0.00000000000E+00 -0.35740347158E-01  0.35744000000E-01  0.51099999109E-03 0. -1.
       22    1    1    2    0    0 -0.18893290971E-01 -0.35951510984E-02  0.30120624657E-01  0.35737005818E-01  0.00000000000E+00 0.  1.
  9000001    1    1    2    0    0  0.18893290971E-01  0.35951510984E-02 -0.30120624657E-01  0.35750994182E-01  0.10000000475E-02 0. -1.
</event>
<event>
 4   0  0.4809415E-02  0.9118800E+02  0.7818609E-02  0.1379984E+01
      -11   -1    0    0    0    0  0.00000000000E+00  0.00000000000E+00  0.35740347158E-01  0.35744000000E-01  0.51099999109E-03 0. -1.
       11   -1    0    0    0    0 -0.00000000000E+00 -0.00000000000E+00 -0.35740347158E-01  0.35744000000E-01  0.51099999109E-03 0.  1.
       22    1    1    2    0    0 -0.17773448970E-02  0.26399894931E-02 -0.35595014896E-01  0.35737005818E-01  0.00000000000E+00 0.  1.
  9000001    1    1    2    0    0  0.17773448970E-02 -0.26399894931E-02  0.35595014896E-01  0.35750994182E-01  0.10000000475E-02 0. -1.
</event>
<event>
 4   0  0.4809415E-02  0.9118800E+02  0.7818609E-02  0.1379984E+01
      -11   -1    0    0    0    0  0.00000000000E+00  0.00000000000E+00  0.35740347158E-01  0.35744000000E-01  0.51099999109E-03 0. -1.
       11   -1    0    0    0    0 -0.00000000000E+00 -0.00000000000E+00 -0.35740347158E-01  0.35744000000E-01  0.51099999109E-03 0.  1.
       22    1    1    2    0    0 -0.19747625587E-02 -0.73727214663E-02  0.34912417216E-01  0.35737005818E-01  0.00000000000E+00 0. -1.
  9000001    1    1    2    0    0  0.19747625587E-02  0.73727214663E-02 -0.34912417216E-01  0.35750994182E-01  0.10000000475E-02 0.  1.
</event>
<event>
 4   0  0.4809415E-02  0.9118800E+02  0.7818609E-02  0.1379984E+01
      -11   -1    0    0    0    0  0.00000000000E+00  0.00000000000E+00  0.35740347158E-01  0.35744000000E-01  0.51099999109E-03 0. -1.
       11   -1    0    0    0    0 -0.00000000000E+00 -0.00000000000E+00 -0.35740347158E-01  0.35744000000E-01  0.51099999109E-03 0.  1.
       22    1    1    2    0    0 -0.14994721572E-02 -0.56154727821E-02  0.35261191607E-01  0.35737005818E-01  0.00000000000E+00 0. -1.
  9000001    1    1    2    0    0  0.14994721572E-02  0.56154727821E-02 -0.35261191607E-01  0.35750994182E-01  0.10000000475E-02 0.  1.
</event>
<event>
 4   0  0.4809415E-02  0.9118800E+02  0.7818609E-02  0.1379984E+01
      -11   -1    0    0    0    0  0.00000000000E+00  0.00000000000E+00  0.35740347158E-01  0.35744000000E-01  0.51099999109E-03 0.  1.
       11   -1    0    0    0    0 -0.00000000000E+00 -0.00000000000E+00 -0.35740347158E-01  0.35744000000E-01  0.51099999109E-03 0. -1.
       22    1    1    2    0    0 -0.15258616186E-01  0.31380441871E-01  0.77185545897E-02  0.35737005818E-01  0.00000000000E+00 0. -1.
  9000001    1    1    2    0    0  0.15258616186E-01 -0.31380441871E-01 -0.77185545897E-02  0.35750994182E-01  0.10000000475E-02 0.  1.
</event>
<event>
 4   0  0.4809415E-02  0.9118800E+02  0.7818609E-02  0.1379984E+01
      -11   -1    0    0    0    0  0.00000000000E+00  0.00000000000E+00  0.35740347158E-01  0.35744000000E-01  0.51099999109E-03 0. -1.
       11   -1    0    0    0    0 -0.00000000000E+00 -0.00000000000E+00 -0.35740347158E-01  0.35744000000E-01  0.51099999109E-03 0.  1.
       22    1    1    2    0    0 -0.11295102700E-01 -0.35535561294E-02 -0.33718340391E-01  0.35737005818E-01  0.00000000000E+00 0.  1.
  9000001    1    1    2    0    0  0.11295102700E-01  0.35535561294E-02  0.33718340391E-01  0.35750994182E-01  0.10000000475E-02 0. -1.
</event>
<event>
 4   0  0.4809415E-02  0.9118800E+02  0.7818609E-02  0.1379984E+01
      -11   -1    0    0    0    0  0.00000000000E+00  0.00000000000E+00  0.35740347158E-01  0.35744000000E-01  0.51099999109E-03 0.  1.
       11   -1    0    0    0    0 -0.00000000000E+00 -0.00000000000E+00 -0.35740347158E-01  0.35744000000E-01  0.51099999109E-03 0. -1.
       22    1    1    2    0    0  0.15090312532E-02  0.44576404975E-02  0.35425779466E-01  0.35737005818E-01  0.00000000000E+00 0.  1.
  9000001    1    1    2    0    0 -0.15090312532E-02 -0.44576404975E-02 -0.35425779466E-01  0.35750994182E-01  0.10000000475E-02 0. -1.
</event>
<event>
 4   0  0.4809415E-02  0.9118800E+02  0.7818609E-02  0.1379984E+01
      -11   -1    0    0    0    0  0.00000000000E+00  0.00000000000E+00  0.35740347158E-01  0.35744000000E-01  0.51099999109E-03 0. -1.
       11   -1    0    0    0    0 -0.00000000000E+00 -0.00000000000E+00 -0.35740347158E-01  0.35744000000E-01  0.51099999109E-03 0.  1.
       22    1    1    2    0    0 -0.35165411712E-01 -0.22215405927E-02  0.59659166448E-02  0.35737005818E-01  0.00000000000E+00 0. -1.
  9000001    1    1    2    0    0  0.35165411712E-01  0.22215405927E-02 -0.59659166448E-02  0.35750994182E-01  0.10000000475E-02 0.  1.
</event>
<event>
 4   0  0.4809415E-02  0.9118800E+02  0.7818609E-02  0.1379984E+01
      -11   -1    0    0    0    0  0.00000000000E+00  0.00000000000E+00  0.35740347158E-01  0.35744000000E-01  0.51099999109E-03 0.  1.
       11   -1    0    0    0    0 -0.00000000000E+00 -0.00000000000E+00 -0.35740347158E-01  0.35744000000E-01  0.51099999109E-03 0. -1.
       22    1    1    2    0    0  0.28652701733E-02  0.37991841140E-02  0.35418780495E-01  0.35737005818E-01  0.00000000000E+00 0.  1.
  9000001    1    1    2    0    0 -0.28652701733E-02 -0.37991841140E-02 -0.35418780495E-01  0.35750994182E-01  0.10000000475E-02 0. -1.
</event>
<event>
 4   0  0.4809415E-02  0.9118800E+02  0.7818609E-02  0.1379984E+01
      -11   -1    0    0    0    0  0.00000000000E+00  0.00000000000E+00  0.35740347158E-01  0.35744000000E-01  0.51099999109E-03 0. -1.
       11   -1    0    0    0    0 -0.00000000000E+00 -0.00000000000E+00 -0.35740347158E-01  0.35744000000E-01  0.51099999109E-03 0.  1.
       22    1    1    2    0    0 -0.12929947645E-02 -0.30683964636E-02  0.35581549890E-01  0.35737005818E-01  0.00000000000E+00 0. -1.
  9000001    1    1    2    0    0  0.12929947645E-02  0.30683964636E-02 -0.35581549890E-01  0.35750994182E-01  0.10000000475E-02 0.  1.
</event>
<event>
 4   0  0.4809415E-02  0.9118800E+02  0.7818609E-02  0.1379984E+01
      -11   -1    0    0    0    0  0.00000000000E+00  0.00000000000E+00  0.35740347158E-01  0.35744000000E-01  0.51099999109E-03 0.  1.
       11   -1    0    0    0    0 -0.00000000000E+00 -0.00000000000E+00 -0.35740347158E-01  0.35744000000E-01  0.51099999109E-03 0. -1.
       22    1    1    2    0    0 -0.87571945602E-02  0.11368099714E-01 -0.32729366587E-01  0.35737005818E-01  0.00000000000E+00 0. -1.
  9000001    1    1    2    0    0  0.87571945602E-02 -0.11368099714E-01  0.32729366587E-01  0.35750994182E-01  0.10000000475E-02 0.  1.
</event>
<event>
 4   0  0.4809415E-02  0.9118800E+02  0.7818609E-02  0.1379984E+01
      -11   -1    0    0    0    0  0.00000000000E+00  0.00000000000E+00  0.35740347158E-01  0.35744000000E-01  0.51099999109E-03 0. -1.
       11   -1    0    0    0    0 -0.00000000000E+00 -0.00000000000E+00 -0.35740347158E-01  0.35744000000E-01  0.51099999109E-03 0.  1.
       22    1    1    2    0    0  0.51098832878E-02 -0.54658234188E-02  0.34944920260E-01  0.35737005818E-01  0.00000000000E+00 0. -1.
  9000001    1    1    2    0    0 -0.51098832878E-02  0.54658234188E-02 -0.34944920260E-01  0.35750994182E-01  0.10000000475E-02 0.  1.
</event>
<event>
 4   0  0.4809415E-02  0.9118800E+02  0.7818609E-02  0.1379984E+01
      -11   -1    0    0    0    0  0.00000000000E+00  0.00000000000E+00  0.35740347158E-01  0.35744000000E-01  0.51099999109E-03 0.  1.
       11   -1    0    0    0    0 -0.00000000000E+00 -0.00000000000E+00 -0.35740347158E-01  0.35744000000E-01  0.51099999109E-03 0. -1.
       22    1    1    2    0    0  0.21906954852E-01 -0.23605695602E-01 -0.15491612219E-01  0.35737005818E-01  0.00000000000E+00 0. -1.
  9000001    1    1    2    0    0 -0.21906954852E-01  0.23605695602E-01  0.15491612219E-01  0.35750994182E-01  0.10000000475E-02 0.  1.
</event>
<event>
 4   0  0.4809415E-02  0.9118800E+02  0.7818609E-02  0.1379984E+01
      -11   -1    0    0    0    0  0.00000000000E+00  0.00000000000E+00  0.35740347158E-01  0.35744000000E-01  0.51099999109E-03 0. -1.
       11   -1    0    0    0    0 -0.00000000000E+00 -0.00000000000E+00 -0.35740347158E-01  0.35744000000E-01  0.51099999109E-03 0.  1.
       22    1    1    2    0    0 -0.24234293608E-02  0.54480837219E-02  0.35236046299E-01  0.35737005818E-01  0.00000000000E+00 0. -1.
  9000001    1    1    2    0    0  0.24234293608E-02 -0.54480837219E-02 -0.35236046299E-01  0.35750994182E-01  0.10000000475E-02 0.  1.
</event>
<event>
 4   0  0.4809415E-02  0.9118800E+02  0.7818609E-02  0.1379984E+01
      -11   -1    0    0    0    0  0.00000000000E+00  0.00000000000E+00  0.35740347158E-01  0.35744000000E-01  0.51099999109E-03 0.  1.
       11   -1    0    0    0    0 -0.00000000000E+00 -0.00000000000E+00 -0.35740347158E-01  0.35744000000E-01  0.51099999109E-03 0. -1.
       22    1    1    2    0    0 -0.30009919323E-02 -0.11520096145E-02 -0.35592141073E-01  0.35737005818E-01  0.00000000000E+00 0. -1.
  9000001    1    1    2    0    0  0.30009919323E-02  0.11520096145E-02  0.35592141073E-01  0.35750994182E-01  0.10000000475E-02 0.  1.
</event>
<event>
 4   0  0.4809415E-02  0.9118800E+02  0.7818609E-02  0.1379984E+01
      -11   -1    0    0    0    0  0.00000000000E+00  0.00000000000E+00  0.35740347158E-01  0.35744000000E-01  0.51099999109E-03 0. -1.
       11   -1    0    0    0    0 -0.00000000000E+00 -0.00000000000E+00 -0.35740347158E-01  0.35744000000E-01  0.51099999109E-03 0.  1.
       22    1    1    2    0    0 -0.32085183873E-01 -0.40607669748E-02  0.15204760186E-01  0.35737005818E-01  0.00000000000E+00 0. -1.
  9000001    1    1    2    0    0  0.32085183873E-01  0.40607669748E-02 -0.15204760186E-01  0.35750994182E-01  0.10000000475E-02 0.  1.
</event>
<event>
 4   0  0.4809415E-02  0.9118800E+02  0.7818609E-02  0.1379984E+01
      -11   -1    0    0    0    0  0.00000000000E+00  0.00000000000E+00  0.35740347158E-01  0.35744000000E-01  0.51099999109E-03 0.  1.
       11   -1    0    0    0    0 -0.00000000000E+00 -0.00000000000E+00 -0.35740347158E-01  0.35744000000E-01  0.51099999109E-03 0. -1.
       22    1    1    2    0    0  0.29621726556E-02  0.36807886100E-02  0.35423310309E-01  0.35737005818E-01  0.00000000000E+00 0.  1.
  9000001    1    1    2    0    0 -0.29621726556E-02 -0.36807886100E-02 -0.35423310309E-01  0.35750994182E-01  0.10000000475E-02 0. -1.
</event>
<event>
 4   0  0.4809415E-02  0.9118800E+02  0.7818609E-02  0.1379984E+01
      -11   -1    0    0    0    0  0.00000000000E+00  0.00000000000E+00  0.35740347158E-01  0.35744000000E-01  0.51099999109E-03 0.  1.
       11   -1    0    0    0    0 -0.00000000000E+00 -0.00000000000E+00 -0.35740347158E-01  0.35744000000E-01  0.51099999109E-03 0. -1.
       22    1    1    2    0    0 -0.20655945320E-01  0.16806529351E-01 -0.23832878110E-01  0.35737005818E-01  0.00000000000E+00 0. -1.
  9000001    1    1    2    0    0  0.20655945320E-01 -0.16806529351E-01  0.23832878110E-01  0.35750994182E-01  0.10000000475E-02 0.  1.
</event>
<event>
 4   0  0.4809415E-02  0.9118800E+02  0.7818609E-02  0.1379984E+01
      -11   -1    0    0    0    0  0.00000000000E+00  0.00000000000E+00  0.35740347158E-01  0.35744000000E-01  0.51099999109E-03 0.  1.
       11   -1    0    0    0    0 -0.00000000000E+00 -0.00000000000E+00 -0.35740347158E-01  0.35744000000E-01  0.51099999109E-03 0. -1.
       22    1    1    2    0    0  0.43346862335E-02 -0.31352118234E-02 -0.35334325053E-01  0.35737005818E-01  0.00000000000E+00 0. -1.
  9000001    1    1    2    0    0 -0.43346862335E-02  0.31352118234E-02  0.35334325053E-01  0.35750994182E-01  0.10000000475E-02 0.  1.
</event>
<event>
 4   0  0.4809415E-02  0.9118800E+02  0.7818609E-02  0.1379984E+01
      -11   -1    0    0    0    0  0.00000000000E+00  0.00000000000E+00  0.35740347158E-01  0.35744000000E-01  0.51099999109E-03 0.  1.
       11   -1    0    0    0    0 -0.00000000000E+00 -0.00000000000E+00 -0.35740347158E-01  0.35744000000E-01  0.51099999109E-03 0. -1.
       22    1    1    2    0    0 -0.58636084863E-02 -0.50456419780E-02 -0.34889728824E-01  0.35737005818E-01  0.00000000000E+00 0. -1.
  9000001    1    1    2    0    0  0.58636084863E-02  0.50456419780E-02  0.34889728824E-01  0.35750994182E-01  0.10000000475E-02 0.  1.
</event>
<event>
 4   0  0.4809415E-02  0.9118800E+02  0.7818609E-02  0.1379984E+01
      -11   -1    0    0    0    0  0.00000000000E+00  0.00000000000E+00  0.35740347158E-01  0.35744000000E-01  0.51099999109E-03 0. -1.
       11   -1    0    0    0    0 -0.00000000000E+00 -0.00000000000E+00 -0.35740347158E-01  0.35744000000E-01  0.51099999109E-03 0.  1.
       22    1    1    2    0    0 -0.27139435988E-01 -0.25819295206E-02  0.23106670878E-01  0.35737005818E-01  0.00000000000E+00 0. -1.
  9000001    1    1    2    0    0  0.27139435988E-01  0.25819295206E-02 -0.23106670878E-01  0.35750994182E-01  0.10000000475E-02 0.  1.
</event>
<event>
 4   0  0.4809415E-02  0.9118800E+02  0.7818609E-02  0.1379984E+01
      -11   -1    0    0    0    0  0.00000000000E+00  0.00000000000E+00  0.35740347158E-01  0.35744000000E-01  0.51099999109E-03 0.  1.
       11   -1    0    0    0    0 -0.00000000000E+00 -0.00000000000E+00 -0.35740347158E-01  0.35744000000E-01  0.51099999109E-03 0. -1.
       22    1    1    2    0    0  0.37705920183E-02  0.62406453324E-02 -0.34985290717E-01  0.35737005818E-01  0.00000000000E+00 0. -1.
  9000001    1    1    2    0    0 -0.37705920183E-02 -0.62406453324E-02  0.34985290717E-01  0.35750994182E-01  0.10000000475E-02 0.  1.
</event>
<event>
 4   0  0.4809415E-02  0.9118800E+02  0.7818609E-02  0.1379984E+01
      -11   -1    0    0    0    0  0.00000000000E+00  0.00000000000E+00  0.35740347158E-01  0.35744000000E-01  0.51099999109E-03 0.  1.
       11   -1    0    0    0    0 -0.00000000000E+00 -0.00000000000E+00 -0.35740347158E-01  0.35744000000E-01  0.51099999109E-03 0. -1.
       22    1    1    2    0    0  0.25751269123E-02  0.50456490724E-02 -0.35285177224E-01  0.35737005818E-01  0.00000000000E+00 0. -1.
  9000001    1    1    2    0    0 -0.25751269123E-02 -0.50456490724E-02  0.35285177224E-01  0.35750994182E-01  0.10000000475E-02 0.  1.
</event>
<event>
 4   0  0.4809415E-02  0.9118800E+02  0.7818609E-02  0.1379984E+01
      -11   -1    0    0    0    0  0.00000000000E+00  0.00000000000E+00  0.35740347158E-01  0.35744000000E-01  0.51099999109E-03 0.  1.
       11   -1    0    0    0    0 -0.00000000000E+00 -0.00000000000E+00 -0.35740347158E-01  0.35744000000E-01  0.51099999109E-03 0. -1.
       22    1    1    2    0    0  0.41884500903E-02 -0.31788332017E-02 -0.35348062043E-01  0.35737005818E-01  0.00000000000E+00 0. -1.
  9000001    1    1    2    0    0 -0.41884500903E-02  0.31788332017E-02  0.35348062043E-01  0.35750994182E-01  0.10000000475E-02 0.  1.
</event>
<event>
 4   0  0.4809415E-02  0.9118800E+02  0.7818609E-02  0.1379984E+01
      -11   -1    0    0    0    0  0.00000000000E+00  0.00000000000E+00  0.35740347158E-01  0.35744000000E-01  0.51099999109E-03 0. -1.
       11   -1    0    0    0    0 -0.00000000000E+00 -0.00000000000E+00 -0.35740347158E-01  0.35744000000E-01  0.51099999109E-03 0.  1.
       22    1    1    2    0    0 -0.22463998877E-02  0.35470401797E-02 -0.35489516457E-01  0.35737005818E-01  0.00000000000E+00 0.  1.
  9000001    1    1    2    0    0  0.22463998877E-02 -0.35470401797E-02  0.35489516457E-01  0.35750994182E-01  0.10000000475E-02 0. -1.
</event>
<event>
 4   0  0.4809415E-02  0.9118800E+02  0.7818609E-02  0.1379984E+01
      -11   -1    0    0    0    0  0.00000000000E+00  0.00000000000E+00  0.35740347158E-01  0.35744000000E-01  0.51099999109E-03 0.  1.
       11   -1    0    0    0    0 -0.00000000000E+00 -0.00000000000E+00 -0.35740347158E-01  0.35744000000E-01  0.51099999109E-03 0. -1.
       22    1    1    2    0    0 -0.26354794680E-01 -0.17859263863E-01 -0.16235919331E-01  0.35737005818E-01  0.00000000000E+00 0. -1.
  9000001    1    1    2    0    0  0.26354794680E-01  0.17859263863E-01  0.16235919331E-01  0.35750994182E-01  0.10000000475E-02 0.  1.
</event>
<event>
 4   0  0.4809415E-02  0.9118800E+02  0.7818609E-02  0.1379984E+01
      -11   -1    0    0    0    0  0.00000000000E+00  0.00000000000E+00  0.35740347158E-01  0.35744000000E-01  0.51099999109E-03 0.  1.
       11   -1    0    0    0    0 -0.00000000000E+00 -0.00000000000E+00 -0.35740347158E-01  0.35744000000E-01  0.51099999109E-03 0. -1.
       22    1    1    2    0    0  0.16912192955E-01  0.42732285479E-02  0.31190556778E-01  0.35737005818E-01  0.00000000000E+00 0.  1.
  9000001    1    1    2    0    0 -0.16912192955E-01 -0.42732285479E-02 -0.31190556778E-01  0.35750994182E-01  0.10000000475E-02 0. -1.
</event>
<event>
 4   0  0.4809415E-02  0.9118800E+02  0.7818609E-02  0.1379984E+01
      -11   -1    0    0    0    0  0.00000000000E+00  0.00000000000E+00  0.35740347158E-01  0.35744000000E-01  0.51099999109E-03 0.  1.
       11   -1    0    0    0    0 -0.00000000000E+00 -0.00000000000E+00 -0.35740347158E-01  0.35744000000E-01  0.51099999109E-03 0. -1.
       22    1    1    2    0    0 -0.16500639519E-01  0.26316449968E-01  0.17672208165E-01  0.35737005818E-01  0.00000000000E+00 0.  1.
  9000001    1    1    2    0    0  0.16500639519E-01 -0.26316449968E-01 -0.17672208165E-01  0.35750994182E-01  0.10000000475E-02 0. -1.
</event>
<event>
 4   0  0.4809415E-02  0.9118800E+02  0.7818609E-02  0.1379984E+01
      -11   -1    0    0    0    0  0.00000000000E+00  0.00000000000E+00  0.35740347158E-01  0.35744000000E-01  0.51099999109E-03 0. -1.
       11   -1    0    0    0    0 -0.00000000000E+00 -0.00000000000E+00 -0.35740347158E-01  0.35744000000E-01  0.51099999109E-03 0.  1.
       22    1    1    2    0    0  0.55077896033E-02  0.14311328515E-01 -0.32279772531E-01  0.35737005818E-01  0.00000000000E+00 0.  1.
  9000001    1    1    2    0    0 -0.55077896033E-02 -0.14311328515E-01  0.32279772531E-01  0.35750994182E-01  0.10000000475E-02 0. -1.
</event>
<event>
 4   0  0.4809415E-02  0.9118800E+02  0.7818609E-02  0.1379984E+01
      -11   -1    0    0    0    0  0.00000000000E+00  0.00000000000E+00  0.35740347158E-01  0.35744000000E-01  0.51099999109E-03 0.  1.
       11   -1    0    0    0    0 -0.00000000000E+00 -0.00000000000E+00 -0.35740347158E-01  0.35744000000E-01  0.51099999109E-03 0. -1.
       22    1    1    2    0    0  0.51987639059E-03  0.33650539285E-02  0.35574425160E-01  0.35737005818E-01  0.00000000000E+00 0.  1.
  9000001    1    1    2    0    0 -0.51987639059E-03 -0.33650539285E-02 -0.35574425160E-01  0.35750994182E-01  0.10000000475E-02 0. -1.
</event>
<event>
 4   0  0.4809415E-02  0.9118800E+02  0.7818609E-02  0.1379984E+01
      -11   -1    0    0    0    0  0.00000000000E+00  0.00000000000E+00  0.35740347158E-01  0.35744000000E-01  0.51099999109E-03 0. -1.
       11   -1    0    0    0    0 -0.00000000000E+00 -0.00000000000E+00 -0.35740347158E-01  0.35744000000E-01  0.51099999109E-03 0.  1.
       22    1    1    2    0    0 -0.15980485684E-02 -0.65458156054E-02 -0.35096041425E-01  0.35737005818E-01  0.00000000000E+00 0.  1.
  9000001    1    1    2    0    0  0.15980485684E-02  0.65458156054E-02  0.35096041425E-01  0.35750994182E-01  0.10000000475E-02 0. -1.
</event>
<event>
 4   0  0.4809415E-02  0.9118800E+02  0.7818609E-02  0.1379984E+01
      -11   -1    0    0    0    0  0.00000000000E+00  0.00000000000E+00  0.35740347158E-01  0.35744000000E-01  0.51099999109E-03 0. -1.
       11   -1    0    0    0    0 -0.00000000000E+00 -0.00000000000E+00 -0.35740347158E-01  0.35744000000E-01  0.51099999109E-03 0.  1.
       22    1    1    2    0    0 -0.35894487630E-02  0.15199116483E-03  0.35555960698E-01  0.35737005818E-01  0.00000000000E+00 0. -1.
  9000001    1    1    2    0    0  0.35894487630E-02 -0.15199116483E-03 -0.35555960698E-01  0.35750994182E-01  0.10000000475E-02 0.  1.
</event>
<event>
 4   0  0.4809415E-02  0.9118800E+02  0.7818609E-02  0.1379984E+01
      -11   -1    0    0    0    0  0.00000000000E+00  0.00000000000E+00  0.35740347158E-01  0.35744000000E-01  0.51099999109E-03 0.  1.
       11   -1    0    0    0    0 -0.00000000000E+00 -0.00000000000E+00 -0.35740347158E-01  0.35744000000E-01  0.51099999109E-03 0. -1.
       22    1    1    2    0    0  0.25328996067E-02  0.21872260644E-02  0.35579966928E-01  0.35737005818E-01  0.00000000000E+00 0.  1.
  9000001    1    1    2    0    0 -0.25328996067E-02 -0.21872260644E-02 -0.35579966928E-01  0.35750994182E-01  0.10000000475E-02 0. -1.
</event>
<event>
 4   0  0.4809415E-02  0.9118800E+02  0.7818609E-02  0.1379984E+01
      -11   -1    0    0    0    0  0.00000000000E+00  0.00000000000E+00  0.35740347158E-01  0.35744000000E-01  0.51099999109E-03 0. -1.
       11   -1    0    0    0    0 -0.00000000000E+00 -0.00000000000E+00 -0.35740347158E-01  0.35744000000E-01  0.51099999109E-03 0.  1.
       22    1    1    2    0    0  0.64084671947E-02  0.25670056777E-01 -0.24023182932E-01  0.35737005818E-01  0.00000000000E+00 0.  1.
  9000001    1    1    2    0    0 -0.64084671947E-02 -0.25670056777E-01  0.24023182932E-01  0.35750994182E-01  0.10000000475E-02 0. -1.
</event>
<event>
 4   0  0.4809415E-02  0.9118800E+02  0.7818609E-02  0.1379984E+01
      -11   -1    0    0    0    0  0.00000000000E+00  0.00000000000E+00  0.35740347158E-01  0.35744000000E-01  0.51099999109E-03 0. -1.
       11   -1    0    0    0    0 -0.00000000000E+00 -0.00000000000E+00 -0.35740347158E-01  0.35744000000E-01  0.51099999109E-03 0.  1.
       22    1    1    2    0    0  0.41509840189E-04  0.59603502149E-02 -0.35236431248E-01  0.35737005818E-01  0.00000000000E+00 0.  1.
  9000001    1    1    2    0    0 -0.41509840189E-04 -0.59603502149E-02  0.35236431248E-01  0.35750994182E-01  0.10000000475E-02 0. -1.
</event>
<event>
 4   0  0.4809415E-02  0.9118800E+02  0.7818609E-02  0.1379984E+01
      -11   -1    0    0    0    0  0.00000000000E+00  0.00000000000E+00  0.35740347158E-01  0.35744000000E-01  0.51099999109E-03 0. -1.
       11   -1    0    0    0    0 -0.00000000000E+00 -0.00000000000E+00 -0.35740347158E-01  0.35744000000E-01  0.51099999109E-03 0.  1.
       22    1    1    2    0    0 -0.29316334902E-01  0.46372185334E-02 -0.19904328601E-01  0.35737005818E-01  0.00000000000E+00 0.  1.
  9000001    1    1    2    0    0  0.29316334902E-01 -0.46372185334E-02  0.19904328601E-01  0.35750994182E-01  0.10000000475E-02 0. -1.
</event>
<event>
 4   0  0.4809415E-02  0.9118800E+02  0.7818609E-02  0.1379984E+01
      -11   -1    0    0    0    0  0.00000000000E+00  0.00000000000E+00  0.35740347158E-01  0.35744000000E-01  0.51099999109E-03 0.  1.
       11   -1    0    0    0    0 -0.00000000000E+00 -0.00000000000E+00 -0.35740347158E-01  0.35744000000E-01  0.51099999109E-03 0. -1.
       22    1    1    2    0    0  0.24981616775E-01 -0.15729329700E-01 -0.20140521229E-01  0.35737005818E-01  0.00000000000E+00 0. -1.
  9000001    1    1    2    0    0 -0.24981616775E-01  0.15729329700E-01  0.20140521229E-01  0.35750994182E-01  0.10000000475E-02 0.  1.
</event>
<event>
 4   0  0.4809415E-02  0.9118800E+02  0.7818609E-02  0.1379984E+01
      -11   -1    0    0    0    0  0.00000000000E+00  0.00000000000E+00  0.35740347158E-01  0.35744000000E-01  0.51099999109E-03 0.  1.
       11   -1    0    0    0    0 -0.00000000000E+00 -0.00000000000E+00 -0.35740347158E-01  0.35744000000E-01  0.51099999109E-03 0. -1.
       22    1    1    2    0    0 -0.53379918357E-02 -0.12245921570E-01  0.33146294407E-01  0.35737005818E-01  0.00000000000E+00 0.  1.
  9000001    1    1    2    0    0  0.53379918357E-02  0.12245921570E-01 -0.33146294407E-01  0.35750994182E-01  0.10000000475E-02 0. -1.
</event>
<event>
 4   0  0.4809415E-02  0.9118800E+02  0.7818609E-02  0.1379984E+01
      -11   -1    0    0    0    0  0.00000000000E+00  0.00000000000E+00  0.35740347158E-01  0.35744000000E-01  0.51099999109E-03 0.  1.
       11   -1    0    0    0    0 -0.00000000000E+00 -0.00000000000E+00 -0.35740347158E-01  0.35744000000E-01  0.51099999109E-03 0. -1.
       22    1    1    2    0    0  0.69252630741E-02  0.83443185545E-03  0.35049651064E-01  0.35737005818E-01  0.00000000000E+00 0.  1.
  9000001    1    1    2    0    0 -0.69252630741E-02 -0.83443185545E-03 -0.35049651064E-01  0.35750994182E-01  0.10000000475E-02 0. -1.
</event>
<event>
 4   0  0.4809415E-02  0.9118800E+02  0.7818609E-02  0.1379984E+01
      -11   -1    0    0    0    0  0.00000000000E+00  0.00000000000E+00  0.35740347158E-01  0.35744000000E-01  0.51099999109E-03 0. -1.
       11   -1    0    0    0    0 -0.00000000000E+00 -0.00000000000E+00 -0.35740347158E-01  0.35744000000E-01  0.51099999109E-03 0.  1.
       22    1    1    2    0    0 -0.63074699390E-02 -0.71989126525E-02 -0.34431454580E-01  0.35737005818E-01  0.00000000000E+00 0.  1.
  9000001    1    1    2    0    0  0.63074699390E-02  0.71989126525E-02  0.34431454580E-01  0.35750994182E-01  0.10000000475E-02 0. -1.
</event>
<event>
 4   0  0.4809415E-02  0.9118800E+02  0.7818609E-02  0.1379984E+01
      -11   -1    0    0    0    0  0.00000000000E+00  0.00000000000E+00  0.35740347158E-01  0.35744000000E-01  0.51099999109E-03 0. -1.
       11   -1    0    0    0    0 -0.00000000000E+00 -0.00000000000E+00 -0.35740347158E-01  0.35744000000E-01  0.51099999109E-03 0.  1.
       22    1    1    2    0    0  0.68638192406E-02  0.15933763013E-01  0.31243187522E-01  0.35737005818E-01  0.00000000000E+00 0. -1.
  9000001    1    1    2    0    0 -0.68638192406E-02 -0.15933763013E-01 -0.31243187522E-01  0.35750994182E-01  0.10000000475E-02 0.  1.
</event>
<event>
 4   0  0.4809415E-02  0.9118800E+02  0.7818609E-02  0.1379984E+01
      -11   -1    0    0    0    0  0.00000000000E+00  0.00000000000E+00  0.35740347158E-01  0.35744000000E-01  0.51099999109E-03 0.  1.
       11   -1    0    0    0    0 -0.00000000000E+00 -0.00000000000E+00 -0.35740347158E-01  0.35744000000E-01  0.51099999109E-03 0. -1.
       22    1    1    2    0    0  0.39925197241E-02  0.49634853065E-03  0.35509815675E-01  0.35737005818E-01  0.00000000000E+00 0.  1.
  9000001    1    1    2    0    0 -0.39925197241E-02 -0.49634853065E-03 -0.35509815675E-01  0.35750994182E-01  0.10000000475E-02 0. -1.
</event>
<event>
 4   0  0.4809415E-02  0.9118800E+02  0.7818609E-02  0.1379984E+01
      -11   -1    0    0    0    0  0.00000000000E+00  0.00000000000E+00  0.35740347158E-01  0.35744000000E-01  0.51099999109E-03 0.  1.
       11   -1    0    0    0    0 -0.00000000000E+00 -0.00000000000E+00 -0.35740347158E-01  0.35744000000E-01  0.51099999109E-03 0. -1.
       22    1    1    2    0    0  0.24973836952E-02 -0.14601487249E-01 -0.32522195954E-01  0.35737005818E-01  0.00000000000E+00 0. -1.
  9000001    1    1    2    0    0 -0.24973836952E-02  0.14601487249E-01  0.32522195954E-01  0.35750994182E-01  0.10000000475E-02 0.  1.
</event>
<event>
 4   0  0.4809415E-02  0.9118800E+02  0.7818609E-02  0.1379984E+01
      -11   -1    0    0    0    0  0.00000000000E+00  0.00000000000E+00  0.35740347158E-01  0.35744000000E-01  0.51099999109E-03 0.  1.
       11   -1    0    0    0    0 -0.00000000000E+00 -0.00000000000E+00 -0.35740347158E-01  0.35744000000E-01  0.51099999109E-03 0. -1.
       22    1    1    2    0    0  0.10209382555E-01  0.18282850163E-01 -0.28959272826E-01  0.35737005818E-01  0.00000000000E+00 0. -1.
  9000001    1    1    2    0    0 -0.10209382555E-01 -0.18282850163E-01  0.28959272826E-01  0.35750994182E-01  0.10000000475E-02 0.  1.
</event>
<event>
 4   0  0.4809415E-02  0.9118800E+02  0.7818609E-02  0.1379984E+01
      -11   -1    0    0    0    0  0.00000000000E+00  0.00000000000E+00  0.35740347158E-01  0.35744000000E-01  0.51099999109E-03 0. -1.
       11   -1    0    0    0    0 -0.00000000000E+00 -0.00000000000E+00 -0.35740347158E-01  0.35744000000E-01  0.51099999109E-03 0.  1.
       22    1    1    2    0    0  0.17909458372E-03  0.25765874148E-01  0.24763304290E-01  0.35737005818E-01  0.00000000000E+00 0. -1.
  9000001    1    1    2    0    0 -0.17909458372E-03 -0.25765874148E-01 -0.24763304290E-01  0.35750994182E-01  0.10000000475E-02 0.  1.
</event>
<event>
 4   0  0.4809415E-02  0.9118800E+02  0.7818609E-02  0.1379984E+01
      -11   -1    0    0    0    0  0.00000000000E+00  0.00000000000E+00  0.35740347158E-01  0.35744000000E-01  0.51099999109E-03 0.  1.
       11   -1    0    0    0    0 -0.00000000000E+00 -0.00000000000E+00 -0.35740347158E-01  0.35744000000E-01  0.51099999109E-03 0. -1.
       22    1    1    2    0    0 -0.19051448719E-01 -0.68531948052E-02 -0.29448422836E-01  0.35737005818E-01  0.00000000000E+00 0. -1.
  9000001    1    1    2    0    0  0.19051448719E-01  0.68531948052E-02  0.29448422836E-01  0.35750994182E-01  0.10000000475E-02 0.  1.
</event>
<event>
 4   0  0.4809415E-02  0.9118800E+02  0.7818609E-02  0.1379984E+01
      -11   -1    0    0    0    0  0.00000000000E+00  0.00000000000E+00  0.35740347158E-01  0.35744000000E-01  0.51099999109E-03 0. -1.
       11   -1    0    0    0    0 -0.00000000000E+00 -0.00000000000E+00 -0.35740347158E-01  0.35744000000E-01  0.51099999109E-03 0.  1.
       22    1    1    2    0    0 -0.11351002443E-02  0.56104273133E-02 -0.35275604001E-01  0.35737005818E-01  0.00000000000E+00 0.  1.
  9000001    1    1    2    0    0  0.11351002443E-02 -0.56104273133E-02  0.35275604001E-01  0.35750994182E-01  0.10000000475E-02 0. -1.
</event>
<event>
 4   0  0.4809415E-02  0.9118800E+02  0.7818609E-02  0.1379984E+01
      -11   -1    0    0    0    0  0.00000000000E+00  0.00000000000E+00  0.35740347158E-01  0.35744000000E-01  0.51099999109E-03 0.  1.
       11   -1    0    0    0    0 -0.00000000000E+00 -0.00000000000E+00 -0.35740347158E-01  0.35744000000E-01  0.51099999109E-03 0. -1.
       22    1    1    2    0    0 -0.16882172891E-01  0.53375705083E-02 -0.31042489662E-01  0.35737005818E-01  0.00000000000E+00 0. -1.
  9000001    1    1    2    0    0  0.16882172891E-01 -0.53375705083E-02  0.31042489662E-01  0.35750994182E-01  0.10000000475E-02 0.  1.
</event>
<event>
 4   0  0.4809415E-02  0.9118800E+02  0.7818609E-02  0.1379984E+01
      -11   -1    0    0    0    0  0.00000000000E+00  0.00000000000E+00  0.35740347158E-01  0.35744000000E-01  0.51099999109E-03 0.  1.
       11   -1    0    0    0    0 -0.00000000000E+00 -0.00000000000E+00 -0.35740347158E-01  0.35744000000E-01  0.51099999109E-03 0. -1.
       22    1    1    2    0    0  0.10539781107E-01 -0.14565382418E-01 -0.30885210605E-01  0.35737005818E-01  0.00000000000E+00 0. -1.
  9000001    1    1    2    0    0 -0.10539781107E-01  0.14565382418E-01  0.30885210605E-01  0.35750994182E-01  0.10000000475E-02 0.  1.
</event>
<event>
 4   0  0.4809415E-02  0.9118800E+02  0.7818609E-02  0.1379984E+01
      -11   -1    0    0    0    0  0.00000000000E+00  0.00000000000E+00  0.35740347158E-01  0.35744000000E-01  0.51099999109E-03 0.  1.
       11   -1    0    0    0    0 -0.00000000000E+00 -0.00000000000E+00 -0.35740347158E-01  0.35744000000E-01  0.51099999109E-03 0. -1.
       22    1    1    2    0    0 -0.36564019851E-02  0.18826188499E-01  0.30155247238E-01  0.35737005818E-01  0.00000000000E+00 0.  1.
  9000001    1    1    2    0    0  0.36564019851E-02 -0.18826188499E-01 -0.30155247238E-01  0.35750994182E-01  0.10000000475E-02 0. -1.
</event>
<event>
 4   0  0.4809415E-02  0.9118800E+02  0.7818609E-02  0.1379984E+01
      -11   -1    0    0    0    0  0.00000000000E+00  0.00000000000E+00  0.35740347158E-01  0.35744000000E-01  0.51099999109E-03 0. -1.
       11   -1    0    0    0    0 -0.00000000000E+00 -0.00000000000E+00 -0.35740347158E-01  0.35744000000E-01  0.51099999109E-03 0.  1.
       22    1    1    2    0    0  0.24046965017E-01  0.30557099010E-02 -0.26259087862E-01  0.35737005818E-01  0.00000000000E+00 0.  1.
  9000001    1    1    2    0    0 -0.24046965017E-01 -0.30557099010E-02  0.26259087862E-01  0.35750994182E-01  0.10000000475E-02 0. -1.
</event>
<event>
 4   0  0.4809415E-02  0.9118800E+02  0.7818609E-02  0.1379984E+01
      -11   -1    0    0    0    0  0.00000000000E+00  0.00000000000E+00  0.35740347158E-01  0.35744000000E-01  0.51099999109E-03 0. -1.
       11   -1    0    0    0    0 -0.00000000000E+00 -0.00000000000E+00 -0.35740347158E-01  0.35744000000E-01  0.51099999109E-03 0.  1.
       22    1    1    2    0    0  0.26256328667E-02 -0.29296390870E-02 -0.35519809286E-01  0.35737005818E-01  0.00000000000E+00 0.  1.
  9000001    1    1    2    0    0 -0.26256328667E-02  0.29296390870E-02  0.35519809286E-01  0.35750994182E-01  0.10000000475E-02 0. -1.
</event>
<event>
 4   0  0.4809415E-02  0.9118800E+02  0.7818609E-02  0.1379984E+01
      -11   -1    0    0    0    0  0.00000000000E+00  0.00000000000E+00  0.35740347158E-01  0.35744000000E-01  0.51099999109E-03 0. -1.
       11   -1    0    0    0    0 -0.00000000000E+00 -0.00000000000E+00 -0.35740347158E-01  0.35744000000E-01  0.51099999109E-03 0.  1.
       22    1    1    2    0    0  0.16735158197E-02  0.35687469692E-01  0.85874134059E-03  0.35737005818E-01  0.00000000000E+00 0.  1.
  9000001    1    1    2    0    0 -0.16735158197E-02 -0.35687469692E-01 -0.85874134059E-03  0.35750994182E-01  0.10000000475E-02 0. -1.
</event>
<event>
 4   0  0.4809415E-02  0.9118800E+02  0.7818609E-02  0.1379984E+01
      -11   -1    0    0    0    0  0.00000000000E+00  0.00000000000E+00  0.35740347158E-01  0.35744000000E-01  0.51099999109E-03 0. -1.
       11   -1    0    0    0    0 -0.00000000000E+00 -0.00000000000E+00 -0.35740347158E-01  0.35744000000E-01  0.51099999109E-03 0.  1.
       22    1    1    2    0    0  0.40454899243E-02  0.10824999685E-01  0.33816962873E-01  0.35737005818E-01  0.00000000000E+00 0. -1.
  9000001    1    1    2    0    0 -0.40454899243E-02 -0.10824999685E-01 -0.33816962873E-01  0.35750994182E-01  0.10000000475E-02 0.  1.
</event>
<event>
 4   0  0.4809415E-02  0.9118800E+02  0.7818609E-02  0.1379984E+01
      -11   -1    0    0    0    0  0.00000000000E+00  0.00000000000E+00  0.35740347158E-01  0.35744000000E-01  0.51099999109E-03 0.  1.
       11   -1    0    0    0    0 -0.00000000000E+00 -0.00000000000E+00 -0.35740347158E-01  0.35744000000E-01  0.51099999109E-03 0. -1.
       22    1    1    2    0    0  0.69141569349E-02 -0.20580266129E-01  0.28386275994E-01  0.35737005818E-01  0.00000000000E+00 0.  1.
  9000001    1    1    2    0    0 -0.69141569349E-02  0.20580266129E-01 -0.28386275994E-01  0.35750994182E-01  0.10000000475E-02 0. -1.
</event>
<event>
 4   0  0.4809415E-02  0.9118800E+02  0.7818609E-02  0.1379984E+01
      -11   -1    0    0    0    0  0.00000000000E+00  0.00000000000E+00  0.35740347158E-01  0.35744000000E-01  0.51099999109E-03 0. -1.
       11   -1    0    0    0    0 -0.00000000000E+00 -0.00000000000E+00 -0.35740347158E-01  0.35744000000E-01  0.51099999109E-03 0.  1.
       22    1    1    2    0    0 -0.81035114056E-02 -0.16834038013E-03  0.34805722939E-01  0.35737005818E-01  0.00000000000E+00 0. -1.
  9000001    1    1    2    0    0  0.81035114056E-02  0.16834038013E-03 -0.34805722939E-01  0.35750994182E-01  0.10000000475E-02 0.  1.
</event>
<event>
 4   0  0.4809415E-02  0.9118800E+02  0.7818609E-02  0.1379984E+01
      -11   -1    0    0    0    0  0.00000000000E+00  0.00000000000E+00  0.35740347158E-01  0.35744000000E-01  0.51099999109E-03 0. -1.
       11   -1    0    0    0    0 -0.00000000000E+00 -0.00000000000E+00 -0.35740347158E-01  0.35744000000E-01  0.51099999109E-03 0.  1.
       22    1    1    2    0    0 -0.13822668607E-02  0.34615038673E-01  0.87762190541E-02  0.35737005818E-01  0.00000000000E+00 0.  1.
  9000001    1    1    2    0    0  0.13822668607E-02 -0.34615038673E-01 -0.87762190541E-02  0.35750994182E-01  0.10000000475E-02 0. -1.
</event>
<event>
 4   0  0.4809415E-02  0.9118800E+02  0.7818609E-02  0.1379984E+01
      -11   -1    0    0    0    0  0.00000000000E+00  0.00000000000E+00  0.35740347158E-01  0.35744000000E-01  0.51099999109E-03 0. -1.
       11   -1    0    0    0    0 -0.00000000000E+00 -0.00000000000E+00 -0.35740347158E-01  0.35744000000E-01  0.51099999109E-03 0.  1.
       22    1    1    2    0    0 -0.12968939969E-01 -0.52923303951E-02 -0.32877521499E-01  0.35737005818E-01  0.00000000000E+00 0.  1.
  9000001    1    1    2    0    0  0.12968939969E-01  0.52923303951E-02  0.32877521499E-01  0.35750994182E-01  0.10000000475E-02 0. -1.
</event>
<event>
 4   0  0.4809415E-02  0.9118800E+02  0.7818609E-02  0.1379984E+01
      -11   -1    0    0    0    0  0.00000000000E+00  0.00000000000E+00  0.35740347158E-01  0.35744000000E-01  0.51099999109E-03 0. -1.
       11   -1    0    0    0    0 -0.00000000000E+00 -0.00000000000E+00 -0.35740347158E-01  0.35744000000E-01  0.51099999109E-03 0.  1.
       22    1    1    2    0    0  0.33922219101E-01 -0.11097693978E-01 -0.18049444563E-02  0.35737005818E-01  0.00000000000E+00 0. -1.
  9000001    1    1    2    0    0 -0.33922219101E-01  0.11097693978E-01  0.18049444563E-02  0.35750994182E-01  0.10000000475E-02 0.  1.
</event>
<event>
 4   0  0.4809415E-02  0.9118800E+02  0.7818609E-02  0.1379984E+01
      -11   -1    0    0    0    0  0.00000000000E+00  0.00000000000E+00  0.35740347158E-01  0.35744000000E-01  0.51099999109E-03 0.  1.
       11   -1    0    0    0    0 -0.00000000000E+00 -0.00000000000E+00 -0.35740347158E-01  0.35744000000E-01  0.51099999109E-03 0. -1.
       22    1    1    2    0    0 -0.22441471186E-01  0.32860624423E-02  0.27617308875E-01  0.35737005818E-01  0.00000000000E+00 0.  1.
  9000001    1    1    2    0    0  0.22441471186E-01 -0.32860624423E-02 -0.27617308875E-01  0.35750994182E-01  0.10000000475E-02 0. -1.
</event>
<event>
 4   0  0.4809415E-02  0.9118800E+02  0.7818609E-02  0.1379984E+01
      -11   -1    0    0    0    0  0.00000000000E+00  0.00000000000E+00  0.35740347158E-01  0.35744000000E-01  0.51099999109E-03 0.  1.
       11   -1    0    0    0    0 -0.00000000000E+00 -0.00000000000E+00 -0.35740347158E-01  0.35744000000E-01  0.51099999109E-03 0. -1.
       22    1    1    2    0    0 -0.71644700957E-02 -0.10024893602E-02 -0.34997127999E-01  0.35737005818E-01  0.00000000000E+00 0. -1.
  9000001    1    1    2    0    0  0.71644700957E-02  0.10024893602E-02  0.34997127999E-01  0.35750994182E-01  0.10000000475E-02 0.  1.
</event>
<event>
 4   0  0.4809415E-02  0.9118800E+02  0.7818609E-02  0.1379984E+01
      -11   -1    0    0    0    0  0.00000000000E+00  0.00000000000E+00  0.35740347158E-01  0.35744000000E-01  0.51099999109E-03 0. -1.
       11   -1    0    0    0    0 -0.00000000000E+00 -0.00000000000E+00 -0.35740347158E-01  0.35744000000E-01  0.51099999109E-03 0.  1.
       22    1    1    2    0    0  0.40257610418E-02  0.72150546867E-03 -0.35502200816E-01  0.35737005818E-01  0.00000000000E+00 0.  1.
  9000001    1    1    2    0    0 -0.40257610418E-02 -0.72150546867E-03  0.35502200816E-01  0.35750994182E-01  0.10000000475E-02 0. -1.
</event>
<event>
 4   0  0.4809415E-02  0.9118800E+02  0.7818609E-02  0.1379984E+01
      -11   -1    0    0    0    0  0.00000000000E+00  0.00000000000E+00  0.35740347158E-01  0.35744000000E-01  0.51099999109E-03 0. -1.
       11   -1    0    0    0    0 -0.00000000000E+00 -0.00000000000E+00 -0.35740347158E-01  0.35744000000E-01  0.51099999109E-03 0.  1.
       22    1    1    2    0    0 -0.31521500754E-03 -0.49430055456E-02 -0.35392102517E-01  0.35737005818E-01  0.00000000000E+00 0.  1.
  9000001    1    1    2    0    0  0.31521500754E-03  0.49430055456E-02  0.35392102517E-01  0.35750994182E-01  0.10000000475E-02 0. -1.
</event>
<event>
 4   0  0.4809415E-02  0.9118800E+02  0.7818609E-02  0.1379984E+01
      -11   -1    0    0    0    0  0.00000000000E+00  0.00000000000E+00  0.35740347158E-01  0.35744000000E-01  0.51099999109E-03 0.  1.
       11   -1    0    0    0    0 -0.00000000000E+00 -0.00000000000E+00 -0.35740347158E-01  0.35744000000E-01  0.51099999109E-03 0. -1.
       22    1    1    2    0    0 -0.12281820672E-01 -0.37314436972E-02  0.33352163255E-01  0.35737005818E-01  0.00000000000E+00 0.  1.
  9000001    1    1    2    0    0  0.12281820672E-01  0.37314436972E-02 -0.33352163255E-01  0.35750994182E-01  0.10000000475E-02 0. -1.
</event>
<event>
 4   0  0.4809415E-02  0.9118800E+02  0.7818609E-02  0.1379984E+01
      -11   -1    0    0    0    0  0.00000000000E+00  0.00000000000E+00  0.35740347158E-01  0.35744000000E-01  0.51099999109E-03 0.  1.
       11   -1    0    0    0    0 -0.00000000000E+00 -0.00000000000E+00 -0.35740347158E-01  0.35744000000E-01  0.51099999109E-03 0. -1.
       22    1    1    2    0    0 -0.65268435959E-02  0.37520890182E-02  0.34935021476E-01  0.35737005818E-01  0.00000000000E+00 0.  1.
  9000001    1    1    2    0    0  0.65268435959E-02 -0.37520890182E-02 -0.34935021476E-01  0.35750994182E-01  0.10000000475E-02 0. -1.
</event>
<event>
 4   0  0.4809415E-02  0.9118800E+02  0.7818609E-02  0.1379984E+01
      -11   -1    0    0    0    0  0.00000000000E+00  0.00000000000E+00  0.35740347158E-01  0.35744000000E-01  0.51099999109E-03 0.  1.
       11   -1    0    0    0    0 -0.00000000000E+00 -0.00000000000E+00 -0.35740347158E-01  0.35744000000E-01  0.51099999109E-03 0. -1.
       22    1    1    2    0    0  0.25059887951E-01 -0.25356455154E-01 -0.24871233981E-02  0.35737005818E-01  0.00000000000E+00 0.  1.
  9000001    1    1    2    0    0 -0.25059887951E-01  0.25356455154E-01  0.24871233981E-02  0.35750994182E-01  0.10000000475E-02 0. -1.
</event>
<event>
 4   0  0.4809415E-02  0.9118800E+02  0.7818609E-02  0.1379984E+01
      -11   -1    0    0    0    0  0.00000000000E+00  0.00000000000E+00  0.35740347158E-01  0.35744000000E-01  0.51099999109E-03 0.  1.
       11   -1    0    0    0    0 -0.00000000000E+00 -0.00000000000E+00 -0.35740347158E-01  0.35744000000E-01  0.51099999109E-03 0. -1.
       22    1    1    2    0    0 -0.45658153962E-02  0.17734312859E-01  0.30688451608E-01  0.35737005818E-01  0.00000000000E+00 0.  1.
  9000001    1    1    2    0    0  0.45658153962E-02 -0.17734312859E-01 -0.30688451608E-01  0.35750994182E-01  0.10000000475E-02 0. -1.
</event>
<event>
 4   0  0.4809415E-02  0.9118800E+02  0.7818609E-02  0.1379984E+01
      -11   -1    0    0    0    0  0.00000000000E+00  0.00000000000E+00  0.35740347158E-01  0.35744000000E-01  0.51099999109E-03 0.  1.
       11   -1    0    0    0    0 -0.00000000000E+00 -0.00000000000E+00 -0.35740347158E-01  0.35744000000E-01  0.51099999109E-03 0. -1.
       22    1    1    2    0    0 -0.32219554193E-01  0.13776049699E-01 -0.70181455649E-02  0.35737005818E-01  0.00000000000E+00 0.  1.
  9000001    1    1    2    0    0  0.32219554193E-01 -0.13776049699E-01  0.70181455649E-02  0.35750994182E-01  0.10000000475E-02 0. -1.
</event>
<event>
 4   0  0.4809415E-02  0.9118800E+02  0.7818609E-02  0.1379984E+01
      -11   -1    0    0    0    0  0.00000000000E+00  0.00000000000E+00  0.35740347158E-01  0.35744000000E-01  0.51099999109E-03 0.  1.
       11   -1    0    0    0    0 -0.00000000000E+00 -0.00000000000E+00 -0.35740347158E-01  0.35744000000E-01  0.51099999109E-03 0. -1.
       22    1    1    2    0    0 -0.16919080177E-02  0.68581382802E-02 -0.35031942159E-01  0.35737005818E-01  0.00000000000E+00 0. -1.
  9000001    1    1    2    0    0  0.16919080177E-02 -0.68581382802E-02  0.35031942159E-01  0.35750994182E-01  0.10000000475E-02 0.  1.
</event>
<event>
 4   0  0.4809415E-02  0.9118800E+02  0.7818609E-02  0.1379984E+01
      -11   -1    0    0    0    0  0.00000000000E+00  0.00000000000E+00  0.35740347158E-01  0.35744000000E-01  0.51099999109E-03 0.  1.
       11   -1    0    0    0    0 -0.00000000000E+00 -0.00000000000E+00 -0.35740347158E-01  0.35744000000E-01  0.51099999109E-03 0. -1.
       22    1    1    2    0    0 -0.85214966102E-02  0.76626006967E-02  0.33849700604E-01  0.35737005818E-01  0.00000000000E+00 0.  1.
  9000001    1    1    2    0    0  0.85214966102E-02 -0.76626006967E-02 -0.33849700604E-01  0.35750994182E-01  0.10000000475E-02 0. -1.
</event>
<event>
 4   0  0.4809415E-02  0.9118800E+02  0.7818609E-02  0.1379984E+01
      -11   -1    0    0    0    0  0.00000000000E+00  0.00000000000E+00  0.35740347158E-01  0.35744000000E-01  0.51099999109E-03 0. -1.
       11   -1    0    0    0    0 -0.00000000000E+00 -0.00000000000E+00 -0.35740347158E-01  0.35744000000E-01  0.51099999109E-03 0.  1.
       22    1    1    2    0    0  0.12424405337E-01  0.19026612895E-01 -0.27581800859E-01  0.35737005818E-01  0.00000000000E+00 0.  1.
  9000001    1    1    2    0    0 -0.12424405337E-01 -0.19026612895E-01  0.27581800859E-01  0.35750994182E-01  0.10000000475E-02 0. -1.
</event>
<event>
 4   0  0.4809415E-02  0.9118800E+02  0.7818609E-02  0.1379984E+01
      -11   -1    0    0    0    0  0.00000000000E+00  0.00000000000E+00  0.35740347158E-01  0.35744000000E-01  0.51099999109E-03 0.  1.
       11   -1    0    0    0    0 -0.00000000000E+00 -0.00000000000E+00 -0.35740347158E-01  0.35744000000E-01  0.51099999109E-03 0. -1.
       22    1    1    2    0    0  0.63671328404E-02  0.96423594663E-02  0.33817423145E-01  0.35737005818E-01  0.00000000000E+00 0.  1.
  9000001    1    1    2    0    0 -0.63671328404E-02 -0.96423594663E-02 -0.33817423145E-01  0.35750994182E-01  0.10000000475E-02 0. -1.
</event>
<event>
 4   0  0.4809415E-02  0.9118800E+02  0.7818609E-02  0.1379984E+01
      -11   -1    0    0    0    0  0.00000000000E+00  0.00000000000E+00  0.35740347158E-01  0.35744000000E-01  0.51099999109E-03 0.  1.
       11   -1    0    0    0    0 -0.00000000000E+00 -0.00000000000E+00 -0.35740347158E-01  0.35744000000E-01  0.51099999109E-03 0. -1.
       22    1    1    2    0    0 -0.22050002606E-01 -0.50248792421E-02 -0.27670951529E-01  0.35737005818E-01  0.00000000000E+00 0. -1.
  9000001    1    1    2    0    0  0.22050002606E-01  0.50248792421E-02  0.27670951529E-01  0.35750994182E-01  0.10000000475E-02 0.  1.
</event>
<event>
 4   0  0.4809415E-02  0.9118800E+02  0.7818609E-02  0.1379984E+01
      -11   -1    0    0    0    0  0.00000000000E+00  0.00000000000E+00  0.35740347158E-01  0.35744000000E-01  0.51099999109E-03 0. -1.
       11   -1    0    0    0    0 -0.00000000000E+00 -0.00000000000E+00 -0.35740347158E-01  0.35744000000E-01  0.51099999109E-03 0.  1.
       22    1    1    2    0    0 -0.13106024243E-02 -0.57493687965E-02  0.35247136970E-01  0.35737005818E-01  0.00000000000E+00 0. -1.
  9000001    1    1    2    0    0  0.13106024243E-02  0.57493687965E-02 -0.35247136970E-01  0.35750994182E-01  0.10000000475E-02 0.  1.
</event>
<event>
 4   0  0.4809415E-02  0.9118800E+02  0.7818609E-02  0.1379984E+01
      -11   -1    0    0    0    0  0.00000000000E+00  0.00000000000E+00  0.35740347158E-01  0.35744000000E-01  0.51099999109E-03 0.  1.
       11   -1    0    0    0    0 -0.00000000000E+00 -0.00000000000E+00 -0.35740347158E-01  0.35744000000E-01  0.51099999109E-03 0. -1.
       22    1    1    2    0    0 -0.16631404790E-01 -0.18597953160E-01  0.25586052799E-01  0.35737005818E-01  0.00000000000E+00 0.  1.
  9000001    1    1    2    0    0  0.16631404790E-01  0.18597953160E-01 -0.25586052799E-01  0.35750994182E-01  0.10000000475E-02 0. -1.
</event>
<event>
 4   0  0.4809415E-02  0.9118800E+02  0.7818609E-02  0.1379984E+01
      -11   -1    0    0    0    0  0.00000000000E+00  0.00000000000E+00  0.35740347158E-01  0.35744000000E-01  0.51099999109E-03 0.  1.
       11   -1    0    0    0    0 -0.00000000000E+00 -0.00000000000E+00 -0.35740347158E-01  0.35744000000E-01  0.51099999109E-03 0. -1.
       22    1    1    2    0    0  0.29435410762E-02  0.20205060373E-02  0.35558215734E-01  0.35737005818E-01  0.00000000000E+00 0.  1.
  9000001    1    1    2    0    0 -0.29435410762E-02 -0.20205060373E-02 -0.35558215734E-01  0.35750994182E-01  0.10000000475E-02 0. -1.
</event>
<event>
 4   0  0.4809415E-02  0.9118800E+02  0.7818609E-02  0.1379984E+01
      -11   -1    0    0    0    0  0.00000000000E+00  0.00000000000E+00  0.35740347158E-01  0.35744000000E-01  0.51099999109E-03 0.  1.
       11   -1    0    0    0    0 -0.00000000000E+00 -0.00000000000E+00 -0.35740347158E-01  0.35744000000E-01  0.51099999109E-03 0. -1.
       22    1    1    2    0    0 -0.16373325246E-02  0.42358252024E-02  0.35447292025E-01  0.35737005818E-01  0.00000000000E+00 0.  1.
  9000001    1    1    2    0    0  0.16373325246E-02 -0.42358252024E-02 -0.35447292025E-01  0.35750994182E-01  0.10000000475E-02 0. -1.
</event>
<event>
 4   0  0.4809415E-02  0.9118800E+02  0.7818609E-02  0.1379984E+01
      -11   -1    0    0    0    0  0.00000000000E+00  0.00000000000E+00  0.35740347158E-01  0.35744000000E-01  0.51099999109E-03 0. -1.
       11   -1    0    0    0    0 -0.00000000000E+00 -0.00000000000E+00 -0.35740347158E-01  0.35744000000E-01  0.51099999109E-03 0.  1.
       22    1    1    2    0    0 -0.30359707566E-02 -0.46505708740E-02 -0.35302813726E-01  0.35737005818E-01  0.00000000000E+00 0.  1.
  9000001    1    1    2    0    0  0.30359707566E-02  0.46505708740E-02  0.35302813726E-01  0.35750994182E-01  0.10000000475E-02 0. -1.
</event>
<event>
 4   0  0.4809415E-02  0.9118800E+02  0.7818609E-02  0.1379984E+01
      -11   -1    0    0    0    0  0.00000000000E+00  0.00000000000E+00  0.35740347158E-01  0.35744000000E-01  0.51099999109E-03 0. -1.
       11   -1    0    0    0    0 -0.00000000000E+00 -0.00000000000E+00 -0.35740347158E-01  0.35744000000E-01  0.51099999109E-03 0.  1.
       22    1    1    2    0    0  0.12791971720E-01  0.29646492071E-01 -0.15316153312E-01  0.35737005818E-01  0.00000000000E+00 0.  1.
  9000001    1    1    2    0    0 -0.12791971720E-01 -0.29646492071E-01  0.15316153312E-01  0.35750994182E-01  0.10000000475E-02 0. -1.
</event>
<event>
 4   0  0.4809415E-02  0.9118800E+02  0.7818609E-02  0.1379984E+01
      -11   -1    0    0    0    0  0.00000000000E+00  0.00000000000E+00  0.35740347158E-01  0.35744000000E-01  0.51099999109E-03 0. -1.
       11   -1    0    0    0    0 -0.00000000000E+00 -0.00000000000E+00 -0.35740347158E-01  0.35744000000E-01  0.51099999109E-03 0.  1.
       22    1    1    2    0    0  0.54214888766E-02  0.12458034188E-02 -0.35301402480E-01  0.35737005818E-01  0.00000000000E+00 0.  1.
  9000001    1    1    2    0    0 -0.54214888766E-02 -0.12458034188E-02  0.35301402480E-01  0.35750994182E-01  0.10000000475E-02 0. -1.
</event>
<event>
 4   0  0.4809415E-02  0.9118800E+02  0.7818609E-02  0.1379984E+01
      -11   -1    0    0    0    0  0.00000000000E+00  0.00000000000E+00  0.35740347158E-01  0.35744000000E-01  0.51099999109E-03 0. -1.
       11   -1    0    0    0    0 -0.00000000000E+00 -0.00000000000E+00 -0.35740347158E-01  0.35744000000E-01  0.51099999109E-03 0.  1.
       22    1    1    2    0    0 -0.94891689030E-02  0.13623935040E-01 -0.31646131713E-01  0.35737005818E-01  0.00000000000E+00 0.  1.
  9000001    1    1    2    0    0  0.94891689030E-02 -0.13623935040E-01  0.31646131713E-01  0.35750994182E-01  0.10000000475E-02 0. -1.
</event>
<event>
 4   0  0.4809415E-02  0.9118800E+02  0.7818609E-02  0.1379984E+01
      -11   -1    0    0    0    0  0.00000000000E+00  0.00000000000E+00  0.35740347158E-01  0.35744000000E-01  0.51099999109E-03 0. -1.
       11   -1    0    0    0    0 -0.00000000000E+00 -0.00000000000E+00 -0.35740347158E-01  0.35744000000E-01  0.51099999109E-03 0.  1.
       22    1    1    2    0    0  0.21292275110E-01  0.22162729429E-01  0.18236941348E-01  0.35737005818E-01  0.00000000000E+00 0. -1.
  9000001    1    1    2    0    0 -0.21292275110E-01 -0.22162729429E-01 -0.18236941348E-01  0.35750994182E-01  0.10000000475E-02 0.  1.
</event>
<event>
 4   0  0.4809415E-02  0.9118800E+02  0.7818609E-02  0.1379984E+01
      -11   -1    0    0    0    0  0.00000000000E+00  0.00000000000E+00  0.35740347158E-01  0.35744000000E-01  0.51099999109E-03 0.  1.
       11   -1    0    0    0    0 -0.00000000000E+00 -0.00000000000E+00 -0.35740347158E-01  0.35744000000E-01  0.51099999109E-03 0. -1.
       22    1    1    2    0    0 -0.16828618333E-01 -0.30961519533E-01  0.59426844153E-02  0.35737005818E-01  0.00000000000E+00 0.  1.
  9000001    1    1    2    0    0  0.16828618333E-01  0.30961519533E-01 -0.59426844153E-02  0.35750994182E-01  0.10000000475E-02 0. -1.
</event>
<event>
 4   0  0.4809415E-02  0.9118800E+02  0.7818609E-02  0.1379984E+01
      -11   -1    0    0    0    0  0.00000000000E+00  0.00000000000E+00  0.35740347158E-01  0.35744000000E-01  0.51099999109E-03 0.  1.
       11   -1    0    0    0    0 -0.00000000000E+00 -0.00000000000E+00 -0.35740347158E-01  0.35744000000E-01  0.51099999109E-03 0. -1.
       22    1    1    2    0    0  0.65202957150E-02 -0.19447560829E-01 -0.29264512750E-01  0.35737005818E-01  0.00000000000E+00 0. -1.
  9000001    1    1    2    0    0 -0.65202957150E-02  0.19447560829E-01  0.29264512750E-01  0.35750994182E-01  0.10000000475E-02 0.  1.
</event>
<event>
 4   0  0.4809415E-02  0.9118800E+02  0.7818609E-02  0.1379984E+01
      -11   -1    0    0    0    0  0.00000000000E+00  0.00000000000E+00  0.35740347158E-01  0.35744000000E-01  0.51099999109E-03 0.  1.
       11   -1    0    0    0    0 -0.00000000000E+00 -0.00000000000E+00 -0.35740347158E-01  0.35744000000E-01  0.51099999109E-03 0. -1.
       22    1    1    2    0    0  0.16334031996E-02 -0.31033664404E-02  0.35564514556E-01  0.35737005818E-01  0.00000000000E+00 0.  1.
  9000001    1    1    2    0    0 -0.16334031996E-02  0.31033664404E-02 -0.35564514556E-01  0.35750994182E-01  0.10000000475E-02 0. -1.
</event>
<event>
 4   0  0.4809415E-02  0.9118800E+02  0.7818609E-02  0.1379984E+01
      -11   -1    0    0    0    0  0.00000000000E+00  0.00000000000E+00  0.35740347158E-01  0.35744000000E-01  0.51099999109E-03 0.  1.
       11   -1    0    0    0    0 -0.00000000000E+00 -0.00000000000E+00 -0.35740347158E-01  0.35744000000E-01  0.51099999109E-03 0. -1.
       22    1    1    2    0    0 -0.81309383514E-02  0.24645112301E-01 -0.24569083541E-01  0.35737005818E-01  0.00000000000E+00 0. -1.
  9000001    1    1    2    0    0  0.81309383514E-02 -0.24645112301E-01  0.24569083541E-01  0.35750994182E-01  0.10000000475E-02 0.  1.
</event>
<event>
 4   0  0.4809415E-02  0.9118800E+02  0.7818609E-02  0.1379984E+01
      -11   -1    0    0    0    0  0.00000000000E+00  0.00000000000E+00  0.35740347158E-01  0.35744000000E-01  0.51099999109E-03 0. -1.
       11   -1    0    0    0    0 -0.00000000000E+00 -0.00000000000E+00 -0.35740347158E-01  0.35744000000E-01  0.51099999109E-03 0.  1.
       22    1    1    2    0    0 -0.10074706269E-02  0.38537130946E-02  0.35514327858E-01  0.35737005818E-01  0.00000000000E+00 0. -1.
  9000001    1    1    2    0    0  0.10074706269E-02 -0.38537130946E-02 -0.35514327858E-01  0.35750994182E-01  0.10000000475E-02 0.  1.
</event>
<event>
 4   0  0.4809415E-02  0.9118800E+02  0.7818609E-02  0.1379984E+01
      -11   -1    0    0    0    0  0.00000000000E+00  0.00000000000E+00  0.35740347158E-01  0.35744000000E-01  0.51099999109E-03 0. -1.
       11   -1    0    0    0    0 -0.00000000000E+00 -0.00000000000E+00 -0.35740347158E-01  0.35744000000E-01  0.51099999109E-03 0.  1.
       22    1    1    2    0    0  0.68657472696E-03  0.46612097389E-02 -0.35425066320E-01  0.35737005818E-01  0.00000000000E+00 0.  1.
  9000001    1    1    2    0    0 -0.68657472696E-03 -0.46612097389E-02  0.35425066320E-01  0.35750994182E-01  0.10000000475E-02 0. -1.
</event>
<event>
 4   0  0.4809415E-02  0.9118800E+02  0.7818609E-02  0.1379984E+01
      -11   -1    0    0    0    0  0.00000000000E+00  0.00000000000E+00  0.35740347158E-01  0.35744000000E-01  0.51099999109E-03 0. -1.
       11   -1    0    0    0    0 -0.00000000000E+00 -0.00000000000E+00 -0.35740347158E-01  0.35744000000E-01  0.51099999109E-03 0.  1.
       22    1    1    2    0    0  0.78544005289E-03 -0.31932485329E-02  0.35585387909E-01  0.35737005818E-01  0.00000000000E+00 0. -1.
  9000001    1    1    2    0    0 -0.78544005289E-03  0.31932485329E-02 -0.35585387909E-01  0.35750994182E-01  0.10000000475E-02 0.  1.
</event>
<event>
 4   0  0.4809415E-02  0.9118800E+02  0.7818609E-02  0.1379984E+01
      -11   -1    0    0    0    0  0.00000000000E+00  0.00000000000E+00  0.35740347158E-01  0.35744000000E-01  0.51099999109E-03 0. -1.
       11   -1    0    0    0    0 -0.00000000000E+00 -0.00000000000E+00 -0.35740347158E-01  0.35744000000E-01  0.51099999109E-03 0.  1.
       22    1    1    2    0    0 -0.78989834376E-02  0.29084990887E-02 -0.34731545871E-01  0.35737005818E-01  0.00000000000E+00 0.  1.
  9000001    1    1    2    0    0  0.78989834376E-02 -0.29084990887E-02  0.34731545871E-01  0.35750994182E-01  0.10000000475E-02 0. -1.
</event>
<event>
 4   0  0.4809415E-02  0.9118800E+02  0.7818609E-02  0.1379984E+01
      -11   -1    0    0    0    0  0.00000000000E+00  0.00000000000E+00  0.35740347158E-01  0.35744000000E-01  0.51099999109E-03 0. -1.
       11   -1    0    0    0    0 -0.00000000000E+00 -0.00000000000E+00 -0.35740347158E-01  0.35744000000E-01  0.51099999109E-03 0.  1.
       22    1    1    2    0    0  0.33884545876E-02  0.28519588013E-02  0.35461504359E-01  0.35737005818E-01  0.00000000000E+00 0. -1.
  9000001    1    1    2    0    0 -0.33884545876E-02 -0.28519588013E-02 -0.35461504359E-01  0.35750994182E-01  0.10000000475E-02 0.  1.
</event>
<event>
 4   0  0.4809415E-02  0.9118800E+02  0.7818609E-02  0.1379984E+01
      -11   -1    0    0    0    0  0.00000000000E+00  0.00000000000E+00  0.35740347158E-01  0.35744000000E-01  0.51099999109E-03 0.  1.
       11   -1    0    0    0    0 -0.00000000000E+00 -0.00000000000E+00 -0.35740347158E-01  0.35744000000E-01  0.51099999109E-03 0. -1.
       22    1    1    2    0    0  0.22122298403E-01  0.12198381271E-01  0.25277203022E-01  0.35737005818E-01  0.00000000000E+00 0.  1.
  9000001    1    1    2    0    0 -0.22122298403E-01 -0.12198381271E-01 -0.25277203022E-01  0.35750994182E-01  0.10000000475E-02 0. -1.
</event>
<event>
 4   0  0.4809415E-02  0.9118800E+02  0.7818609E-02  0.1379984E+01
      -11   -1    0    0    0    0  0.00000000000E+00  0.00000000000E+00  0.35740347158E-01  0.35744000000E-01  0.51099999109E-03 0.  1.
       11   -1    0    0    0    0 -0.00000000000E+00 -0.00000000000E+00 -0.35740347158E-01  0.35744000000E-01  0.51099999109E-03 0. -1.
       22    1    1    2    0    0 -0.32252569939E-02 -0.10219801518E-01  0.34092329916E-01  0.35737005818E-01  0.00000000000E+00 0.  1.
  9000001    1    1    2    0    0  0.32252569939E-02  0.10219801518E-01 -0.34092329916E-01  0.35750994182E-01  0.10000000475E-02 0. -1.
</event>
<event>
 4   0  0.4809415E-02  0.9118800E+02  0.7818609E-02  0.1379984E+01
      -11   -1    0    0    0    0  0.00000000000E+00  0.00000000000E+00  0.35740347158E-01  0.35744000000E-01  0.51099999109E-03 0.  1.
       11   -1    0    0    0    0 -0.00000000000E+00 -0.00000000000E+00 -0.35740347158E-01  0.35744000000E-01  0.51099999109E-03 0. -1.
       22    1    1    2    0    0  0.46125786454E-02  0.12179169922E-02 -0.35417148125E-01  0.35737005818E-01  0.00000000000E+00 0. -1.
  9000001    1    1    2    0    0 -0.46125786454E-02 -0.12179169922E-02  0.35417148125E-01  0.35750994182E-01  0.10000000475E-02 0.  1.
</event>
<event>
 4   0  0.4809415E-02  0.9118800E+02  0.7818609E-02  0.1379984E+01
      -11   -1    0    0    0    0  0.00000000000E+00  0.00000000000E+00  0.35740347158E-01  0.35744000000E-01  0.51099999109E-03 0. -1.
       11   -1    0    0    0    0 -0.00000000000E+00 -0.00000000000E+00 -0.35740347158E-01  0.35744000000E-01  0.51099999109E-03 0.  1.
       22    1    1    2    0    0  0.50363078565E-02 -0.32486073923E-02  0.35230891815E-01  0.35737005818E-01  0.00000000000E+00 0. -1.
  9000001    1    1    2    0    0 -0.50363078565E-02  0.32486073923E-02 -0.35230891815E-01  0.35750994182E-01  0.10000000475E-02 0.  1.
</event>
<event>
 4   0  0.4809415E-02  0.9118800E+02  0.7818609E-02  0.1379984E+01
      -11   -1    0    0    0    0  0.00000000000E+00  0.00000000000E+00  0.35740347158E-01  0.35744000000E-01  0.51099999109E-03 0. -1.
       11   -1    0    0    0    0 -0.00000000000E+00 -0.00000000000E+00 -0.35740347158E-01  0.35744000000E-01  0.51099999109E-03 0.  1.
       22    1    1    2    0    0 -0.19889342780E-01  0.27550544022E-01  0.11068656321E-01  0.35737005818E-01  0.00000000000E+00 0.  1.
  9000001    1    1    2    0    0  0.19889342780E-01 -0.27550544022E-01 -0.11068656321E-01  0.35750994182E-01  0.10000000475E-02 0. -1.
</event>
<event>
 4   0  0.4809415E-02  0.9118800E+02  0.7818609E-02  0.1379984E+01
      -11   -1    0    0    0    0  0.00000000000E+00  0.00000000000E+00  0.35740347158E-01  0.35744000000E-01  0.51099999109E-03 0.  1.
       11   -1    0    0    0    0 -0.00000000000E+00 -0.00000000000E+00 -0.35740347158E-01  0.35744000000E-01  0.51099999109E-03 0. -1.
       22    1    1    2    0    0 -0.25651290228E-02 -0.32947492053E-02 -0.35492229088E-01  0.35737005818E-01  0.00000000000E+00 0. -1.
  9000001    1    1    2    0    0  0.25651290228E-02  0.32947492053E-02  0.35492229088E-01  0.35750994182E-01  0.10000000475E-02 0.  1.
</event>
<event>
 4   0  0.4809415E-02  0.9118800E+02  0.7818609E-02  0.1379984E+01
      -11   -1    0    0    0    0  0.00000000000E+00  0.00000000000E+00  0.35740347158E-01  0.35744000000E-01  0.51099999109E-03 0.  1.
       11   -1    0    0    0    0 -0.00000000000E+00 -0.00000000000E+00 -0.35740347158E-01  0.35744000000E-01  0.51099999109E-03 0. -1.
       22    1    1    2    0    0 -0.18432992985E-01  0.55217671549E-04  0.30616258842E-01  0.35737005818E-01  0.00000000000E+00 0.  1.
  9000001    1    1    2    0    0  0.18432992985E-01 -0.55217671549E-04 -0.30616258842E-01  0.35750994182E-01  0.10000000475E-02 0. -1.
</event>
<event>
 4   0  0.4809415E-02  0.9118800E+02  0.7818609E-02  0.1379984E+01
      -11   -1    0    0    0    0  0.00000000000E+00  0.00000000000E+00  0.35740347158E-01  0.35744000000E-01  0.51099999109E-03 0.  1.
       11   -1    0    0    0    0 -0.00000000000E+00 -0.00000000000E+00 -0.35740347158E-01  0.35744000000E-01  0.51099999109E-03 0. -1.
       22    1    1    2    0    0  0.29646478424E-03  0.78174582568E-02  0.34870231429E-01  0.35737005818E-01  0.00000000000E+00 0.  1.
  9000001    1    1    2    0    0 -0.29646478424E-03 -0.78174582568E-02 -0.34870231429E-01  0.35750994182E-01  0.10000000475E-02 0. -1.
</event>
<event>
 4   0  0.4809415E-02  0.9118800E+02  0.7818609E-02  0.1379984E+01
      -11   -1    0    0    0    0  0.00000000000E+00  0.00000000000E+00  0.35740347158E-01  0.35744000000E-01  0.51099999109E-03 0. -1.
       11   -1    0    0    0    0 -0.00000000000E+00 -0.00000000000E+00 -0.35740347158E-01  0.35744000000E-01  0.51099999109E-03 0.  1.
       22    1    1    2    0    0  0.24542123568E-02  0.24242371727E-02 -0.35570120898E-01  0.35737005818E-01  0.00000000000E+00 0.  1.
  9000001    1    1    2    0    0 -0.24542123568E-02 -0.24242371727E-02  0.35570120898E-01  0.35750994182E-01  0.10000000475E-02 0. -1.
</event>
<event>
 4   0  0.4809415E-02  0.9118800E+02  0.7818609E-02  0.1379984E+01
      -11   -1    0    0    0    0  0.00000000000E+00  0.00000000000E+00  0.35740347158E-01  0.35744000000E-01  0.51099999109E-03 0. -1.
       11   -1    0    0    0    0 -0.00000000000E+00 -0.00000000000E+00 -0.35740347158E-01  0.35744000000E-01  0.51099999109E-03 0.  1.
       22    1    1    2    0    0  0.10246098695E-02  0.28560967819E-02 -0.35607955160E-01  0.35737005818E-01  0.00000000000E+00 0.  1.
  9000001    1    1    2    0    0 -0.10246098695E-02 -0.28560967819E-02  0.35607955160E-01  0.35750994182E-01  0.10000000475E-02 0. -1.
</event>
<event>
 4   0  0.4809415E-02  0.9118800E+02  0.7818609E-02  0.1379984E+01
      -11   -1    0    0    0    0  0.00000000000E+00  0.00000000000E+00  0.35740347158E-01  0.35744000000E-01  0.51099999109E-03 0.  1.
       11   -1    0    0    0    0 -0.00000000000E+00 -0.00000000000E+00 -0.35740347158E-01  0.35744000000E-01  0.51099999109E-03 0. -1.
       22    1    1    2    0    0 -0.40470641080E-02 -0.22798614799E-02 -0.35433841008E-01  0.35737005818E-01  0.00000000000E+00 0. -1.
  9000001    1    1    2    0    0  0.40470641080E-02  0.22798614799E-02  0.35433841008E-01  0.35750994182E-01  0.10000000475E-02 0.  1.
</event>
<event>
 4   0  0.4809415E-02  0.9118800E+02  0.7818609E-02  0.1379984E+01
      -11   -1    0    0    0    0  0.00000000000E+00  0.00000000000E+00  0.35740347158E-01  0.35744000000E-01  0.51099999109E-03 0. -1.
       11   -1    0    0    0    0 -0.00000000000E+00 -0.00000000000E+00 -0.35740347158E-01  0.35744000000E-01  0.51099999109E-03 0.  1.
       22    1    1    2    0    0  0.17490092484E-02  0.32459326751E-01 -0.14848119692E-01  0.35737005818E-01  0.00000000000E+00 0.  1.
  9000001    1    1    2    0    0 -0.17490092484E-02 -0.32459326751E-01  0.14848119692E-01  0.35750994182E-01  0.10000000475E-02 0. -1.
</event>
<event>
 4   0  0.4809415E-02  0.9118800E+02  0.7818609E-02  0.1379984E+01
      -11   -1    0    0    0    0  0.00000000000E+00  0.00000000000E+00  0.35740347158E-01  0.35744000000E-01  0.51099999109E-03 0. -1.
       11   -1    0    0    0    0 -0.00000000000E+00 -0.00000000000E+00 -0.35740347158E-01  0.35744000000E-01  0.51099999109E-03 0.  1.
       22    1    1    2    0    0  0.29489164340E-02  0.14461347575E-02 -0.35585757980E-01  0.35737005818E-01  0.00000000000E+00 0.  1.
  9000001    1    1    2    0    0 -0.29489164340E-02 -0.14461347575E-02  0.35585757980E-01  0.35750994182E-01  0.10000000475E-02 0. -1.
</event>
<event>
 4   0  0.4809415E-02  0.9118800E+02  0.7818609E-02  0.1379984E+01
      -11   -1    0    0    0    0  0.00000000000E+00  0.00000000000E+00  0.35740347158E-01  0.35744000000E-01  0.51099999109E-03 0.  1.
       11   -1    0    0    0    0 -0.00000000000E+00 -0.00000000000E+00 -0.35740347158E-01  0.35744000000E-01  0.51099999109E-03 0. -1.
       22    1    1    2    0    0 -0.10003401083E-01  0.43195644057E-02  0.34035377403E-01  0.35737005818E-01  0.00000000000E+00 0.  1.
  9000001    1    1    2    0    0  0.10003401083E-01 -0.43195644057E-02 -0.34035377403E-01  0.35750994182E-01  0.10000000475E-02 0. -1.
</event>
<event>
 4   0  0.4809415E-02  0.9118800E+02  0.7818609E-02  0.1379984E+01
      -11   -1    0    0    0    0  0.00000000000E+00  0.00000000000E+00  0.35740347158E-01  0.35744000000E-01  0.51099999109E-03 0. -1.
       11   -1    0    0    0    0 -0.00000000000E+00 -0.00000000000E+00 -0.35740347158E-01  0.35744000000E-01  0.51099999109E-03 0.  1.
       22    1    1    2    0    0 -0.39298917142E-02  0.33647914685E-01 -0.11380130639E-01  0.35737005818E-01  0.00000000000E+00 0.  1.
  9000001    1    1    2    0    0  0.39298917142E-02 -0.33647914685E-01  0.11380130639E-01  0.35750994182E-01  0.10000000475E-02 0. -1.
</event>
<event>
 4   0  0.4809415E-02  0.9118800E+02  0.7818609E-02  0.1379984E+01
      -11   -1    0    0    0    0  0.00000000000E+00  0.00000000000E+00  0.35740347158E-01  0.35744000000E-01  0.51099999109E-03 0. -1.
       11   -1    0    0    0    0 -0.00000000000E+00 -0.00000000000E+00 -0.35740347158E-01  0.35744000000E-01  0.51099999109E-03 0.  1.
       22    1    1    2    0    0 -0.11468101494E-01  0.33046304359E-01  0.73183332255E-02  0.35737005818E-01  0.00000000000E+00 0.  1.
  9000001    1    1    2    0    0  0.11468101494E-01 -0.33046304359E-01 -0.73183332255E-02  0.35750994182E-01  0.10000000475E-02 0. -1.
</event>
<event>
 4   0  0.4809415E-02  0.9118800E+02  0.7818609E-02  0.1379984E+01
      -11   -1    0    0    0    0  0.00000000000E+00  0.00000000000E+00  0.35740347158E-01  0.35744000000E-01  0.51099999109E-03 0.  1.
       11   -1    0    0    0    0 -0.00000000000E+00 -0.00000000000E+00 -0.35740347158E-01  0.35744000000E-01  0.51099999109E-03 0. -1.
       22    1    1    2    0    0 -0.23043148373E-02 -0.39663624480E-02 -0.35441383818E-01  0.35737005818E-01  0.00000000000E+00 0. -1.
  9000001    1    1    2    0    0  0.23043148373E-02  0.39663624480E-02  0.35441383818E-01  0.35750994182E-01  0.10000000475E-02 0.  1.
</event>
<event>
 4   0  0.4809415E-02  0.9118800E+02  0.7818609E-02  0.1379984E+01
      -11   -1    0    0    0    0  0.00000000000E+00  0.00000000000E+00  0.35740347158E-01  0.35744000000E-01  0.51099999109E-03 0. -1.
       11   -1    0    0    0    0 -0.00000000000E+00 -0.00000000000E+00 -0.35740347158E-01  0.35744000000E-01  0.51099999109E-03 0.  1.
       22    1    1    2    0    0 -0.45012798468E-02  0.91491595584E-02 -0.34251495500E-01  0.35737005818E-01  0.00000000000E+00 0.  1.
  9000001    1    1    2    0    0  0.45012798468E-02 -0.91491595584E-02  0.34251495500E-01  0.35750994182E-01  0.10000000475E-02 0. -1.
</event>
<event>
 4   0  0.4809415E-02  0.9118800E+02  0.7818609E-02  0.1379984E+01
      -11   -1    0    0    0    0  0.00000000000E+00  0.00000000000E+00  0.35740347158E-01  0.35744000000E-01  0.51099999109E-03 0.  1.
       11   -1    0    0    0    0 -0.00000000000E+00 -0.00000000000E+00 -0.35740347158E-01  0.35744000000E-01  0.51099999109E-03 0. -1.
       22    1    1    2    0    0 -0.27280330643E-01  0.11802735384E-01 -0.19839671931E-01  0.35737005818E-01  0.00000000000E+00 0. -1.
  9000001    1    1    2    0    0  0.27280330643E-01 -0.11802735384E-01  0.19839671931E-01  0.35750994182E-01  0.10000000475E-02 0.  1.
</event>
<event>
 4   0  0.4809415E-02  0.9118800E+02  0.7818609E-02  0.1379984E+01
      -11   -1    0    0    0    0  0.00000000000E+00  0.00000000000E+00  0.35740347158E-01  0.35744000000E-01  0.51099999109E-03 0. -1.
       11   -1    0    0    0    0 -0.00000000000E+00 -0.00000000000E+00 -0.35740347158E-01  0.35744000000E-01  0.51099999109E-03 0.  1.
       22    1    1    2    0    0 -0.20554819514E-02  0.10217878499E-01 -0.34183381018E-01  0.35737005818E-01  0.00000000000E+00 0.  1.
  9000001    1    1    2    0    0  0.20554819514E-02 -0.10217878499E-01  0.34183381018E-01  0.35750994182E-01  0.10000000475E-02 0. -1.
</event>
<event>
 4   0  0.4809415E-02  0.9118800E+02  0.7818609E-02  0.1379984E+01
      -11   -1    0    0    0    0  0.00000000000E+00  0.00000000000E+00  0.35740347158E-01  0.35744000000E-01  0.51099999109E-03 0.  1.
       11   -1    0    0    0    0 -0.00000000000E+00 -0.00000000000E+00 -0.35740347158E-01  0.35744000000E-01  0.51099999109E-03 0. -1.
       22    1    1    2    0    0  0.68496366725E-02  0.56287270122E-02  0.34619842497E-01  0.35737005818E-01  0.00000000000E+00 0.  1.
  9000001    1    1    2    0    0 -0.68496366725E-02 -0.56287270122E-02 -0.34619842497E-01  0.35750994182E-01  0.10000000475E-02 0. -1.
</event>
<event>
 4   0  0.4809415E-02  0.9118800E+02  0.7818609E-02  0.1379984E+01
      -11   -1    0    0    0    0  0.00000000000E+00  0.00000000000E+00  0.35740347158E-01  0.35744000000E-01  0.51099999109E-03 0. -1.
       11   -1    0    0    0    0 -0.00000000000E+00 -0.00000000000E+00 -0.35740347158E-01  0.35744000000E-01  0.51099999109E-03 0.  1.
       22    1    1    2    0    0 -0.15270289770E-02  0.53170013798E-02  0.35306249641E-01  0.35737005818E-01  0.00000000000E+00 0. -1.
  9000001    1    1    2    0    0  0.15270289770E-02 -0.53170013798E-02 -0.35306249641E-01  0.35750994182E-01  0.10000000475E-02 0.  1.
</event>
<event>
 4   0  0.4809415E-02  0.9118800E+02  0.7818609E-02  0.1379984E+01
      -11   -1    0    0    0    0  0.00000000000E+00  0.00000000000E+00  0.35740347158E-01  0.35744000000E-01  0.51099999109E-03 0.  1.
       11   -1    0    0    0    0 -0.00000000000E+00 -0.00000000000E+00 -0.35740347158E-01  0.35744000000E-01  0.51099999109E-03 0. -1.
       22    1    1    2    0    0  0.41235441465E-02  0.12640768851E-01 -0.33171387239E-01  0.35737005818E-01  0.00000000000E+00 0. -1.
  9000001    1    1    2    0    0 -0.41235441465E-02 -0.12640768851E-01  0.33171387239E-01  0.35750994182E-01  0.10000000475E-02 0.  1.
</event>
<event>
 4   0  0.4809415E-02  0.9118800E+02  0.7818609E-02  0.1379984E+01
      -11   -1    0    0    0    0  0.00000000000E+00  0.00000000000E+00  0.35740347158E-01  0.35744000000E-01  0.51099999109E-03 0. -1.
       11   -1    0    0    0    0 -0.00000000000E+00 -0.00000000000E+00 -0.35740347158E-01  0.35744000000E-01  0.51099999109E-03 0.  1.
       22    1    1    2    0    0  0.12753047293E-01 -0.18087107603E-01  0.28059756024E-01  0.35737005818E-01  0.00000000000E+00 0. -1.
  9000001    1    1    2    0    0 -0.12753047293E-01  0.18087107603E-01 -0.28059756024E-01  0.35750994182E-01  0.10000000475E-02 0.  1.
</event>
<event>
 4   0  0.4809415E-02  0.9118800E+02  0.7818609E-02  0.1379984E+01
      -11   -1    0    0    0    0  0.00000000000E+00  0.00000000000E+00  0.35740347158E-01  0.35744000000E-01  0.51099999109E-03 0. -1.
       11   -1    0    0    0    0 -0.00000000000E+00 -0.00000000000E+00 -0.35740347158E-01  0.35744000000E-01  0.51099999109E-03 0.  1.
       22    1    1    2    0    0 -0.68387424967E-03 -0.14788449157E-01  0.32526414995E-01  0.35737005818E-01  0.00000000000E+00 0. -1.
  9000001    1    1    2    0    0  0.68387424967E-03  0.14788449157E-01 -0.32526414995E-01  0.35750994182E-01  0.10000000475E-02 0.  1.
</event>
<event>
 4   0  0.4809415E-02  0.9118800E+02  0.7818609E-02  0.1379984E+01
      -11   -1    0    0    0    0  0.00000000000E+00  0.00000000000E+00  0.35740347158E-01  0.35744000000E-01  0.51099999109E-03 0. -1.
       11   -1    0    0    0    0 -0.00000000000E+00 -0.00000000000E+00 -0.35740347158E-01  0.35744000000E-01  0.51099999109E-03 0.  1.
       22    1    1    2    0    0  0.22623040947E-01  0.25709060417E-01 -0.10216448288E-01  0.35737005818E-01  0.00000000000E+00 0.  1.
  9000001    1    1    2    0    0 -0.22623040947E-01 -0.25709060417E-01  0.10216448288E-01  0.35750994182E-01  0.10000000475E-02 0. -1.
</event>
<event>
 4   0  0.4809415E-02  0.9118800E+02  0.7818609E-02  0.1379984E+01
      -11   -1    0    0    0    0  0.00000000000E+00  0.00000000000E+00  0.35740347158E-01  0.35744000000E-01  0.51099999109E-03 0. -1.
       11   -1    0    0    0    0 -0.00000000000E+00 -0.00000000000E+00 -0.35740347158E-01  0.35744000000E-01  0.51099999109E-03 0.  1.
       22    1    1    2    0    0  0.99410029258E-02 -0.29103872826E-01 -0.18200951410E-01  0.35737005818E-01  0.00000000000E+00 0.  1.
  9000001    1    1    2    0    0 -0.99410029258E-02  0.29103872826E-01  0.18200951410E-01  0.35750994182E-01  0.10000000475E-02 0. -1.
</event>
<event>
 4   0  0.4809415E-02  0.9118800E+02  0.7818609E-02  0.1379984E+01
      -11   -1    0    0    0    0  0.00000000000E+00  0.00000000000E+00  0.35740347158E-01  0.35744000000E-01  0.51099999109E-03 0. -1.
       11   -1    0    0    0    0 -0.00000000000E+00 -0.00000000000E+00 -0.35740347158E-01  0.35744000000E-01  0.51099999109E-03 0.  1.
       22    1    1    2    0    0  0.10127497077E-01  0.56135421764E-02 -0.33809104278E-01  0.35737005818E-01  0.00000000000E+00 0.  1.
  9000001    1    1    2    0    0 -0.10127497077E-01 -0.56135421764E-02  0.33809104278E-01  0.35750994182E-01  0.10000000475E-02 0. -1.
</event>
<event>
 4   0  0.4809415E-02  0.9118800E+02  0.7818609E-02  0.1379984E+01
      -11   -1    0    0    0    0  0.00000000000E+00  0.00000000000E+00  0.35740347158E-01  0.35744000000E-01  0.51099999109E-03 0.  1.
       11   -1    0    0    0    0 -0.00000000000E+00 -0.00000000000E+00 -0.35740347158E-01  0.35744000000E-01  0.51099999109E-03 0. -1.
       22    1    1    2    0    0 -0.45577820848E-02  0.23773765549E-02  0.35365354347E-01  0.35737005818E-01  0.00000000000E+00 0.  1.
  9000001    1    1    2    0    0  0.45577820848E-02 -0.23773765549E-02 -0.35365354347E-01  0.35750994182E-01  0.10000000475E-02 0. -1.
</event>
<event>
 4   0  0.4809415E-02  0.9118800E+02  0.7818609E-02  0.1379984E+01
      -11   -1    0    0    0    0  0.00000000000E+00  0.00000000000E+00  0.35740347158E-01  0.35744000000E-01  0.51099999109E-03 0. -1.
       11   -1    0    0    0    0 -0.00000000000E+00 -0.00000000000E+00 -0.35740347158E-01  0.35744000000E-01  0.51099999109E-03 0.  1.
       22    1    1    2    0    0 -0.13914147279E-02 -0.30195631997E-02 -0.35582014952E-01  0.35737005818E-01  0.00000000000E+00 0.  1.
  9000001    1    1    2    0    0  0.13914147279E-02  0.30195631997E-02  0.35582014952E-01  0.35750994182E-01  0.10000000475E-02 0. -1.
</event>
<event>
 4   0  0.4809415E-02  0.9118800E+02  0.7818609E-02  0.1379984E+01
      -11   -1    0    0    0    0  0.00000000000E+00  0.00000000000E+00  0.35740347158E-01  0.35744000000E-01  0.51099999109E-03 0. -1.
       11   -1    0    0    0    0 -0.00000000000E+00 -0.00000000000E+00 -0.35740347158E-01  0.35744000000E-01  0.51099999109E-03 0.  1.
       22    1    1    2    0    0 -0.24701656741E-02  0.54881257396E-02 -0.35226585731E-01  0.35737005818E-01  0.00000000000E+00 0.  1.
  9000001    1    1    2    0    0  0.24701656741E-02 -0.54881257396E-02  0.35226585731E-01  0.35750994182E-01  0.10000000475E-02 0. -1.
</event>
<event>
 4   0  0.4809415E-02  0.9118800E+02  0.7818609E-02  0.1379984E+01
      -11   -1    0    0    0    0  0.00000000000E+00  0.00000000000E+00  0.35740347158E-01  0.35744000000E-01  0.51099999109E-03 0. -1.
       11   -1    0    0    0    0 -0.00000000000E+00 -0.00000000000E+00 -0.35740347158E-01  0.35744000000E-01  0.51099999109E-03 0.  1.
       22    1    1    2    0    0  0.16212558394E-01 -0.67963043624E-02 -0.31114253682E-01  0.35737005818E-01  0.00000000000E+00 0.  1.
  9000001    1    1    2    0    0 -0.16212558394E-01  0.67963043624E-02  0.31114253682E-01  0.35750994182E-01  0.10000000475E-02 0. -1.
</event>
<event>
 4   0  0.4809415E-02  0.9118800E+02  0.7818609E-02  0.1379984E+01
      -11   -1    0    0    0    0  0.00000000000E+00  0.00000000000E+00  0.35740347158E-01  0.35744000000E-01  0.51099999109E-03 0. -1.
       11   -1    0    0    0    0 -0.00000000000E+00 -0.00000000000E+00 -0.35740347158E-01  0.35744000000E-01  0.51099999109E-03 0.  1.
       22    1    1    2    0    0  0.19647822211E-01 -0.13183035080E-01 -0.26782536350E-01  0.35737005818E-01  0.00000000000E+00 0.  1.
  9000001    1    1    2    0    0 -0.19647822211E-01  0.13183035080E-01  0.26782536350E-01  0.35750994182E-01  0.10000000475E-02 0. -1.
</event>
<event>
 4   0  0.4809415E-02  0.9118800E+02  0.7818609E-02  0.1379984E+01
      -11   -1    0    0    0    0  0.00000000000E+00  0.00000000000E+00  0.35740347158E-01  0.35744000000E-01  0.51099999109E-03 0. -1.
       11   -1    0    0    0    0 -0.00000000000E+00 -0.00000000000E+00 -0.35740347158E-01  0.35744000000E-01  0.51099999109E-03 0.  1.
       22    1    1    2    0    0  0.87796975011E-02  0.29741227417E-01  0.17762598019E-01  0.35737005818E-01  0.00000000000E+00 0.  1.
  9000001    1    1    2    0    0 -0.87796975011E-02 -0.29741227417E-01 -0.17762598019E-01  0.35750994182E-01  0.10000000475E-02 0. -1.
</event>
<event>
 4   0  0.4809415E-02  0.9118800E+02  0.7818609E-02  0.1379984E+01
      -11   -1    0    0    0    0  0.00000000000E+00  0.00000000000E+00  0.35740347158E-01  0.35744000000E-01  0.51099999109E-03 0.  1.
       11   -1    0    0    0    0 -0.00000000000E+00 -0.00000000000E+00 -0.35740347158E-01  0.35744000000E-01  0.51099999109E-03 0. -1.
       22    1    1    2    0    0 -0.50422298137E-02 -0.27743348241E-01  0.21954865787E-01  0.35737005818E-01  0.00000000000E+00 0.  1.
  9000001    1    1    2    0    0  0.50422298137E-02  0.27743348241E-01 -0.21954865787E-01  0.35750994182E-01  0.10000000475E-02 0. -1.
</event>
<event>
 4   0  0.4809415E-02  0.9118800E+02  0.7818609E-02  0.1379984E+01
      -11   -1    0    0    0    0  0.00000000000E+00  0.00000000000E+00  0.35740347158E-01  0.35744000000E-01  0.51099999109E-03 0.  1.
       11   -1    0    0    0    0 -0.00000000000E+00 -0.00000000000E+00 -0.35740347158E-01  0.35744000000E-01  0.51099999109E-03 0. -1.
       22    1    1    2    0    0  0.13803377021E-02 -0.27977718060E-01 -0.22191790032E-01  0.35737005818E-01  0.00000000000E+00 0. -1.
  9000001    1    1    2    0    0 -0.13803377021E-02  0.27977718060E-01  0.22191790032E-01  0.35750994182E-01  0.10000000475E-02 0.  1.
</event>
<event>
 4   0  0.4809415E-02  0.9118800E+02  0.7818609E-02  0.1379984E+01
      -11   -1    0    0    0    0  0.00000000000E+00  0.00000000000E+00  0.35740347158E-01  0.35744000000E-01  0.51099999109E-03 0.  1.
       11   -1    0    0    0    0 -0.00000000000E+00 -0.00000000000E+00 -0.35740347158E-01  0.35744000000E-01  0.51099999109E-03 0. -1.
       22    1    1    2    0    0  0.71511451388E-02 -0.28840558899E-01 -0.19854895377E-01  0.35737005818E-01  0.00000000000E+00 0. -1.
  9000001    1    1    2    0    0 -0.71511451388E-02  0.28840558899E-01  0.19854895377E-01  0.35750994182E-01  0.10000000475E-02 0.  1.
</event>
<event>
 4   0  0.4809415E-02  0.9118800E+02  0.7818609E-02  0.1379984E+01
      -11   -1    0    0    0    0  0.00000000000E+00  0.00000000000E+00  0.35740347158E-01  0.35744000000E-01  0.51099999109E-03 0.  1.
       11   -1    0    0    0    0 -0.00000000000E+00 -0.00000000000E+00 -0.35740347158E-01  0.35744000000E-01  0.51099999109E-03 0. -1.
       22    1    1    2    0    0  0.52028660166E-02 -0.15988051743E-01  0.31534837427E-01  0.35737005818E-01  0.00000000000E+00 0.  1.
  9000001    1    1    2    0    0 -0.52028660166E-02  0.15988051743E-01 -0.31534837427E-01  0.35750994182E-01  0.10000000475E-02 0. -1.
</event>
<event>
 4   0  0.4809415E-02  0.9118800E+02  0.7818609E-02  0.1379984E+01
      -11   -1    0    0    0    0  0.00000000000E+00  0.00000000000E+00  0.35740347158E-01  0.35744000000E-01  0.51099999109E-03 0.  1.
       11   -1    0    0    0    0 -0.00000000000E+00 -0.00000000000E+00 -0.35740347158E-01  0.35744000000E-01  0.51099999109E-03 0. -1.
       22    1    1    2    0    0 -0.35699977395E-02 -0.35431219258E-01 -0.30028990876E-02  0.35737005818E-01  0.00000000000E+00 0.  1.
  9000001    1    1    2    0    0  0.35699977395E-02  0.35431219258E-01  0.30028990876E-02  0.35750994182E-01  0.10000000475E-02 0. -1.
</event>
<event>
 4   0  0.4809415E-02  0.9118800E+02  0.7818609E-02  0.1379984E+01
      -11   -1    0    0    0    0  0.00000000000E+00  0.00000000000E+00  0.35740347158E-01  0.35744000000E-01  0.51099999109E-03 0. -1.
       11   -1    0    0    0    0 -0.00000000000E+00 -0.00000000000E+00 -0.35740347158E-01  0.35744000000E-01  0.51099999109E-03 0.  1.
       22    1    1    2    0    0  0.54594511541E-02  0.39030324221E-02  0.35101201060E-01  0.35737005818E-01  0.00000000000E+00 0. -1.
  9000001    1    1    2    0    0 -0.54594511541E-02 -0.39030324221E-02 -0.35101201060E-01  0.35750994182E-01  0.10000000475E-02 0.  1.
</event>
<event>
 4   0  0.4809415E-02  0.9118800E+02  0.7818609E-02  0.1379984E+01
      -11   -1    0    0    0    0  0.00000000000E+00  0.00000000000E+00  0.35740347158E-01  0.35744000000E-01  0.51099999109E-03 0.  1.
       11   -1    0    0    0    0 -0.00000000000E+00 -0.00000000000E+00 -0.35740347158E-01  0.35744000000E-01  0.51099999109E-03 0. -1.
       22    1    1    2    0    0  0.24535256026E-01 -0.18183547210E-01 -0.18561072368E-01  0.35737005818E-01  0.00000000000E+00 0. -1.
  9000001    1    1    2    0    0 -0.24535256026E-01  0.18183547210E-01  0.18561072368E-01  0.35750994182E-01  0.10000000475E-02 0.  1.
</event>
<event>
 4   0  0.4809415E-02  0.9118800E+02  0.7818609E-02  0.1379984E+01
      -11   -1    0    0    0    0  0.00000000000E+00  0.00000000000E+00  0.35740347158E-01  0.35744000000E-01  0.51099999109E-03 0. -1.
       11   -1    0    0    0    0 -0.00000000000E+00 -0.00000000000E+00 -0.35740347158E-01  0.35744000000E-01  0.51099999109E-03 0.  1.
       22    1    1    2    0    0 -0.27866800426E-01 -0.18397536518E-01  0.12732072452E-01  0.35737005818E-01  0.00000000000E+00 0. -1.
  9000001    1    1    2    0    0  0.27866800426E-01  0.18397536518E-01 -0.12732072452E-01  0.35750994182E-01  0.10000000475E-02 0.  1.
</event>
<event>
 4   0  0.4809415E-02  0.9118800E+02  0.7818609E-02  0.1379984E+01
      -11   -1    0    0    0    0  0.00000000000E+00  0.00000000000E+00  0.35740347158E-01  0.35744000000E-01  0.51099999109E-03 0. -1.
       11   -1    0    0    0    0 -0.00000000000E+00 -0.00000000000E+00 -0.35740347158E-01  0.35744000000E-01  0.51099999109E-03 0.  1.
       22    1    1    2    0    0 -0.32607000468E-02 -0.52780224565E-03 -0.35584025136E-01  0.35737005818E-01  0.00000000000E+00 0.  1.
  9000001    1    1    2    0    0  0.32607000468E-02  0.52780224565E-03  0.35584025136E-01  0.35750994182E-01  0.10000000475E-02 0. -1.
</event>
<event>
 4   0  0.4809415E-02  0.9118800E+02  0.7818609E-02  0.1379984E+01
      -11   -1    0    0    0    0  0.00000000000E+00  0.00000000000E+00  0.35740347158E-01  0.35744000000E-01  0.51099999109E-03 0. -1.
       11   -1    0    0    0    0 -0.00000000000E+00 -0.00000000000E+00 -0.35740347158E-01  0.35744000000E-01  0.51099999109E-03 0.  1.
       22    1    1    2    0    0  0.57498854793E-02 -0.15501669277E-01  0.31682339741E-01  0.35737005818E-01  0.00000000000E+00 0. -1.
  9000001    1    1    2    0    0 -0.57498854793E-02  0.15501669277E-01 -0.31682339741E-01  0.35750994182E-01  0.10000000475E-02 0.  1.
</event>
<event>
 4   0  0.4809415E-02  0.9118800E+02  0.7818609E-02  0.1379984E+01
      -11   -1    0    0    0    0  0.00000000000E+00  0.00000000000E+00  0.35740347158E-01  0.35744000000E-01  0.51099999109E-03 0.  1.
       11   -1    0    0    0    0 -0.00000000000E+00 -0.00000000000E+00 -0.35740347158E-01  0.35744000000E-01  0.51099999109E-03 0. -1.
       22    1    1    2    0    0  0.84661101408E-02  0.44415193007E-02  0.34434451793E-01  0.35737005818E-01  0.00000000000E+00 0.  1.
  9000001    1    1    2    0    0 -0.84661101408E-02 -0.44415193007E-02 -0.34434451793E-01  0.35750994182E-01  0.10000000475E-02 0. -1.
</event>
<event>
 4   0  0.4809415E-02  0.9118800E+02  0.7818609E-02  0.1379984E+01
      -11   -1    0    0    0    0  0.00000000000E+00  0.00000000000E+00  0.35740347158E-01  0.35744000000E-01  0.51099999109E-03 0.  1.
       11   -1    0    0    0    0 -0.00000000000E+00 -0.00000000000E+00 -0.35740347158E-01  0.35744000000E-01  0.51099999109E-03 0. -1.
       22    1    1    2    0    0  0.29858634511E-02  0.13475342670E-01 -0.32964122076E-01  0.35737005818E-01  0.00000000000E+00 0. -1.
  9000001    1    1    2    0    0 -0.29858634511E-02 -0.13475342670E-01  0.32964122076E-01  0.35750994182E-01  0.10000000475E-02 0.  1.
</event>
<event>
 4   0  0.4809415E-02  0.9118800E+02  0.7818609E-02  0.1379984E+01
      -11   -1    0    0    0    0  0.00000000000E+00  0.00000000000E+00  0.35740347158E-01  0.35744000000E-01  0.51099999109E-03 0. -1.
       11   -1    0    0    0    0 -0.00000000000E+00 -0.00000000000E+00 -0.35740347158E-01  0.35744000000E-01  0.51099999109E-03 0.  1.
       22    1    1    2    0    0 -0.20427908197E-03 -0.32563264876E-02 -0.35587753409E-01  0.35737005818E-01  0.00000000000E+00 0.  1.
  9000001    1    1    2    0    0  0.20427908197E-03  0.32563264876E-02  0.35587753409E-01  0.35750994182E-01  0.10000000475E-02 0. -1.
</event>
<event>
 4   0  0.4809415E-02  0.9118800E+02  0.7818609E-02  0.1379984E+01
      -11   -1    0    0    0    0  0.00000000000E+00  0.00000000000E+00  0.35740347158E-01  0.35744000000E-01  0.51099999109E-03 0. -1.
       11   -1    0    0    0    0 -0.00000000000E+00 -0.00000000000E+00 -0.35740347158E-01  0.35744000000E-01  0.51099999109E-03 0.  1.
       22    1    1    2    0    0 -0.27088771406E-02  0.16230031811E-02 -0.35597210989E-01  0.35737005818E-01  0.00000000000E+00 0.  1.
  9000001    1    1    2    0    0  0.27088771406E-02 -0.16230031811E-02  0.35597210989E-01  0.35750994182E-01  0.10000000475E-02 0. -1.
</event>
<event>
 4   0  0.4809415E-02  0.9118800E+02  0.7818609E-02  0.1379984E+01
      -11   -1    0    0    0    0  0.00000000000E+00  0.00000000000E+00  0.35740347158E-01  0.35744000000E-01  0.51099999109E-03 0. -1.
       11   -1    0    0    0    0 -0.00000000000E+00 -0.00000000000E+00 -0.35740347158E-01  0.35744000000E-01  0.51099999109E-03 0.  1.
       22    1    1    2    0    0 -0.52082995505E-05  0.18216909381E-01  0.30745369901E-01  0.35737005818E-01  0.00000000000E+00 0. -1.
  9000001    1    1    2    0    0  0.52082995505E-05 -0.18216909381E-01 -0.30745369901E-01  0.35750994182E-01  0.10000000475E-02 0.  1.
</event>
<event>
 4   0  0.4809415E-02  0.9118800E+02  0.7818609E-02  0.1379984E+01
      -11   -1    0    0    0    0  0.00000000000E+00  0.00000000000E+00  0.35740347158E-01  0.35744000000E-01  0.51099999109E-03 0. -1.
       11   -1    0    0    0    0 -0.00000000000E+00 -0.00000000000E+00 -0.35740347158E-01  0.35744000000E-01  0.51099999109E-03 0.  1.
       22    1    1    2    0    0 -0.36115034046E-03  0.23499660208E-01 -0.26921536461E-01  0.35737005818E-01  0.00000000000E+00 0.  1.
  9000001    1    1    2    0    0  0.36115034046E-03 -0.23499660208E-01  0.26921536461E-01  0.35750994182E-01  0.10000000475E-02 0. -1.
</event>
<event>
 4   0  0.4809415E-02  0.9118800E+02  0.7818609E-02  0.1379984E+01
      -11   -1    0    0    0    0  0.00000000000E+00  0.00000000000E+00  0.35740347158E-01  0.35744000000E-01  0.51099999109E-03 0.  1.
       11   -1    0    0    0    0 -0.00000000000E+00 -0.00000000000E+00 -0.35740347158E-01  0.35744000000E-01  0.51099999109E-03 0. -1.
       22    1    1    2    0    0 -0.18550757226E-01 -0.30465444497E-01  0.22044688293E-02  0.35737005818E-01  0.00000000000E+00 0.  1.
  9000001    1    1    2    0    0  0.18550757226E-01  0.30465444497E-01 -0.22044688293E-02  0.35750994182E-01  0.10000000475E-02 0. -1.
</event>
<event>
 4   0  0.4809415E-02  0.9118800E+02  0.7818609E-02  0.1379984E+01
      -11   -1    0    0    0    0  0.00000000000E+00  0.00000000000E+00  0.35740347158E-01  0.35744000000E-01  0.51099999109E-03 0. -1.
       11   -1    0    0    0    0 -0.00000000000E+00 -0.00000000000E+00 -0.35740347158E-01  0.35744000000E-01  0.51099999109E-03 0.  1.
       22    1    1    2    0    0 -0.98788939705E-02  0.26745756241E-02 -0.34240147255E-01  0.35737005818E-01  0.00000000000E+00 0.  1.
  9000001    1    1    2    0    0  0.98788939705E-02 -0.26745756241E-02  0.34240147255E-01  0.35750994182E-01  0.10000000475E-02 0. -1.
</event>
<event>
 4   0  0.4809415E-02  0.9118800E+02  0.7818609E-02  0.1379984E+01
      -11   -1    0    0    0    0  0.00000000000E+00  0.00000000000E+00  0.35740347158E-01  0.35744000000E-01  0.51099999109E-03 0.  1.
       11   -1    0    0    0    0 -0.00000000000E+00 -0.00000000000E+00 -0.35740347158E-01  0.35744000000E-01  0.51099999109E-03 0. -1.
       22    1    1    2    0    0  0.29764648016E-02  0.26225699575E-02  0.35516142372E-01  0.35737005818E-01  0.00000000000E+00 0.  1.
  9000001    1    1    2    0    0 -0.29764648016E-02 -0.26225699575E-02 -0.35516142372E-01  0.35750994182E-01  0.10000000475E-02 0. -1.
</event>
<event>
 4   0  0.4809415E-02  0.9118800E+02  0.7818609E-02  0.1379984E+01
      -11   -1    0    0    0    0  0.00000000000E+00  0.00000000000E+00  0.35740347158E-01  0.35744000000E-01  0.51099999109E-03 0.  1.
       11   -1    0    0    0    0 -0.00000000000E+00 -0.00000000000E+00 -0.35740347158E-01  0.35744000000E-01  0.51099999109E-03 0. -1.
       22    1    1    2    0    0 -0.17178753591E-01 -0.22540038520E-01  0.21770867540E-01  0.35737005818E-01  0.00000000000E+00 0.  1.
  9000001    1    1    2    0    0  0.17178753591E-01  0.22540038520E-01 -0.21770867540E-01  0.35750994182E-01  0.10000000475E-02 0. -1.
</event>
<event>
 4   0  0.4809415E-02  0.9118800E+02  0.7818609E-02  0.1379984E+01
      -11   -1    0    0    0    0  0.00000000000E+00  0.00000000000E+00  0.35740347158E-01  0.35744000000E-01  0.51099999109E-03 0.  1.
       11   -1    0    0    0    0 -0.00000000000E+00 -0.00000000000E+00 -0.35740347158E-01  0.35744000000E-01  0.51099999109E-03 0. -1.
       22    1    1    2    0    0  0.75901692599E-02  0.95815838616E-03  0.34908521137E-01  0.35737005818E-01  0.00000000000E+00 0.  1.
  9000001    1    1    2    0    0 -0.75901692599E-02 -0.95815838616E-03 -0.34908521137E-01  0.35750994182E-01  0.10000000475E-02 0. -1.
</event>
<event>
 4   0  0.4809415E-02  0.9118800E+02  0.7818609E-02  0.1379984E+01
      -11   -1    0    0    0    0  0.00000000000E+00  0.00000000000E+00  0.35740347158E-01  0.35744000000E-01  0.51099999109E-03 0. -1.
       11   -1    0    0    0    0 -0.00000000000E+00 -0.00000000000E+00 -0.35740347158E-01  0.35744000000E-01  0.51099999109E-03 0.  1.
       22    1    1    2    0    0 -0.41149455060E-02  0.81138521639E-02 -0.34559603751E-01  0.35737005818E-01  0.00000000000E+00 0.  1.
  9000001    1    1    2    0    0  0.41149455060E-02 -0.81138521639E-02  0.34559603751E-01  0.35750994182E-01  0.10000000475E-02 0. -1.
</event>
<event>
 4   0  0.4809415E-02  0.9118800E+02  0.7818609E-02  0.1379984E+01
      -11   -1    0    0    0    0  0.00000000000E+00  0.00000000000E+00  0.35740347158E-01  0.35744000000E-01  0.51099999109E-03 0. -1.
       11   -1    0    0    0    0 -0.00000000000E+00 -0.00000000000E+00 -0.35740347158E-01  0.35744000000E-01  0.51099999109E-03 0.  1.
       22    1    1    2    0    0 -0.22642543579E-01 -0.26707446463E-01  0.71526993895E-02  0.35737005818E-01  0.00000000000E+00 0. -1.
  9000001    1    1    2    0    0  0.22642543579E-01  0.26707446463E-01 -0.71526993895E-02  0.35750994182E-01  0.10000000475E-02 0.  1.
</event>
<event>
 4   0  0.4809415E-02  0.9118800E+02  0.7818609E-02  0.1379984E+01
      -11   -1    0    0    0    0  0.00000000000E+00  0.00000000000E+00  0.35740347158E-01  0.35744000000E-01  0.51099999109E-03 0. -1.
       11   -1    0    0    0    0 -0.00000000000E+00 -0.00000000000E+00 -0.35740347158E-01  0.35744000000E-01  0.51099999109E-03 0.  1.
       22    1    1    2    0    0 -0.45971854381E-02  0.34117915361E-03 -0.35438440537E-01  0.35737005818E-01  0.00000000000E+00 0.  1.
  9000001    1    1    2    0    0  0.45971854381E-02 -0.34117915361E-03  0.35438440537E-01  0.35750994182E-01  0.10000000475E-02 0. -1.
</event>
<event>
 4   0  0.4809415E-02  0.9118800E+02  0.7818609E-02  0.1379984E+01
      -11   -1    0    0    0    0  0.00000000000E+00  0.00000000000E+00  0.35740347158E-01  0.35744000000E-01  0.51099999109E-03 0.  1.
       11   -1    0    0    0    0 -0.00000000000E+00 -0.00000000000E+00 -0.35740347158E-01  0.35744000000E-01  0.51099999109E-03 0. -1.
       22    1    1    2    0    0  0.35402504512E-02  0.13506006913E-02 -0.35535560913E-01  0.35737005818E-01  0.00000000000E+00 0. -1.
  9000001    1    1    2    0    0 -0.35402504512E-02 -0.13506006913E-02  0.35535560913E-01  0.35750994182E-01  0.10000000475E-02 0.  1.
</event>
<event>
 4   0  0.4809415E-02  0.9118800E+02  0.7818609E-02  0.1379984E+01
      -11   -1    0    0    0    0  0.00000000000E+00  0.00000000000E+00  0.35740347158E-01  0.35744000000E-01  0.51099999109E-03 0. -1.
       11   -1    0    0    0    0 -0.00000000000E+00 -0.00000000000E+00 -0.35740347158E-01  0.35744000000E-01  0.51099999109E-03 0.  1.
       22    1    1    2    0    0 -0.35082753077E-02  0.28767419105E-02  0.35447848245E-01  0.35737005818E-01  0.00000000000E+00 0. -1.
  9000001    1    1    2    0    0  0.35082753077E-02 -0.28767419105E-02 -0.35447848245E-01  0.35750994182E-01  0.10000000475E-02 0.  1.
</event>
<event>
 4   0  0.4809415E-02  0.9118800E+02  0.7818609E-02  0.1379984E+01
      -11   -1    0    0    0    0  0.00000000000E+00  0.00000000000E+00  0.35740347158E-01  0.35744000000E-01  0.51099999109E-03 0.  1.
       11   -1    0    0    0    0 -0.00000000000E+00 -0.00000000000E+00 -0.35740347158E-01  0.35744000000E-01  0.51099999109E-03 0. -1.
       22    1    1    2    0    0  0.23561779477E-02 -0.57024842195E-02 -0.35200336420E-01  0.35737005818E-01  0.00000000000E+00 0. -1.
  9000001    1    1    2    0    0 -0.23561779477E-02  0.57024842195E-02  0.35200336420E-01  0.35750994182E-01  0.10000000475E-02 0.  1.
</event>
<event>
 4   0  0.4809415E-02  0.9118800E+02  0.7818609E-02  0.1379984E+01
      -11   -1    0    0    0    0  0.00000000000E+00  0.00000000000E+00  0.35740347158E-01  0.35744000000E-01  0.51099999109E-03 0. -1.
       11   -1    0    0    0    0 -0.00000000000E+00 -0.00000000000E+00 -0.35740347158E-01  0.35744000000E-01  0.51099999109E-03 0.  1.
       22    1    1    2    0    0  0.95431749033E-02 -0.11683663907E-01 -0.32396811500E-01  0.35737005818E-01  0.00000000000E+00 0.  1.
  9000001    1    1    2    0    0 -0.95431749033E-02  0.11683663907E-01  0.32396811500E-01  0.35750994182E-01  0.10000000475E-02 0. -1.
</event>
<event>
 4   0  0.4809415E-02  0.9118800E+02  0.7818609E-02  0.1379984E+01
      -11   -1    0    0    0    0  0.00000000000E+00  0.00000000000E+00  0.35740347158E-01  0.35744000000E-01  0.51099999109E-03 0. -1.
       11   -1    0    0    0    0 -0.00000000000E+00 -0.00000000000E+00 -0.35740347158E-01  0.35744000000E-01  0.51099999109E-03 0.  1.
       22    1    1    2    0    0 -0.13742477869E-01  0.15875126918E-01  0.28918129819E-01  0.35737005818E-01  0.00000000000E+00 0. -1.
  9000001    1    1    2    0    0  0.13742477869E-01 -0.15875126918E-01 -0.28918129819E-01  0.35750994182E-01  0.10000000475E-02 0.  1.
</event>
<event>
 4   0  0.4809415E-02  0.9118800E+02  0.7818609E-02  0.1379984E+01
      -11   -1    0    0    0    0  0.00000000000E+00  0.00000000000E+00  0.35740347158E-01  0.35744000000E-01  0.51099999109E-03 0.  1.
       11   -1    0    0    0    0 -0.00000000000E+00 -0.00000000000E+00 -0.35740347158E-01  0.35744000000E-01  0.51099999109E-03 0. -1.
       22    1    1    2    0    0  0.87425207284E-02  0.14606173764E-01 -0.31422310611E-01  0.35737005818E-01  0.00000000000E+00 0. -1.
  9000001    1    1    2    0    0 -0.87425207284E-02 -0.14606173764E-01  0.31422310611E-01  0.35750994182E-01  0.10000000475E-02 0.  1.
</event>
<event>
 4   0  0.4809415E-02  0.9118800E+02  0.7818609E-02  0.1379984E+01
      -11   -1    0    0    0    0  0.00000000000E+00  0.00000000000E+00  0.35740347158E-01  0.35744000000E-01  0.51099999109E-03 0.  1.
       11   -1    0    0    0    0 -0.00000000000E+00 -0.00000000000E+00 -0.35740347158E-01  0.35744000000E-01  0.51099999109E-03 0. -1.
       22    1    1    2    0    0  0.11757366523E-01  0.21162242801E-01  0.26287970575E-01  0.35737005818E-01  0.00000000000E+00 0.  1.
  9000001    1    1    2    0    0 -0.11757366523E-01 -0.21162242801E-01 -0.26287970575E-01  0.35750994182E-01  0.10000000475E-02 0. -1.
</event>
<event>
 4   0  0.4809415E-02  0.9118800E+02  0.7818609E-02  0.1379984E+01
      -11   -1    0    0    0    0  0.00000000000E+00  0.00000000000E+00  0.35740347158E-01  0.35744000000E-01  0.51099999109E-03 0. -1.
       11   -1    0    0    0    0 -0.00000000000E+00 -0.00000000000E+00 -0.35740347158E-01  0.35744000000E-01  0.51099999109E-03 0.  1.
       22    1    1    2    0    0 -0.18400284262E-02 -0.25532304250E-02  0.35598158585E-01  0.35737005818E-01  0.00000000000E+00 0. -1.
  9000001    1    1    2    0    0  0.18400284262E-02  0.25532304250E-02 -0.35598158585E-01  0.35750994182E-01  0.10000000475E-02 0.  1.
</event>
<event>
 4   0  0.4809415E-02  0.9118800E+02  0.7818609E-02  0.1379984E+01
      -11   -1    0    0    0    0  0.00000000000E+00  0.00000000000E+00  0.35740347158E-01  0.35744000000E-01  0.51099999109E-03 0. -1.
       11   -1    0    0    0    0 -0.00000000000E+00 -0.00000000000E+00 -0.35740347158E-01  0.35744000000E-01  0.51099999109E-03 0.  1.
       22    1    1    2    0    0 -0.15363278525E-01 -0.39492775668E-02  0.32023529858E-01  0.35737005818E-01  0.00000000000E+00 0. -1.
  9000001    1    1    2    0    0  0.15363278525E-01  0.39492775668E-02 -0.32023529858E-01  0.35750994182E-01  0.10000000475E-02 0.  1.
</event>
<event>
 4   0  0.4809415E-02  0.9118800E+02  0.7818609E-02  0.1379984E+01
      -11   -1    0    0    0    0  0.00000000000E+00  0.00000000000E+00  0.35740347158E-01  0.35744000000E-01  0.51099999109E-03 0. -1.
       11   -1    0    0    0    0 -0.00000000000E+00 -0.00000000000E+00 -0.35740347158E-01  0.35744000000E-01  0.51099999109E-03 0.  1.
       22    1    1    2    0    0  0.49909449713E-02 -0.33624583275E-01 -0.11027758284E-01  0.35737005818E-01  0.00000000000E+00 0.  1.
  9000001    1    1    2    0    0 -0.49909449713E-02  0.33624583275E-01  0.11027758284E-01  0.35750994182E-01  0.10000000475E-02 0. -1.
</event>
<event>
 4   0  0.4809415E-02  0.9118800E+02  0.7818609E-02  0.1379984E+01
      -11   -1    0    0    0    0  0.00000000000E+00  0.00000000000E+00  0.35740347158E-01  0.35744000000E-01  0.51099999109E-03 0. -1.
       11   -1    0    0    0    0 -0.00000000000E+00 -0.00000000000E+00 -0.35740347158E-01  0.35744000000E-01  0.51099999109E-03 0.  1.
       22    1    1    2    0    0  0.15063625096E-02 -0.16220823973E-01 -0.31808007270E-01  0.35737005818E-01  0.00000000000E+00 0.  1.
  9000001    1    1    2    0    0 -0.15063625096E-02  0.16220823973E-01  0.31808007270E-01  0.35750994182E-01  0.10000000475E-02 0. -1.
</event>
<event>
 4   0  0.4809415E-02  0.9118800E+02  0.7818609E-02  0.1379984E+01
      -11   -1    0    0    0    0  0.00000000000E+00  0.00000000000E+00  0.35740347158E-01  0.35744000000E-01  0.51099999109E-03 0.  1.
       11   -1    0    0    0    0 -0.00000000000E+00 -0.00000000000E+00 -0.35740347158E-01  0.35744000000E-01  0.51099999109E-03 0. -1.
       22    1    1    2    0    0 -0.16782103780E-01 -0.25207642380E-01  0.18975493228E-01  0.35737005818E-01  0.00000000000E+00 0.  1.
  9000001    1    1    2    0    0  0.16782103780E-01  0.25207642380E-01 -0.18975493228E-01  0.35750994182E-01  0.10000000475E-02 0. -1.
</event>
<event>
 4   0  0.4809415E-02  0.9118800E+02  0.7818609E-02  0.1379984E+01
      -11   -1    0    0    0    0  0.00000000000E+00  0.00000000000E+00  0.35740347158E-01  0.35744000000E-01  0.51099999109E-03 0. -1.
       11   -1    0    0    0    0 -0.00000000000E+00 -0.00000000000E+00 -0.35740347158E-01  0.35744000000E-01  0.51099999109E-03 0.  1.
       22    1    1    2    0    0  0.43773482137E-02  0.15045976008E-01 -0.32118390580E-01  0.35737005818E-01  0.00000000000E+00 0.  1.
  9000001    1    1    2    0    0 -0.43773482137E-02 -0.15045976008E-01  0.32118390580E-01  0.35750994182E-01  0.10000000475E-02 0. -1.
</event>
<event>
 4   0  0.4809415E-02  0.9118800E+02  0.7818609E-02  0.1379984E+01
      -11   -1    0    0    0    0  0.00000000000E+00  0.00000000000E+00  0.35740347158E-01  0.35744000000E-01  0.51099999109E-03 0.  1.
       11   -1    0    0    0    0 -0.00000000000E+00 -0.00000000000E+00 -0.35740347158E-01  0.35744000000E-01  0.51099999109E-03 0. -1.
       22    1    1    2    0    0  0.39410033451E-02  0.30780083768E-02 -0.35385419906E-01  0.35737005818E-01  0.00000000000E+00 0. -1.
  9000001    1    1    2    0    0 -0.39410033451E-02 -0.30780083768E-02  0.35385419906E-01  0.35750994182E-01  0.10000000475E-02 0.  1.
</event>
<event>
 4   0  0.4809415E-02  0.9118800E+02  0.7818609E-02  0.1379984E+01
      -11   -1    0    0    0    0  0.00000000000E+00  0.00000000000E+00  0.35740347158E-01  0.35744000000E-01  0.51099999109E-03 0. -1.
       11   -1    0    0    0    0 -0.00000000000E+00 -0.00000000000E+00 -0.35740347158E-01  0.35744000000E-01  0.51099999109E-03 0.  1.
       22    1    1    2    0    0 -0.48106874397E-04 -0.30511667096E-02  0.35606483290E-01  0.35737005818E-01  0.00000000000E+00 0. -1.
  9000001    1    1    2    0    0  0.48106874397E-04  0.30511667096E-02 -0.35606483290E-01  0.35750994182E-01  0.10000000475E-02 0.  1.
</event>
<event>
 4   0  0.4809415E-02  0.9118800E+02  0.7818609E-02  0.1379984E+01
      -11   -1    0    0    0    0  0.00000000000E+00  0.00000000000E+00  0.35740347158E-01  0.35744000000E-01  0.51099999109E-03 0.  1.
       11   -1    0    0    0    0 -0.00000000000E+00 -0.00000000000E+00 -0.35740347158E-01  0.35744000000E-01  0.51099999109E-03 0. -1.
       22    1    1    2    0    0  0.30296745857E-02  0.38344673299E-02  0.35401292590E-01  0.35737005818E-01  0.00000000000E+00 0.  1.
  9000001    1    1    2    0    0 -0.30296745857E-02 -0.38344673299E-02 -0.35401292590E-01  0.35750994182E-01  0.10000000475E-02 0. -1.
</event>
<event>
 4   0  0.4809415E-02  0.9118800E+02  0.7818609E-02  0.1379984E+01
      -11   -1    0    0    0    0  0.00000000000E+00  0.00000000000E+00  0.35740347158E-01  0.35744000000E-01  0.51099999109E-03 0. -1.
       11   -1    0    0    0    0 -0.00000000000E+00 -0.00000000000E+00 -0.35740347158E-01  0.35744000000E-01  0.51099999109E-03 0.  1.
       22    1    1    2    0    0  0.34987095238E-02 -0.23792765698E-03 -0.35564532992E-01  0.35737005818E-01  0.00000000000E+00 0.  1.
  9000001    1    1    2    0    0 -0.34987095238E-02  0.23792765698E-03  0.35564532992E-01  0.35750994182E-01  0.10000000475E-02 0. -1.
</event>
<event>
 4   0  0.4809415E-02  0.9118800E+02  0.7818609E-02  0.1379984E+01
      -11   -1    0    0    0    0  0.00000000000E+00  0.00000000000E+00  0.35740347158E-01  0.35744000000E-01  0.51099999109E-03 0.  1.
       11   -1    0    0    0    0 -0.00000000000E+00 -0.00000000000E+00 -0.35740347158E-01  0.35744000000E-01  0.51099999109E-03 0. -1.
       22    1    1    2    0    0 -0.20669920997E-02  0.27418107458E-02 -0.35571668535E-01  0.35737005818E-01  0.00000000000E+00 0. -1.
  9000001    1    1    2    0    0  0.20669920997E-02 -0.27418107458E-02  0.35571668535E-01  0.35750994182E-01  0.10000000475E-02 0.  1.
</event>
<event>
 4   0  0.4809415E-02  0.9118800E+02  0.7818609E-02  0.1379984E+01
      -11   -1    0    0    0    0  0.00000000000E+00  0.00000000000E+00  0.35740347158E-01  0.35744000000E-01  0.51099999109E-03 0.  1.
       11   -1    0    0    0    0 -0.00000000000E+00 -0.00000000000E+00 -0.35740347158E-01  0.35744000000E-01  0.51099999109E-03 0. -1.
       22    1    1    2    0    0  0.43243916354E-02  0.13779881483E-02 -0.35447628560E-01  0.35737005818E-01  0.00000000000E+00 0. -1.
  9000001    1    1    2    0    0 -0.43243916354E-02 -0.13779881483E-02  0.35447628560E-01  0.35750994182E-01  0.10000000475E-02 0.  1.
</event>
<event>
 4   0  0.4809415E-02  0.9118800E+02  0.7818609E-02  0.1379984E+01
      -11   -1    0    0    0    0  0.00000000000E+00  0.00000000000E+00  0.35740347158E-01  0.35744000000E-01  0.51099999109E-03 0.  1.
       11   -1    0    0    0    0 -0.00000000000E+00 -0.00000000000E+00 -0.35740347158E-01  0.35744000000E-01  0.51099999109E-03 0. -1.
       22    1    1    2    0    0  0.17922069041E-02  0.48793892202E-02  0.35356939066E-01  0.35737005818E-01  0.00000000000E+00 0.  1.
  9000001    1    1    2    0    0 -0.17922069041E-02 -0.48793892202E-02 -0.35356939066E-01  0.35750994182E-01  0.10000000475E-02 0. -1.
</event>
<event>
 4   0  0.4809415E-02  0.9118800E+02  0.7818609E-02  0.1379984E+01
      -11   -1    0    0    0    0  0.00000000000E+00  0.00000000000E+00  0.35740347158E-01  0.35744000000E-01  0.51099999109E-03 0. -1.
       11   -1    0    0    0    0 -0.00000000000E+00 -0.00000000000E+00 -0.35740347158E-01  0.35744000000E-01  0.51099999109E-03 0.  1.
       22    1    1    2    0    0 -0.87221019933E-02 -0.21752200485E-02  0.34587959457E-01  0.35737005818E-01  0.00000000000E+00 0. -1.
  9000001    1    1    2    0    0  0.87221019933E-02  0.21752200485E-02 -0.34587959457E-01  0.35750994182E-01  0.10000000475E-02 0.  1.
</event>
<event>
 4   0  0.4809415E-02  0.9118800E+02  0.7818609E-02  0.1379984E+01
      -11   -1    0    0    0    0  0.00000000000E+00  0.00000000000E+00  0.35740347158E-01  0.35744000000E-01  0.51099999109E-03 0. -1.
       11   -1    0    0    0    0 -0.00000000000E+00 -0.00000000000E+00 -0.35740347158E-01  0.35744000000E-01  0.51099999109E-03 0.  1.
       22    1    1    2    0    0 -0.88897601056E-02  0.37935573826E-02  0.34405154738E-01  0.35737005818E-01  0.00000000000E+00 0. -1.
  9000001    1    1    2    0    0  0.88897601056E-02 -0.37935573826E-02 -0.34405154738E-01  0.35750994182E-01  0.10000000475E-02 0.  1.
</event>
<event>
 4   0  0.4809415E-02  0.9118800E+02  0.7818609E-02  0.1379984E+01
      -11   -1    0    0    0    0  0.00000000000E+00  0.00000000000E+00  0.35740347158E-01  0.35744000000E-01  0.51099999109E-03 0.  1.
       11   -1    0    0    0    0 -0.00000000000E+00 -0.00000000000E+00 -0.35740347158E-01  0.35744000000E-01  0.51099999109E-03 0. -1.
       22    1    1    2    0    0 -0.33567920731E-02 -0.53402678932E-03  0.35574996096E-01  0.35737005818E-01  0.00000000000E+00 0.  1.
  9000001    1    1    2    0    0  0.33567920731E-02  0.53402678932E-03 -0.35574996096E-01  0.35750994182E-01  0.10000000475E-02 0. -1.
</event>
<event>
 4   0  0.4809415E-02  0.9118800E+02  0.7818609E-02  0.1379984E+01
      -11   -1    0    0    0    0  0.00000000000E+00  0.00000000000E+00  0.35740347158E-01  0.35744000000E-01  0.51099999109E-03 0. -1.
       11   -1    0    0    0    0 -0.00000000000E+00 -0.00000000000E+00 -0.35740347158E-01  0.35744000000E-01  0.51099999109E-03 0.  1.
       22    1    1    2    0    0 -0.11797517347E-01 -0.13818785117E-01  0.30773257014E-01  0.35737005818E-01  0.00000000000E+00 0. -1.
  9000001    1    1    2    0    0  0.11797517347E-01  0.13818785117E-01 -0.30773257014E-01  0.35750994182E-01  0.10000000475E-02 0.  1.
</event>
<event>
 4   0  0.4809415E-02  0.9118800E+02  0.7818609E-02  0.1379984E+01
      -11   -1    0    0    0    0  0.00000000000E+00  0.00000000000E+00  0.35740347158E-01  0.35744000000E-01  0.51099999109E-03 0. -1.
       11   -1    0    0    0    0 -0.00000000000E+00 -0.00000000000E+00 -0.35740347158E-01  0.35744000000E-01  0.51099999109E-03 0.  1.
       22    1    1    2    0    0  0.69201376980E-03  0.71277938954E-02  0.35012130127E-01  0.35737005818E-01  0.00000000000E+00 0. -1.
  9000001    1    1    2    0    0 -0.69201376980E-03 -0.71277938954E-02 -0.35012130127E-01  0.35750994182E-01  0.10000000475E-02 0.  1.
</event>
<event>
 4   0  0.4809415E-02  0.9118800E+02  0.7818609E-02  0.1379984E+01
      -11   -1    0    0    0    0  0.00000000000E+00  0.00000000000E+00  0.35740347158E-01  0.35744000000E-01  0.51099999109E-03 0. -1.
       11   -1    0    0    0    0 -0.00000000000E+00 -0.00000000000E+00 -0.35740347158E-01  0.35744000000E-01  0.51099999109E-03 0.  1.
       22    1    1    2    0    0  0.46585878527E-02  0.13846546968E-02  0.35404997888E-01  0.35737005818E-01  0.00000000000E+00 0. -1.
  9000001    1    1    2    0    0 -0.46585878527E-02 -0.13846546968E-02 -0.35404997888E-01  0.35750994182E-01  0.10000000475E-02 0.  1.
</event>
<event>
 4   0  0.4809415E-02  0.9118800E+02  0.7818609E-02  0.1379984E+01
      -11   -1    0    0    0    0  0.00000000000E+00  0.00000000000E+00  0.35740347158E-01  0.35744000000E-01  0.51099999109E-03 0.  1.
       11   -1    0    0    0    0 -0.00000000000E+00 -0.00000000000E+00 -0.35740347158E-01  0.35744000000E-01  0.51099999109E-03 0. -1.
       22    1    1    2    0    0  0.31898544993E-02 -0.13791760352E-01  0.32813804405E-01  0.35737005818E-01  0.00000000000E+00 0.  1.
  9000001    1    1    2    0    0 -0.31898544993E-02  0.13791760352E-01 -0.32813804405E-01  0.35750994182E-01  0.10000000475E-02 0. -1.
</event>
<event>
 4   0  0.4809415E-02  0.9118800E+02  0.7818609E-02  0.1379984E+01
      -11   -1    0    0    0    0  0.00000000000E+00  0.00000000000E+00  0.35740347158E-01  0.35744000000E-01  0.51099999109E-03 0.  1.
       11   -1    0    0    0    0 -0.00000000000E+00 -0.00000000000E+00 -0.35740347158E-01  0.35744000000E-01  0.51099999109E-03 0. -1.
       22    1    1    2    0    0  0.24770183463E-01  0.23123797332E-01 -0.11351722030E-01  0.35737005818E-01  0.00000000000E+00 0. -1.
  9000001    1    1    2    0    0 -0.24770183463E-01 -0.23123797332E-01  0.11351722030E-01  0.35750994182E-01  0.10000000475E-02 0.  1.
</event>
<event>
 4   0  0.4809415E-02  0.9118800E+02  0.7818609E-02  0.1379984E+01
      -11   -1    0    0    0    0  0.00000000000E+00  0.00000000000E+00  0.35740347158E-01  0.35744000000E-01  0.51099999109E-03 0. -1.
       11   -1    0    0    0    0 -0.00000000000E+00 -0.00000000000E+00 -0.35740347158E-01  0.35744000000E-01  0.51099999109E-03 0.  1.
       22    1    1    2    0    0  0.93163935459E-02  0.47507797955E-03  0.34498010045E-01  0.35737005818E-01  0.00000000000E+00 0. -1.
  9000001    1    1    2    0    0 -0.93163935459E-02 -0.47507797955E-03 -0.34498010045E-01  0.35750994182E-01  0.10000000475E-02 0.  1.
</event>
<event>
 4   0  0.4809415E-02  0.9118800E+02  0.7818609E-02  0.1379984E+01
      -11   -1    0    0    0    0  0.00000000000E+00  0.00000000000E+00  0.35740347158E-01  0.35744000000E-01  0.51099999109E-03 0. -1.
       11   -1    0    0    0    0 -0.00000000000E+00 -0.00000000000E+00 -0.35740347158E-01  0.35744000000E-01  0.51099999109E-03 0.  1.
       22    1    1    2    0    0  0.48754973653E-02  0.45209272524E-03 -0.35399981956E-01  0.35737005818E-01  0.00000000000E+00 0.  1.
  9000001    1    1    2    0    0 -0.48754973653E-02 -0.45209272524E-03  0.35399981956E-01  0.35750994182E-01  0.10000000475E-02 0. -1.
</event>
<event>
 4   0  0.4809415E-02  0.9118800E+02  0.7818609E-02  0.1379984E+01
      -11   -1    0    0    0    0  0.00000000000E+00  0.00000000000E+00  0.35740347158E-01  0.35744000000E-01  0.51099999109E-03 0. -1.
       11   -1    0    0    0    0 -0.00000000000E+00 -0.00000000000E+00 -0.35740347158E-01  0.35744000000E-01  0.51099999109E-03 0.  1.
       22    1    1    2    0    0  0.23982410793E-01 -0.34348582082E-03 -0.26492632465E-01  0.35737005818E-01  0.00000000000E+00 0.  1.
  9000001    1    1    2    0    0 -0.23982410793E-01  0.34348582082E-03  0.26492632465E-01  0.35750994182E-01  0.10000000475E-02 0. -1.
</event>
<event>
 4   0  0.4809415E-02  0.9118800E+02  0.7818609E-02  0.1379984E+01
      -11   -1    0    0    0    0  0.00000000000E+00  0.00000000000E+00  0.35740347158E-01  0.35744000000E-01  0.51099999109E-03 0. -1.
       11   -1    0    0    0    0 -0.00000000000E+00 -0.00000000000E+00 -0.35740347158E-01  0.35744000000E-01  0.51099999109E-03 0.  1.
       22    1    1    2    0    0 -0.12456770367E-01  0.92098371960E-02 -0.32204679097E-01  0.35737005818E-01  0.00000000000E+00 0.  1.
  9000001    1    1    2    0    0  0.12456770367E-01 -0.92098371960E-02  0.32204679097E-01  0.35750994182E-01  0.10000000475E-02 0. -1.
</event>
<event>
 4   0  0.4809415E-02  0.9118800E+02  0.7818609E-02  0.1379984E+01
      -11   -1    0    0    0    0  0.00000000000E+00  0.00000000000E+00  0.35740347158E-01  0.35744000000E-01  0.51099999109E-03 0.  1.
       11   -1    0    0    0    0 -0.00000000000E+00 -0.00000000000E+00 -0.35740347158E-01  0.35744000000E-01  0.51099999109E-03 0. -1.
       22    1    1    2    0    0  0.14121084142E-01  0.30027951613E-01  0.13268409455E-01  0.35737005818E-01  0.00000000000E+00 0.  1.
  9000001    1    1    2    0    0 -0.14121084142E-01 -0.30027951613E-01 -0.13268409455E-01  0.35750994182E-01  0.10000000475E-02 0. -1.
</event>
<event>
 4   0  0.4809415E-02  0.9118800E+02  0.7818609E-02  0.1379984E+01
      -11   -1    0    0    0    0  0.00000000000E+00  0.00000000000E+00  0.35740347158E-01  0.35744000000E-01  0.51099999109E-03 0. -1.
       11   -1    0    0    0    0 -0.00000000000E+00 -0.00000000000E+00 -0.35740347158E-01  0.35744000000E-01  0.51099999109E-03 0.  1.
       22    1    1    2    0    0  0.33854930336E-01 -0.11093370679E-01  0.28132550245E-02  0.35737005818E-01  0.00000000000E+00 0. -1.
  9000001    1    1    2    0    0 -0.33854930336E-01  0.11093370679E-01 -0.28132550245E-02  0.35750994182E-01  0.10000000475E-02 0.  1.
</event>
<event>
 4   0  0.4809415E-02  0.9118800E+02  0.7818609E-02  0.1379984E+01
      -11   -1    0    0    0    0  0.00000000000E+00  0.00000000000E+00  0.35740347158E-01  0.35744000000E-01  0.51099999109E-03 0. -1.
       11   -1    0    0    0    0 -0.00000000000E+00 -0.00000000000E+00 -0.35740347158E-01  0.35744000000E-01  0.51099999109E-03 0.  1.
       22    1    1    2    0    0 -0.12580617053E-01 -0.13162867070E-02 -0.33423480500E-01  0.35737005818E-01  0.00000000000E+00 0.  1.
  9000001    1    1    2    0    0  0.12580617053E-01  0.13162867070E-02  0.33423480500E-01  0.35750994182E-01  0.10000000475E-02 0. -1.
</event>
<event>
 4   0  0.4809415E-02  0.9118800E+02  0.7818609E-02  0.1379984E+01
      -11   -1    0    0    0    0  0.00000000000E+00  0.00000000000E+00  0.35740347158E-01  0.35744000000E-01  0.51099999109E-03 0. -1.
       11   -1    0    0    0    0 -0.00000000000E+00 -0.00000000000E+00 -0.35740347158E-01  0.35744000000E-01  0.51099999109E-03 0.  1.
       22    1    1    2    0    0  0.38987476901E-02  0.21938042338E-01 -0.27940215635E-01  0.35737005818E-01  0.00000000000E+00 0.  1.
  9000001    1    1    2    0    0 -0.38987476901E-02 -0.21938042338E-01  0.27940215635E-01  0.35750994182E-01  0.10000000475E-02 0. -1.
</event>
<event>
 4   0  0.4809415E-02  0.9118800E+02  0.7818609E-02  0.1379984E+01
      -11   -1    0    0    0    0  0.00000000000E+00  0.00000000000E+00  0.35740347158E-01  0.35744000000E-01  0.51099999109E-03 0. -1.
       11   -1    0    0    0    0 -0.00000000000E+00 -0.00000000000E+00 -0.35740347158E-01  0.35744000000E-01  0.51099999109E-03 0.  1.
       22    1    1    2    0    0 -0.26562049149E-01 -0.15594952954E-02  0.23857055650E-01  0.35737005818E-01  0.00000000000E+00 0. -1.
  9000001    1    1    2    0    0  0.26562049149E-01  0.15594952954E-02 -0.23857055650E-01  0.35750994182E-01  0.10000000475E-02 0.  1.
</event>
<event>
 4   0  0.4809415E-02  0.9118800E+02  0.7818609E-02  0.1379984E+01
      -11   -1    0    0    0    0  0.00000000000E+00  0.00000000000E+00  0.35740347158E-01  0.35744000000E-01  0.51099999109E-03 0. -1.
       11   -1    0    0    0    0 -0.00000000000E+00 -0.00000000000E+00 -0.35740347158E-01  0.35744000000E-01  0.51099999109E-03 0.  1.
       22    1    1    2    0    0 -0.47024742954E-02  0.19501092537E-02 -0.35372551424E-01  0.35737005818E-01  0.00000000000E+00 0.  1.
  9000001    1    1    2    0    0  0.47024742954E-02 -0.19501092537E-02  0.35372551424E-01  0.35750994182E-01  0.10000000475E-02 0. -1.
</event>
<event>
 4   0  0.4809415E-02  0.9118800E+02  0.7818609E-02  0.1379984E+01
      -11   -1    0    0    0    0  0.00000000000E+00  0.00000000000E+00  0.35740347158E-01  0.35744000000E-01  0.51099999109E-03 0. -1.
       11   -1    0    0    0    0 -0.00000000000E+00 -0.00000000000E+00 -0.35740347158E-01  0.35744000000E-01  0.51099999109E-03 0.  1.
       22    1    1    2    0    0  0.16358011041E-01 -0.62789662580E-02  0.31146807900E-01  0.35737005818E-01  0.00000000000E+00 0. -1.
  9000001    1    1    2    0    0 -0.16358011041E-01  0.62789662580E-02 -0.31146807900E-01  0.35750994182E-01  0.10000000475E-02 0.  1.
</event>
<event>
 4   0  0.4809415E-02  0.9118800E+02  0.7818609E-02  0.1379984E+01
      -11   -1    0    0    0    0  0.00000000000E+00  0.00000000000E+00  0.35740347158E-01  0.35744000000E-01  0.51099999109E-03 0.  1.
       11   -1    0    0    0    0 -0.00000000000E+00 -0.00000000000E+00 -0.35740347158E-01  0.35744000000E-01  0.51099999109E-03 0. -1.
       22    1    1    2    0    0  0.35902553961E-02  0.24838231946E-02 -0.35469342726E-01  0.35737005818E-01  0.00000000000E+00 0. -1.
  9000001    1    1    2    0    0 -0.35902553961E-02 -0.24838231946E-02  0.35469342726E-01  0.35750994182E-01  0.10000000475E-02 0.  1.
</event>
<event>
 4   0  0.4809415E-02  0.9118800E+02  0.7818609E-02  0.1379984E+01
      -11   -1    0    0    0    0  0.00000000000E+00  0.00000000000E+00  0.35740347158E-01  0.35744000000E-01  0.51099999109E-03 0.  1.
       11   -1    0    0    0    0 -0.00000000000E+00 -0.00000000000E+00 -0.35740347158E-01  0.35744000000E-01  0.51099999109E-03 0. -1.
       22    1    1    2    0    0 -0.14265546244E-02 -0.49049430449E-02  0.35370044678E-01  0.35737005818E-01  0.00000000000E+00 0.  1.
  9000001    1    1    2    0    0  0.14265546244E-02  0.49049430449E-02 -0.35370044678E-01  0.35750994182E-01  0.10000000475E-02 0. -1.
</event>
<event>
 4   0  0.4809415E-02  0.9118800E+02  0.7818609E-02  0.1379984E+01
      -11   -1    0    0    0    0  0.00000000000E+00  0.00000000000E+00  0.35740347158E-01  0.35744000000E-01  0.51099999109E-03 0. -1.
       11   -1    0    0    0    0 -0.00000000000E+00 -0.00000000000E+00 -0.35740347158E-01  0.35744000000E-01  0.51099999109E-03 0.  1.
       22    1    1    2    0    0 -0.27997492393E-02 -0.64851398516E-02 -0.35031956128E-01  0.35737005818E-01  0.00000000000E+00 0.  1.
  9000001    1    1    2    0    0  0.27997492393E-02  0.64851398516E-02  0.35031956128E-01  0.35750994182E-01  0.10000000475E-02 0. -1.
</event>
<event>
 4   0  0.4809415E-02  0.9118800E+02  0.7818609E-02  0.1379984E+01
      -11   -1    0    0    0    0  0.00000000000E+00  0.00000000000E+00  0.35740347158E-01  0.35744000000E-01  0.51099999109E-03 0. -1.
       11   -1    0    0    0    0 -0.00000000000E+00 -0.00000000000E+00 -0.35740347158E-01  0.35744000000E-01  0.51099999109E-03 0.  1.
       22    1    1    2    0    0  0.11210476860E-02  0.36453670047E-02 -0.35532916238E-01  0.35737005818E-01  0.00000000000E+00 0.  1.
  9000001    1    1    2    0    0 -0.11210476860E-02 -0.36453670047E-02  0.35532916238E-01  0.35750994182E-01  0.10000000475E-02 0. -1.
</event>
<event>
 4   0  0.4809415E-02  0.9118800E+02  0.7818609E-02  0.1379984E+01
      -11   -1    0    0    0    0  0.00000000000E+00  0.00000000000E+00  0.35740347158E-01  0.35744000000E-01  0.51099999109E-03 0.  1.
       11   -1    0    0    0    0 -0.00000000000E+00 -0.00000000000E+00 -0.35740347158E-01  0.35744000000E-01  0.51099999109E-03 0. -1.
       22    1    1    2    0    0  0.43930690414E-02 -0.11266977010E-02 -0.35448061746E-01  0.35737005818E-01  0.00000000000E+00 0. -1.
  9000001    1    1    2    0    0 -0.43930690414E-02  0.11266977010E-02  0.35448061746E-01  0.35750994182E-01  0.10000000475E-02 0.  1.
</event>
<event>
 4   0  0.4809415E-02  0.9118800E+02  0.7818609E-02  0.1379984E+01
      -11   -1    0    0    0    0  0.00000000000E+00  0.00000000000E+00  0.35740347158E-01  0.35744000000E-01  0.51099999109E-03 0.  1.
       11   -1    0    0    0    0 -0.00000000000E+00 -0.00000000000E+00 -0.35740347158E-01  0.35744000000E-01  0.51099999109E-03 0. -1.
       22    1    1    2    0    0 -0.79128986353E-02  0.60694276410E-03 -0.34844673058E-01  0.35737005818E-01  0.00000000000E+00 0. -1.
  9000001    1    1    2    0    0  0.79128986353E-02 -0.60694276410E-03  0.34844673058E-01  0.35750994182E-01  0.10000000475E-02 0.  1.
</event>
<event>
 4   0  0.4809415E-02  0.9118800E+02  0.7818609E-02  0.1379984E+01
      -11   -1    0    0    0    0  0.00000000000E+00  0.00000000000E+00  0.35740347158E-01  0.35744000000E-01  0.51099999109E-03 0. -1.
       11   -1    0    0    0    0 -0.00000000000E+00 -0.00000000000E+00 -0.35740347158E-01  0.35744000000E-01  0.51099999109E-03 0.  1.
       22    1    1    2    0    0  0.33962550260E-02  0.13443706021E-02 -0.35549848162E-01  0.35737005818E-01  0.00000000000E+00 0.  1.
  9000001    1    1    2    0    0 -0.33962550260E-02 -0.13443706021E-02  0.35549848162E-01  0.35750994182E-01  0.10000000475E-02 0. -1.
</event>
<event>
 4   0  0.4809415E-02  0.9118800E+02  0.7818609E-02  0.1379984E+01
      -11   -1    0    0    0    0  0.00000000000E+00  0.00000000000E+00  0.35740347158E-01  0.35744000000E-01  0.51099999109E-03 0. -1.
       11   -1    0    0    0    0 -0.00000000000E+00 -0.00000000000E+00 -0.35740347158E-01  0.35744000000E-01  0.51099999109E-03 0.  1.
       22    1    1    2    0    0  0.36368277721E-02 -0.16891879311E-02  0.35511318094E-01  0.35737005818E-01  0.00000000000E+00 0. -1.
  9000001    1    1    2    0    0 -0.36368277721E-02  0.16891879311E-02 -0.35511318094E-01  0.35750994182E-01  0.10000000475E-02 0.  1.
</event>
<event>
 4   0  0.4809415E-02  0.9118800E+02  0.7818609E-02  0.1379984E+01
      -11   -1    0    0    0    0  0.00000000000E+00  0.00000000000E+00  0.35740347158E-01  0.35744000000E-01  0.51099999109E-03 0.  1.
       11   -1    0    0    0    0 -0.00000000000E+00 -0.00000000000E+00 -0.35740347158E-01  0.35744000000E-01  0.51099999109E-03 0. -1.
       22    1    1    2    0    0 -0.26067990720E-01  0.24412280827E-01  0.12782759991E-02  0.35737005818E-01  0.00000000000E+00 0.  1.
  9000001    1    1    2    0    0  0.26067990720E-01 -0.24412280827E-01 -0.12782759991E-02  0.35750994182E-01  0.10000000475E-02 0. -1.
</event>
<event>
 4   0  0.4809415E-02  0.9118800E+02  0.7818609E-02  0.1379984E+01
      -11   -1    0    0    0    0  0.00000000000E+00  0.00000000000E+00  0.35740347158E-01  0.35744000000E-01  0.51099999109E-03 0.  1.
       11   -1    0    0    0    0 -0.00000000000E+00 -0.00000000000E+00 -0.35740347158E-01  0.35744000000E-01  0.51099999109E-03 0. -1.
       22    1    1    2    0    0  0.27480742066E-02  0.26865615937E-02  0.35529763014E-01  0.35737005818E-01  0.00000000000E+00 0.  1.
  9000001    1    1    2    0    0 -0.27480742066E-02 -0.26865615937E-02 -0.35529763014E-01  0.35750994182E-01  0.10000000475E-02 0. -1.
</event>
<event>
 4   0  0.4809415E-02  0.9118800E+02  0.7818609E-02  0.1379984E+01
      -11   -1    0    0    0    0  0.00000000000E+00  0.00000000000E+00  0.35740347158E-01  0.35744000000E-01  0.51099999109E-03 0.  1.
       11   -1    0    0    0    0 -0.00000000000E+00 -0.00000000000E+00 -0.35740347158E-01  0.35744000000E-01  0.51099999109E-03 0. -1.
       22    1    1    2    0    0  0.32371775179E-02 -0.78374423282E-02  0.34716404830E-01  0.35737005818E-01  0.00000000000E+00 0.  1.
  9000001    1    1    2    0    0 -0.32371775179E-02  0.78374423282E-02 -0.34716404830E-01  0.35750994182E-01  0.10000000475E-02 0. -1.
</event>
<event>
 4   0  0.4809415E-02  0.9118800E+02  0.7818609E-02  0.1379984E+01
      -11   -1    0    0    0    0  0.00000000000E+00  0.00000000000E+00  0.35740347158E-01  0.35744000000E-01  0.51099999109E-03 0. -1.
       11   -1    0    0    0    0 -0.00000000000E+00 -0.00000000000E+00 -0.35740347158E-01  0.35744000000E-01  0.51099999109E-03 0.  1.
       22    1    1    2    0    0  0.25783372185E-02 -0.50821256460E-02 -0.35279707496E-01  0.35737005818E-01  0.00000000000E+00 0.  1.
  9000001    1    1    2    0    0 -0.25783372185E-02  0.50821256460E-02  0.35279707496E-01  0.35750994182E-01  0.10000000475E-02 0. -1.
</event>
<event>
 4   0  0.4809415E-02  0.9118800E+02  0.7818609E-02  0.1379984E+01
      -11   -1    0    0    0    0  0.00000000000E+00  0.00000000000E+00  0.35740347158E-01  0.35744000000E-01  0.51099999109E-03 0.  1.
       11   -1    0    0    0    0 -0.00000000000E+00 -0.00000000000E+00 -0.35740347158E-01  0.35744000000E-01  0.51099999109E-03 0. -1.
       22    1    1    2    0    0 -0.89700090955E-02 -0.33119544349E-01  0.99884084712E-02  0.35737005818E-01  0.00000000000E+00 0.  1.
  9000001    1    1    2    0    0  0.89700090955E-02  0.33119544349E-01 -0.99884084712E-02  0.35750994182E-01  0.10000000475E-02 0. -1.
</event>
<event>
 4   0  0.4809415E-02  0.9118800E+02  0.7818609E-02  0.1379984E+01
      -11   -1    0    0    0    0  0.00000000000E+00  0.00000000000E+00  0.35740347158E-01  0.35744000000E-01  0.51099999109E-03 0.  1.
       11   -1    0    0    0    0 -0.00000000000E+00 -0.00000000000E+00 -0.35740347158E-01  0.35744000000E-01  0.51099999109E-03 0. -1.
       22    1    1    2    0    0  0.12492296117E-01 -0.32615285428E-01 -0.75709496799E-02  0.35737005818E-01  0.00000000000E+00 0. -1.
  9000001    1    1    2    0    0 -0.12492296117E-01  0.32615285428E-01  0.75709496799E-02  0.35750994182E-01  0.10000000475E-02 0.  1.
</event>
<event>
 4   0  0.4809415E-02  0.9118800E+02  0.7818609E-02  0.1379984E+01
      -11   -1    0    0    0    0  0.00000000000E+00  0.00000000000E+00  0.35740347158E-01  0.35744000000E-01  0.51099999109E-03 0. -1.
       11   -1    0    0    0    0 -0.00000000000E+00 -0.00000000000E+00 -0.35740347158E-01  0.35744000000E-01  0.51099999109E-03 0.  1.
       22    1    1    2    0    0  0.22431755072E-02  0.77836984727E-02 -0.34806835343E-01  0.35737005818E-01  0.00000000000E+00 0.  1.
  9000001    1    1    2    0    0 -0.22431755072E-02 -0.77836984727E-02  0.34806835343E-01  0.35750994182E-01  0.10000000475E-02 0. -1.
</event>
<event>
 4   0  0.4809415E-02  0.9118800E+02  0.7818609E-02  0.1379984E+01
      -11   -1    0    0    0    0  0.00000000000E+00  0.00000000000E+00  0.35740347158E-01  0.35744000000E-01  0.51099999109E-03 0.  1.
       11   -1    0    0    0    0 -0.00000000000E+00 -0.00000000000E+00 -0.35740347158E-01  0.35744000000E-01  0.51099999109E-03 0. -1.
       22    1    1    2    0    0 -0.28435044357E-02 -0.19487579217E-02 -0.35570358586E-01  0.35737005818E-01  0.00000000000E+00 0. -1.
  9000001    1    1    2    0    0  0.28435044357E-02  0.19487579217E-02  0.35570358586E-01  0.35750994182E-01  0.10000000475E-02 0.  1.
</event>
<event>
 4   0  0.4809415E-02  0.9118800E+02  0.7818609E-02  0.1379984E+01
      -11   -1    0    0    0    0  0.00000000000E+00  0.00000000000E+00  0.35740347158E-01  0.35744000000E-01  0.51099999109E-03 0. -1.
       11   -1    0    0    0    0 -0.00000000000E+00 -0.00000000000E+00 -0.35740347158E-01  0.35744000000E-01  0.51099999109E-03 0.  1.
       22    1    1    2    0    0  0.98100630368E-02 -0.17510953561E-02 -0.34319526703E-01  0.35737005818E-01  0.00000000000E+00 0.  1.
  9000001    1    1    2    0    0 -0.98100630368E-02  0.17510953561E-02  0.34319526703E-01  0.35750994182E-01  0.10000000475E-02 0. -1.
</event>
<event>
 4   0  0.4809415E-02  0.9118800E+02  0.7818609E-02  0.1379984E+01
      -11   -1    0    0    0    0  0.00000000000E+00  0.00000000000E+00  0.35740347158E-01  0.35744000000E-01  0.51099999109E-03 0. -1.
       11   -1    0    0    0    0 -0.00000000000E+00 -0.00000000000E+00 -0.35740347158E-01  0.35744000000E-01  0.51099999109E-03 0.  1.
       22    1    1    2    0    0 -0.24042733283E-01 -0.13865991866E-01  0.22512548295E-01  0.35737005818E-01  0.00000000000E+00 0. -1.
  9000001    1    1    2    0    0  0.24042733283E-01  0.13865991866E-01 -0.22512548295E-01  0.35750994182E-01  0.10000000475E-02 0.  1.
</event>
<event>
 4   0  0.4809415E-02  0.9118800E+02  0.7818609E-02  0.1379984E+01
      -11   -1    0    0    0    0  0.00000000000E+00  0.00000000000E+00  0.35740347158E-01  0.35744000000E-01  0.51099999109E-03 0.  1.
       11   -1    0    0    0    0 -0.00000000000E+00 -0.00000000000E+00 -0.35740347158E-01  0.35744000000E-01  0.51099999109E-03 0. -1.
       22    1    1    2    0    0  0.96532618061E-02 -0.69036467919E-02 -0.33708868007E-01  0.35737005818E-01  0.00000000000E+00 0. -1.
  9000001    1    1    2    0    0 -0.96532618061E-02  0.69036467919E-02  0.33708868007E-01  0.35750994182E-01  0.10000000475E-02 0.  1.
</event>
<event>
 4   0  0.4809415E-02  0.9118800E+02  0.7818609E-02  0.1379984E+01
      -11   -1    0    0    0    0  0.00000000000E+00  0.00000000000E+00  0.35740347158E-01  0.35744000000E-01  0.51099999109E-03 0. -1.
       11   -1    0    0    0    0 -0.00000000000E+00 -0.00000000000E+00 -0.35740347158E-01  0.35744000000E-01  0.51099999109E-03 0.  1.
       22    1    1    2    0    0  0.62365178613E-02 -0.99333484629E-03  0.35174603277E-01  0.35737005818E-01  0.00000000000E+00 0. -1.
  9000001    1    1    2    0    0 -0.62365178613E-02  0.99333484629E-03 -0.35174603277E-01  0.35750994182E-01  0.10000000475E-02 0.  1.
</event>
<event>
 4   0  0.4809415E-02  0.9118800E+02  0.7818609E-02  0.1379984E+01
      -11   -1    0    0    0    0  0.00000000000E+00  0.00000000000E+00  0.35740347158E-01  0.35744000000E-01  0.51099999109E-03 0. -1.
       11   -1    0    0    0    0 -0.00000000000E+00 -0.00000000000E+00 -0.35740347158E-01  0.35744000000E-01  0.51099999109E-03 0.  1.
       22    1    1    2    0    0  0.66015983468E-02  0.23907512773E-03  0.35121152134E-01  0.35737005818E-01  0.00000000000E+00 0. -1.
  9000001    1    1    2    0    0 -0.66015983468E-02 -0.23907512773E-03 -0.35121152134E-01  0.35750994182E-01  0.10000000475E-02 0.  1.
</event>
<event>
 4   0  0.4809415E-02  0.9118800E+02  0.7818609E-02  0.1379984E+01
      -11   -1    0    0    0    0  0.00000000000E+00  0.00000000000E+00  0.35740347158E-01  0.35744000000E-01  0.51099999109E-03 0. -1.
       11   -1    0    0    0    0 -0.00000000000E+00 -0.00000000000E+00 -0.35740347158E-01  0.35744000000E-01  0.51099999109E-03 0.  1.
       22    1    1    2    0    0 -0.48070739196E-02 -0.27443682203E-02  0.35305722883E-01  0.35737005818E-01  0.00000000000E+00 0. -1.
  9000001    1    1    2    0    0  0.48070739196E-02  0.27443682203E-02 -0.35305722883E-01  0.35750994182E-01  0.10000000475E-02 0.  1.
</event>
<event>
 4   0  0.4809415E-02  0.9118800E+02  0.7818609E-02  0.1379984E+01
      -11   -1    0    0    0    0  0.00000000000E+00  0.00000000000E+00  0.35740347158E-01  0.35744000000E-01  0.51099999109E-03 0. -1.
       11   -1    0    0    0    0 -0.00000000000E+00 -0.00000000000E+00 -0.35740347158E-01  0.35744000000E-01  0.51099999109E-03 0.  1.
       22    1    1    2    0    0  0.25440940558E-02  0.22527355575E-01 -0.27625702183E-01  0.35737005818E-01  0.00000000000E+00 0.  1.
  9000001    1    1    2    0    0 -0.25440940558E-02 -0.22527355575E-01  0.27625702183E-01  0.35750994182E-01  0.10000000475E-02 0. -1.
</event>
<event>
 4   0  0.4809415E-02  0.9118800E+02  0.7818609E-02  0.1379984E+01
      -11   -1    0    0    0    0  0.00000000000E+00  0.00000000000E+00  0.35740347158E-01  0.35744000000E-01  0.51099999109E-03 0.  1.
       11   -1    0    0    0    0 -0.00000000000E+00 -0.00000000000E+00 -0.35740347158E-01  0.35744000000E-01  0.51099999109E-03 0. -1.
       22    1    1    2    0    0 -0.13924358451E-01 -0.13813457081E-01 -0.29873637711E-01  0.35737005818E-01  0.00000000000E+00 0. -1.
  9000001    1    1    2    0    0  0.13924358451E-01  0.13813457081E-01  0.29873637711E-01  0.35750994182E-01  0.10000000475E-02 0.  1.
</event>
<event>
 4   0  0.4809415E-02  0.9118800E+02  0.7818609E-02  0.1379984E+01
      -11   -1    0    0    0    0  0.00000000000E+00  0.00000000000E+00  0.35740347158E-01  0.35744000000E-01  0.51099999109E-03 0.  1.
       11   -1    0    0    0    0 -0.00000000000E+00 -0.00000000000E+00 -0.35740347158E-01  0.35744000000E-01  0.51099999109E-03 0. -1.
       22    1    1    2    0    0 -0.51496199283E-02 -0.16211906046E-02  0.35326855797E-01  0.35737005818E-01  0.00000000000E+00 0.  1.
  9000001    1    1    2    0    0  0.51496199283E-02  0.16211906046E-02 -0.35326855797E-01  0.35750994182E-01  0.10000000475E-02 0. -1.
</event>
<event>
 4   0  0.4809415E-02  0.9118800E+02  0.7818609E-02  0.1379984E+01
      -11   -1    0    0    0    0  0.00000000000E+00  0.00000000000E+00  0.35740347158E-01  0.35744000000E-01  0.51099999109E-03 0. -1.
       11   -1    0    0    0    0 -0.00000000000E+00 -0.00000000000E+00 -0.35740347158E-01  0.35744000000E-01  0.51099999109E-03 0.  1.
       22    1    1    2    0    0 -0.13829650191E-01  0.31396682148E-01 -0.10006133646E-01  0.35737005818E-01  0.00000000000E+00 0.  1.
  9000001    1    1    2    0    0  0.13829650191E-01 -0.31396682148E-01  0.10006133646E-01  0.35750994182E-01  0.10000000475E-02 0. -1.
</event>
<event>
 4   0  0.4809415E-02  0.9118800E+02  0.7818609E-02  0.1379984E+01
      -11   -1    0    0    0    0  0.00000000000E+00  0.00000000000E+00  0.35740347158E-01  0.35744000000E-01  0.51099999109E-03 0. -1.
       11   -1    0    0    0    0 -0.00000000000E+00 -0.00000000000E+00 -0.35740347158E-01  0.35744000000E-01  0.51099999109E-03 0.  1.
       22    1    1    2    0    0 -0.28947437132E-02  0.10055517863E-01  0.34170756565E-01  0.35737005818E-01  0.00000000000E+00 0. -1.
  9000001    1    1    2    0    0  0.28947437132E-02 -0.10055517863E-01 -0.34170756565E-01  0.35750994182E-01  0.10000000475E-02 0.  1.
</event>
<event>
 4   0  0.4809415E-02  0.9118800E+02  0.7818609E-02  0.1379984E+01
      -11   -1    0    0    0    0  0.00000000000E+00  0.00000000000E+00  0.35740347158E-01  0.35744000000E-01  0.51099999109E-03 0. -1.
       11   -1    0    0    0    0 -0.00000000000E+00 -0.00000000000E+00 -0.35740347158E-01  0.35744000000E-01  0.51099999109E-03 0.  1.
       22    1    1    2    0    0 -0.15150181863E-01 -0.31470435193E-01  0.75642106749E-02  0.35737005818E-01  0.00000000000E+00 0. -1.
  9000001    1    1    2    0    0  0.15150181863E-01  0.31470435193E-01 -0.75642106749E-02  0.35750994182E-01  0.10000000475E-02 0.  1.
</event>
<event>
 4   0  0.4809415E-02  0.9118800E+02  0.7818609E-02  0.1379984E+01
      -11   -1    0    0    0    0  0.00000000000E+00  0.00000000000E+00  0.35740347158E-01  0.35744000000E-01  0.51099999109E-03 0. -1.
       11   -1    0    0    0    0 -0.00000000000E+00 -0.00000000000E+00 -0.35740347158E-01  0.35744000000E-01  0.51099999109E-03 0.  1.
       22    1    1    2    0    0 -0.72783612698E-02  0.41636235252E-02 -0.34739362131E-01  0.35737005818E-01  0.00000000000E+00 0.  1.
  9000001    1    1    2    0    0  0.72783612698E-02 -0.41636235252E-02  0.34739362131E-01  0.35750994182E-01  0.10000000475E-02 0. -1.
</event>
<event>
 4   0  0.4809415E-02  0.9118800E+02  0.7818609E-02  0.1379984E+01
      -11   -1    0    0    0    0  0.00000000000E+00  0.00000000000E+00  0.35740347158E-01  0.35744000000E-01  0.51099999109E-03 0. -1.
       11   -1    0    0    0    0 -0.00000000000E+00 -0.00000000000E+00 -0.35740347158E-01  0.35744000000E-01  0.51099999109E-03 0.  1.
       22    1    1    2    0    0  0.14501256708E-01 -0.54089908997E-02  0.32211643177E-01  0.35737005818E-01  0.00000000000E+00 0. -1.
  9000001    1    1    2    0    0 -0.14501256708E-01  0.54089908997E-02 -0.32211643177E-01  0.35750994182E-01  0.10000000475E-02 0.  1.
</event>
<event>
 4   0  0.4809415E-02  0.9118800E+02  0.7818609E-02  0.1379984E+01
      -11   -1    0    0    0    0  0.00000000000E+00  0.00000000000E+00  0.35740347158E-01  0.35744000000E-01  0.51099999109E-03 0. -1.
       11   -1    0    0    0    0 -0.00000000000E+00 -0.00000000000E+00 -0.35740347158E-01  0.35744000000E-01  0.51099999109E-03 0.  1.
       22    1    1    2    0    0  0.12120812087E-01  0.44554432839E-02 -0.33322192670E-01  0.35737005818E-01  0.00000000000E+00 0.  1.
  9000001    1    1    2    0    0 -0.12120812087E-01 -0.44554432839E-02  0.33322192670E-01  0.35750994182E-01  0.10000000475E-02 0. -1.
</event>
<event>
 4   0  0.4809415E-02  0.9118800E+02  0.7818609E-02  0.1379984E+01
      -11   -1    0    0    0    0  0.00000000000E+00  0.00000000000E+00  0.35740347158E-01  0.35744000000E-01  0.51099999109E-03 0.  1.
       11   -1    0    0    0    0 -0.00000000000E+00 -0.00000000000E+00 -0.35740347158E-01  0.35744000000E-01  0.51099999109E-03 0. -1.
       22    1    1    2    0    0 -0.14619162946E-01 -0.19026561036E-01 -0.26484026030E-01  0.35737005818E-01  0.00000000000E+00 0. -1.
  9000001    1    1    2    0    0  0.14619162946E-01  0.19026561036E-01  0.26484026030E-01  0.35750994182E-01  0.10000000475E-02 0.  1.
</event>
<event>
 4   0  0.4809415E-02  0.9118800E+02  0.7818609E-02  0.1379984E+01
      -11   -1    0    0    0    0  0.00000000000E+00  0.00000000000E+00  0.35740347158E-01  0.35744000000E-01  0.51099999109E-03 0.  1.
       11   -1    0    0    0    0 -0.00000000000E+00 -0.00000000000E+00 -0.35740347158E-01  0.35744000000E-01  0.51099999109E-03 0. -1.
       22    1    1    2    0    0 -0.21904399664E-02  0.79106113258E-02 -0.34781572507E-01  0.35737005818E-01  0.00000000000E+00 0. -1.
  9000001    1    1    2    0    0  0.21904399664E-02 -0.79106113258E-02  0.34781572507E-01  0.35750994182E-01  0.10000000475E-02 0.  1.
</event>
<event>
 4   0  0.4809415E-02  0.9118800E+02  0.7818609E-02  0.1379984E+01
      -11   -1    0    0    0    0  0.00000000000E+00  0.00000000000E+00  0.35740347158E-01  0.35744000000E-01  0.51099999109E-03 0.  1.
       11   -1    0    0    0    0 -0.00000000000E+00 -0.00000000000E+00 -0.35740347158E-01  0.35744000000E-01  0.51099999109E-03 0. -1.
       22    1    1    2    0    0 -0.32312881142E-02  0.26358712110E-03 -0.35589645739E-01  0.35737005818E-01  0.00000000000E+00 0. -1.
  9000001    1    1    2    0    0  0.32312881142E-02 -0.26358712110E-03  0.35589645739E-01  0.35750994182E-01  0.10000000475E-02 0.  1.
</event>
<event>
 4   0  0.4809415E-02  0.9118800E+02  0.7818609E-02  0.1379984E+01
      -11   -1    0    0    0    0  0.00000000000E+00  0.00000000000E+00  0.35740347158E-01  0.35744000000E-01  0.51099999109E-03 0.  1.
       11   -1    0    0    0    0 -0.00000000000E+00 -0.00000000000E+00 -0.35740347158E-01  0.35744000000E-01  0.51099999109E-03 0. -1.
       22    1    1    2    0    0 -0.72769367167E-02 -0.57541089281E-02  0.34511882118E-01  0.35737005818E-01  0.00000000000E+00 0.  1.
  9000001    1    1    2    0    0  0.72769367167E-02  0.57541089281E-02 -0.34511882118E-01  0.35750994182E-01  0.10000000475E-02 0. -1.
</event>
<event>
 4   0  0.4809415E-02  0.9118800E+02  0.7818609E-02  0.1379984E+01
      -11   -1    0    0    0    0  0.00000000000E+00  0.00000000000E+00  0.35740347158E-01  0.35744000000E-01  0.51099999109E-03 0. -1.
       11   -1    0    0    0    0 -0.00000000000E+00 -0.00000000000E+00 -0.35740347158E-01  0.35744000000E-01  0.51099999109E-03 0.  1.
       22    1    1    2    0    0  0.25097994546E-02  0.21532272469E-02 -0.35583677494E-01  0.35737005818E-01  0.00000000000E+00 0.  1.
  9000001    1    1    2    0    0 -0.25097994546E-02 -0.21532272469E-02  0.35583677494E-01  0.35750994182E-01  0.10000000475E-02 0. -1.
</event>
<event>
 4   0  0.4809415E-02  0.9118800E+02  0.7818609E-02  0.1379984E+01
      -11   -1    0    0    0    0  0.00000000000E+00  0.00000000000E+00  0.35740347158E-01  0.35744000000E-01  0.51099999109E-03 0. -1.
       11   -1    0    0    0    0 -0.00000000000E+00 -0.00000000000E+00 -0.35740347158E-01  0.35744000000E-01  0.51099999109E-03 0.  1.
       22    1    1    2    0    0 -0.17838430783E-01  0.25785365771E-01 -0.17147562047E-01  0.35737005818E-01  0.00000000000E+00 0.  1.
  9000001    1    1    2    0    0  0.17838430783E-01 -0.25785365771E-01  0.17147562047E-01  0.35750994182E-01  0.10000000475E-02 0. -1.
</event>
<event>
 4   0  0.4809415E-02  0.9118800E+02  0.7818609E-02  0.1379984E+01
      -11   -1    0    0    0    0  0.00000000000E+00  0.00000000000E+00  0.35740347158E-01  0.35744000000E-01  0.51099999109E-03 0. -1.
       11   -1    0    0    0    0 -0.00000000000E+00 -0.00000000000E+00 -0.35740347158E-01  0.35744000000E-01  0.51099999109E-03 0.  1.
       22    1    1    2    0    0  0.96776402126E-02 -0.19267538816E-01  0.28499803732E-01  0.35737005818E-01  0.00000000000E+00 0. -1.
  9000001    1    1    2    0    0 -0.96776402126E-02  0.19267538816E-01 -0.28499803732E-01  0.35750994182E-01  0.10000000475E-02 0.  1.
</event>
<event>
 4   0  0.4809415E-02  0.9118800E+02  0.7818609E-02  0.1379984E+01
      -11   -1    0    0    0    0  0.00000000000E+00  0.00000000000E+00  0.35740347158E-01  0.35744000000E-01  0.51099999109E-03 0. -1.
       11   -1    0    0    0    0 -0.00000000000E+00 -0.00000000000E+00 -0.35740347158E-01  0.35744000000E-01  0.51099999109E-03 0.  1.
       22    1    1    2    0    0  0.59786583857E-02  0.15194534419E-02  0.35200575138E-01  0.35737005818E-01  0.00000000000E+00 0. -1.
  9000001    1    1    2    0    0 -0.59786583857E-02 -0.15194534419E-02 -0.35200575138E-01  0.35750994182E-01  0.10000000475E-02 0.  1.
</event>
<event>
 4   0  0.4809415E-02  0.9118800E+02  0.7818609E-02  0.1379984E+01
      -11   -1    0    0    0    0  0.00000000000E+00  0.00000000000E+00  0.35740347158E-01  0.35744000000E-01  0.51099999109E-03 0.  1.
       11   -1    0    0    0    0 -0.00000000000E+00 -0.00000000000E+00 -0.35740347158E-01  0.35744000000E-01  0.51099999109E-03 0. -1.
       22    1    1    2    0    0 -0.85091769147E-02 -0.81940239076E-02  0.33728110906E-01  0.35737005818E-01  0.00000000000E+00 0.  1.
  9000001    1    1    2    0    0  0.85091769147E-02  0.81940239076E-02 -0.33728110906E-01  0.35750994182E-01  0.10000000475E-02 0. -1.
</event>
<event>
 4   0  0.4809415E-02  0.9118800E+02  0.7818609E-02  0.1379984E+01
      -11   -1    0    0    0    0  0.00000000000E+00  0.00000000000E+00  0.35740347158E-01  0.35744000000E-01  0.51099999109E-03 0. -1.
       11   -1    0    0    0    0 -0.00000000000E+00 -0.00000000000E+00 -0.35740347158E-01  0.35744000000E-01  0.51099999109E-03 0.  1.
       22    1    1    2    0    0 -0.31761450929E-02  0.28773938789E-02 -0.35479096546E-01  0.35737005818E-01  0.00000000000E+00 0.  1.
  9000001    1    1    2    0    0  0.31761450929E-02 -0.28773938789E-02  0.35479096546E-01  0.35750994182E-01  0.10000000475E-02 0. -1.
</event>
<event>
 4   0  0.4809415E-02  0.9118800E+02  0.7818609E-02  0.1379984E+01
      -11   -1    0    0    0    0  0.00000000000E+00  0.00000000000E+00  0.35740347158E-01  0.35744000000E-01  0.51099999109E-03 0. -1.
       11   -1    0    0    0    0 -0.00000000000E+00 -0.00000000000E+00 -0.35740347158E-01  0.35744000000E-01  0.51099999109E-03 0.  1.
       22    1    1    2    0    0  0.10734923793E-02  0.88111543358E-02  0.34617116550E-01  0.35737005818E-01  0.00000000000E+00 0. -1.
  9000001    1    1    2    0    0 -0.10734923793E-02 -0.88111543358E-02 -0.34617116550E-01  0.35750994182E-01  0.10000000475E-02 0.  1.
</event>
<event>
 4   0  0.4809415E-02  0.9118800E+02  0.7818609E-02  0.1379984E+01
      -11   -1    0    0    0    0  0.00000000000E+00  0.00000000000E+00  0.35740347158E-01  0.35744000000E-01  0.51099999109E-03 0. -1.
       11   -1    0    0    0    0 -0.00000000000E+00 -0.00000000000E+00 -0.35740347158E-01  0.35744000000E-01  0.51099999109E-03 0.  1.
       22    1    1    2    0    0  0.30333456398E-02  0.52457401973E-02 -0.35219520282E-01  0.35737005818E-01  0.00000000000E+00 0.  1.
  9000001    1    1    2    0    0 -0.30333456398E-02 -0.52457401973E-02  0.35219520282E-01  0.35750994182E-01  0.10000000475E-02 0. -1.
</event>
<event>
 4   0  0.4809415E-02  0.9118800E+02  0.7818609E-02  0.1379984E+01
      -11   -1    0    0    0    0  0.00000000000E+00  0.00000000000E+00  0.35740347158E-01  0.35744000000E-01  0.51099999109E-03 0.  1.
       11   -1    0    0    0    0 -0.00000000000E+00 -0.00000000000E+00 -0.35740347158E-01  0.35744000000E-01  0.51099999109E-03 0. -1.
       22    1    1    2    0    0  0.13492904034E-01 -0.13008405617E-01  0.30427890313E-01  0.35737005818E-01  0.00000000000E+00 0.  1.
  9000001    1    1    2    0    0 -0.13492904034E-01  0.13008405617E-01 -0.30427890313E-01  0.35750994182E-01  0.10000000475E-02 0. -1.
</event>
<event>
 4   0  0.4809415E-02  0.9118800E+02  0.7818609E-02  0.1379984E+01
      -11   -1    0    0    0    0  0.00000000000E+00  0.00000000000E+00  0.35740347158E-01  0.35744000000E-01  0.51099999109E-03 0.  1.
       11   -1    0    0    0    0 -0.00000000000E+00 -0.00000000000E+00 -0.35740347158E-01  0.35744000000E-01  0.51099999109E-03 0. -1.
       22    1    1    2    0    0  0.16859373022E-01 -0.27705847262E-01  0.15009368862E-01  0.35737005818E-01  0.00000000000E+00 0.  1.
  9000001    1    1    2    0    0 -0.16859373022E-01  0.27705847262E-01 -0.15009368862E-01  0.35750994182E-01  0.10000000475E-02 0. -1.
</event>
<event>
 4   0  0.4809415E-02  0.9118800E+02  0.7818609E-02  0.1379984E+01
      -11   -1    0    0    0    0  0.00000000000E+00  0.00000000000E+00  0.35740347158E-01  0.35744000000E-01  0.51099999109E-03 0. -1.
       11   -1    0    0    0    0 -0.00000000000E+00 -0.00000000000E+00 -0.35740347158E-01  0.35744000000E-01  0.51099999109E-03 0.  1.
       22    1    1    2    0    0 -0.15516477834E-01 -0.83818547599E-02 -0.31082422867E-01  0.35737005818E-01  0.00000000000E+00 0.  1.
  9000001    1    1    2    0    0  0.15516477834E-01  0.83818547599E-02  0.31082422867E-01  0.35750994182E-01  0.10000000475E-02 0. -1.
</event>
<event>
 4   0  0.4809415E-02  0.9118800E+02  0.7818609E-02  0.1379984E+01
      -11   -1    0    0    0    0  0.00000000000E+00  0.00000000000E+00  0.35740347158E-01  0.35744000000E-01  0.51099999109E-03 0.  1.
       11   -1    0    0    0    0 -0.00000000000E+00 -0.00000000000E+00 -0.35740347158E-01  0.35744000000E-01  0.51099999109E-03 0. -1.
       22    1    1    2    0    0 -0.53649215017E-02 -0.10931085143E-02  0.35315100395E-01  0.35737005818E-01  0.00000000000E+00 0.  1.
  9000001    1    1    2    0    0  0.53649215017E-02  0.10931085143E-02 -0.35315100395E-01  0.35750994182E-01  0.10000000475E-02 0. -1.
</event>
<event>
 4   0  0.4809415E-02  0.9118800E+02  0.7818609E-02  0.1379984E+01
      -11   -1    0    0    0    0  0.00000000000E+00  0.00000000000E+00  0.35740347158E-01  0.35744000000E-01  0.51099999109E-03 0. -1.
       11   -1    0    0    0    0 -0.00000000000E+00 -0.00000000000E+00 -0.35740347158E-01  0.35744000000E-01  0.51099999109E-03 0.  1.
       22    1    1    2    0    0 -0.57654148111E-02 -0.57306627851E-02 -0.34800187944E-01  0.35737005818E-01  0.00000000000E+00 0.  1.
  9000001    1    1    2    0    0  0.57654148111E-02  0.57306627851E-02  0.34800187944E-01  0.35750994182E-01  0.10000000475E-02 0. -1.
</event>
<event>
 4   0  0.4809415E-02  0.9118800E+02  0.7818609E-02  0.1379984E+01
      -11   -1    0    0    0    0  0.00000000000E+00  0.00000000000E+00  0.35740347158E-01  0.35744000000E-01  0.51099999109E-03 0. -1.
       11   -1    0    0    0    0 -0.00000000000E+00 -0.00000000000E+00 -0.35740347158E-01  0.35744000000E-01  0.51099999109E-03 0.  1.
       22    1    1    2    0    0 -0.30264460623E-02  0.62524195176E-03 -0.35603135839E-01  0.35737005818E-01  0.00000000000E+00 0.  1.
  9000001    1    1    2    0    0  0.30264460623E-02 -0.62524195176E-03  0.35603135839E-01  0.35750994182E-01  0.10000000475E-02 0. -1.
</event>
<event>
 4   0  0.4809415E-02  0.9118800E+02  0.7818609E-02  0.1379984E+01
      -11   -1    0    0    0    0  0.00000000000E+00  0.00000000000E+00  0.35740347158E-01  0.35744000000E-01  0.51099999109E-03 0. -1.
       11   -1    0    0    0    0 -0.00000000000E+00 -0.00000000000E+00 -0.35740347158E-01  0.35744000000E-01  0.51099999109E-03 0.  1.
       22    1    1    2    0    0 -0.10403022111E-03 -0.37736879019E-02  0.35537051681E-01  0.35737005818E-01  0.00000000000E+00 0. -1.
  9000001    1    1    2    0    0  0.10403022111E-03  0.37736879019E-02 -0.35537051681E-01  0.35750994182E-01  0.10000000475E-02 0.  1.
</event>
<event>
 4   0  0.4809415E-02  0.9118800E+02  0.7818609E-02  0.1379984E+01
      -11   -1    0    0    0    0  0.00000000000E+00  0.00000000000E+00  0.35740347158E-01  0.35744000000E-01  0.51099999109E-03 0.  1.
       11   -1    0    0    0    0 -0.00000000000E+00 -0.00000000000E+00 -0.35740347158E-01  0.35744000000E-01  0.51099999109E-03 0. -1.
       22    1    1    2    0    0 -0.20950491225E-01  0.85836247111E-02  0.27650169784E-01  0.35737005818E-01  0.00000000000E+00 0.  1.
  9000001    1    1    2    0    0  0.20950491225E-01 -0.85836247111E-02 -0.27650169784E-01  0.35750994182E-01  0.10000000475E-02 0. -1.
</event>
<event>
 4   0  0.4809415E-02  0.9118800E+02  0.7818609E-02  0.1379984E+01
      -11   -1    0    0    0    0  0.00000000000E+00  0.00000000000E+00  0.35740347158E-01  0.35744000000E-01  0.51099999109E-03 0. -1.
       11   -1    0    0    0    0 -0.00000000000E+00 -0.00000000000E+00 -0.35740347158E-01  0.35744000000E-01  0.51099999109E-03 0.  1.
       22    1    1    2    0    0  0.19555288967E-03  0.34299943296E-02 -0.35571484125E-01  0.35737005818E-01  0.00000000000E+00 0.  1.
  9000001    1    1    2    0    0 -0.19555288967E-03 -0.34299943296E-02  0.35571484125E-01  0.35750994182E-01  0.10000000475E-02 0. -1.
</event>
<event>
 4   0  0.4809415E-02  0.9118800E+02  0.7818609E-02  0.1379984E+01
      -11   -1    0    0    0    0  0.00000000000E+00  0.00000000000E+00  0.35740347158E-01  0.35744000000E-01  0.51099999109E-03 0.  1.
       11   -1    0    0    0    0 -0.00000000000E+00 -0.00000000000E+00 -0.35740347158E-01  0.35744000000E-01  0.51099999109E-03 0. -1.
       22    1    1    2    0    0 -0.38156527227E-02  0.35525204675E-01  0.73089806778E-03  0.35737005818E-01  0.00000000000E+00 0. -1.
  9000001    1    1    2    0    0  0.38156527227E-02 -0.35525204675E-01 -0.73089806778E-03  0.35750994182E-01  0.10000000475E-02 0.  1.
</event>
<event>
 4   0  0.4809415E-02  0.9118800E+02  0.7818609E-02  0.1379984E+01
      -11   -1    0    0    0    0  0.00000000000E+00  0.00000000000E+00  0.35740347158E-01  0.35744000000E-01  0.51099999109E-03 0. -1.
       11   -1    0    0    0    0 -0.00000000000E+00 -0.00000000000E+00 -0.35740347158E-01  0.35744000000E-01  0.51099999109E-03 0.  1.
       22    1    1    2    0    0 -0.34227378833E-02 -0.44606821685E-02 -0.35291936258E-01  0.35737005818E-01  0.00000000000E+00 0.  1.
  9000001    1    1    2    0    0  0.34227378833E-02  0.44606821685E-02  0.35291936258E-01  0.35750994182E-01  0.10000000475E-02 0. -1.
</event>
<event>
 4   0  0.4809415E-02  0.9118800E+02  0.7818609E-02  0.1379984E+01
      -11   -1    0    0    0    0  0.00000000000E+00  0.00000000000E+00  0.35740347158E-01  0.35744000000E-01  0.51099999109E-03 0. -1.
       11   -1    0    0    0    0 -0.00000000000E+00 -0.00000000000E+00 -0.35740347158E-01  0.35744000000E-01  0.51099999109E-03 0.  1.
       22    1    1    2    0    0 -0.38272146996E-02 -0.35443047911E-01 -0.25052679028E-02  0.35737005818E-01  0.00000000000E+00 0.  1.
  9000001    1    1    2    0    0  0.38272146996E-02  0.35443047911E-01  0.25052679028E-02  0.35750994182E-01  0.10000000475E-02 0. -1.
</event>
<event>
 4   0  0.4809415E-02  0.9118800E+02  0.7818609E-02  0.1379984E+01
      -11   -1    0    0    0    0  0.00000000000E+00  0.00000000000E+00  0.35740347158E-01  0.35744000000E-01  0.51099999109E-03 0.  1.
       11   -1    0    0    0    0 -0.00000000000E+00 -0.00000000000E+00 -0.35740347158E-01  0.35744000000E-01  0.51099999109E-03 0. -1.
       22    1    1    2    0    0  0.26532394722E-02  0.33913003924E-01  0.10954545632E-01  0.35737005818E-01  0.00000000000E+00 0.  1.
  9000001    1    1    2    0    0 -0.26532394722E-02 -0.33913003924E-01 -0.10954545632E-01  0.35750994182E-01  0.10000000475E-02 0. -1.
</event>
<event>
 4   0  0.4809415E-02  0.9118800E+02  0.7818609E-02  0.1379984E+01
      -11   -1    0    0    0    0  0.00000000000E+00  0.00000000000E+00  0.35740347158E-01  0.35744000000E-01  0.51099999109E-03 0. -1.
       11   -1    0    0    0    0 -0.00000000000E+00 -0.00000000000E+00 -0.35740347158E-01  0.35744000000E-01  0.51099999109E-03 0.  1.
       22    1    1    2    0    0  0.21589895782E-02  0.36288691136E-02  0.35486668734E-01  0.35737005818E-01  0.00000000000E+00 0. -1.
  9000001    1    1    2    0    0 -0.21589895782E-02 -0.36288691136E-02 -0.35486668734E-01  0.35750994182E-01  0.10000000475E-02 0.  1.
</event>
<event>
 4   0  0.4809415E-02  0.9118800E+02  0.7818609E-02  0.1379984E+01
      -11   -1    0    0    0    0  0.00000000000E+00  0.00000000000E+00  0.35740347158E-01  0.35744000000E-01  0.51099999109E-03 0. -1.
       11   -1    0    0    0    0 -0.00000000000E+00 -0.00000000000E+00 -0.35740347158E-01  0.35744000000E-01  0.51099999109E-03 0.  1.
       22    1    1    2    0    0  0.28650205693E-01 -0.20252138774E-01 -0.67933919121E-02  0.35737005818E-01  0.00000000000E+00 0. -1.
  9000001    1    1    2    0    0 -0.28650205693E-01  0.20252138774E-01  0.67933919121E-02  0.35750994182E-01  0.10000000475E-02 0.  1.
</event>
<event>
 4   0  0.4809415E-02  0.9118800E+02  0.7818609E-02  0.1379984E+01
      -11   -1    0    0    0    0  0.00000000000E+00  0.00000000000E+00  0.35740347158E-01  0.35744000000E-01  0.51099999109E-03 0.  1.
       11   -1    0    0    0    0 -0.00000000000E+00 -0.00000000000E+00 -0.35740347158E-01  0.35744000000E-01  0.51099999109E-03 0. -1.
       22    1    1    2    0    0 -0.32820234679E-01 -0.60511805915E-02  0.12780805684E-01  0.35737005818E-01  0.00000000000E+00 0.  1.
  9000001    1    1    2    0    0  0.32820234679E-01  0.60511805915E-02 -0.12780805684E-01  0.35750994182E-01  0.10000000475E-02 0. -1.
</event>
<event>
 4   0  0.4809415E-02  0.9118800E+02  0.7818609E-02  0.1379984E+01
      -11   -1    0    0    0    0  0.00000000000E+00  0.00000000000E+00  0.35740347158E-01  0.35744000000E-01  0.51099999109E-03 0.  1.
       11   -1    0    0    0    0 -0.00000000000E+00 -0.00000000000E+00 -0.35740347158E-01  0.35744000000E-01  0.51099999109E-03 0. -1.
       22    1    1    2    0    0  0.26837071746E-02  0.14289078768E-01 -0.32645880730E-01  0.35737005818E-01  0.00000000000E+00 0. -1.
  9000001    1    1    2    0    0 -0.26837071746E-02 -0.14289078768E-01  0.32645880730E-01  0.35750994182E-01  0.10000000475E-02 0.  1.
</event>
<event>
 4   0  0.4809415E-02  0.9118800E+02  0.7818609E-02  0.1379984E+01
      -11   -1    0    0    0    0  0.00000000000E+00  0.00000000000E+00  0.35740347158E-01  0.35744000000E-01  0.51099999109E-03 0.  1.
       11   -1    0    0    0    0 -0.00000000000E+00 -0.00000000000E+00 -0.35740347158E-01  0.35744000000E-01  0.51099999109E-03 0. -1.
       22    1    1    2    0    0 -0.11691906378E-02 -0.35100959206E-02  0.35544982835E-01  0.35737005818E-01  0.00000000000E+00 0.  1.
  9000001    1    1    2    0    0  0.11691906378E-02  0.35100959206E-02 -0.35544982835E-01  0.35750994182E-01  0.10000000475E-02 0. -1.
</event>
<event>
 4   0  0.4809415E-02  0.9118800E+02  0.7818609E-02  0.1379984E+01
      -11   -1    0    0    0    0  0.00000000000E+00  0.00000000000E+00  0.35740347158E-01  0.35744000000E-01  0.51099999109E-03 0. -1.
       11   -1    0    0    0    0 -0.00000000000E+00 -0.00000000000E+00 -0.35740347158E-01  0.35744000000E-01  0.51099999109E-03 0.  1.
       22    1    1    2    0    0  0.54818137280E-02 -0.11099276708E-01  0.33524459126E-01  0.35737005818E-01  0.00000000000E+00 0. -1.
  9000001    1    1    2    0    0 -0.54818137280E-02  0.11099276708E-01 -0.33524459126E-01  0.35750994182E-01  0.10000000475E-02 0.  1.
</event>
<event>
 4   0  0.4809415E-02  0.9118800E+02  0.7818609E-02  0.1379984E+01
      -11   -1    0    0    0    0  0.00000000000E+00  0.00000000000E+00  0.35740347158E-01  0.35744000000E-01  0.51099999109E-03 0. -1.
       11   -1    0    0    0    0 -0.00000000000E+00 -0.00000000000E+00 -0.35740347158E-01  0.35744000000E-01  0.51099999109E-03 0.  1.
       22    1    1    2    0    0  0.42930267876E-02  0.65846470503E-02 -0.34861811902E-01  0.35737005818E-01  0.00000000000E+00 0.  1.
  9000001    1    1    2    0    0 -0.42930267876E-02 -0.65846470503E-02  0.34861811902E-01  0.35750994182E-01  0.10000000475E-02 0. -1.
</event>
<event>
 4   0  0.4809415E-02  0.9118800E+02  0.7818609E-02  0.1379984E+01
      -11   -1    0    0    0    0  0.00000000000E+00  0.00000000000E+00  0.35740347158E-01  0.35744000000E-01  0.51099999109E-03 0. -1.
       11   -1    0    0    0    0 -0.00000000000E+00 -0.00000000000E+00 -0.35740347158E-01  0.35744000000E-01  0.51099999109E-03 0.  1.
       22    1    1    2    0    0 -0.31996522532E-01  0.76576762586E-02 -0.13954071989E-01  0.35737005818E-01  0.00000000000E+00 0. -1.
  9000001    1    1    2    0    0  0.31996522532E-01 -0.76576762586E-02  0.13954071989E-01  0.35750994182E-01  0.10000000475E-02 0.  1.
</event>
<event>
 4   0  0.4809415E-02  0.9118800E+02  0.7818609E-02  0.1379984E+01
      -11   -1    0    0    0    0  0.00000000000E+00  0.00000000000E+00  0.35740347158E-01  0.35744000000E-01  0.51099999109E-03 0.  1.
       11   -1    0    0    0    0 -0.00000000000E+00 -0.00000000000E+00 -0.35740347158E-01  0.35744000000E-01  0.51099999109E-03 0. -1.
       22    1    1    2    0    0  0.24194233288E-02 -0.30219661132E-02  0.35526718065E-01  0.35737005818E-01  0.00000000000E+00 0.  1.
  9000001    1    1    2    0    0 -0.24194233288E-02  0.30219661132E-02 -0.35526718065E-01  0.35750994182E-01  0.10000000475E-02 0. -1.
</event>
<event>
 4   0  0.4809415E-02  0.9118800E+02  0.7818609E-02  0.1379984E+01
      -11   -1    0    0    0    0  0.00000000000E+00  0.00000000000E+00  0.35740347158E-01  0.35744000000E-01  0.51099999109E-03 0. -1.
       11   -1    0    0    0    0 -0.00000000000E+00 -0.00000000000E+00 -0.35740347158E-01  0.35744000000E-01  0.51099999109E-03 0.  1.
       22    1    1    2    0    0  0.75765306622E-03 -0.41664282585E-02  0.35485214136E-01  0.35737005818E-01  0.00000000000E+00 0. -1.
  9000001    1    1    2    0    0 -0.75765306622E-03  0.41664282585E-02 -0.35485214136E-01  0.35750994182E-01  0.10000000475E-02 0.  1.
</event>
<event>
 4   0  0.4809415E-02  0.9118800E+02  0.7818609E-02  0.1379984E+01
      -11   -1    0    0    0    0  0.00000000000E+00  0.00000000000E+00  0.35740347158E-01  0.35744000000E-01  0.51099999109E-03 0. -1.
       11   -1    0    0    0    0 -0.00000000000E+00 -0.00000000000E+00 -0.35740347158E-01  0.35744000000E-01  0.51099999109E-03 0.  1.
       22    1    1    2    0    0 -0.47608287139E-02  0.17243640442E-01  0.30937436208E-01  0.35737005818E-01  0.00000000000E+00 0. -1.
  9000001    1    1    2    0    0  0.47608287139E-02 -0.17243640442E-01 -0.30937436208E-01  0.35750994182E-01  0.10000000475E-02 0.  1.
</event>
<event>
 4   0  0.4809415E-02  0.9118800E+02  0.7818609E-02  0.1379984E+01
      -11   -1    0    0    0    0  0.00000000000E+00  0.00000000000E+00  0.35740347158E-01  0.35744000000E-01  0.51099999109E-03 0.  1.
       11   -1    0    0    0    0 -0.00000000000E+00 -0.00000000000E+00 -0.35740347158E-01  0.35744000000E-01  0.51099999109E-03 0. -1.
       22    1    1    2    0    0  0.23592324932E-02  0.75926827269E-02 -0.34841337172E-01  0.35737005818E-01  0.00000000000E+00 0. -1.
  9000001    1    1    2    0    0 -0.23592324932E-02 -0.75926827269E-02  0.34841337172E-01  0.35750994182E-01  0.10000000475E-02 0.  1.
</event>
<event>
 4   0  0.4809415E-02  0.9118800E+02  0.7818609E-02  0.1379984E+01
      -11   -1    0    0    0    0  0.00000000000E+00  0.00000000000E+00  0.35740347158E-01  0.35744000000E-01  0.51099999109E-03 0.  1.
       11   -1    0    0    0    0 -0.00000000000E+00 -0.00000000000E+00 -0.35740347158E-01  0.35744000000E-01  0.51099999109E-03 0. -1.
       22    1    1    2    0    0 -0.33308770722E-02  0.11573064216E-03  0.35581251372E-01  0.35737005818E-01  0.00000000000E+00 0.  1.
  9000001    1    1    2    0    0  0.33308770722E-02 -0.11573064216E-03 -0.35581251372E-01  0.35750994182E-01  0.10000000475E-02 0. -1.
</event>
<event>
 4   0  0.4809415E-02  0.9118800E+02  0.7818609E-02  0.1379984E+01
      -11   -1    0    0    0    0  0.00000000000E+00  0.00000000000E+00  0.35740347158E-01  0.35744000000E-01  0.51099999109E-03 0.  1.
       11   -1    0    0    0    0 -0.00000000000E+00 -0.00000000000E+00 -0.35740347158E-01  0.35744000000E-01  0.51099999109E-03 0. -1.
       22    1    1    2    0    0  0.58954024462E-02  0.41185316111E-03  0.35244973994E-01  0.35737005818E-01  0.00000000000E+00 0.  1.
  9000001    1    1    2    0    0 -0.58954024462E-02 -0.41185316111E-03 -0.35244973994E-01  0.35750994182E-01  0.10000000475E-02 0. -1.
</event>
<event>
 4   0  0.4809415E-02  0.9118800E+02  0.7818609E-02  0.1379984E+01
      -11   -1    0    0    0    0  0.00000000000E+00  0.00000000000E+00  0.35740347158E-01  0.35744000000E-01  0.51099999109E-03 0. -1.
       11   -1    0    0    0    0 -0.00000000000E+00 -0.00000000000E+00 -0.35740347158E-01  0.35744000000E-01  0.51099999109E-03 0.  1.
       22    1    1    2    0    0 -0.12746893158E-01  0.27168178671E-01  0.19404648088E-01  0.35737005818E-01  0.00000000000E+00 0. -1.
  9000001    1    1    2    0    0  0.12746893158E-01 -0.27168178671E-01 -0.19404648088E-01  0.35750994182E-01  0.10000000475E-02 0.  1.
</event>
<event>
 4   0  0.4809415E-02  0.9118800E+02  0.7818609E-02  0.1379984E+01
      -11   -1    0    0    0    0  0.00000000000E+00  0.00000000000E+00  0.35740347158E-01  0.35744000000E-01  0.51099999109E-03 0.  1.
       11   -1    0    0    0    0 -0.00000000000E+00 -0.00000000000E+00 -0.35740347158E-01  0.35744000000E-01  0.51099999109E-03 0. -1.
       22    1    1    2    0    0  0.19317583146E-01 -0.38649295434E-02  0.29816553890E-01  0.35737005818E-01  0.00000000000E+00 0.  1.
  9000001    1    1    2    0    0 -0.19317583146E-01  0.38649295434E-02 -0.29816553890E-01  0.35750994182E-01  0.10000000475E-02 0. -1.
</event>
<event>
 4   0  0.4809415E-02  0.9118800E+02  0.7818609E-02  0.1379984E+01
      -11   -1    0    0    0    0  0.00000000000E+00  0.00000000000E+00  0.35740347158E-01  0.35744000000E-01  0.51099999109E-03 0. -1.
       11   -1    0    0    0    0 -0.00000000000E+00 -0.00000000000E+00 -0.35740347158E-01  0.35744000000E-01  0.51099999109E-03 0.  1.
       22    1    1    2    0    0 -0.14168988106E-03 -0.36904949654E-02  0.35545657340E-01  0.35737005818E-01  0.00000000000E+00 0. -1.
  9000001    1    1    2    0    0  0.14168988106E-03  0.36904949654E-02 -0.35545657340E-01  0.35750994182E-01  0.10000000475E-02 0.  1.
</event>
<event>
 4   0  0.4809415E-02  0.9118800E+02  0.7818609E-02  0.1379984E+01
      -11   -1    0    0    0    0  0.00000000000E+00  0.00000000000E+00  0.35740347158E-01  0.35744000000E-01  0.51099999109E-03 0.  1.
       11   -1    0    0    0    0 -0.00000000000E+00 -0.00000000000E+00 -0.35740347158E-01  0.35744000000E-01  0.51099999109E-03 0. -1.
       22    1    1    2    0    0 -0.93752103742E-02 -0.25413710274E-01 -0.23310562959E-01  0.35737005818E-01  0.00000000000E+00 0. -1.
  9000001    1    1    2    0    0  0.93752103742E-02  0.25413710274E-01  0.23310562959E-01  0.35750994182E-01  0.10000000475E-02 0.  1.
</event>
<event>
 4   0  0.4809415E-02  0.9118800E+02  0.7818609E-02  0.1379984E+01
      -11   -1    0    0    0    0  0.00000000000E+00  0.00000000000E+00  0.35740347158E-01  0.35744000000E-01  0.51099999109E-03 0.  1.
       11   -1    0    0    0    0 -0.00000000000E+00 -0.00000000000E+00 -0.35740347158E-01  0.35744000000E-01  0.51099999109E-03 0. -1.
       22    1    1    2    0    0  0.28949060210E-01 -0.13555429505E-03  0.20953928579E-01  0.35737005818E-01  0.00000000000E+00 0.  1.
  9000001    1    1    2    0    0 -0.28949060210E-01  0.13555429505E-03 -0.20953928579E-01  0.35750994182E-01  0.10000000475E-02 0. -1.
</event>
<event>
 4   0  0.4809415E-02  0.9118800E+02  0.7818609E-02  0.1379984E+01
      -11   -1    0    0    0    0  0.00000000000E+00  0.00000000000E+00  0.35740347158E-01  0.35744000000E-01  0.51099999109E-03 0. -1.
       11   -1    0    0    0    0 -0.00000000000E+00 -0.00000000000E+00 -0.35740347158E-01  0.35744000000E-01  0.51099999109E-03 0.  1.
       22    1    1    2    0    0  0.70797400960E-02  0.16913631140E-01  0.30674744444E-01  0.35737005818E-01  0.00000000000E+00 0. -1.
  9000001    1    1    2    0    0 -0.70797400960E-02 -0.16913631140E-01 -0.30674744444E-01  0.35750994182E-01  0.10000000475E-02 0.  1.
</event>
<event>
 4   0  0.4809415E-02  0.9118800E+02  0.7818609E-02  0.1379984E+01
      -11   -1    0    0    0    0  0.00000000000E+00  0.00000000000E+00  0.35740347158E-01  0.35744000000E-01  0.51099999109E-03 0. -1.
       11   -1    0    0    0    0 -0.00000000000E+00 -0.00000000000E+00 -0.35740347158E-01  0.35744000000E-01  0.51099999109E-03 0.  1.
       22    1    1    2    0    0  0.13112609334E-02  0.38795181669E-02  0.35501598815E-01  0.35737005818E-01  0.00000000000E+00 0. -1.
  9000001    1    1    2    0    0 -0.13112609334E-02 -0.38795181669E-02 -0.35501598815E-01  0.35750994182E-01  0.10000000475E-02 0.  1.
</event>
<event>
 4   0  0.4809415E-02  0.9118800E+02  0.7818609E-02  0.1379984E+01
      -11   -1    0    0    0    0  0.00000000000E+00  0.00000000000E+00  0.35740347158E-01  0.35744000000E-01  0.51099999109E-03 0.  1.
       11   -1    0    0    0    0 -0.00000000000E+00 -0.00000000000E+00 -0.35740347158E-01  0.35744000000E-01  0.51099999109E-03 0. -1.
       22    1    1    2    0    0  0.60258371427E-02  0.56723026104E-02 -0.34765613107E-01  0.35737005818E-01  0.00000000000E+00 0. -1.
  9000001    1    1    2    0    0 -0.60258371427E-02 -0.56723026104E-02  0.34765613107E-01  0.35750994182E-01  0.10000000475E-02 0.  1.
</event>
<event>
 4   0  0.4809415E-02  0.9118800E+02  0.7818609E-02  0.1379984E+01
      -11   -1    0    0    0    0  0.00000000000E+00  0.00000000000E+00  0.35740347158E-01  0.35744000000E-01  0.51099999109E-03 0. -1.
       11   -1    0    0    0    0 -0.00000000000E+00 -0.00000000000E+00 -0.35740347158E-01  0.35744000000E-01  0.51099999109E-03 0.  1.
       22    1    1    2    0    0 -0.51332619798E-02  0.53421457050E-03  0.35362378612E-01  0.35737005818E-01  0.00000000000E+00 0. -1.
  9000001    1    1    2    0    0  0.51332619798E-02 -0.53421457050E-03 -0.35362378612E-01  0.35750994182E-01  0.10000000475E-02 0.  1.
</event>
<event>
 4   0  0.4809415E-02  0.9118800E+02  0.7818609E-02  0.1379984E+01
      -11   -1    0    0    0    0  0.00000000000E+00  0.00000000000E+00  0.35740347158E-01  0.35744000000E-01  0.51099999109E-03 0.  1.
       11   -1    0    0    0    0 -0.00000000000E+00 -0.00000000000E+00 -0.35740347158E-01  0.35744000000E-01  0.51099999109E-03 0. -1.
       22    1    1    2    0    0 -0.11243991050E-02  0.35653550856E-02 -0.35540927881E-01  0.35737005818E-01  0.00000000000E+00 0. -1.
  9000001    1    1    2    0    0  0.11243991050E-02 -0.35653550856E-02  0.35540927881E-01  0.35750994182E-01  0.10000000475E-02 0.  1.
</event>
<event>
 4   0  0.4809415E-02  0.9118800E+02  0.7818609E-02  0.1379984E+01
      -11   -1    0    0    0    0  0.00000000000E+00  0.00000000000E+00  0.35740347158E-01  0.35744000000E-01  0.51099999109E-03 0.  1.
       11   -1    0    0    0    0 -0.00000000000E+00 -0.00000000000E+00 -0.35740347158E-01  0.35744000000E-01  0.51099999109E-03 0. -1.
       22    1    1    2    0    0  0.14215234645E-02 -0.13804980907E-01  0.32932284435E-01  0.35737005818E-01  0.00000000000E+00 0.  1.
  9000001    1    1    2    0    0 -0.14215234645E-02  0.13804980907E-01 -0.32932284435E-01  0.35750994182E-01  0.10000000475E-02 0. -1.
</event>
<event>
 4   0  0.4809415E-02  0.9118800E+02  0.7818609E-02  0.1379984E+01
      -11   -1    0    0    0    0  0.00000000000E+00  0.00000000000E+00  0.35740347158E-01  0.35744000000E-01  0.51099999109E-03 0. -1.
       11   -1    0    0    0    0 -0.00000000000E+00 -0.00000000000E+00 -0.35740347158E-01  0.35744000000E-01  0.51099999109E-03 0.  1.
       22    1    1    2    0    0 -0.22415232847E-01 -0.10220393388E-01  0.25888887197E-01  0.35737005818E-01  0.00000000000E+00 0. -1.
  9000001    1    1    2    0    0  0.22415232847E-01  0.10220393388E-01 -0.25888887197E-01  0.35750994182E-01  0.10000000475E-02 0.  1.
</event>
<event>
 4   0  0.4809415E-02  0.9118800E+02  0.7818609E-02  0.1379984E+01
      -11   -1    0    0    0    0  0.00000000000E+00  0.00000000000E+00  0.35740347158E-01  0.35744000000E-01  0.51099999109E-03 0.  1.
       11   -1    0    0    0    0 -0.00000000000E+00 -0.00000000000E+00 -0.35740347158E-01  0.35744000000E-01  0.51099999109E-03 0. -1.
       22    1    1    2    0    0 -0.27153100964E-01  0.97351296457E-02 -0.21096680869E-01  0.35737005818E-01  0.00000000000E+00 0. -1.
  9000001    1    1    2    0    0  0.27153100964E-01 -0.97351296457E-02  0.21096680869E-01  0.35750994182E-01  0.10000000475E-02 0.  1.
</event>
<event>
 4   0  0.4809415E-02  0.9118800E+02  0.7818609E-02  0.1379984E+01
      -11   -1    0    0    0    0  0.00000000000E+00  0.00000000000E+00  0.35740347158E-01  0.35744000000E-01  0.51099999109E-03 0. -1.
       11   -1    0    0    0    0 -0.00000000000E+00 -0.00000000000E+00 -0.35740347158E-01  0.35744000000E-01  0.51099999109E-03 0.  1.
       22    1    1    2    0    0  0.42417014695E-02 -0.19924841513E-01  0.29362258840E-01  0.35737005818E-01  0.00000000000E+00 0. -1.
  9000001    1    1    2    0    0 -0.42417014695E-02  0.19924841513E-01 -0.29362258840E-01  0.35750994182E-01  0.10000000475E-02 0.  1.
</event>
<event>
 4   0  0.4809415E-02  0.9118800E+02  0.7818609E-02  0.1379984E+01
      -11   -1    0    0    0    0  0.00000000000E+00  0.00000000000E+00  0.35740347158E-01  0.35744000000E-01  0.51099999109E-03 0.  1.
       11   -1    0    0    0    0 -0.00000000000E+00 -0.00000000000E+00 -0.35740347158E-01  0.35744000000E-01  0.51099999109E-03 0. -1.
       22    1    1    2    0    0 -0.42180657859E-02  0.62384471495E-02  0.34934557147E-01  0.35737005818E-01  0.00000000000E+00 0.  1.
  9000001    1    1    2    0    0  0.42180657859E-02 -0.62384471495E-02 -0.34934557147E-01  0.35750994182E-01  0.10000000475E-02 0. -1.
</event>
<event>
 4   0  0.4809415E-02  0.9118800E+02  0.7818609E-02  0.1379984E+01
      -11   -1    0    0    0    0  0.00000000000E+00  0.00000000000E+00  0.35740347158E-01  0.35744000000E-01  0.51099999109E-03 0. -1.
       11   -1    0    0    0    0 -0.00000000000E+00 -0.00000000000E+00 -0.35740347158E-01  0.35744000000E-01  0.51099999109E-03 0.  1.
       22    1    1    2    0    0  0.73092139246E-02  0.42789216554E-03  0.34978934875E-01  0.35737005818E-01  0.00000000000E+00 0. -1.
  9000001    1    1    2    0    0 -0.73092139246E-02 -0.42789216554E-03 -0.34978934875E-01  0.35750994182E-01  0.10000000475E-02 0.  1.
</event>
<event>
 4   0  0.4809415E-02  0.9118800E+02  0.7818609E-02  0.1379984E+01
      -11   -1    0    0    0    0  0.00000000000E+00  0.00000000000E+00  0.35740347158E-01  0.35744000000E-01  0.51099999109E-03 0.  1.
       11   -1    0    0    0    0 -0.00000000000E+00 -0.00000000000E+00 -0.35740347158E-01  0.35744000000E-01  0.51099999109E-03 0. -1.
       22    1    1    2    0    0 -0.10201675857E-01  0.16622183046E-02  0.34209595509E-01  0.35737005818E-01  0.00000000000E+00 0.  1.
  9000001    1    1    2    0    0  0.10201675857E-01 -0.16622183046E-02 -0.34209595509E-01  0.35750994182E-01  0.10000000475E-02 0. -1.
</event>
<event>
 4   0  0.4809415E-02  0.9118800E+02  0.7818609E-02  0.1379984E+01
      -11   -1    0    0    0    0  0.00000000000E+00  0.00000000000E+00  0.35740347158E-01  0.35744000000E-01  0.51099999109E-03 0.  1.
       11   -1    0    0    0    0 -0.00000000000E+00 -0.00000000000E+00 -0.35740347158E-01  0.35744000000E-01  0.51099999109E-03 0. -1.
       22    1    1    2    0    0 -0.67274423420E-02 -0.99836427512E-02 -0.33648209192E-01  0.35737005818E-01  0.00000000000E+00 0. -1.
  9000001    1    1    2    0    0  0.67274423420E-02  0.99836427512E-02  0.33648209192E-01  0.35750994182E-01  0.10000000475E-02 0.  1.
</event>
<event>
 4   0  0.4809415E-02  0.9118800E+02  0.7818609E-02  0.1379984E+01
      -11   -1    0    0    0    0  0.00000000000E+00  0.00000000000E+00  0.35740347158E-01  0.35744000000E-01  0.51099999109E-03 0.  1.
       11   -1    0    0    0    0 -0.00000000000E+00 -0.00000000000E+00 -0.35740347158E-01  0.35744000000E-01  0.51099999109E-03 0. -1.
       22    1    1    2    0    0  0.12544819431E-01  0.15247606299E-02  0.33428074957E-01  0.35737005818E-01  0.00000000000E+00 0.  1.
  9000001    1    1    2    0    0 -0.12544819431E-01 -0.15247606299E-02 -0.33428074957E-01  0.35750994182E-01  0.10000000475E-02 0. -1.
</event>
<event>
 4   0  0.4809415E-02  0.9118800E+02  0.7818609E-02  0.1379984E+01
      -11   -1    0    0    0    0  0.00000000000E+00  0.00000000000E+00  0.35740347158E-01  0.35744000000E-01  0.51099999109E-03 0. -1.
       11   -1    0    0    0    0 -0.00000000000E+00 -0.00000000000E+00 -0.35740347158E-01  0.35744000000E-01  0.51099999109E-03 0.  1.
       22    1    1    2    0    0 -0.50495089677E-02  0.16722936115E-01 -0.31176584992E-01  0.35737005818E-01  0.00000000000E+00 0.  1.
  9000001    1    1    2    0    0  0.50495089677E-02 -0.16722936115E-01  0.31176584992E-01  0.35750994182E-01  0.10000000475E-02 0. -1.
</event>
<event>
 4   0  0.4809415E-02  0.9118800E+02  0.7818609E-02  0.1379984E+01
      -11   -1    0    0    0    0  0.00000000000E+00  0.00000000000E+00  0.35740347158E-01  0.35744000000E-01  0.51099999109E-03 0. -1.
       11   -1    0    0    0    0 -0.00000000000E+00 -0.00000000000E+00 -0.35740347158E-01  0.35744000000E-01  0.51099999109E-03 0.  1.
       22    1    1    2    0    0  0.14615887698E-01  0.31966520446E-01  0.64537572209E-02  0.35737005818E-01  0.00000000000E+00 0. -1.
  9000001    1    1    2    0    0 -0.14615887698E-01 -0.31966520446E-01 -0.64537572209E-02  0.35750994182E-01  0.10000000475E-02 0.  1.
</event>
<event>
 4   0  0.4809415E-02  0.9118800E+02  0.7818609E-02  0.1379984E+01
      -11   -1    0    0    0    0  0.00000000000E+00  0.00000000000E+00  0.35740347158E-01  0.35744000000E-01  0.51099999109E-03 0.  1.
       11   -1    0    0    0    0 -0.00000000000E+00 -0.00000000000E+00 -0.35740347158E-01  0.35744000000E-01  0.51099999109E-03 0. -1.
       22    1    1    2    0    0 -0.34720765565E-02 -0.27522459754E-02  0.35461294553E-01  0.35737005818E-01  0.00000000000E+00 0.  1.
  9000001    1    1    2    0    0  0.34720765565E-02  0.27522459754E-02 -0.35461294553E-01  0.35750994182E-01  0.10000000475E-02 0. -1.
</event>
<event>
 4   0  0.4809415E-02  0.9118800E+02  0.7818609E-02  0.1379984E+01
      -11   -1    0    0    0    0  0.00000000000E+00  0.00000000000E+00  0.35740347158E-01  0.35744000000E-01  0.51099999109E-03 0.  1.
       11   -1    0    0    0    0 -0.00000000000E+00 -0.00000000000E+00 -0.35740347158E-01  0.35744000000E-01  0.51099999109E-03 0. -1.
       22    1    1    2    0    0 -0.20039063546E-01  0.21951823702E-01  0.19841546140E-01  0.35737005818E-01  0.00000000000E+00 0.  1.
  9000001    1    1    2    0    0  0.20039063546E-01 -0.21951823702E-01 -0.19841546140E-01  0.35750994182E-01  0.10000000475E-02 0. -1.
</event>
<event>
 4   0  0.4809415E-02  0.9118800E+02  0.7818609E-02  0.1379984E+01
      -11   -1    0    0    0    0  0.00000000000E+00  0.00000000000E+00  0.35740347158E-01  0.35744000000E-01  0.51099999109E-03 0. -1.
       11   -1    0    0    0    0 -0.00000000000E+00 -0.00000000000E+00 -0.35740347158E-01  0.35744000000E-01  0.51099999109E-03 0.  1.
       22    1    1    2    0    0 -0.45402148623E-02  0.69860415470E-02 -0.34752197878E-01  0.35737005818E-01  0.00000000000E+00 0.  1.
  9000001    1    1    2    0    0  0.45402148623E-02 -0.69860415470E-02  0.34752197878E-01  0.35750994182E-01  0.10000000475E-02 0. -1.
</event>
<event>
 4   0  0.4809415E-02  0.9118800E+02  0.7818609E-02  0.1379984E+01
      -11   -1    0    0    0    0  0.00000000000E+00  0.00000000000E+00  0.35740347158E-01  0.35744000000E-01  0.51099999109E-03 0.  1.
       11   -1    0    0    0    0 -0.00000000000E+00 -0.00000000000E+00 -0.35740347158E-01  0.35744000000E-01  0.51099999109E-03 0. -1.
       22    1    1    2    0    0  0.11998484826E-02 -0.92589290952E-02 -0.34495886429E-01  0.35737005818E-01  0.00000000000E+00 0. -1.
  9000001    1    1    2    0    0 -0.11998484826E-02  0.92589290952E-02  0.34495886429E-01  0.35750994182E-01  0.10000000475E-02 0.  1.
</event>
<event>
 4   0  0.4809415E-02  0.9118800E+02  0.7818609E-02  0.1379984E+01
      -11   -1    0    0    0    0  0.00000000000E+00  0.00000000000E+00  0.35740347158E-01  0.35744000000E-01  0.51099999109E-03 0.  1.
       11   -1    0    0    0    0 -0.00000000000E+00 -0.00000000000E+00 -0.35740347158E-01  0.35744000000E-01  0.51099999109E-03 0. -1.
       22    1    1    2    0    0  0.33820830717E-02  0.54600690782E-02 -0.35155124017E-01  0.35737005818E-01  0.00000000000E+00 0. -1.
  9000001    1    1    2    0    0 -0.33820830717E-02 -0.54600690782E-02  0.35155124017E-01  0.35750994182E-01  0.10000000475E-02 0.  1.
</event>
<event>
 4   0  0.4809415E-02  0.9118800E+02  0.7818609E-02  0.1379984E+01
      -11   -1    0    0    0    0  0.00000000000E+00  0.00000000000E+00  0.35740347158E-01  0.35744000000E-01  0.51099999109E-03 0. -1.
       11   -1    0    0    0    0 -0.00000000000E+00 -0.00000000000E+00 -0.35740347158E-01  0.35744000000E-01  0.51099999109E-03 0.  1.
       22    1    1    2    0    0 -0.51935916999E-03 -0.46934096141E-02  0.35423660978E-01  0.35737005818E-01  0.00000000000E+00 0. -1.
  9000001    1    1    2    0    0  0.51935916999E-03  0.46934096141E-02 -0.35423660978E-01  0.35750994182E-01  0.10000000475E-02 0.  1.
</event>
<event>
 4   0  0.4809415E-02  0.9118800E+02  0.7818609E-02  0.1379984E+01
      -11   -1    0    0    0    0  0.00000000000E+00  0.00000000000E+00  0.35740347158E-01  0.35744000000E-01  0.51099999109E-03 0.  1.
       11   -1    0    0    0    0 -0.00000000000E+00 -0.00000000000E+00 -0.35740347158E-01  0.35744000000E-01  0.51099999109E-03 0. -1.
       22    1    1    2    0    0  0.11555204366E-01  0.55898796056E-02  0.33352122615E-01  0.35737005818E-01  0.00000000000E+00 0.  1.
  9000001    1    1    2    0    0 -0.11555204366E-01 -0.55898796056E-02 -0.33352122615E-01  0.35750994182E-01  0.10000000475E-02 0. -1.
</event>
<event>
 4   0  0.4809415E-02  0.9118800E+02  0.7818609E-02  0.1379984E+01
      -11   -1    0    0    0    0  0.00000000000E+00  0.00000000000E+00  0.35740347158E-01  0.35744000000E-01  0.51099999109E-03 0.  1.
       11   -1    0    0    0    0 -0.00000000000E+00 -0.00000000000E+00 -0.35740347158E-01  0.35744000000E-01  0.51099999109E-03 0. -1.
       22    1    1    2    0    0 -0.21996783593E-01 -0.17075072750E-02  0.28113333409E-01  0.35737005818E-01  0.00000000000E+00 0.  1.
  9000001    1    1    2    0    0  0.21996783593E-01  0.17075072750E-02 -0.28113333409E-01  0.35750994182E-01  0.10000000475E-02 0. -1.
</event>
<event>
 4   0  0.4809415E-02  0.9118800E+02  0.7818609E-02  0.1379984E+01
      -11   -1    0    0    0    0  0.00000000000E+00  0.00000000000E+00  0.35740347158E-01  0.35744000000E-01  0.51099999109E-03 0.  1.
       11   -1    0    0    0    0 -0.00000000000E+00 -0.00000000000E+00 -0.35740347158E-01  0.35744000000E-01  0.51099999109E-03 0. -1.
       22    1    1    2    0    0 -0.97111961668E-02  0.60092003898E-02  0.33863191884E-01  0.35737005818E-01  0.00000000000E+00 0.  1.
  9000001    1    1    2    0    0  0.97111961668E-02 -0.60092003898E-02 -0.33863191884E-01  0.35750994182E-01  0.10000000475E-02 0. -1.
</event>
<event>
 4   0  0.4809415E-02  0.9118800E+02  0.7818609E-02  0.1379984E+01
      -11   -1    0    0    0    0  0.00000000000E+00  0.00000000000E+00  0.35740347158E-01  0.35744000000E-01  0.51099999109E-03 0. -1.
       11   -1    0    0    0    0 -0.00000000000E+00 -0.00000000000E+00 -0.35740347158E-01  0.35744000000E-01  0.51099999109E-03 0.  1.
       22    1    1    2    0    0 -0.17244914458E-01 -0.98467119292E-02  0.29711761550E-01  0.35737005818E-01  0.00000000000E+00 0. -1.
  9000001    1    1    2    0    0  0.17244914458E-01  0.98467119292E-02 -0.29711761550E-01  0.35750994182E-01  0.10000000475E-02 0.  1.
</event>
<event>
 4   0  0.4809415E-02  0.9118800E+02  0.7818609E-02  0.1379984E+01
      -11   -1    0    0    0    0  0.00000000000E+00  0.00000000000E+00  0.35740347158E-01  0.35744000000E-01  0.51099999109E-03 0. -1.
       11   -1    0    0    0    0 -0.00000000000E+00 -0.00000000000E+00 -0.35740347158E-01  0.35744000000E-01  0.51099999109E-03 0.  1.
       22    1    1    2    0    0  0.24777374016E-02 -0.70179682269E-02 -0.34953433654E-01  0.35737005818E-01  0.00000000000E+00 0.  1.
  9000001    1    1    2    0    0 -0.24777374016E-02  0.70179682269E-02  0.34953433654E-01  0.35750994182E-01  0.10000000475E-02 0. -1.
</event>
<event>
 4   0  0.4809415E-02  0.9118800E+02  0.7818609E-02  0.1379984E+01
      -11   -1    0    0    0    0  0.00000000000E+00  0.00000000000E+00  0.35740347158E-01  0.35744000000E-01  0.51099999109E-03 0. -1.
       11   -1    0    0    0    0 -0.00000000000E+00 -0.00000000000E+00 -0.35740347158E-01  0.35744000000E-01  0.51099999109E-03 0.  1.
       22    1    1    2    0    0  0.16081398099E-01  0.10515497287E-01  0.30132151215E-01  0.35737005818E-01  0.00000000000E+00 0. -1.
  9000001    1    1    2    0    0 -0.16081398099E-01 -0.10515497287E-01 -0.30132151215E-01  0.35750994182E-01  0.10000000475E-02 0.  1.
</event>
<event>
 4   0  0.4809415E-02  0.9118800E+02  0.7818609E-02  0.1379984E+01
      -11   -1    0    0    0    0  0.00000000000E+00  0.00000000000E+00  0.35740347158E-01  0.35744000000E-01  0.51099999109E-03 0.  1.
       11   -1    0    0    0    0 -0.00000000000E+00 -0.00000000000E+00 -0.35740347158E-01  0.35744000000E-01  0.51099999109E-03 0. -1.
       22    1    1    2    0    0  0.97234611834E-02 -0.63750830386E-03 -0.34382865946E-01  0.35737005818E-01  0.00000000000E+00 0. -1.
  9000001    1    1    2    0    0 -0.97234611834E-02  0.63750830386E-03  0.34382865946E-01  0.35750994182E-01  0.10000000475E-02 0.  1.
</event>
<event>
 4   0  0.4809415E-02  0.9118800E+02  0.7818609E-02  0.1379984E+01
      -11   -1    0    0    0    0  0.00000000000E+00  0.00000000000E+00  0.35740347158E-01  0.35744000000E-01  0.51099999109E-03 0. -1.
       11   -1    0    0    0    0 -0.00000000000E+00 -0.00000000000E+00 -0.35740347158E-01  0.35744000000E-01  0.51099999109E-03 0.  1.
       22    1    1    2    0    0 -0.24851722357E-01 -0.11735187284E-01 -0.22843179730E-01  0.35737005818E-01  0.00000000000E+00 0.  1.
  9000001    1    1    2    0    0  0.24851722357E-01  0.11735187284E-01  0.22843179730E-01  0.35750994182E-01  0.10000000475E-02 0. -1.
</event>
<event>
 4   0  0.4809415E-02  0.9118800E+02  0.7818609E-02  0.1379984E+01
      -11   -1    0    0    0    0  0.00000000000E+00  0.00000000000E+00  0.35740347158E-01  0.35744000000E-01  0.51099999109E-03 0.  1.
       11   -1    0    0    0    0 -0.00000000000E+00 -0.00000000000E+00 -0.35740347158E-01  0.35744000000E-01  0.51099999109E-03 0. -1.
       22    1    1    2    0    0  0.89161767699E-02  0.38381535687E-02  0.34393370784E-01  0.35737005818E-01  0.00000000000E+00 0.  1.
  9000001    1    1    2    0    0 -0.89161767699E-02 -0.38381535687E-02 -0.34393370784E-01  0.35750994182E-01  0.10000000475E-02 0. -1.
</event>
<event>
 4   0  0.4809415E-02  0.9118800E+02  0.7818609E-02  0.1379984E+01
      -11   -1    0    0    0    0  0.00000000000E+00  0.00000000000E+00  0.35740347158E-01  0.35744000000E-01  0.51099999109E-03 0. -1.
       11   -1    0    0    0    0 -0.00000000000E+00 -0.00000000000E+00 -0.35740347158E-01  0.35744000000E-01  0.51099999109E-03 0.  1.
       22    1    1    2    0    0  0.49843909128E-03 -0.30524533263E-02 -0.35602916623E-01  0.35737005818E-01  0.00000000000E+00 0.  1.
  9000001    1    1    2    0    0 -0.49843909128E-03  0.30524533263E-02  0.35602916623E-01  0.35750994182E-01  0.10000000475E-02 0. -1.
</event>
<event>
 4   0  0.4809415E-02  0.9118800E+02  0.7818609E-02  0.1379984E+01
      -11   -1    0    0    0    0  0.00000000000E+00  0.00000000000E+00  0.35740347158E-01  0.35744000000E-01  0.51099999109E-03 0. -1.
       11   -1    0    0    0    0 -0.00000000000E+00 -0.00000000000E+00 -0.35740347158E-01  0.35744000000E-01  0.51099999109E-03 0.  1.
       22    1    1    2    0    0 -0.43186468033E-02 -0.24481291071E-02 -0.35390528938E-01  0.35737005818E-01  0.00000000000E+00 0.  1.
  9000001    1    1    2    0    0  0.43186468033E-02  0.24481291071E-02  0.35390528938E-01  0.35750994182E-01  0.10000000475E-02 0. -1.
</event>
<event>
 4   0  0.4809415E-02  0.9118800E+02  0.7818609E-02  0.1379984E+01
      -11   -1    0    0    0    0  0.00000000000E+00  0.00000000000E+00  0.35740347158E-01  0.35744000000E-01  0.51099999109E-03 0.  1.
       11   -1    0    0    0    0 -0.00000000000E+00 -0.00000000000E+00 -0.35740347158E-01  0.35744000000E-01  0.51099999109E-03 0. -1.
       22    1    1    2    0    0  0.91385341883E-03 -0.76964281960E-02  0.34886436474E-01  0.35737005818E-01  0.00000000000E+00 0.  1.
  9000001    1    1    2    0    0 -0.91385341883E-03  0.76964281960E-02 -0.34886436474E-01  0.35750994182E-01  0.10000000475E-02 0. -1.
</event>
<event>
 4   0  0.4809415E-02  0.9118800E+02  0.7818609E-02  0.1379984E+01
      -11   -1    0    0    0    0  0.00000000000E+00  0.00000000000E+00  0.35740347158E-01  0.35744000000E-01  0.51099999109E-03 0.  1.
       11   -1    0    0    0    0 -0.00000000000E+00 -0.00000000000E+00 -0.35740347158E-01  0.35744000000E-01  0.51099999109E-03 0. -1.
       22    1    1    2    0    0  0.51602801139E-02  0.12849011126E-01 -0.32945530912E-01  0.35737005818E-01  0.00000000000E+00 0. -1.
  9000001    1    1    2    0    0 -0.51602801139E-02 -0.12849011126E-01  0.32945530912E-01  0.35750994182E-01  0.10000000475E-02 0.  1.
</event>
<event>
 4   0  0.4809415E-02  0.9118800E+02  0.7818609E-02  0.1379984E+01
      -11   -1    0    0    0    0  0.00000000000E+00  0.00000000000E+00  0.35740347158E-01  0.35744000000E-01  0.51099999109E-03 0.  1.
       11   -1    0    0    0    0 -0.00000000000E+00 -0.00000000000E+00 -0.35740347158E-01  0.35744000000E-01  0.51099999109E-03 0. -1.
       22    1    1    2    0    0  0.26509174435E-01 -0.68270875677E-02 -0.22973639916E-01  0.35737005818E-01  0.00000000000E+00 0. -1.
  9000001    1    1    2    0    0 -0.26509174435E-01  0.68270875677E-02  0.22973639916E-01  0.35750994182E-01  0.10000000475E-02 0.  1.
</event>
<event>
 4   0  0.4809415E-02  0.9118800E+02  0.7818609E-02  0.1379984E+01
      -11   -1    0    0    0    0  0.00000000000E+00  0.00000000000E+00  0.35740347158E-01  0.35744000000E-01  0.51099999109E-03 0. -1.
       11   -1    0    0    0    0 -0.00000000000E+00 -0.00000000000E+00 -0.35740347158E-01  0.35744000000E-01  0.51099999109E-03 0.  1.
       22    1    1    2    0    0  0.15756823976E-01  0.27903735141E-01 -0.15818901614E-01  0.35737005818E-01  0.00000000000E+00 0.  1.
  9000001    1    1    2    0    0 -0.15756823976E-01 -0.27903735141E-01  0.15818901614E-01  0.35750994182E-01  0.10000000475E-02 0. -1.
</event>
<event>
 4   0  0.4809415E-02  0.9118800E+02  0.7818609E-02  0.1379984E+01
      -11   -1    0    0    0    0  0.00000000000E+00  0.00000000000E+00  0.35740347158E-01  0.35744000000E-01  0.51099999109E-03 0.  1.
       11   -1    0    0    0    0 -0.00000000000E+00 -0.00000000000E+00 -0.35740347158E-01  0.35744000000E-01  0.51099999109E-03 0. -1.
       22    1    1    2    0    0 -0.15348477429E-01  0.18835739187E-01 -0.26206349513E-01  0.35737005818E-01  0.00000000000E+00 0. -1.
  9000001    1    1    2    0    0  0.15348477429E-01 -0.18835739187E-01  0.26206349513E-01  0.35750994182E-01  0.10000000475E-02 0.  1.
</event>
<event>
 4   0  0.4809415E-02  0.9118800E+02  0.7818609E-02  0.1379984E+01
      -11   -1    0    0    0    0  0.00000000000E+00  0.00000000000E+00  0.35740347158E-01  0.35744000000E-01  0.51099999109E-03 0. -1.
       11   -1    0    0    0    0 -0.00000000000E+00 -0.00000000000E+00 -0.35740347158E-01  0.35744000000E-01  0.51099999109E-03 0.  1.
       22    1    1    2    0    0 -0.58195163691E-02 -0.11297450412E-02  0.35241885452E-01  0.35737005818E-01  0.00000000000E+00 0. -1.
  9000001    1    1    2    0    0  0.58195163691E-02  0.11297450412E-02 -0.35241885452E-01  0.35750994182E-01  0.10000000475E-02 0.  1.
</event>
<event>
 4   0  0.4809415E-02  0.9118800E+02  0.7818609E-02  0.1379984E+01
      -11   -1    0    0    0    0  0.00000000000E+00  0.00000000000E+00  0.35740347158E-01  0.35744000000E-01  0.51099999109E-03 0.  1.
       11   -1    0    0    0    0 -0.00000000000E+00 -0.00000000000E+00 -0.35740347158E-01  0.35744000000E-01  0.51099999109E-03 0. -1.
       22    1    1    2    0    0  0.92113804806E-02 -0.13377161347E-01 -0.31832932771E-01  0.35737005818E-01  0.00000000000E+00 0. -1.
  9000001    1    1    2    0    0 -0.92113804806E-02  0.13377161347E-01  0.31832932771E-01  0.35750994182E-01  0.10000000475E-02 0.  1.
</event>
<event>
 4   0  0.4809415E-02  0.9118800E+02  0.7818609E-02  0.1379984E+01
      -11   -1    0    0    0    0  0.00000000000E+00  0.00000000000E+00  0.35740347158E-01  0.35744000000E-01  0.51099999109E-03 0.  1.
       11   -1    0    0    0    0 -0.00000000000E+00 -0.00000000000E+00 -0.35740347158E-01  0.35744000000E-01  0.51099999109E-03 0. -1.
       22    1    1    2    0    0  0.14014571106E-01 -0.91490811162E-02 -0.31575618700E-01  0.35737005818E-01  0.00000000000E+00 0. -1.
  9000001    1    1    2    0    0 -0.14014571106E-01  0.91490811162E-02  0.31575618700E-01  0.35750994182E-01  0.10000000475E-02 0.  1.
</event>
<event>
 4   0  0.4809415E-02  0.9118800E+02  0.7818609E-02  0.1379984E+01
      -11   -1    0    0    0    0  0.00000000000E+00  0.00000000000E+00  0.35740347158E-01  0.35744000000E-01  0.51099999109E-03 0.  1.
       11   -1    0    0    0    0 -0.00000000000E+00 -0.00000000000E+00 -0.35740347158E-01  0.35744000000E-01  0.51099999109E-03 0. -1.
       22    1    1    2    0    0 -0.21790964337E-03 -0.50222370620E-02  0.35381679372E-01  0.35737005818E-01  0.00000000000E+00 0.  1.
  9000001    1    1    2    0    0  0.21790964337E-03  0.50222370620E-02 -0.35381679372E-01  0.35750994182E-01  0.10000000475E-02 0. -1.
</event>
<event>
 4   0  0.4809415E-02  0.9118800E+02  0.7818609E-02  0.1379984E+01
      -11   -1    0    0    0    0  0.00000000000E+00  0.00000000000E+00  0.35740347158E-01  0.35744000000E-01  0.51099999109E-03 0. -1.
       11   -1    0    0    0    0 -0.00000000000E+00 -0.00000000000E+00 -0.35740347158E-01  0.35744000000E-01  0.51099999109E-03 0.  1.
       22    1    1    2    0    0  0.48179388027E-02 -0.33383395810E-01  0.11809738978E-01  0.35737005818E-01  0.00000000000E+00 0. -1.
  9000001    1    1    2    0    0 -0.48179388027E-02  0.33383395810E-01 -0.11809738978E-01  0.35750994182E-01  0.10000000475E-02 0.  1.
</event>
<event>
 4   0  0.4809415E-02  0.9118800E+02  0.7818609E-02  0.1379984E+01
      -11   -1    0    0    0    0  0.00000000000E+00  0.00000000000E+00  0.35740347158E-01  0.35744000000E-01  0.51099999109E-03 0. -1.
       11   -1    0    0    0    0 -0.00000000000E+00 -0.00000000000E+00 -0.35740347158E-01  0.35744000000E-01  0.51099999109E-03 0.  1.
       22    1    1    2    0    0  0.21643029097E-02  0.31130756830E-01 -0.17416238314E-01  0.35737005818E-01  0.00000000000E+00 0.  1.
  9000001    1    1    2    0    0 -0.21643029097E-02 -0.31130756830E-01  0.17416238314E-01  0.35750994182E-01  0.10000000475E-02 0. -1.
</event>
<event>
 4   0  0.4809415E-02  0.9118800E+02  0.7818609E-02  0.1379984E+01
      -11   -1    0    0    0    0  0.00000000000E+00  0.00000000000E+00  0.35740347158E-01  0.35744000000E-01  0.51099999109E-03 0. -1.
       11   -1    0    0    0    0 -0.00000000000E+00 -0.00000000000E+00 -0.35740347158E-01  0.35744000000E-01  0.51099999109E-03 0.  1.
       22    1    1    2    0    0  0.16687125278E-01 -0.12503847855E-01  0.29022874146E-01  0.35737005818E-01  0.00000000000E+00 0. -1.
  9000001    1    1    2    0    0 -0.16687125278E-01  0.12503847855E-01 -0.29022874146E-01  0.35750994182E-01  0.10000000475E-02 0.  1.
</event>
<event>
 4   0  0.4809415E-02  0.9118800E+02  0.7818609E-02  0.1379984E+01
      -11   -1    0    0    0    0  0.00000000000E+00  0.00000000000E+00  0.35740347158E-01  0.35744000000E-01  0.51099999109E-03 0. -1.
       11   -1    0    0    0    0 -0.00000000000E+00 -0.00000000000E+00 -0.35740347158E-01  0.35744000000E-01  0.51099999109E-03 0.  1.
       22    1    1    2    0    0  0.14623624360E-01 -0.16234894446E-01  0.28279168973E-01  0.35737005818E-01  0.00000000000E+00 0. -1.
  9000001    1    1    2    0    0 -0.14623624360E-01  0.16234894446E-01 -0.28279168973E-01  0.35750994182E-01  0.10000000475E-02 0.  1.
</event>
<event>
 4   0  0.4809415E-02  0.9118800E+02  0.7818609E-02  0.1379984E+01
      -11   -1    0    0    0    0  0.00000000000E+00  0.00000000000E+00  0.35740347158E-01  0.35744000000E-01  0.51099999109E-03 0.  1.
       11   -1    0    0    0    0 -0.00000000000E+00 -0.00000000000E+00 -0.35740347158E-01  0.35744000000E-01  0.51099999109E-03 0. -1.
       22    1    1    2    0    0 -0.85221612765E-02 -0.41202505756E-02  0.34460555527E-01  0.35737005818E-01  0.00000000000E+00 0.  1.
  9000001    1    1    2    0    0  0.85221612765E-02  0.41202505756E-02 -0.34460555527E-01  0.35750994182E-01  0.10000000475E-02 0. -1.
</event>
<event>
 4   0  0.4809415E-02  0.9118800E+02  0.7818609E-02  0.1379984E+01
      -11   -1    0    0    0    0  0.00000000000E+00  0.00000000000E+00  0.35740347158E-01  0.35744000000E-01  0.51099999109E-03 0.  1.
       11   -1    0    0    0    0 -0.00000000000E+00 -0.00000000000E+00 -0.35740347158E-01  0.35744000000E-01  0.51099999109E-03 0. -1.
       22    1    1    2    0    0  0.10095176916E-01  0.34278715090E-01 -0.43666882503E-03  0.35737005818E-01  0.00000000000E+00 0. -1.
  9000001    1    1    2    0    0 -0.10095176916E-01 -0.34278715090E-01  0.43666882503E-03  0.35750994182E-01  0.10000000475E-02 0.  1.
</event>
<event>
 4   0  0.4809415E-02  0.9118800E+02  0.7818609E-02  0.1379984E+01
      -11   -1    0    0    0    0  0.00000000000E+00  0.00000000000E+00  0.35740347158E-01  0.35744000000E-01  0.51099999109E-03 0.  1.
       11   -1    0    0    0    0 -0.00000000000E+00 -0.00000000000E+00 -0.35740347158E-01  0.35744000000E-01  0.51099999109E-03 0. -1.
       22    1    1    2    0    0  0.36686679150E-02  0.46996926285E-02  0.35236165367E-01  0.35737005818E-01  0.00000000000E+00 0.  1.
  9000001    1    1    2    0    0 -0.36686679150E-02 -0.46996926285E-02 -0.35236165367E-01  0.35750994182E-01  0.10000000475E-02 0. -1.
</event>
<event>
 4   0  0.4809415E-02  0.9118800E+02  0.7818609E-02  0.1379984E+01
      -11   -1    0    0    0    0  0.00000000000E+00  0.00000000000E+00  0.35740347158E-01  0.35744000000E-01  0.51099999109E-03 0. -1.
       11   -1    0    0    0    0 -0.00000000000E+00 -0.00000000000E+00 -0.35740347158E-01  0.35744000000E-01  0.51099999109E-03 0.  1.
       22    1    1    2    0    0 -0.12257109539E-01 -0.93845088241E-02 -0.32230852374E-01  0.35737005818E-01  0.00000000000E+00 0.  1.
  9000001    1    1    2    0    0  0.12257109539E-01  0.93845088241E-02  0.32230852374E-01  0.35750994182E-01  0.10000000475E-02 0. -1.
</event>
<event>
 4   0  0.4809415E-02  0.9118800E+02  0.7818609E-02  0.1379984E+01
      -11   -1    0    0    0    0  0.00000000000E+00  0.00000000000E+00  0.35740347158E-01  0.35744000000E-01  0.51099999109E-03 0.  1.
       11   -1    0    0    0    0 -0.00000000000E+00 -0.00000000000E+00 -0.35740347158E-01  0.35744000000E-01  0.51099999109E-03 0. -1.
       22    1    1    2    0    0 -0.22359355578E-01  0.53712544347E-02 -0.27355848164E-01  0.35737005818E-01  0.00000000000E+00 0. -1.
  9000001    1    1    2    0    0  0.22359355578E-01 -0.53712544347E-02  0.27355848164E-01  0.35750994182E-01  0.10000000475E-02 0.  1.
</event>
<event>
 4   0  0.4809415E-02  0.9118800E+02  0.7818609E-02  0.1379984E+01
      -11   -1    0    0    0    0  0.00000000000E+00  0.00000000000E+00  0.35740347158E-01  0.35744000000E-01  0.51099999109E-03 0. -1.
       11   -1    0    0    0    0 -0.00000000000E+00 -0.00000000000E+00 -0.35740347158E-01  0.35744000000E-01  0.51099999109E-03 0.  1.
       22    1    1    2    0    0 -0.56310898819E-02  0.50367825544E-02 -0.34929289044E-01  0.35737005818E-01  0.00000000000E+00 0.  1.
  9000001    1    1    2    0    0  0.56310898819E-02 -0.50367825544E-02  0.34929289044E-01  0.35750994182E-01  0.10000000475E-02 0. -1.
</event>
<event>
 4   0  0.4809415E-02  0.9118800E+02  0.7818609E-02  0.1379984E+01
      -11   -1    0    0    0    0  0.00000000000E+00  0.00000000000E+00  0.35740347158E-01  0.35744000000E-01  0.51099999109E-03 0. -1.
       11   -1    0    0    0    0 -0.00000000000E+00 -0.00000000000E+00 -0.35740347158E-01  0.35744000000E-01  0.51099999109E-03 0.  1.
       22    1    1    2    0    0 -0.18085817764E-02 -0.50564330941E-02 -0.35331219922E-01  0.35737005818E-01  0.00000000000E+00 0.  1.
  9000001    1    1    2    0    0  0.18085817764E-02  0.50564330941E-02  0.35331219922E-01  0.35750994182E-01  0.10000000475E-02 0. -1.
</event>
<event>
 4   0  0.4809415E-02  0.9118800E+02  0.7818609E-02  0.1379984E+01
      -11   -1    0    0    0    0  0.00000000000E+00  0.00000000000E+00  0.35740347158E-01  0.35744000000E-01  0.51099999109E-03 0. -1.
       11   -1    0    0    0    0 -0.00000000000E+00 -0.00000000000E+00 -0.35740347158E-01  0.35744000000E-01  0.51099999109E-03 0.  1.
       22    1    1    2    0    0 -0.32566221380E-02 -0.42625495576E-02  0.35332119500E-01  0.35737005818E-01  0.00000000000E+00 0. -1.
  9000001    1    1    2    0    0  0.32566221380E-02  0.42625495576E-02 -0.35332119500E-01  0.35750994182E-01  0.10000000475E-02 0.  1.
</event>
<event>
 4   0  0.4809415E-02  0.9118800E+02  0.7818609E-02  0.1379984E+01
      -11   -1    0    0    0    0  0.00000000000E+00  0.00000000000E+00  0.35740347158E-01  0.35744000000E-01  0.51099999109E-03 0. -1.
       11   -1    0    0    0    0 -0.00000000000E+00 -0.00000000000E+00 -0.35740347158E-01  0.35744000000E-01  0.51099999109E-03 0.  1.
       22    1    1    2    0    0 -0.11432654068E-02  0.49041611380E-02  0.35380442798E-01  0.35737005818E-01  0.00000000000E+00 0. -1.
  9000001    1    1    2    0    0  0.11432654068E-02 -0.49041611380E-02 -0.35380442798E-01  0.35750994182E-01  0.10000000475E-02 0.  1.
</event>
<event>
 4   0  0.4809415E-02  0.9118800E+02  0.7818609E-02  0.1379984E+01
      -11   -1    0    0    0    0  0.00000000000E+00  0.00000000000E+00  0.35740347158E-01  0.35744000000E-01  0.51099999109E-03 0. -1.
       11   -1    0    0    0    0 -0.00000000000E+00 -0.00000000000E+00 -0.35740347158E-01  0.35744000000E-01  0.51099999109E-03 0.  1.
       22    1    1    2    0    0  0.93312203998E-02 -0.70504963886E-02 -0.33769104391E-01  0.35737005818E-01  0.00000000000E+00 0.  1.
  9000001    1    1    2    0    0 -0.93312203998E-02  0.70504963886E-02  0.33769104391E-01  0.35750994182E-01  0.10000000475E-02 0. -1.
</event>
<event>
 4   0  0.4809415E-02  0.9118800E+02  0.7818609E-02  0.1379984E+01
      -11   -1    0    0    0    0  0.00000000000E+00  0.00000000000E+00  0.35740347158E-01  0.35744000000E-01  0.51099999109E-03 0.  1.
       11   -1    0    0    0    0 -0.00000000000E+00 -0.00000000000E+00 -0.35740347158E-01  0.35744000000E-01  0.51099999109E-03 0. -1.
       22    1    1    2    0    0 -0.15729894901E-01 -0.85366313771E-02 -0.30932667457E-01  0.35737005818E-01  0.00000000000E+00 0. -1.
  9000001    1    1    2    0    0  0.15729894901E-01  0.85366313771E-02  0.30932667457E-01  0.35750994182E-01  0.10000000475E-02 0.  1.
</event>
<event>
 4   0  0.4809415E-02  0.9118800E+02  0.7818609E-02  0.1379984E+01
      -11   -1    0    0    0    0  0.00000000000E+00  0.00000000000E+00  0.35740347158E-01  0.35744000000E-01  0.51099999109E-03 0.  1.
       11   -1    0    0    0    0 -0.00000000000E+00 -0.00000000000E+00 -0.35740347158E-01  0.35744000000E-01  0.51099999109E-03 0. -1.
       22    1    1    2    0    0 -0.79095416244E-03  0.36843951757E-02  0.35537771576E-01  0.35737005818E-01  0.00000000000E+00 0.  1.
  9000001    1    1    2    0    0  0.79095416244E-03 -0.36843951757E-02 -0.35537771576E-01  0.35750994182E-01  0.10000000475E-02 0. -1.
</event>
<event>
 4   0  0.4809415E-02  0.9118800E+02  0.7818609E-02  0.1379984E+01
      -11   -1    0    0    0    0  0.00000000000E+00  0.00000000000E+00  0.35740347158E-01  0.35744000000E-01  0.51099999109E-03 0. -1.
       11   -1    0    0    0    0 -0.00000000000E+00 -0.00000000000E+00 -0.35740347158E-01  0.35744000000E-01  0.51099999109E-03 0.  1.
       22    1    1    2    0    0  0.16202107123E-02  0.19504788491E-01  0.29901032224E-01  0.35737005818E-01  0.00000000000E+00 0. -1.
  9000001    1    1    2    0    0 -0.16202107123E-02 -0.19504788491E-01 -0.29901032224E-01  0.35750994182E-01  0.10000000475E-02 0.  1.
</event>
<event>
 4   0  0.4809415E-02  0.9118800E+02  0.7818609E-02  0.1379984E+01
      -11   -1    0    0    0    0  0.00000000000E+00  0.00000000000E+00  0.35740347158E-01  0.35744000000E-01  0.51099999109E-03 0. -1.
       11   -1    0    0    0    0 -0.00000000000E+00 -0.00000000000E+00 -0.35740347158E-01  0.35744000000E-01  0.51099999109E-03 0.  1.
       22    1    1    2    0    0  0.38139110611E-03  0.10064962680E-01  0.34288258223E-01  0.35737005818E-01  0.00000000000E+00 0. -1.
  9000001    1    1    2    0    0 -0.38139110611E-03 -0.10064962680E-01 -0.34288258223E-01  0.35750994182E-01  0.10000000475E-02 0.  1.
</event>
<event>
 4   0  0.4809415E-02  0.9118800E+02  0.7818609E-02  0.1379984E+01
      -11   -1    0    0    0    0  0.00000000000E+00  0.00000000000E+00  0.35740347158E-01  0.35744000000E-01  0.51099999109E-03 0.  1.
       11   -1    0    0    0    0 -0.00000000000E+00 -0.00000000000E+00 -0.35740347158E-01  0.35744000000E-01  0.51099999109E-03 0. -1.
       22    1    1    2    0    0  0.15619228690E-01  0.64335065936E-02  0.31492590762E-01  0.35737005818E-01  0.00000000000E+00 0.  1.
  9000001    1    1    2    0    0 -0.15619228690E-01 -0.64335065936E-02 -0.31492590762E-01  0.35750994182E-01  0.10000000475E-02 0. -1.
</event>
<event>
 4   0  0.4809415E-02  0.9118800E+02  0.7818609E-02  0.1379984E+01
      -11   -1    0    0    0    0  0.00000000000E+00  0.00000000000E+00  0.35740347158E-01  0.35744000000E-01  0.51099999109E-03 0. -1.
       11   -1    0    0    0    0 -0.00000000000E+00 -0.00000000000E+00 -0.35740347158E-01  0.35744000000E-01  0.51099999109E-03 0.  1.
       22    1    1    2    0    0 -0.79804334262E-02 -0.78377403142E-02 -0.33941362583E-01  0.35737005818E-01  0.00000000000E+00 0.  1.
  9000001    1    1    2    0    0  0.79804334262E-02  0.78377403142E-02  0.33941362583E-01  0.35750994182E-01  0.10000000475E-02 0. -1.
</event>
<event>
 4   0  0.4809415E-02  0.9118800E+02  0.7818609E-02  0.1379984E+01
      -11   -1    0    0    0    0  0.00000000000E+00  0.00000000000E+00  0.35740347158E-01  0.35744000000E-01  0.51099999109E-03 0.  1.
       11   -1    0    0    0    0 -0.00000000000E+00 -0.00000000000E+00 -0.35740347158E-01  0.35744000000E-01  0.51099999109E-03 0. -1.
       22    1    1    2    0    0 -0.15397129893E-02  0.26420678364E-02  0.35605931336E-01  0.35737005818E-01  0.00000000000E+00 0.  1.
  9000001    1    1    2    0    0  0.15397129893E-02 -0.26420678364E-02 -0.35605931336E-01  0.35750994182E-01  0.10000000475E-02 0. -1.
</event>
<event>
 4   0  0.4809415E-02  0.9118800E+02  0.7818609E-02  0.1379984E+01
      -11   -1    0    0    0    0  0.00000000000E+00  0.00000000000E+00  0.35740347158E-01  0.35744000000E-01  0.51099999109E-03 0. -1.
       11   -1    0    0    0    0 -0.00000000000E+00 -0.00000000000E+00 -0.35740347158E-01  0.35744000000E-01  0.51099999109E-03 0.  1.
       22    1    1    2    0    0  0.12991738757E-01  0.31419157616E-01 -0.11008398777E-01  0.35737005818E-01  0.00000000000E+00 0. -1.
  9000001    1    1    2    0    0 -0.12991738757E-01 -0.31419157616E-01  0.11008398777E-01  0.35750994182E-01  0.10000000475E-02 0.  1.
</event>
<event>
 4   0  0.4809415E-02  0.9118800E+02  0.7818609E-02  0.1379984E+01
      -11   -1    0    0    0    0  0.00000000000E+00  0.00000000000E+00  0.35740347158E-01  0.35744000000E-01  0.51099999109E-03 0.  1.
       11   -1    0    0    0    0 -0.00000000000E+00 -0.00000000000E+00 -0.35740347158E-01  0.35744000000E-01  0.51099999109E-03 0. -1.
       22    1    1    2    0    0  0.44248064920E-02 -0.31607466939E-02  0.35320877009E-01  0.35737005818E-01  0.00000000000E+00 0.  1.
  9000001    1    1    2    0    0 -0.44248064920E-02  0.31607466939E-02 -0.35320877009E-01  0.35750994182E-01  0.10000000475E-02 0. -1.
</event>
<event>
 4   0  0.4809415E-02  0.9118800E+02  0.7818609E-02  0.1379984E+01
      -11   -1    0    0    0    0  0.00000000000E+00  0.00000000000E+00  0.35740347158E-01  0.35744000000E-01  0.51099999109E-03 0. -1.
       11   -1    0    0    0    0 -0.00000000000E+00 -0.00000000000E+00 -0.35740347158E-01  0.35744000000E-01  0.51099999109E-03 0.  1.
       22    1    1    2    0    0  0.21667037718E-01 -0.97825273450E-02 -0.26682863792E-01  0.35737005818E-01  0.00000000000E+00 0.  1.
  9000001    1    1    2    0    0 -0.21667037718E-01  0.97825273450E-02  0.26682863792E-01  0.35750994182E-01  0.10000000475E-02 0. -1.
</event>
<event>
 4   0  0.4809415E-02  0.9118800E+02  0.7818609E-02  0.1379984E+01
      -11   -1    0    0    0    0  0.00000000000E+00  0.00000000000E+00  0.35740347158E-01  0.35744000000E-01  0.51099999109E-03 0. -1.
       11   -1    0    0    0    0 -0.00000000000E+00 -0.00000000000E+00 -0.35740347158E-01  0.35744000000E-01  0.51099999109E-03 0.  1.
       22    1    1    2    0    0 -0.17359553911E-01  0.71364684077E-02  0.30411351360E-01  0.35737005818E-01  0.00000000000E+00 0. -1.
  9000001    1    1    2    0    0  0.17359553911E-01 -0.71364684077E-02 -0.30411351360E-01  0.35750994182E-01  0.10000000475E-02 0.  1.
</event>
<event>
 4   0  0.4809415E-02  0.9118800E+02  0.7818609E-02  0.1379984E+01
      -11   -1    0    0    0    0  0.00000000000E+00  0.00000000000E+00  0.35740347158E-01  0.35744000000E-01  0.51099999109E-03 0.  1.
       11   -1    0    0    0    0 -0.00000000000E+00 -0.00000000000E+00 -0.35740347158E-01  0.35744000000E-01  0.51099999109E-03 0. -1.
       22    1    1    2    0    0  0.27441749595E-02  0.28248732121E-02 -0.35519335298E-01  0.35737005818E-01  0.00000000000E+00 0. -1.
  9000001    1    1    2    0    0 -0.27441749595E-02 -0.28248732121E-02  0.35519335298E-01  0.35750994182E-01  0.10000000475E-02 0.  1.
</event>
<event>
 4   0  0.4809415E-02  0.9118800E+02  0.7818609E-02  0.1379984E+01
      -11   -1    0    0    0    0  0.00000000000E+00  0.00000000000E+00  0.35740347158E-01  0.35744000000E-01  0.51099999109E-03 0. -1.
       11   -1    0    0    0    0 -0.00000000000E+00 -0.00000000000E+00 -0.35740347158E-01  0.35744000000E-01  0.51099999109E-03 0.  1.
       22    1    1    2    0    0  0.36724371766E-02 -0.50023479814E-02  0.35194080535E-01  0.35737005818E-01  0.00000000000E+00 0. -1.
  9000001    1    1    2    0    0 -0.36724371766E-02  0.50023479814E-02 -0.35194080535E-01  0.35750994182E-01  0.10000000475E-02 0.  1.
</event>
<event>
 4   0  0.4809415E-02  0.9118800E+02  0.7818609E-02  0.1379984E+01
      -11   -1    0    0    0    0  0.00000000000E+00  0.00000000000E+00  0.35740347158E-01  0.35744000000E-01  0.51099999109E-03 0. -1.
       11   -1    0    0    0    0 -0.00000000000E+00 -0.00000000000E+00 -0.35740347158E-01  0.35744000000E-01  0.51099999109E-03 0.  1.
       22    1    1    2    0    0  0.49706148543E-02  0.19498576717E-01  0.29533575450E-01  0.35737005818E-01  0.00000000000E+00 0. -1.
  9000001    1    1    2    0    0 -0.49706148543E-02 -0.19498576717E-01 -0.29533575450E-01  0.35750994182E-01  0.10000000475E-02 0.  1.
</event>
<event>
 4   0  0.4809415E-02  0.9118800E+02  0.7818609E-02  0.1379984E+01
      -11   -1    0    0    0    0  0.00000000000E+00  0.00000000000E+00  0.35740347158E-01  0.35744000000E-01  0.51099999109E-03 0. -1.
       11   -1    0    0    0    0 -0.00000000000E+00 -0.00000000000E+00 -0.35740347158E-01  0.35744000000E-01  0.51099999109E-03 0.  1.
       22    1    1    2    0    0  0.15503675148E-01  0.11344070392E-01  0.30134394115E-01  0.35737005818E-01  0.00000000000E+00 0. -1.
  9000001    1    1    2    0    0 -0.15503675148E-01 -0.11344070392E-01 -0.30134394115E-01  0.35750994182E-01  0.10000000475E-02 0.  1.
</event>
<event>
 4   0  0.4809415E-02  0.9118800E+02  0.7818609E-02  0.1379984E+01
      -11   -1    0    0    0    0  0.00000000000E+00  0.00000000000E+00  0.35740347158E-01  0.35744000000E-01  0.51099999109E-03 0. -1.
       11   -1    0    0    0    0 -0.00000000000E+00 -0.00000000000E+00 -0.35740347158E-01  0.35744000000E-01  0.51099999109E-03 0.  1.
       22    1    1    2    0    0  0.16214151530E-01  0.15656323672E-01 -0.27732911930E-01  0.35737005818E-01  0.00000000000E+00 0.  1.
  9000001    1    1    2    0    0 -0.16214151530E-01 -0.15656323672E-01  0.27732911930E-01  0.35750994182E-01  0.10000000475E-02 0. -1.
</event>
<event>
 4   0  0.4809415E-02  0.9118800E+02  0.7818609E-02  0.1379984E+01
      -11   -1    0    0    0    0  0.00000000000E+00  0.00000000000E+00  0.35740347158E-01  0.35744000000E-01  0.51099999109E-03 0.  1.
       11   -1    0    0    0    0 -0.00000000000E+00 -0.00000000000E+00 -0.35740347158E-01  0.35744000000E-01  0.51099999109E-03 0. -1.
       22    1    1    2    0    0  0.63825879614E-02  0.99152156161E-02 -0.33735510298E-01  0.35737005818E-01  0.00000000000E+00 0. -1.
  9000001    1    1    2    0    0 -0.63825879614E-02 -0.99152156161E-02  0.33735510298E-01  0.35750994182E-01  0.10000000475E-02 0.  1.
</event>
<event>
 4   0  0.4809415E-02  0.9118800E+02  0.7818609E-02  0.1379984E+01
      -11   -1    0    0    0    0  0.00000000000E+00  0.00000000000E+00  0.35740347158E-01  0.35744000000E-01  0.51099999109E-03 0. -1.
       11   -1    0    0    0    0 -0.00000000000E+00 -0.00000000000E+00 -0.35740347158E-01  0.35744000000E-01  0.51099999109E-03 0.  1.
       22    1    1    2    0    0 -0.19950463713E-01  0.12037846174E-01 -0.27096177627E-01  0.35737005818E-01  0.00000000000E+00 0.  1.
  9000001    1    1    2    0    0  0.19950463713E-01 -0.12037846174E-01  0.27096177627E-01  0.35750994182E-01  0.10000000475E-02 0. -1.
</event>
<event>
 4   0  0.4809415E-02  0.9118800E+02  0.7818609E-02  0.1379984E+01
      -11   -1    0    0    0    0  0.00000000000E+00  0.00000000000E+00  0.35740347158E-01  0.35744000000E-01  0.51099999109E-03 0.  1.
       11   -1    0    0    0    0 -0.00000000000E+00 -0.00000000000E+00 -0.35740347158E-01  0.35744000000E-01  0.51099999109E-03 0. -1.
       22    1    1    2    0    0 -0.28386921647E-02 -0.11915294229E-01 -0.33572327520E-01  0.35737005818E-01  0.00000000000E+00 0. -1.
  9000001    1    1    2    0    0  0.28386921647E-02  0.11915294229E-01  0.33572327520E-01  0.35750994182E-01  0.10000000475E-02 0.  1.
</event>
<event>
 4   0  0.4809415E-02  0.9118800E+02  0.7818609E-02  0.1379984E+01
      -11   -1    0    0    0    0  0.00000000000E+00  0.00000000000E+00  0.35740347158E-01  0.35744000000E-01  0.51099999109E-03 0.  1.
       11   -1    0    0    0    0 -0.00000000000E+00 -0.00000000000E+00 -0.35740347158E-01  0.35744000000E-01  0.51099999109E-03 0. -1.
       22    1    1    2    0    0 -0.22561313786E-01  0.17555416938E-01  0.21445932977E-01  0.35737005818E-01  0.00000000000E+00 0.  1.
  9000001    1    1    2    0    0  0.22561313786E-01 -0.17555416938E-01 -0.21445932977E-01  0.35750994182E-01  0.10000000475E-02 0. -1.
</event>
<event>
 4   0  0.4809415E-02  0.9118800E+02  0.7818609E-02  0.1379984E+01
      -11   -1    0    0    0    0  0.00000000000E+00  0.00000000000E+00  0.35740347158E-01  0.35744000000E-01  0.51099999109E-03 0.  1.
       11   -1    0    0    0    0 -0.00000000000E+00 -0.00000000000E+00 -0.35740347158E-01  0.35744000000E-01  0.51099999109E-03 0. -1.
       22    1    1    2    0    0  0.19771979538E-01  0.13402020492E-01  0.26581727874E-01  0.35737005818E-01  0.00000000000E+00 0.  1.
  9000001    1    1    2    0    0 -0.19771979538E-01 -0.13402020492E-01 -0.26581727874E-01  0.35750994182E-01  0.10000000475E-02 0. -1.
</event>
<event>
 4   0  0.4809415E-02  0.9118800E+02  0.7818609E-02  0.1379984E+01
      -11   -1    0    0    0    0  0.00000000000E+00  0.00000000000E+00  0.35740347158E-01  0.35744000000E-01  0.51099999109E-03 0. -1.
       11   -1    0    0    0    0 -0.00000000000E+00 -0.00000000000E+00 -0.35740347158E-01  0.35744000000E-01  0.51099999109E-03 0.  1.
       22    1    1    2    0    0  0.68006532609E-02  0.11068090689E-01 -0.33292372529E-01  0.35737005818E-01  0.00000000000E+00 0.  1.
  9000001    1    1    2    0    0 -0.68006532609E-02 -0.11068090689E-01  0.33292372529E-01  0.35750994182E-01  0.10000000475E-02 0. -1.
</event>
<event>
 4   0  0.4809415E-02  0.9118800E+02  0.7818609E-02  0.1379984E+01
      -11   -1    0    0    0    0  0.00000000000E+00  0.00000000000E+00  0.35740347158E-01  0.35744000000E-01  0.51099999109E-03 0. -1.
       11   -1    0    0    0    0 -0.00000000000E+00 -0.00000000000E+00 -0.35740347158E-01  0.35744000000E-01  0.51099999109E-03 0.  1.
       22    1    1    2    0    0 -0.27269245046E-01  0.22385905602E-01  0.56914927654E-02  0.35737005818E-01  0.00000000000E+00 0. -1.
  9000001    1    1    2    0    0  0.27269245046E-01 -0.22385905602E-01 -0.56914927654E-02  0.35750994182E-01  0.10000000475E-02 0.  1.
</event>
<event>
 4   0  0.4809415E-02  0.9118800E+02  0.7818609E-02  0.1379984E+01
      -11   -1    0    0    0    0  0.00000000000E+00  0.00000000000E+00  0.35740347158E-01  0.35744000000E-01  0.51099999109E-03 0.  1.
       11   -1    0    0    0    0 -0.00000000000E+00 -0.00000000000E+00 -0.35740347158E-01  0.35744000000E-01  0.51099999109E-03 0. -1.
       22    1    1    2    0    0  0.29336525827E-01  0.97822725419E-02 -0.17911141259E-01  0.35737005818E-01  0.00000000000E+00 0. -1.
  9000001    1    1    2    0    0 -0.29336525827E-01 -0.97822725419E-02  0.17911141259E-01  0.35750994182E-01  0.10000000475E-02 0.  1.
</event>
<event>
 4   0  0.4809415E-02  0.9118800E+02  0.7818609E-02  0.1379984E+01
      -11   -1    0    0    0    0  0.00000000000E+00  0.00000000000E+00  0.35740347158E-01  0.35744000000E-01  0.51099999109E-03 0.  1.
       11   -1    0    0    0    0 -0.00000000000E+00 -0.00000000000E+00 -0.35740347158E-01  0.35744000000E-01  0.51099999109E-03 0. -1.
       22    1    1    2    0    0  0.16489832813E-01 -0.16699680431E-01  0.26950689642E-01  0.35737005818E-01  0.00000000000E+00 0.  1.
  9000001    1    1    2    0    0 -0.16489832813E-01  0.16699680431E-01 -0.26950689642E-01  0.35750994182E-01  0.10000000475E-02 0. -1.
</event>
<event>
 4   0  0.4809415E-02  0.9118800E+02  0.7818609E-02  0.1379984E+01
      -11   -1    0    0    0    0  0.00000000000E+00  0.00000000000E+00  0.35740347158E-01  0.35744000000E-01  0.51099999109E-03 0.  1.
       11   -1    0    0    0    0 -0.00000000000E+00 -0.00000000000E+00 -0.35740347158E-01  0.35744000000E-01  0.51099999109E-03 0. -1.
       22    1    1    2    0    0 -0.64841810367E-03 -0.63613132777E-02  0.35160301936E-01  0.35737005818E-01  0.00000000000E+00 0.  1.
  9000001    1    1    2    0    0  0.64841810367E-03  0.63613132777E-02 -0.35160301936E-01  0.35750994182E-01  0.10000000475E-02 0. -1.
</event>
<event>
 4   0  0.4809415E-02  0.9118800E+02  0.7818609E-02  0.1379984E+01
      -11   -1    0    0    0    0  0.00000000000E+00  0.00000000000E+00  0.35740347158E-01  0.35744000000E-01  0.51099999109E-03 0.  1.
       11   -1    0    0    0    0 -0.00000000000E+00 -0.00000000000E+00 -0.35740347158E-01  0.35744000000E-01  0.51099999109E-03 0. -1.
       22    1    1    2    0    0  0.81692418817E-03 -0.44751637339E-02  0.35446285127E-01  0.35737005818E-01  0.00000000000E+00 0.  1.
  9000001    1    1    2    0    0 -0.81692418817E-03  0.44751637339E-02 -0.35446285127E-01  0.35750994182E-01  0.10000000475E-02 0. -1.
</event>
<event>
 4   0  0.4809415E-02  0.9118800E+02  0.7818609E-02  0.1379984E+01
      -11   -1    0    0    0    0  0.00000000000E+00  0.00000000000E+00  0.35740347158E-01  0.35744000000E-01  0.51099999109E-03 0. -1.
       11   -1    0    0    0    0 -0.00000000000E+00 -0.00000000000E+00 -0.35740347158E-01  0.35744000000E-01  0.51099999109E-03 0.  1.
       22    1    1    2    0    0  0.22576492018E-02 -0.34695866323E-02 -0.35496458606E-01  0.35737005818E-01  0.00000000000E+00 0.  1.
  9000001    1    1    2    0    0 -0.22576492018E-02  0.34695866323E-02  0.35496458606E-01  0.35750994182E-01  0.10000000475E-02 0. -1.
</event>
<event>
 4   0  0.4809415E-02  0.9118800E+02  0.7818609E-02  0.1379984E+01
      -11   -1    0    0    0    0  0.00000000000E+00  0.00000000000E+00  0.35740347158E-01  0.35744000000E-01  0.51099999109E-03 0. -1.
       11   -1    0    0    0    0 -0.00000000000E+00 -0.00000000000E+00 -0.35740347158E-01  0.35744000000E-01  0.51099999109E-03 0.  1.
       22    1    1    2    0    0  0.52086912392E-02  0.52394842589E-02  0.34964995712E-01  0.35737005818E-01  0.00000000000E+00 0. -1.
  9000001    1    1    2    0    0 -0.52086912392E-02 -0.52394842589E-02 -0.34964995712E-01  0.35750994182E-01  0.10000000475E-02 0.  1.
</event>
<event>
 4   0  0.4809415E-02  0.9118800E+02  0.7818609E-02  0.1379984E+01
      -11   -1    0    0    0    0  0.00000000000E+00  0.00000000000E+00  0.35740347158E-01  0.35744000000E-01  0.51099999109E-03 0.  1.
       11   -1    0    0    0    0 -0.00000000000E+00 -0.00000000000E+00 -0.35740347158E-01  0.35744000000E-01  0.51099999109E-03 0. -1.
       22    1    1    2    0    0 -0.19515684826E-01 -0.15605913691E-01 -0.25548524195E-01  0.35737005818E-01  0.00000000000E+00 0. -1.
  9000001    1    1    2    0    0  0.19515684826E-01  0.15605913691E-01  0.25548524195E-01  0.35750994182E-01  0.10000000475E-02 0.  1.
</event>
<event>
 4   0  0.4809415E-02  0.9118800E+02  0.7818609E-02  0.1379984E+01
      -11   -1    0    0    0    0  0.00000000000E+00  0.00000000000E+00  0.35740347158E-01  0.35744000000E-01  0.51099999109E-03 0.  1.
       11   -1    0    0    0    0 -0.00000000000E+00 -0.00000000000E+00 -0.35740347158E-01  0.35744000000E-01  0.51099999109E-03 0. -1.
       22    1    1    2    0    0  0.24769490519E-02 -0.50271653197E-02  0.35294842642E-01  0.35737005818E-01  0.00000000000E+00 0.  1.
  9000001    1    1    2    0    0 -0.24769490519E-02  0.50271653197E-02 -0.35294842642E-01  0.35750994182E-01  0.10000000475E-02 0. -1.
</event>
<event>
 4   0  0.4809415E-02  0.9118800E+02  0.7818609E-02  0.1379984E+01
      -11   -1    0    0    0    0  0.00000000000E+00  0.00000000000E+00  0.35740347158E-01  0.35744000000E-01  0.51099999109E-03 0. -1.
       11   -1    0    0    0    0 -0.00000000000E+00 -0.00000000000E+00 -0.35740347158E-01  0.35744000000E-01  0.51099999109E-03 0.  1.
       22    1    1    2    0    0 -0.14123856474E-01  0.11416864963E-01  0.30778327726E-01  0.35737005818E-01  0.00000000000E+00 0. -1.
  9000001    1    1    2    0    0  0.14123856474E-01 -0.11416864963E-01 -0.30778327726E-01  0.35750994182E-01  0.10000000475E-02 0.  1.
</event>
<event>
 4   0  0.4809415E-02  0.9118800E+02  0.7818609E-02  0.1379984E+01
      -11   -1    0    0    0    0  0.00000000000E+00  0.00000000000E+00  0.35740347158E-01  0.35744000000E-01  0.51099999109E-03 0. -1.
       11   -1    0    0    0    0 -0.00000000000E+00 -0.00000000000E+00 -0.35740347158E-01  0.35744000000E-01  0.51099999109E-03 0.  1.
       22    1    1    2    0    0 -0.17678833392E-01 -0.24865159925E-02 -0.30958192340E-01  0.35737005818E-01  0.00000000000E+00 0.  1.
  9000001    1    1    2    0    0  0.17678833392E-01  0.24865159925E-02  0.30958192340E-01  0.35750994182E-01  0.10000000475E-02 0. -1.
</event>
<event>
 4   0  0.4809415E-02  0.9118800E+02  0.7818609E-02  0.1379984E+01
      -11   -1    0    0    0    0  0.00000000000E+00  0.00000000000E+00  0.35740347158E-01  0.35744000000E-01  0.51099999109E-03 0.  1.
       11   -1    0    0    0    0 -0.00000000000E+00 -0.00000000000E+00 -0.35740347158E-01  0.35744000000E-01  0.51099999109E-03 0. -1.
       22    1    1    2    0    0 -0.38911624336E-02  0.33182258169E-02 -0.35369221326E-01  0.35737005818E-01  0.00000000000E+00 0. -1.
  9000001    1    1    2    0    0  0.38911624336E-02 -0.33182258169E-02  0.35369221326E-01  0.35750994182E-01  0.10000000475E-02 0.  1.
</event>
<event>
 4   0  0.4809415E-02  0.9118800E+02  0.7818609E-02  0.1379984E+01
      -11   -1    0    0    0    0  0.00000000000E+00  0.00000000000E+00  0.35740347158E-01  0.35744000000E-01  0.51099999109E-03 0. -1.
       11   -1    0    0    0    0 -0.00000000000E+00 -0.00000000000E+00 -0.35740347158E-01  0.35744000000E-01  0.51099999109E-03 0.  1.
       22    1    1    2    0    0  0.68379177081E-02 -0.20263238127E-01  0.28631759410E-01  0.35737005818E-01  0.00000000000E+00 0. -1.
  9000001    1    1    2    0    0 -0.68379177081E-02  0.20263238127E-01 -0.28631759410E-01  0.35750994182E-01  0.10000000475E-02 0.  1.
</event>
<event>
 4   0  0.4809415E-02  0.9118800E+02  0.7818609E-02  0.1379984E+01
      -11   -1    0    0    0    0  0.00000000000E+00  0.00000000000E+00  0.35740347158E-01  0.35744000000E-01  0.51099999109E-03 0. -1.
       11   -1    0    0    0    0 -0.00000000000E+00 -0.00000000000E+00 -0.35740347158E-01  0.35744000000E-01  0.51099999109E-03 0.  1.
       22    1    1    2    0    0 -0.27700237701E-01 -0.22427890529E-01 -0.26115402666E-02  0.35737005818E-01  0.00000000000E+00 0.  1.
  9000001    1    1    2    0    0  0.27700237701E-01  0.22427890529E-01  0.26115402666E-02  0.35750994182E-01  0.10000000475E-02 0. -1.
</event>
<event>
 4   0  0.4809415E-02  0.9118800E+02  0.7818609E-02  0.1379984E+01
      -11   -1    0    0    0    0  0.00000000000E+00  0.00000000000E+00  0.35740347158E-01  0.35744000000E-01  0.51099999109E-03 0. -1.
       11   -1    0    0    0    0 -0.00000000000E+00 -0.00000000000E+00 -0.35740347158E-01  0.35744000000E-01  0.51099999109E-03 0.  1.
       22    1    1    2    0    0  0.11435624920E-01  0.10073285198E-01  0.32324742735E-01  0.35737005818E-01  0.00000000000E+00 0. -1.
  9000001    1    1    2    0    0 -0.11435624920E-01 -0.10073285198E-01 -0.32324742735E-01  0.35750994182E-01  0.10000000475E-02 0.  1.
</event>
<event>
 4   0  0.4809415E-02  0.9118800E+02  0.7818609E-02  0.1379984E+01
      -11   -1    0    0    0    0  0.00000000000E+00  0.00000000000E+00  0.35740347158E-01  0.35744000000E-01  0.51099999109E-03 0. -1.
       11   -1    0    0    0    0 -0.00000000000E+00 -0.00000000000E+00 -0.35740347158E-01  0.35744000000E-01  0.51099999109E-03 0.  1.
       22    1    1    2    0    0 -0.18267981475E-02 -0.25753226608E-02  0.35597248582E-01  0.35737005818E-01  0.00000000000E+00 0. -1.
  9000001    1    1    2    0    0  0.18267981475E-02  0.25753226608E-02 -0.35597248582E-01  0.35750994182E-01  0.10000000475E-02 0.  1.
</event>
<event>
 4   0  0.4809415E-02  0.9118800E+02  0.7818609E-02  0.1379984E+01
      -11   -1    0    0    0    0  0.00000000000E+00  0.00000000000E+00  0.35740347158E-01  0.35744000000E-01  0.51099999109E-03 0.  1.
       11   -1    0    0    0    0 -0.00000000000E+00 -0.00000000000E+00 -0.35740347158E-01  0.35744000000E-01  0.51099999109E-03 0. -1.
       22    1    1    2    0    0 -0.10907135717E-01 -0.76641920360E-02  0.33157625605E-01  0.35737005818E-01  0.00000000000E+00 0.  1.
  9000001    1    1    2    0    0  0.10907135717E-01  0.76641920360E-02 -0.33157625605E-01  0.35750994182E-01  0.10000000475E-02 0. -1.
</event>
<event>
 4   0  0.4809415E-02  0.9118800E+02  0.7818609E-02  0.1379984E+01
      -11   -1    0    0    0    0  0.00000000000E+00  0.00000000000E+00  0.35740347158E-01  0.35744000000E-01  0.51099999109E-03 0.  1.
       11   -1    0    0    0    0 -0.00000000000E+00 -0.00000000000E+00 -0.35740347158E-01  0.35744000000E-01  0.51099999109E-03 0. -1.
       22    1    1    2    0    0 -0.12983625542E-02  0.43289830964E-02  0.35450073976E-01  0.35737005818E-01  0.00000000000E+00 0.  1.
  9000001    1    1    2    0    0  0.12983625542E-02 -0.43289830964E-02 -0.35450073976E-01  0.35750994182E-01  0.10000000475E-02 0. -1.
</event>
<event>
 4   0  0.4809415E-02  0.9118800E+02  0.7818609E-02  0.1379984E+01
      -11   -1    0    0    0    0  0.00000000000E+00  0.00000000000E+00  0.35740347158E-01  0.35744000000E-01  0.51099999109E-03 0. -1.
       11   -1    0    0    0    0 -0.00000000000E+00 -0.00000000000E+00 -0.35740347158E-01  0.35744000000E-01  0.51099999109E-03 0.  1.
       22    1    1    2    0    0  0.12850065898E-01  0.25639547531E-02 -0.33248090581E-01  0.35737005818E-01  0.00000000000E+00 0.  1.
  9000001    1    1    2    0    0 -0.12850065898E-01 -0.25639547531E-02  0.33248090581E-01  0.35750994182E-01  0.10000000475E-02 0. -1.
</event>
<event>
 4   0  0.4809415E-02  0.9118800E+02  0.7818609E-02  0.1379984E+01
      -11   -1    0    0    0    0  0.00000000000E+00  0.00000000000E+00  0.35740347158E-01  0.35744000000E-01  0.51099999109E-03 0. -1.
       11   -1    0    0    0    0 -0.00000000000E+00 -0.00000000000E+00 -0.35740347158E-01  0.35744000000E-01  0.51099999109E-03 0.  1.
       22    1    1    2    0    0  0.49714718812E-02  0.14574917699E-01 -0.32248873256E-01  0.35737005818E-01  0.00000000000E+00 0.  1.
  9000001    1    1    2    0    0 -0.49714718812E-02 -0.14574917699E-01  0.32248873256E-01  0.35750994182E-01  0.10000000475E-02 0. -1.
</event>
<event>
 4   0  0.4809415E-02  0.9118800E+02  0.7818609E-02  0.1379984E+01
      -11   -1    0    0    0    0  0.00000000000E+00  0.00000000000E+00  0.35740347158E-01  0.35744000000E-01  0.51099999109E-03 0. -1.
       11   -1    0    0    0    0 -0.00000000000E+00 -0.00000000000E+00 -0.35740347158E-01  0.35744000000E-01  0.51099999109E-03 0.  1.
       22    1    1    2    0    0  0.11772548868E-01  0.11908578338E-01  0.31570974644E-01  0.35737005818E-01  0.00000000000E+00 0. -1.
  9000001    1    1    2    0    0 -0.11772548868E-01 -0.11908578338E-01 -0.31570974644E-01  0.35750994182E-01  0.10000000475E-02 0.  1.
</event>
<event>
 4   0  0.4809415E-02  0.9118800E+02  0.7818609E-02  0.1379984E+01
      -11   -1    0    0    0    0  0.00000000000E+00  0.00000000000E+00  0.35740347158E-01  0.35744000000E-01  0.51099999109E-03 0. -1.
       11   -1    0    0    0    0 -0.00000000000E+00 -0.00000000000E+00 -0.35740347158E-01  0.35744000000E-01  0.51099999109E-03 0.  1.
       22    1    1    2    0    0 -0.32381083032E-02  0.91206146228E-02 -0.34401491659E-01  0.35737005818E-01  0.00000000000E+00 0.  1.
  9000001    1    1    2    0    0  0.32381083032E-02 -0.91206146228E-02  0.34401491659E-01  0.35750994182E-01  0.10000000475E-02 0. -1.
</event>
<event>
 4   0  0.4809415E-02  0.9118800E+02  0.7818609E-02  0.1379984E+01
      -11   -1    0    0    0    0  0.00000000000E+00  0.00000000000E+00  0.35740347158E-01  0.35744000000E-01  0.51099999109E-03 0. -1.
       11   -1    0    0    0    0 -0.00000000000E+00 -0.00000000000E+00 -0.35740347158E-01  0.35744000000E-01  0.51099999109E-03 0.  1.
       22    1    1    2    0    0 -0.90083565497E-02 -0.33746814155E-01 -0.75588115144E-02  0.35737005818E-01  0.00000000000E+00 0.  1.
  9000001    1    1    2    0    0  0.90083565497E-02  0.33746814155E-01  0.75588115144E-02  0.35750994182E-01  0.10000000475E-02 0. -1.
</event>
<event>
 4   0  0.4809415E-02  0.9118800E+02  0.7818609E-02  0.1379984E+01
      -11   -1    0    0    0    0  0.00000000000E+00  0.00000000000E+00  0.35740347158E-01  0.35744000000E-01  0.51099999109E-03 0.  1.
       11   -1    0    0    0    0 -0.00000000000E+00 -0.00000000000E+00 -0.35740347158E-01  0.35744000000E-01  0.51099999109E-03 0. -1.
       22    1    1    2    0    0  0.17967394666E-01  0.27629931387E-02  0.30768038330E-01  0.35737005818E-01  0.00000000000E+00 0.  1.
  9000001    1    1    2    0    0 -0.17967394666E-01 -0.27629931387E-02 -0.30768038330E-01  0.35750994182E-01  0.10000000475E-02 0. -1.
</event>
<event>
 4   0  0.4809415E-02  0.9118800E+02  0.7818609E-02  0.1379984E+01
      -11   -1    0    0    0    0  0.00000000000E+00  0.00000000000E+00  0.35740347158E-01  0.35744000000E-01  0.51099999109E-03 0.  1.
       11   -1    0    0    0    0 -0.00000000000E+00 -0.00000000000E+00 -0.35740347158E-01  0.35744000000E-01  0.51099999109E-03 0. -1.
       22    1    1    2    0    0  0.46660368539E-02 -0.47882549213E-02  0.35106043636E-01  0.35737005818E-01  0.00000000000E+00 0.  1.
  9000001    1    1    2    0    0 -0.46660368539E-02  0.47882549213E-02 -0.35106043636E-01  0.35750994182E-01  0.10000000475E-02 0. -1.
</event>
<event>
 4   0  0.4809415E-02  0.9118800E+02  0.7818609E-02  0.1379984E+01
      -11   -1    0    0    0    0  0.00000000000E+00  0.00000000000E+00  0.35740347158E-01  0.35744000000E-01  0.51099999109E-03 0. -1.
       11   -1    0    0    0    0 -0.00000000000E+00 -0.00000000000E+00 -0.35740347158E-01  0.35744000000E-01  0.51099999109E-03 0.  1.
       22    1    1    2    0    0 -0.35076087377E-02  0.53747814398E-02 -0.35155966639E-01  0.35737005818E-01  0.00000000000E+00 0.  1.
  9000001    1    1    2    0    0  0.35076087377E-02 -0.53747814398E-02  0.35155966639E-01  0.35750994182E-01  0.10000000475E-02 0. -1.
</event>
<event>
 4   0  0.4809415E-02  0.9118800E+02  0.7818609E-02  0.1379984E+01
      -11   -1    0    0    0    0  0.00000000000E+00  0.00000000000E+00  0.35740347158E-01  0.35744000000E-01  0.51099999109E-03 0. -1.
       11   -1    0    0    0    0 -0.00000000000E+00 -0.00000000000E+00 -0.35740347158E-01  0.35744000000E-01  0.51099999109E-03 0.  1.
       22    1    1    2    0    0 -0.26029645470E-02  0.20646533067E-01  0.29053034828E-01  0.35737005818E-01  0.00000000000E+00 0. -1.
  9000001    1    1    2    0    0  0.26029645470E-02 -0.20646533067E-01 -0.29053034828E-01  0.35750994182E-01  0.10000000475E-02 0.  1.
</event>
<event>
 4   0  0.4809415E-02  0.9118800E+02  0.7818609E-02  0.1379984E+01
      -11   -1    0    0    0    0  0.00000000000E+00  0.00000000000E+00  0.35740347158E-01  0.35744000000E-01  0.51099999109E-03 0.  1.
       11   -1    0    0    0    0 -0.00000000000E+00 -0.00000000000E+00 -0.35740347158E-01  0.35744000000E-01  0.51099999109E-03 0. -1.
       22    1    1    2    0    0 -0.13054321452E-01 -0.52394232145E-02 -0.32852195066E-01  0.35737005818E-01  0.00000000000E+00 0. -1.
  9000001    1    1    2    0    0  0.13054321452E-01  0.52394232145E-02  0.32852195066E-01  0.35750994182E-01  0.10000000475E-02 0.  1.
</event>
<event>
 4   0  0.4809415E-02  0.9118800E+02  0.7818609E-02  0.1379984E+01
      -11   -1    0    0    0    0  0.00000000000E+00  0.00000000000E+00  0.35740347158E-01  0.35744000000E-01  0.51099999109E-03 0.  1.
       11   -1    0    0    0    0 -0.00000000000E+00 -0.00000000000E+00 -0.35740347158E-01  0.35744000000E-01  0.51099999109E-03 0. -1.
       22    1    1    2    0    0  0.24564240694E-02  0.44647822990E-02 -0.35371814834E-01  0.35737005818E-01  0.00000000000E+00 0. -1.
  9000001    1    1    2    0    0 -0.24564240694E-02 -0.44647822990E-02  0.35371814834E-01  0.35750994182E-01  0.10000000475E-02 0.  1.
</event>
<event>
 4   0  0.4809415E-02  0.9118800E+02  0.7818609E-02  0.1379984E+01
      -11   -1    0    0    0    0  0.00000000000E+00  0.00000000000E+00  0.35740347158E-01  0.35744000000E-01  0.51099999109E-03 0. -1.
       11   -1    0    0    0    0 -0.00000000000E+00 -0.00000000000E+00 -0.35740347158E-01  0.35744000000E-01  0.51099999109E-03 0.  1.
       22    1    1    2    0    0 -0.63915535616E-04  0.60592959348E-02  0.35219517777E-01  0.35737005818E-01  0.00000000000E+00 0. -1.
  9000001    1    1    2    0    0  0.63915535616E-04 -0.60592959348E-02 -0.35219517777E-01  0.35750994182E-01  0.10000000475E-02 0.  1.
</event>
<event>
 4   0  0.4809415E-02  0.9118800E+02  0.7818609E-02  0.1379984E+01
      -11   -1    0    0    0    0  0.00000000000E+00  0.00000000000E+00  0.35740347158E-01  0.35744000000E-01  0.51099999109E-03 0.  1.
       11   -1    0    0    0    0 -0.00000000000E+00 -0.00000000000E+00 -0.35740347158E-01  0.35744000000E-01  0.51099999109E-03 0. -1.
       22    1    1    2    0    0  0.23663467439E-02 -0.26956186252E-01 -0.23343050587E-01  0.35737005818E-01  0.00000000000E+00 0.  1.
  9000001    1    1    2    0    0 -0.23663467439E-02  0.26956186252E-01  0.23343050587E-01  0.35750994182E-01  0.10000000475E-02 0. -1.
</event>
<event>
 4   0  0.4809415E-02  0.9118800E+02  0.7818609E-02  0.1379984E+01
      -11   -1    0    0    0    0  0.00000000000E+00  0.00000000000E+00  0.35740347158E-01  0.35744000000E-01  0.51099999109E-03 0. -1.
       11   -1    0    0    0    0 -0.00000000000E+00 -0.00000000000E+00 -0.35740347158E-01  0.35744000000E-01  0.51099999109E-03 0.  1.
       22    1    1    2    0    0 -0.26747240310E-02 -0.10736473550E-01  0.33980988390E-01  0.35737005818E-01  0.00000000000E+00 0. -1.
  9000001    1    1    2    0    0  0.26747240310E-02  0.10736473550E-01 -0.33980988390E-01  0.35750994182E-01  0.10000000475E-02 0.  1.
</event>
<event>
 4   0  0.4809415E-02  0.9118800E+02  0.7818609E-02  0.1379984E+01
      -11   -1    0    0    0    0  0.00000000000E+00  0.00000000000E+00  0.35740347158E-01  0.35744000000E-01  0.51099999109E-03 0. -1.
       11   -1    0    0    0    0 -0.00000000000E+00 -0.00000000000E+00 -0.35740347158E-01  0.35744000000E-01  0.51099999109E-03 0.  1.
       22    1    1    2    0    0 -0.15045099698E-01 -0.87390707592E-02 -0.31215496187E-01  0.35737005818E-01  0.00000000000E+00 0.  1.
  9000001    1    1    2    0    0  0.15045099698E-01  0.87390707592E-02  0.31215496187E-01  0.35750994182E-01  0.10000000475E-02 0. -1.
</event>
<event>
 4   0  0.4809415E-02  0.9118800E+02  0.7818609E-02  0.1379984E+01
      -11   -1    0    0    0    0  0.00000000000E+00  0.00000000000E+00  0.35740347158E-01  0.35744000000E-01  0.51099999109E-03 0. -1.
       11   -1    0    0    0    0 -0.00000000000E+00 -0.00000000000E+00 -0.35740347158E-01  0.35744000000E-01  0.51099999109E-03 0.  1.
       22    1    1    2    0    0  0.61450267903E-02 -0.21997864623E-03 -0.35204031587E-01  0.35737005818E-01  0.00000000000E+00 0.  1.
  9000001    1    1    2    0    0 -0.61450267903E-02  0.21997864623E-03  0.35204031587E-01  0.35750994182E-01  0.10000000475E-02 0. -1.
</event>
<event>
 4   0  0.4809415E-02  0.9118800E+02  0.7818609E-02  0.1379984E+01
      -11   -1    0    0    0    0  0.00000000000E+00  0.00000000000E+00  0.35740347158E-01  0.35744000000E-01  0.51099999109E-03 0. -1.
       11   -1    0    0    0    0 -0.00000000000E+00 -0.00000000000E+00 -0.35740347158E-01  0.35744000000E-01  0.51099999109E-03 0.  1.
       22    1    1    2    0    0  0.11132745466E-01  0.19730583048E-01  0.27638734701E-01  0.35737005818E-01  0.00000000000E+00 0. -1.
  9000001    1    1    2    0    0 -0.11132745466E-01 -0.19730583048E-01 -0.27638734701E-01  0.35750994182E-01  0.10000000475E-02 0.  1.
</event>
<event>
 4   0  0.4809415E-02  0.9118800E+02  0.7818609E-02  0.1379984E+01
      -11   -1    0    0    0    0  0.00000000000E+00  0.00000000000E+00  0.35740347158E-01  0.35744000000E-01  0.51099999109E-03 0.  1.
       11   -1    0    0    0    0 -0.00000000000E+00 -0.00000000000E+00 -0.35740347158E-01  0.35744000000E-01  0.51099999109E-03 0. -1.
       22    1    1    2    0    0  0.34911639203E-02 -0.25060110669E-03 -0.35565187451E-01  0.35737005818E-01  0.00000000000E+00 0. -1.
  9000001    1    1    2    0    0 -0.34911639203E-02  0.25060110669E-03  0.35565187451E-01  0.35750994182E-01  0.10000000475E-02 0.  1.
</event>
<event>
 4   0  0.4809415E-02  0.9118800E+02  0.7818609E-02  0.1379984E+01
      -11   -1    0    0    0    0  0.00000000000E+00  0.00000000000E+00  0.35740347158E-01  0.35744000000E-01  0.51099999109E-03 0. -1.
       11   -1    0    0    0    0 -0.00000000000E+00 -0.00000000000E+00 -0.35740347158E-01  0.35744000000E-01  0.51099999109E-03 0.  1.
       22    1    1    2    0    0  0.18625435179E-01 -0.17931820729E-02  0.30446859400E-01  0.35737005818E-01  0.00000000000E+00 0. -1.
  9000001    1    1    2    0    0 -0.18625435179E-01  0.17931820729E-02 -0.30446859400E-01  0.35750994182E-01  0.10000000475E-02 0.  1.
</event>
<event>
 4   0  0.4809415E-02  0.9118800E+02  0.7818609E-02  0.1379984E+01
      -11   -1    0    0    0    0  0.00000000000E+00  0.00000000000E+00  0.35740347158E-01  0.35744000000E-01  0.51099999109E-03 0.  1.
       11   -1    0    0    0    0 -0.00000000000E+00 -0.00000000000E+00 -0.35740347158E-01  0.35744000000E-01  0.51099999109E-03 0. -1.
       22    1    1    2    0    0  0.35547500645E-02 -0.30748929993E-02 -0.35426577169E-01  0.35737005818E-01  0.00000000000E+00 0. -1.
  9000001    1    1    2    0    0 -0.35547500645E-02  0.30748929993E-02  0.35426577169E-01  0.35750994182E-01  0.10000000475E-02 0.  1.
</event>
<event>
 4   0  0.4809415E-02  0.9118800E+02  0.7818609E-02  0.1379984E+01
      -11   -1    0    0    0    0  0.00000000000E+00  0.00000000000E+00  0.35740347158E-01  0.35744000000E-01  0.51099999109E-03 0.  1.
       11   -1    0    0    0    0 -0.00000000000E+00 -0.00000000000E+00 -0.35740347158E-01  0.35744000000E-01  0.51099999109E-03 0. -1.
       22    1    1    2    0    0 -0.19970343827E-02 -0.52003177744E-02 -0.35300171863E-01  0.35737005818E-01  0.00000000000E+00 0. -1.
  9000001    1    1    2    0    0  0.19970343827E-02  0.52003177744E-02  0.35300171863E-01  0.35750994182E-01  0.10000000475E-02 0.  1.
</event>
<event>
 4   0  0.4809415E-02  0.9118800E+02  0.7818609E-02  0.1379984E+01
      -11   -1    0    0    0    0  0.00000000000E+00  0.00000000000E+00  0.35740347158E-01  0.35744000000E-01  0.51099999109E-03 0.  1.
       11   -1    0    0    0    0 -0.00000000000E+00 -0.00000000000E+00 -0.35740347158E-01  0.35744000000E-01  0.51099999109E-03 0. -1.
       22    1    1    2    0    0  0.85282682224E-02  0.33766466743E-01 -0.80142341943E-02  0.35737005818E-01  0.00000000000E+00 0. -1.
  9000001    1    1    2    0    0 -0.85282682224E-02 -0.33766466743E-01  0.80142341943E-02  0.35750994182E-01  0.10000000475E-02 0.  1.
</event>
<event>
 4   0  0.4809415E-02  0.9118800E+02  0.7818609E-02  0.1379984E+01
      -11   -1    0    0    0    0  0.00000000000E+00  0.00000000000E+00  0.35740347158E-01  0.35744000000E-01  0.51099999109E-03 0. -1.
       11   -1    0    0    0    0 -0.00000000000E+00 -0.00000000000E+00 -0.35740347158E-01  0.35744000000E-01  0.51099999109E-03 0.  1.
       22    1    1    2    0    0 -0.33779648354E-02 -0.10520304228E-02 -0.35561442187E-01  0.35737005818E-01  0.00000000000E+00 0.  1.
  9000001    1    1    2    0    0  0.33779648354E-02  0.10520304228E-02  0.35561442187E-01  0.35750994182E-01  0.10000000475E-02 0. -1.
</event>
<event>
 4   0  0.4809415E-02  0.9118800E+02  0.7818609E-02  0.1379984E+01
      -11   -1    0    0    0    0  0.00000000000E+00  0.00000000000E+00  0.35740347158E-01  0.35744000000E-01  0.51099999109E-03 0.  1.
       11   -1    0    0    0    0 -0.00000000000E+00 -0.00000000000E+00 -0.35740347158E-01  0.35744000000E-01  0.51099999109E-03 0. -1.
       22    1    1    2    0    0 -0.50157329521E-02 -0.19607303544E-02  0.35328905224E-01  0.35737005818E-01  0.00000000000E+00 0.  1.
  9000001    1    1    2    0    0  0.50157329521E-02  0.19607303544E-02 -0.35328905224E-01  0.35750994182E-01  0.10000000475E-02 0. -1.
</event>
<event>
 4   0  0.4809415E-02  0.9118800E+02  0.7818609E-02  0.1379984E+01
      -11   -1    0    0    0    0  0.00000000000E+00  0.00000000000E+00  0.35740347158E-01  0.35744000000E-01  0.51099999109E-03 0. -1.
       11   -1    0    0    0    0 -0.00000000000E+00 -0.00000000000E+00 -0.35740347158E-01  0.35744000000E-01  0.51099999109E-03 0.  1.
       22    1    1    2    0    0 -0.27166365872E-02 -0.18287578383E-02  0.35586642372E-01  0.35737005818E-01  0.00000000000E+00 0. -1.
  9000001    1    1    2    0    0  0.27166365872E-02  0.18287578383E-02 -0.35586642372E-01  0.35750994182E-01  0.10000000475E-02 0.  1.
</event>
<event>
 4   0  0.4809415E-02  0.9118800E+02  0.7818609E-02  0.1379984E+01
      -11   -1    0    0    0    0  0.00000000000E+00  0.00000000000E+00  0.35740347158E-01  0.35744000000E-01  0.51099999109E-03 0. -1.
       11   -1    0    0    0    0 -0.00000000000E+00 -0.00000000000E+00 -0.35740347158E-01  0.35744000000E-01  0.51099999109E-03 0.  1.
       22    1    1    2    0    0  0.78534413846E-02 -0.16038778585E-01 -0.30955041993E-01  0.35737005818E-01  0.00000000000E+00 0.  1.
  9000001    1    1    2    0    0 -0.78534413846E-02  0.16038778585E-01  0.30955041993E-01  0.35750994182E-01  0.10000000475E-02 0. -1.
</event>
<event>
 4   0  0.4809415E-02  0.9118800E+02  0.7818609E-02  0.1379984E+01
      -11   -1    0    0    0    0  0.00000000000E+00  0.00000000000E+00  0.35740347158E-01  0.35744000000E-01  0.51099999109E-03 0. -1.
       11   -1    0    0    0    0 -0.00000000000E+00 -0.00000000000E+00 -0.35740347158E-01  0.35744000000E-01  0.51099999109E-03 0.  1.
       22    1    1    2    0    0  0.41988958413E-03 -0.90305773334E-02 -0.34574643174E-01  0.35737005818E-01  0.00000000000E+00 0.  1.
  9000001    1    1    2    0    0 -0.41988958413E-03  0.90305773334E-02  0.34574643174E-01  0.35750994182E-01  0.10000000475E-02 0. -1.
</event>
<event>
 4   0  0.4809415E-02  0.9118800E+02  0.7818609E-02  0.1379984E+01
      -11   -1    0    0    0    0  0.00000000000E+00  0.00000000000E+00  0.35740347158E-01  0.35744000000E-01  0.51099999109E-03 0.  1.
       11   -1    0    0    0    0 -0.00000000000E+00 -0.00000000000E+00 -0.35740347158E-01  0.35744000000E-01  0.51099999109E-03 0. -1.
       22    1    1    2    0    0 -0.13849782531E-02  0.22700825963E-01  0.27566064658E-01  0.35737005818E-01  0.00000000000E+00 0.  1.
  9000001    1    1    2    0    0  0.13849782531E-02 -0.22700825963E-01 -0.27566064658E-01  0.35750994182E-01  0.10000000475E-02 0. -1.
</event>
<event>
 4   0  0.4809415E-02  0.9118800E+02  0.7818609E-02  0.1379984E+01
      -11   -1    0    0    0    0  0.00000000000E+00  0.00000000000E+00  0.35740347158E-01  0.35744000000E-01  0.51099999109E-03 0.  1.
       11   -1    0    0    0    0 -0.00000000000E+00 -0.00000000000E+00 -0.35740347158E-01  0.35744000000E-01  0.51099999109E-03 0. -1.
       22    1    1    2    0    0  0.30634578587E-01 -0.59348349664E-02  0.17419354568E-01  0.35737005818E-01  0.00000000000E+00 0.  1.
  9000001    1    1    2    0    0 -0.30634578587E-01  0.59348349664E-02 -0.17419354568E-01  0.35750994182E-01  0.10000000475E-02 0. -1.
</event>
<event>
 4   0  0.4809415E-02  0.9118800E+02  0.7818609E-02  0.1379984E+01
      -11   -1    0    0    0    0  0.00000000000E+00  0.00000000000E+00  0.35740347158E-01  0.35744000000E-01  0.51099999109E-03 0.  1.
       11   -1    0    0    0    0 -0.00000000000E+00 -0.00000000000E+00 -0.35740347158E-01  0.35744000000E-01  0.51099999109E-03 0. -1.
       22    1    1    2    0    0  0.43794736324E-02  0.50161790290E-02 -0.35111134182E-01  0.35737005818E-01  0.00000000000E+00 0. -1.
  9000001    1    1    2    0    0 -0.43794736324E-02 -0.50161790290E-02  0.35111134182E-01  0.35750994182E-01  0.10000000475E-02 0.  1.
</event>
<event>
 4   0  0.4809415E-02  0.9118800E+02  0.7818609E-02  0.1379984E+01
      -11   -1    0    0    0    0  0.00000000000E+00  0.00000000000E+00  0.35740347158E-01  0.35744000000E-01  0.51099999109E-03 0. -1.
       11   -1    0    0    0    0 -0.00000000000E+00 -0.00000000000E+00 -0.35740347158E-01  0.35744000000E-01  0.51099999109E-03 0.  1.
       22    1    1    2    0    0 -0.24307392780E-03  0.38587922384E-02  0.35527232124E-01  0.35737005818E-01  0.00000000000E+00 0. -1.
  9000001    1    1    2    0    0  0.24307392780E-03 -0.38587922384E-02 -0.35527232124E-01  0.35750994182E-01  0.10000000475E-02 0.  1.
</event>
<event>
 4   0  0.4809415E-02  0.9118800E+02  0.7818609E-02  0.1379984E+01
      -11   -1    0    0    0    0  0.00000000000E+00  0.00000000000E+00  0.35740347158E-01  0.35744000000E-01  0.51099999109E-03 0.  1.
       11   -1    0    0    0    0 -0.00000000000E+00 -0.00000000000E+00 -0.35740347158E-01  0.35744000000E-01  0.51099999109E-03 0. -1.
       22    1    1    2    0    0 -0.16754704401E-01 -0.94867655751E-02  0.30106722575E-01  0.35737005818E-01  0.00000000000E+00 0.  1.
  9000001    1    1    2    0    0  0.16754704401E-01  0.94867655751E-02 -0.30106722575E-01  0.35750994182E-01  0.10000000475E-02 0. -1.
</event>
<event>
 4   0  0.4809415E-02  0.9118800E+02  0.7818609E-02  0.1379984E+01
      -11   -1    0    0    0    0  0.00000000000E+00  0.00000000000E+00  0.35740347158E-01  0.35744000000E-01  0.51099999109E-03 0.  1.
       11   -1    0    0    0    0 -0.00000000000E+00 -0.00000000000E+00 -0.35740347158E-01  0.35744000000E-01  0.51099999109E-03 0. -1.
       22    1    1    2    0    0  0.12674522360E-01 -0.21861515610E-01  0.25269827918E-01  0.35737005818E-01  0.00000000000E+00 0.  1.
  9000001    1    1    2    0    0 -0.12674522360E-01  0.21861515610E-01 -0.25269827918E-01  0.35750994182E-01  0.10000000475E-02 0. -1.
</event>
<event>
 4   0  0.4809415E-02  0.9118800E+02  0.7818609E-02  0.1379984E+01
      -11   -1    0    0    0    0  0.00000000000E+00  0.00000000000E+00  0.35740347158E-01  0.35744000000E-01  0.51099999109E-03 0.  1.
       11   -1    0    0    0    0 -0.00000000000E+00 -0.00000000000E+00 -0.35740347158E-01  0.35744000000E-01  0.51099999109E-03 0. -1.
       22    1    1    2    0    0  0.49028426652E-03 -0.32127787922E-02 -0.35588920448E-01  0.35737005818E-01  0.00000000000E+00 0. -1.
  9000001    1    1    2    0    0 -0.49028426652E-03  0.32127787922E-02  0.35588920448E-01  0.35750994182E-01  0.10000000475E-02 0.  1.
</event>
<event>
 4   0  0.4809415E-02  0.9118800E+02  0.7818609E-02  0.1379984E+01
      -11   -1    0    0    0    0  0.00000000000E+00  0.00000000000E+00  0.35740347158E-01  0.35744000000E-01  0.51099999109E-03 0. -1.
       11   -1    0    0    0    0 -0.00000000000E+00 -0.00000000000E+00 -0.35740347158E-01  0.35744000000E-01  0.51099999109E-03 0.  1.
       22    1    1    2    0    0 -0.13386876836E-01 -0.16794062498E-01  0.28563693358E-01  0.35737005818E-01  0.00000000000E+00 0. -1.
  9000001    1    1    2    0    0  0.13386876836E-01  0.16794062498E-01 -0.28563693358E-01  0.35750994182E-01  0.10000000475E-02 0.  1.
</event>
<event>
 4   0  0.4809415E-02  0.9118800E+02  0.7818609E-02  0.1379984E+01
      -11   -1    0    0    0    0  0.00000000000E+00  0.00000000000E+00  0.35740347158E-01  0.35744000000E-01  0.51099999109E-03 0.  1.
       11   -1    0    0    0    0 -0.00000000000E+00 -0.00000000000E+00 -0.35740347158E-01  0.35744000000E-01  0.51099999109E-03 0. -1.
       22    1    1    2    0    0 -0.70553320978E-02  0.14680239420E-01  0.31809533860E-01  0.35737005818E-01  0.00000000000E+00 0.  1.
  9000001    1    1    2    0    0  0.70553320978E-02 -0.14680239420E-01 -0.31809533860E-01  0.35750994182E-01  0.10000000475E-02 0. -1.
</event>
<event>
 4   0  0.4809415E-02  0.9118800E+02  0.7818609E-02  0.1379984E+01
      -11   -1    0    0    0    0  0.00000000000E+00  0.00000000000E+00  0.35740347158E-01  0.35744000000E-01  0.51099999109E-03 0.  1.
       11   -1    0    0    0    0 -0.00000000000E+00 -0.00000000000E+00 -0.35740347158E-01  0.35744000000E-01  0.51099999109E-03 0. -1.
       22    1    1    2    0    0  0.12580003807E-02  0.27692794388E-02 -0.35607332269E-01  0.35737005818E-01  0.00000000000E+00 0. -1.
  9000001    1    1    2    0    0 -0.12580003807E-02 -0.27692794388E-02  0.35607332269E-01  0.35750994182E-01  0.10000000475E-02 0.  1.
</event>
<event>
 4   0  0.4809415E-02  0.9118800E+02  0.7818609E-02  0.1379984E+01
      -11   -1    0    0    0    0  0.00000000000E+00  0.00000000000E+00  0.35740347158E-01  0.35744000000E-01  0.51099999109E-03 0. -1.
       11   -1    0    0    0    0 -0.00000000000E+00 -0.00000000000E+00 -0.35740347158E-01  0.35744000000E-01  0.51099999109E-03 0.  1.
       22    1    1    2    0    0 -0.19462440794E-01 -0.32454907042E-02 -0.29796204008E-01  0.35737005818E-01  0.00000000000E+00 0.  1.
  9000001    1    1    2    0    0  0.19462440794E-01  0.32454907042E-02  0.29796204008E-01  0.35750994182E-01  0.10000000475E-02 0. -1.
</event>
<event>
 4   0  0.4809415E-02  0.9118800E+02  0.7818609E-02  0.1379984E+01
      -11   -1    0    0    0    0  0.00000000000E+00  0.00000000000E+00  0.35740347158E-01  0.35744000000E-01  0.51099999109E-03 0. -1.
       11   -1    0    0    0    0 -0.00000000000E+00 -0.00000000000E+00 -0.35740347158E-01  0.35744000000E-01  0.51099999109E-03 0.  1.
       22    1    1    2    0    0  0.30254130791E-02  0.31380219706E-02  0.35470174495E-01  0.35737005818E-01  0.00000000000E+00 0. -1.
  9000001    1    1    2    0    0 -0.30254130791E-02 -0.31380219706E-02 -0.35470174495E-01  0.35750994182E-01  0.10000000475E-02 0.  1.
</event>
<event>
 4   0  0.4809415E-02  0.9118800E+02  0.7818609E-02  0.1379984E+01
      -11   -1    0    0    0    0  0.00000000000E+00  0.00000000000E+00  0.35740347158E-01  0.35744000000E-01  0.51099999109E-03 0. -1.
       11   -1    0    0    0    0 -0.00000000000E+00 -0.00000000000E+00 -0.35740347158E-01  0.35744000000E-01  0.51099999109E-03 0.  1.
       22    1    1    2    0    0  0.97638601134E-02  0.28888637328E-01  0.18634571471E-01  0.35737005818E-01  0.00000000000E+00 0. -1.
  9000001    1    1    2    0    0 -0.97638601134E-02 -0.28888637328E-01 -0.18634571471E-01  0.35750994182E-01  0.10000000475E-02 0.  1.
</event>
<event>
 4   0  0.4809415E-02  0.9118800E+02  0.7818609E-02  0.1379984E+01
      -11   -1    0    0    0    0  0.00000000000E+00  0.00000000000E+00  0.35740347158E-01  0.35744000000E-01  0.51099999109E-03 0.  1.
       11   -1    0    0    0    0 -0.00000000000E+00 -0.00000000000E+00 -0.35740347158E-01  0.35744000000E-01  0.51099999109E-03 0. -1.
       22    1    1    2    0    0  0.37146895030E-02  0.14578301741E-02 -0.35513510076E-01  0.35737005818E-01  0.00000000000E+00 0. -1.
  9000001    1    1    2    0    0 -0.37146895030E-02 -0.14578301741E-02  0.35513510076E-01  0.35750994182E-01  0.10000000475E-02 0.  1.
</event>
<event>
 4   0  0.4809415E-02  0.9118800E+02  0.7818609E-02  0.1379984E+01
      -11   -1    0    0    0    0  0.00000000000E+00  0.00000000000E+00  0.35740347158E-01  0.35744000000E-01  0.51099999109E-03 0.  1.
       11   -1    0    0    0    0 -0.00000000000E+00 -0.00000000000E+00 -0.35740347158E-01  0.35744000000E-01  0.51099999109E-03 0. -1.
       22    1    1    2    0    0 -0.53451506026E-02  0.67130286620E-02  0.34691471518E-01  0.35737005818E-01  0.00000000000E+00 0.  1.
  9000001    1    1    2    0    0  0.53451506026E-02 -0.67130286620E-02 -0.34691471518E-01  0.35750994182E-01  0.10000000475E-02 0. -1.
</event>
<event>
 4   0  0.4809415E-02  0.9118800E+02  0.7818609E-02  0.1379984E+01
      -11   -1    0    0    0    0  0.00000000000E+00  0.00000000000E+00  0.35740347158E-01  0.35744000000E-01  0.51099999109E-03 0.  1.
       11   -1    0    0    0    0 -0.00000000000E+00 -0.00000000000E+00 -0.35740347158E-01  0.35744000000E-01  0.51099999109E-03 0. -1.
       22    1    1    2    0    0  0.17420444320E-01  0.23676627451E-01  0.20324345430E-01  0.35737005818E-01  0.00000000000E+00 0.  1.
  9000001    1    1    2    0    0 -0.17420444320E-01 -0.23676627451E-01 -0.20324345430E-01  0.35750994182E-01  0.10000000475E-02 0. -1.
</event>
<event>
 4   0  0.4809415E-02  0.9118800E+02  0.7818609E-02  0.1379984E+01
      -11   -1    0    0    0    0  0.00000000000E+00  0.00000000000E+00  0.35740347158E-01  0.35744000000E-01  0.51099999109E-03 0.  1.
       11   -1    0    0    0    0 -0.00000000000E+00 -0.00000000000E+00 -0.35740347158E-01  0.35744000000E-01  0.51099999109E-03 0. -1.
       22    1    1    2    0    0 -0.17235473686E-01 -0.89363770998E-02  0.30003553056E-01  0.35737005818E-01  0.00000000000E+00 0.  1.
  9000001    1    1    2    0    0  0.17235473686E-01  0.89363770998E-02 -0.30003553056E-01  0.35750994182E-01  0.10000000475E-02 0. -1.
</event>
<event>
 4   0  0.4809415E-02  0.9118800E+02  0.7818609E-02  0.1379984E+01
      -11   -1    0    0    0    0  0.00000000000E+00  0.00000000000E+00  0.35740347158E-01  0.35744000000E-01  0.51099999109E-03 0. -1.
       11   -1    0    0    0    0 -0.00000000000E+00 -0.00000000000E+00 -0.35740347158E-01  0.35744000000E-01  0.51099999109E-03 0.  1.
       22    1    1    2    0    0  0.70164354955E-02  0.38254452061E-02 -0.34832013820E-01  0.35737005818E-01  0.00000000000E+00 0.  1.
  9000001    1    1    2    0    0 -0.70164354955E-02 -0.38254452061E-02  0.34832013820E-01  0.35750994182E-01  0.10000000475E-02 0. -1.
</event>
<event>
 4   0  0.4809415E-02  0.9118800E+02  0.7818609E-02  0.1379984E+01
      -11   -1    0    0    0    0  0.00000000000E+00  0.00000000000E+00  0.35740347158E-01  0.35744000000E-01  0.51099999109E-03 0. -1.
       11   -1    0    0    0    0 -0.00000000000E+00 -0.00000000000E+00 -0.35740347158E-01  0.35744000000E-01  0.51099999109E-03 0.  1.
       22    1    1    2    0    0 -0.15635746838E-01  0.11683195793E-02 -0.32113735925E-01  0.35737005818E-01  0.00000000000E+00 0.  1.
  9000001    1    1    2    0    0  0.15635746838E-01 -0.11683195793E-02  0.32113735925E-01  0.35750994182E-01  0.10000000475E-02 0. -1.
</event>
<event>
 4   0  0.4809415E-02  0.9118800E+02  0.7818609E-02  0.1379984E+01
      -11   -1    0    0    0    0  0.00000000000E+00  0.00000000000E+00  0.35740347158E-01  0.35744000000E-01  0.51099999109E-03 0. -1.
       11   -1    0    0    0    0 -0.00000000000E+00 -0.00000000000E+00 -0.35740347158E-01  0.35744000000E-01  0.51099999109E-03 0.  1.
       22    1    1    2    0    0  0.98560350400E-02  0.14423647527E-01 -0.31176121474E-01  0.35737005818E-01  0.00000000000E+00 0.  1.
  9000001    1    1    2    0    0 -0.98560350400E-02 -0.14423647527E-01  0.31176121474E-01  0.35750994182E-01  0.10000000475E-02 0. -1.
</event>
<event>
 4   0  0.4809415E-02  0.9118800E+02  0.7818609E-02  0.1379984E+01
      -11   -1    0    0    0    0  0.00000000000E+00  0.00000000000E+00  0.35740347158E-01  0.35744000000E-01  0.51099999109E-03 0. -1.
       11   -1    0    0    0    0 -0.00000000000E+00 -0.00000000000E+00 -0.35740347158E-01  0.35744000000E-01  0.51099999109E-03 0.  1.
       22    1    1    2    0    0 -0.75529452058E-02 -0.71941550764E-02 -0.34180853359E-01  0.35737005818E-01  0.00000000000E+00 0.  1.
  9000001    1    1    2    0    0  0.75529452058E-02  0.71941550764E-02  0.34180853359E-01  0.35750994182E-01  0.10000000475E-02 0. -1.
</event>
<event>
 4   0  0.4809415E-02  0.9118800E+02  0.7818609E-02  0.1379984E+01
      -11   -1    0    0    0    0  0.00000000000E+00  0.00000000000E+00  0.35740347158E-01  0.35744000000E-01  0.51099999109E-03 0.  1.
       11   -1    0    0    0    0 -0.00000000000E+00 -0.00000000000E+00 -0.35740347158E-01  0.35744000000E-01  0.51099999109E-03 0. -1.
       22    1    1    2    0    0  0.55385302893E-02  0.19318906363E-02 -0.35252320004E-01  0.35737005818E-01  0.00000000000E+00 0. -1.
  9000001    1    1    2    0    0 -0.55385302893E-02 -0.19318906363E-02  0.35252320004E-01  0.35750994182E-01  0.10000000475E-02 0.  1.
</event>
<event>
 4   0  0.4809415E-02  0.9118800E+02  0.7818609E-02  0.1379984E+01
      -11   -1    0    0    0    0  0.00000000000E+00  0.00000000000E+00  0.35740347158E-01  0.35744000000E-01  0.51099999109E-03 0.  1.
       11   -1    0    0    0    0 -0.00000000000E+00 -0.00000000000E+00 -0.35740347158E-01  0.35744000000E-01  0.51099999109E-03 0. -1.
       22    1    1    2    0    0 -0.52155552361E-02  0.90830321451E-02  0.34167676179E-01  0.35737005818E-01  0.00000000000E+00 0.  1.
  9000001    1    1    2    0    0  0.52155552361E-02 -0.90830321451E-02 -0.34167676179E-01  0.35750994182E-01  0.10000000475E-02 0. -1.
</event>
<event>
 4   0  0.4809415E-02  0.9118800E+02  0.7818609E-02  0.1379984E+01
      -11   -1    0    0    0    0  0.00000000000E+00  0.00000000000E+00  0.35740347158E-01  0.35744000000E-01  0.51099999109E-03 0. -1.
       11   -1    0    0    0    0 -0.00000000000E+00 -0.00000000000E+00 -0.35740347158E-01  0.35744000000E-01  0.51099999109E-03 0.  1.
       22    1    1    2    0    0  0.97849477925E-02  0.10620047245E-02 -0.34354919990E-01  0.35737005818E-01  0.00000000000E+00 0.  1.
  9000001    1    1    2    0    0 -0.97849477925E-02 -0.10620047245E-02  0.34354919990E-01  0.35750994182E-01  0.10000000475E-02 0. -1.
</event>
<event>
 4   0  0.4809415E-02  0.9118800E+02  0.7818609E-02  0.1379984E+01
      -11   -1    0    0    0    0  0.00000000000E+00  0.00000000000E+00  0.35740347158E-01  0.35744000000E-01  0.51099999109E-03 0. -1.
       11   -1    0    0    0    0 -0.00000000000E+00 -0.00000000000E+00 -0.35740347158E-01  0.35744000000E-01  0.51099999109E-03 0.  1.
       22    1    1    2    0    0 -0.65041689140E-02  0.32527191861E-01 -0.13297035806E-01  0.35737005818E-01  0.00000000000E+00 0.  1.
  9000001    1    1    2    0    0  0.65041689140E-02 -0.32527191861E-01  0.13297035806E-01  0.35750994182E-01  0.10000000475E-02 0. -1.
</event>
<event>
 4   0  0.4809415E-02  0.9118800E+02  0.7818609E-02  0.1379984E+01
      -11   -1    0    0    0    0  0.00000000000E+00  0.00000000000E+00  0.35740347158E-01  0.35744000000E-01  0.51099999109E-03 0.  1.
       11   -1    0    0    0    0 -0.00000000000E+00 -0.00000000000E+00 -0.35740347158E-01  0.35744000000E-01  0.51099999109E-03 0. -1.
       22    1    1    2    0    0  0.80465014760E-02 -0.80375591244E-02 -0.33878976404E-01  0.35737005818E-01  0.00000000000E+00 0. -1.
  9000001    1    1    2    0    0 -0.80465014760E-02  0.80375591244E-02  0.33878976404E-01  0.35750994182E-01  0.10000000475E-02 0.  1.
</event>
<event>
 4   0  0.4809415E-02  0.9118800E+02  0.7818609E-02  0.1379984E+01
      -11   -1    0    0    0    0  0.00000000000E+00  0.00000000000E+00  0.35740347158E-01  0.35744000000E-01  0.51099999109E-03 0.  1.
       11   -1    0    0    0    0 -0.00000000000E+00 -0.00000000000E+00 -0.35740347158E-01  0.35744000000E-01  0.51099999109E-03 0. -1.
       22    1    1    2    0    0 -0.61373233473E-02 -0.24264954134E-02  0.35122342846E-01  0.35737005818E-01  0.00000000000E+00 0.  1.
  9000001    1    1    2    0    0  0.61373233473E-02  0.24264954134E-02 -0.35122342846E-01  0.35750994182E-01  0.10000000475E-02 0. -1.
</event>
<event>
 4   0  0.4809415E-02  0.9118800E+02  0.7818609E-02  0.1379984E+01
      -11   -1    0    0    0    0  0.00000000000E+00  0.00000000000E+00  0.35740347158E-01  0.35744000000E-01  0.51099999109E-03 0. -1.
       11   -1    0    0    0    0 -0.00000000000E+00 -0.00000000000E+00 -0.35740347158E-01  0.35744000000E-01  0.51099999109E-03 0.  1.
       22    1    1    2    0    0 -0.28227216768E-01 -0.67431288796E-02  0.20853969199E-01  0.35737005818E-01  0.00000000000E+00 0.  1.
  9000001    1    1    2    0    0  0.28227216768E-01  0.67431288796E-02 -0.20853969199E-01  0.35750994182E-01  0.10000000475E-02 0. -1.
</event>
<event>
 4   0  0.4809415E-02  0.9118800E+02  0.7818609E-02  0.1379984E+01
      -11   -1    0    0    0    0  0.00000000000E+00  0.00000000000E+00  0.35740347158E-01  0.35744000000E-01  0.51099999109E-03 0.  1.
       11   -1    0    0    0    0 -0.00000000000E+00 -0.00000000000E+00 -0.35740347158E-01  0.35744000000E-01  0.51099999109E-03 0. -1.
       22    1    1    2    0    0  0.19854008338E-01  0.35260256633E-02 -0.29504560339E-01  0.35737005818E-01  0.00000000000E+00 0. -1.
  9000001    1    1    2    0    0 -0.19854008338E-01 -0.35260256633E-02  0.29504560339E-01  0.35750994182E-01  0.10000000475E-02 0.  1.
</event>
<event>
 4   0  0.4809415E-02  0.9118800E+02  0.7818609E-02  0.1379984E+01
      -11   -1    0    0    0    0  0.00000000000E+00  0.00000000000E+00  0.35740347158E-01  0.35744000000E-01  0.51099999109E-03 0. -1.
       11   -1    0    0    0    0 -0.00000000000E+00 -0.00000000000E+00 -0.35740347158E-01  0.35744000000E-01  0.51099999109E-03 0.  1.
       22    1    1    2    0    0 -0.36266419641E-02 -0.54941690275E-02  0.35125420419E-01  0.35737005818E-01  0.00000000000E+00 0. -1.
  9000001    1    1    2    0    0  0.36266419641E-02  0.54941690275E-02 -0.35125420419E-01  0.35750994182E-01  0.10000000475E-02 0.  1.
</event>
<event>
 4   0  0.4809415E-02  0.9118800E+02  0.7818609E-02  0.1379984E+01
      -11   -1    0    0    0    0  0.00000000000E+00  0.00000000000E+00  0.35740347158E-01  0.35744000000E-01  0.51099999109E-03 0.  1.
       11   -1    0    0    0    0 -0.00000000000E+00 -0.00000000000E+00 -0.35740347158E-01  0.35744000000E-01  0.51099999109E-03 0. -1.
       22    1    1    2    0    0 -0.85838855531E-03 -0.36076110527E-02 -0.35544083846E-01  0.35737005818E-01  0.00000000000E+00 0. -1.
  9000001    1    1    2    0    0  0.85838855531E-03  0.36076110527E-02  0.35544083846E-01  0.35750994182E-01  0.10000000475E-02 0.  1.
</event>
<event>
 4   0  0.4809415E-02  0.9118800E+02  0.7818609E-02  0.1379984E+01
      -11   -1    0    0    0    0  0.00000000000E+00  0.00000000000E+00  0.35740347158E-01  0.35744000000E-01  0.51099999109E-03 0.  1.
       11   -1    0    0    0    0 -0.00000000000E+00 -0.00000000000E+00 -0.35740347158E-01  0.35744000000E-01  0.51099999109E-03 0. -1.
       22    1    1    2    0    0 -0.54345547578E-02  0.81286190316E-03  0.35312015731E-01  0.35737005818E-01  0.00000000000E+00 0.  1.
  9000001    1    1    2    0    0  0.54345547578E-02 -0.81286190316E-03 -0.35312015731E-01  0.35750994182E-01  0.10000000475E-02 0. -1.
</event>
<event>
 4   0  0.4809415E-02  0.9118800E+02  0.7818609E-02  0.1379984E+01
      -11   -1    0    0    0    0  0.00000000000E+00  0.00000000000E+00  0.35740347158E-01  0.35744000000E-01  0.51099999109E-03 0. -1.
       11   -1    0    0    0    0 -0.00000000000E+00 -0.00000000000E+00 -0.35740347158E-01  0.35744000000E-01  0.51099999109E-03 0.  1.
       22    1    1    2    0    0  0.98262739843E-02 -0.21667511768E-02  0.34291152121E-01  0.35737005818E-01  0.00000000000E+00 0. -1.
  9000001    1    1    2    0    0 -0.98262739843E-02  0.21667511768E-02 -0.34291152121E-01  0.35750994182E-01  0.10000000475E-02 0.  1.
</event>
<event>
 4   0  0.4809415E-02  0.9118800E+02  0.7818609E-02  0.1379984E+01
      -11   -1    0    0    0    0  0.00000000000E+00  0.00000000000E+00  0.35740347158E-01  0.35744000000E-01  0.51099999109E-03 0. -1.
       11   -1    0    0    0    0 -0.00000000000E+00 -0.00000000000E+00 -0.35740347158E-01  0.35744000000E-01  0.51099999109E-03 0.  1.
       22    1    1    2    0    0 -0.21465864534E-01  0.14279569446E-01  0.24747608796E-01  0.35737005818E-01  0.00000000000E+00 0. -1.
  9000001    1    1    2    0    0  0.21465864534E-01 -0.14279569446E-01 -0.24747608796E-01  0.35750994182E-01  0.10000000475E-02 0.  1.
</event>
<event>
 4   0  0.4809415E-02  0.9118800E+02  0.7818609E-02  0.1379984E+01
      -11   -1    0    0    0    0  0.00000000000E+00  0.00000000000E+00  0.35740347158E-01  0.35744000000E-01  0.51099999109E-03 0.  1.
       11   -1    0    0    0    0 -0.00000000000E+00 -0.00000000000E+00 -0.35740347158E-01  0.35744000000E-01  0.51099999109E-03 0. -1.
       22    1    1    2    0    0 -0.30840655951E-02 -0.41171951083E-02  0.35364824738E-01  0.35737005818E-01  0.00000000000E+00 0.  1.
  9000001    1    1    2    0    0  0.30840655951E-02  0.41171951083E-02 -0.35364824738E-01  0.35750994182E-01  0.10000000475E-02 0. -1.
</event>
<event>
 4   0  0.4809415E-02  0.9118800E+02  0.7818609E-02  0.1379984E+01
      -11   -1    0    0    0    0  0.00000000000E+00  0.00000000000E+00  0.35740347158E-01  0.35744000000E-01  0.51099999109E-03 0. -1.
       11   -1    0    0    0    0 -0.00000000000E+00 -0.00000000000E+00 -0.35740347158E-01  0.35744000000E-01  0.51099999109E-03 0.  1.
       22    1    1    2    0    0 -0.43256996543E-02  0.37318324007E-02 -0.35277405436E-01  0.35737005818E-01  0.00000000000E+00 0.  1.
  9000001    1    1    2    0    0  0.43256996543E-02 -0.37318324007E-02  0.35277405436E-01  0.35750994182E-01  0.10000000475E-02 0. -1.
</event>
<event>
 4   0  0.4809415E-02  0.9118800E+02  0.7818609E-02  0.1379984E+01
      -11   -1    0    0    0    0  0.00000000000E+00  0.00000000000E+00  0.35740347158E-01  0.35744000000E-01  0.51099999109E-03 0.  1.
       11   -1    0    0    0    0 -0.00000000000E+00 -0.00000000000E+00 -0.35740347158E-01  0.35744000000E-01  0.51099999109E-03 0. -1.
       22    1    1    2    0    0 -0.30697026658E-01 -0.17346552713E-01  0.58243667659E-02  0.35737005818E-01  0.00000000000E+00 0.  1.
  9000001    1    1    2    0    0  0.30697026658E-01  0.17346552713E-01 -0.58243667659E-02  0.35750994182E-01  0.10000000475E-02 0. -1.
</event>
<event>
 4   0  0.4809415E-02  0.9118800E+02  0.7818609E-02  0.1379984E+01
      -11   -1    0    0    0    0  0.00000000000E+00  0.00000000000E+00  0.35740347158E-01  0.35744000000E-01  0.51099999109E-03 0. -1.
       11   -1    0    0    0    0 -0.00000000000E+00 -0.00000000000E+00 -0.35740347158E-01  0.35744000000E-01  0.51099999109E-03 0.  1.
       22    1    1    2    0    0 -0.19616877420E-01 -0.10401311814E-01  0.28002221657E-01  0.35737005818E-01  0.00000000000E+00 0. -1.
  9000001    1    1    2    0    0  0.19616877420E-01  0.10401311814E-01 -0.28002221657E-01  0.35750994182E-01  0.10000000475E-02 0.  1.
</event>
<event>
 4   0  0.4809415E-02  0.9118800E+02  0.7818609E-02  0.1379984E+01
      -11   -1    0    0    0    0  0.00000000000E+00  0.00000000000E+00  0.35740347158E-01  0.35744000000E-01  0.51099999109E-03 0. -1.
       11   -1    0    0    0    0 -0.00000000000E+00 -0.00000000000E+00 -0.35740347158E-01  0.35744000000E-01  0.51099999109E-03 0.  1.
       22    1    1    2    0    0  0.11653595412E-01 -0.20558893801E-01  0.26807819466E-01  0.35737005818E-01  0.00000000000E+00 0. -1.
  9000001    1    1    2    0    0 -0.11653595412E-01  0.20558893801E-01 -0.26807819466E-01  0.35750994182E-01  0.10000000475E-02 0.  1.
</event>
<event>
 4   0  0.4809415E-02  0.9118800E+02  0.7818609E-02  0.1379984E+01
      -11   -1    0    0    0    0  0.00000000000E+00  0.00000000000E+00  0.35740347158E-01  0.35744000000E-01  0.51099999109E-03 0. -1.
       11   -1    0    0    0    0 -0.00000000000E+00 -0.00000000000E+00 -0.35740347158E-01  0.35744000000E-01  0.51099999109E-03 0.  1.
       22    1    1    2    0    0  0.14760892091E-01 -0.17851746006E-01  0.27213320527E-01  0.35737005818E-01  0.00000000000E+00 0. -1.
  9000001    1    1    2    0    0 -0.14760892091E-01  0.17851746006E-01 -0.27213320527E-01  0.35750994182E-01  0.10000000475E-02 0.  1.
</event>
<event>
