<event>
 4   0  0.2441219E-02  0.9118800E+02  0.7818609E-02  0.1379984E+01
      -11   -1    0    0    0    0  0.00000000000E+00  0.00000000000E+00  0.35740347158E-01  0.35744000000E-01  0.51099999109E-03 0. -1.
       11   -1    0    0    0    0 -0.00000000000E+00 -0.00000000000E+00 -0.35740347158E-01  0.35744000000E-01  0.51099999109E-03 0.  1.
       22    1    1    2    0    0 -0.15595328580E-02  0.45473478082E-02 -0.35412188157E-01  0.35737005818E-01  0.00000000000E+00 0.  1.
  9000001    1    1    2    0    0  0.15595328580E-02 -0.45473478082E-02  0.35412188157E-01  0.35750994182E-01  0.10000000475E-02 0. -1.
</event>
<event>
 4   0  0.2441219E-02  0.9118800E+02  0.7818609E-02  0.1379984E+01
      -11   -1    0    0    0    0  0.00000000000E+00  0.00000000000E+00  0.35740347158E-01  0.35744000000E-01  0.51099999109E-03 0.  1.
       11   -1    0    0    0    0 -0.00000000000E+00 -0.00000000000E+00 -0.35740347158E-01  0.35744000000E-01  0.51099999109E-03 0. -1.
       22    1    1    2    0    0 -0.32652786008E-02  0.60073798549E-02  0.35076814676E-01  0.35737005818E-01  0.00000000000E+00 0.  1.
  9000001    1    1    2    0    0  0.32652786008E-02 -0.60073798549E-02 -0.35076814676E-01  0.35750994182E-01  0.10000000475E-02 0. -1.
</event>
<event>
 4   0  0.2441219E-02  0.9118800E+02  0.7818609E-02  0.1379984E+01
      -11   -1    0    0    0    0  0.00000000000E+00  0.00000000000E+00  0.35740347158E-01  0.35744000000E-01  0.51099999109E-03 0. -1.
       11   -1    0    0    0    0 -0.00000000000E+00 -0.00000000000E+00 -0.35740347158E-01  0.35744000000E-01  0.51099999109E-03 0.  1.
       22    1    1    2    0    0  0.16917065709E-01 -0.23335085381E-02  0.31392693586E-01  0.35737005818E-01  0.00000000000E+00 0. -1.
  9000001    1    1    2    0    0 -0.16917065709E-01  0.23335085381E-02 -0.31392693586E-01  0.35750994182E-01  0.10000000475E-02 0.  1.
</event>
<event>
 4   0  0.2441219E-02  0.9118800E+02  0.7818609E-02  0.1379984E+01
      -11   -1    0    0    0    0  0.00000000000E+00  0.00000000000E+00  0.35740347158E-01  0.35744000000E-01  0.51099999109E-03 0. -1.
       11   -1    0    0    0    0 -0.00000000000E+00 -0.00000000000E+00 -0.35740347158E-01  0.35744000000E-01  0.51099999109E-03 0.  1.
       22    1    1    2    0    0  0.18774665629E-01 -0.24917635195E-01 -0.17428625065E-01  0.35737005818E-01  0.00000000000E+00 0.  1.
  9000001    1    1    2    0    0 -0.18774665629E-01  0.24917635195E-01  0.17428625065E-01  0.35750994182E-01  0.10000000475E-02 0. -1.
</event>
<event>
 4   0  0.2441219E-02  0.9118800E+02  0.7818609E-02  0.1379984E+01
      -11   -1    0    0    0    0  0.00000000000E+00  0.00000000000E+00  0.35740347158E-01  0.35744000000E-01  0.51099999109E-03 0.  1.
       11   -1    0    0    0    0 -0.00000000000E+00 -0.00000000000E+00 -0.35740347158E-01  0.35744000000E-01  0.51099999109E-03 0. -1.
       22    1    1    2    0    0  0.18051671842E-01 -0.26816737038E-01  0.15235922788E-01  0.35737005818E-01  0.00000000000E+00 0.  1.
  9000001    1    1    2    0    0 -0.18051671842E-01  0.26816737038E-01 -0.15235922788E-01  0.35750994182E-01  0.10000000475E-02 0. -1.
</event>
<event>
 4   0  0.2441219E-02  0.9118800E+02  0.7818609E-02  0.1379984E+01
      -11   -1    0    0    0    0  0.00000000000E+00  0.00000000000E+00  0.35740347158E-01  0.35744000000E-01  0.51099999109E-03 0. -1.
       11   -1    0    0    0    0 -0.00000000000E+00 -0.00000000000E+00 -0.35740347158E-01  0.35744000000E-01  0.51099999109E-03 0.  1.
       22    1    1    2    0    0 -0.14648171515E-02  0.33018956970E-02  0.35553978405E-01  0.35737005818E-01  0.00000000000E+00 0. -1.
  9000001    1    1    2    0    0  0.14648171515E-02 -0.33018956970E-02 -0.35553978405E-01  0.35750994182E-01  0.10000000475E-02 0.  1.
</event>
<event>
 4   0  0.2441219E-02  0.9118800E+02  0.7818609E-02  0.1379984E+01
      -11   -1    0    0    0    0  0.00000000000E+00  0.00000000000E+00  0.35740347158E-01  0.35744000000E-01  0.51099999109E-03 0. -1.
       11   -1    0    0    0    0 -0.00000000000E+00 -0.00000000000E+00 -0.35740347158E-01  0.35744000000E-01  0.51099999109E-03 0.  1.
       22    1    1    2    0    0  0.11655707091E-01 -0.17797890145E-01 -0.28714337594E-01  0.35737005818E-01  0.00000000000E+00 0.  1.
  9000001    1    1    2    0    0 -0.11655707091E-01  0.17797890145E-01  0.28714337594E-01  0.35750994182E-01  0.10000000475E-02 0. -1.
</event>
<event>
 4   0  0.2441219E-02  0.9118800E+02  0.7818609E-02  0.1379984E+01
      -11   -1    0    0    0    0  0.00000000000E+00  0.00000000000E+00  0.35740347158E-01  0.35744000000E-01  0.51099999109E-03 0.  1.
       11   -1    0    0    0    0 -0.00000000000E+00 -0.00000000000E+00 -0.35740347158E-01  0.35744000000E-01  0.51099999109E-03 0. -1.
       22    1    1    2    0    0 -0.10122834532E-01 -0.30172941768E-01  0.16255934023E-01  0.35737005818E-01  0.00000000000E+00 0.  1.
  9000001    1    1    2    0    0  0.10122834532E-01  0.30172941768E-01 -0.16255934023E-01  0.35750994182E-01  0.10000000475E-02 0. -1.
</event>
<event>
 4   0  0.2441219E-02  0.9118800E+02  0.7818609E-02  0.1379984E+01
      -11   -1    0    0    0    0  0.00000000000E+00  0.00000000000E+00  0.35740347158E-01  0.35744000000E-01  0.51099999109E-03 0. -1.
       11   -1    0    0    0    0 -0.00000000000E+00 -0.00000000000E+00 -0.35740347158E-01  0.35744000000E-01  0.51099999109E-03 0.  1.
       22    1    1    2    0    0  0.15452403208E-02  0.17770584557E-01 -0.30966952413E-01  0.35737005818E-01  0.00000000000E+00 0.  1.
  9000001    1    1    2    0    0 -0.15452403208E-02 -0.17770584557E-01  0.30966952413E-01  0.35750994182E-01  0.10000000475E-02 0. -1.
</event>
<event>
 4   0  0.2441219E-02  0.9118800E+02  0.7818609E-02  0.1379984E+01
      -11   -1    0    0    0    0  0.00000000000E+00  0.00000000000E+00  0.35740347158E-01  0.35744000000E-01  0.51099999109E-03 0.  1.
       11   -1    0    0    0    0 -0.00000000000E+00 -0.00000000000E+00 -0.35740347158E-01  0.35744000000E-01  0.51099999109E-03 0. -1.
       22    1    1    2    0    0 -0.35561079008E-01 -0.24507845771E-02  0.25567361276E-02  0.35737005818E-01  0.00000000000E+00 0.  1.
  9000001    1    1    2    0    0  0.35561079008E-01  0.24507845771E-02 -0.25567361276E-02  0.35750994182E-01  0.10000000475E-02 0. -1.
</event>
<event>
 4   0  0.2441219E-02  0.9118800E+02  0.7818609E-02  0.1379984E+01
      -11   -1    0    0    0    0  0.00000000000E+00  0.00000000000E+00  0.35740347158E-01  0.35744000000E-01  0.51099999109E-03 0.  1.
       11   -1    0    0    0    0 -0.00000000000E+00 -0.00000000000E+00 -0.35740347158E-01  0.35744000000E-01  0.51099999109E-03 0. -1.
       22    1    1    2    0    0 -0.18879785138E-02  0.91456436781E-02  0.34495308720E-01  0.35737005818E-01  0.00000000000E+00 0.  1.
  9000001    1    1    2    0    0  0.18879785138E-02 -0.91456436781E-02 -0.34495308720E-01  0.35750994182E-01  0.10000000475E-02 0. -1.
</event>
<event>
 4   0  0.2441219E-02  0.9118800E+02  0.7818609E-02  0.1379984E+01
      -11   -1    0    0    0    0  0.00000000000E+00  0.00000000000E+00  0.35740347158E-01  0.35744000000E-01  0.51099999109E-03 0.  1.
       11   -1    0    0    0    0 -0.00000000000E+00 -0.00000000000E+00 -0.35740347158E-01  0.35744000000E-01  0.51099999109E-03 0. -1.
       22    1    1    2    0    0 -0.10030067691E-01 -0.24487431643E-01 -0.24018680616E-01  0.35737005818E-01  0.00000000000E+00 0.  1.
  9000001    1    1    2    0    0  0.10030067691E-01  0.24487431643E-01  0.24018680616E-01  0.35750994182E-01  0.10000000475E-02 0. -1.
</event>
<event>
 4   0  0.2441219E-02  0.9118800E+02  0.7818609E-02  0.1379984E+01
      -11   -1    0    0    0    0  0.00000000000E+00  0.00000000000E+00  0.35740347158E-01  0.35744000000E-01  0.51099999109E-03 0. -1.
       11   -1    0    0    0    0 -0.00000000000E+00 -0.00000000000E+00 -0.35740347158E-01  0.35744000000E-01  0.51099999109E-03 0.  1.
       22    1    1    2    0    0 -0.11138863003E-01 -0.21546309103E-01 -0.26245302054E-01  0.35737005818E-01  0.00000000000E+00 0.  1.
  9000001    1    1    2    0    0  0.11138863003E-01  0.21546309103E-01  0.26245302054E-01  0.35750994182E-01  0.10000000475E-02 0. -1.
</event>
<event>
 4   0  0.2441219E-02  0.9118800E+02  0.7818609E-02  0.1379984E+01
      -11   -1    0    0    0    0  0.00000000000E+00  0.00000000000E+00  0.35740347158E-01  0.35744000000E-01  0.51099999109E-03 0. -1.
       11   -1    0    0    0    0 -0.00000000000E+00 -0.00000000000E+00 -0.35740347158E-01  0.35744000000E-01  0.51099999109E-03 0.  1.
       22    1    1    2    0    0  0.22330920313E-01  0.12700088318E-01 -0.24842933393E-01  0.35737005818E-01  0.00000000000E+00 0.  1.
  9000001    1    1    2    0    0 -0.22330920313E-01 -0.12700088318E-01  0.24842933393E-01  0.35750994182E-01  0.10000000475E-02 0. -1.
</event>
<event>
 4   0  0.2441219E-02  0.9118800E+02  0.7818609E-02  0.1379984E+01
      -11   -1    0    0    0    0  0.00000000000E+00  0.00000000000E+00  0.35740347158E-01  0.35744000000E-01  0.51099999109E-03 0.  1.
       11   -1    0    0    0    0 -0.00000000000E+00 -0.00000000000E+00 -0.35740347158E-01  0.35744000000E-01  0.51099999109E-03 0. -1.
       22    1    1    2    0    0 -0.10253876687E-01  0.20408709973E-01 -0.27485926489E-01  0.35737005818E-01  0.00000000000E+00 0. -1.
  9000001    1    1    2    0    0  0.10253876687E-01 -0.20408709973E-01  0.27485926489E-01  0.35750994182E-01  0.10000000475E-02 0.  1.
</event>
<event>
 4   0  0.2441219E-02  0.9118800E+02  0.7818609E-02  0.1379984E+01
      -11   -1    0    0    0    0  0.00000000000E+00  0.00000000000E+00  0.35740347158E-01  0.35744000000E-01  0.51099999109E-03 0. -1.
       11   -1    0    0    0    0 -0.00000000000E+00 -0.00000000000E+00 -0.35740347158E-01  0.35744000000E-01  0.51099999109E-03 0.  1.
       22    1    1    2    0    0 -0.86612248931E-02  0.76249092382E-02 -0.33822736840E-01  0.35737005818E-01  0.00000000000E+00 0.  1.
  9000001    1    1    2    0    0  0.86612248931E-02 -0.76249092382E-02  0.33822736840E-01  0.35750994182E-01  0.10000000475E-02 0. -1.
</event>
<event>
 4   0  0.2441219E-02  0.9118800E+02  0.7818609E-02  0.1379984E+01
      -11   -1    0    0    0    0  0.00000000000E+00  0.00000000000E+00  0.35740347158E-01  0.35744000000E-01  0.51099999109E-03 0. -1.
       11   -1    0    0    0    0 -0.00000000000E+00 -0.00000000000E+00 -0.35740347158E-01  0.35744000000E-01  0.51099999109E-03 0.  1.
       22    1    1    2    0    0  0.13010327971E-01  0.20511649782E-01 -0.26213301475E-01  0.35737005818E-01  0.00000000000E+00 0.  1.
  9000001    1    1    2    0    0 -0.13010327971E-01 -0.20511649782E-01  0.26213301475E-01  0.35750994182E-01  0.10000000475E-02 0. -1.
</event>
<event>
 4   0  0.2441219E-02  0.9118800E+02  0.7818609E-02  0.1379984E+01
      -11   -1    0    0    0    0  0.00000000000E+00  0.00000000000E+00  0.35740347158E-01  0.35744000000E-01  0.51099999109E-03 0.  1.
       11   -1    0    0    0    0 -0.00000000000E+00 -0.00000000000E+00 -0.35740347158E-01  0.35744000000E-01  0.51099999109E-03 0. -1.
       22    1    1    2    0    0  0.31760430492E-02  0.35803781000E-02  0.35415070635E-01  0.35737005818E-01  0.00000000000E+00 0.  1.
  9000001    1    1    2    0    0 -0.31760430492E-02 -0.35803781000E-02 -0.35415070635E-01  0.35750994182E-01  0.10000000475E-02 0. -1.
</event>
<event>
 4   0  0.2441219E-02  0.9118800E+02  0.7818609E-02  0.1379984E+01
      -11   -1    0    0    0    0  0.00000000000E+00  0.00000000000E+00  0.35740347158E-01  0.35744000000E-01  0.51099999109E-03 0.  1.
       11   -1    0    0    0    0 -0.00000000000E+00 -0.00000000000E+00 -0.35740347158E-01  0.35744000000E-01  0.51099999109E-03 0. -1.
       22    1    1    2    0    0  0.35480130974E-01  0.42515856953E-02 -0.46680836519E-03  0.35737005818E-01  0.00000000000E+00 0. -1.
  9000001    1    1    2    0    0 -0.35480130974E-01 -0.42515856953E-02  0.46680836519E-03  0.35750994182E-01  0.10000000475E-02 0.  1.
</event>
<event>
 4   0  0.2441219E-02  0.9118800E+02  0.7818609E-02  0.1379984E+01
      -11   -1    0    0    0    0  0.00000000000E+00  0.00000000000E+00  0.35740347158E-01  0.35744000000E-01  0.51099999109E-03 0.  1.
       11   -1    0    0    0    0 -0.00000000000E+00 -0.00000000000E+00 -0.35740347158E-01  0.35744000000E-01  0.51099999109E-03 0. -1.
       22    1    1    2    0    0  0.11262538167E-01  0.36843300175E-02  0.33715197334E-01  0.35737005818E-01  0.00000000000E+00 0.  1.
  9000001    1    1    2    0    0 -0.11262538167E-01 -0.36843300175E-02 -0.33715197334E-01  0.35750994182E-01  0.10000000475E-02 0. -1.
</event>
<event>
 4   0  0.2441219E-02  0.9118800E+02  0.7818609E-02  0.1379984E+01
      -11   -1    0    0    0    0  0.00000000000E+00  0.00000000000E+00  0.35740347158E-01  0.35744000000E-01  0.51099999109E-03 0. -1.
       11   -1    0    0    0    0 -0.00000000000E+00 -0.00000000000E+00 -0.35740347158E-01  0.35744000000E-01  0.51099999109E-03 0.  1.
       22    1    1    2    0    0  0.67790159004E-02  0.75806710108E-02  0.34259479788E-01  0.35737005818E-01  0.00000000000E+00 0. -1.
  9000001    1    1    2    0    0 -0.67790159004E-02 -0.75806710108E-02 -0.34259479788E-01  0.35750994182E-01  0.10000000475E-02 0.  1.
</event>
<event>
 4   0  0.2441219E-02  0.9118800E+02  0.7818609E-02  0.1379984E+01
      -11   -1    0    0    0    0  0.00000000000E+00  0.00000000000E+00  0.35740347158E-01  0.35744000000E-01  0.51099999109E-03 0. -1.
       11   -1    0    0    0    0 -0.00000000000E+00 -0.00000000000E+00 -0.35740347158E-01  0.35744000000E-01  0.51099999109E-03 0.  1.
       22    1    1    2    0    0  0.15852338042E-02 -0.72427867574E-02  0.34959443054E-01  0.35737005818E-01  0.00000000000E+00 0. -1.
  9000001    1    1    2    0    0 -0.15852338042E-02  0.72427867574E-02 -0.34959443054E-01  0.35750994182E-01  0.10000000475E-02 0.  1.
</event>
<event>
 4   0  0.2441219E-02  0.9118800E+02  0.7818609E-02  0.1379984E+01
      -11   -1    0    0    0    0  0.00000000000E+00  0.00000000000E+00  0.35740347158E-01  0.35744000000E-01  0.51099999109E-03 0. -1.
       11   -1    0    0    0    0 -0.00000000000E+00 -0.00000000000E+00 -0.35740347158E-01  0.35744000000E-01  0.51099999109E-03 0.  1.
       22    1    1    2    0    0  0.86308870164E-02 -0.26182586359E-01 -0.22740130733E-01  0.35737005818E-01  0.00000000000E+00 0.  1.
  9000001    1    1    2    0    0 -0.86308870164E-02  0.26182586359E-01  0.22740130733E-01  0.35750994182E-01  0.10000000475E-02 0. -1.
</event>
<event>
 4   0  0.2441219E-02  0.9118800E+02  0.7818609E-02  0.1379984E+01
      -11   -1    0    0    0    0  0.00000000000E+00  0.00000000000E+00  0.35740347158E-01  0.35744000000E-01  0.51099999109E-03 0.  1.
       11   -1    0    0    0    0 -0.00000000000E+00 -0.00000000000E+00 -0.35740347158E-01  0.35744000000E-01  0.51099999109E-03 0. -1.
       22    1    1    2    0    0 -0.19447102145E-02 -0.25763075497E-02 -0.35590930396E-01  0.35737005818E-01  0.00000000000E+00 0. -1.
  9000001    1    1    2    0    0  0.19447102145E-02  0.25763075497E-02  0.35590930396E-01  0.35750994182E-01  0.10000000475E-02 0.  1.
</event>
<event>
 4   0  0.2441219E-02  0.9118800E+02  0.7818609E-02  0.1379984E+01
      -11   -1    0    0    0    0  0.00000000000E+00  0.00000000000E+00  0.35740347158E-01  0.35744000000E-01  0.51099999109E-03 0.  1.
       11   -1    0    0    0    0 -0.00000000000E+00 -0.00000000000E+00 -0.35740347158E-01  0.35744000000E-01  0.51099999109E-03 0. -1.
       22    1    1    2    0    0 -0.67453694135E-02  0.10146399614E-01  0.33595894857E-01  0.35737005818E-01  0.00000000000E+00 0.  1.
  9000001    1    1    2    0    0  0.67453694135E-02 -0.10146399614E-01 -0.33595894857E-01  0.35750994182E-01  0.10000000475E-02 0. -1.
</event>
<event>
 4   0  0.2441219E-02  0.9118800E+02  0.7818609E-02  0.1379984E+01
      -11   -1    0    0    0    0  0.00000000000E+00  0.00000000000E+00  0.35740347158E-01  0.35744000000E-01  0.51099999109E-03 0.  1.
       11   -1    0    0    0    0 -0.00000000000E+00 -0.00000000000E+00 -0.35740347158E-01  0.35744000000E-01  0.51099999109E-03 0. -1.
       22    1    1    2    0    0 -0.39850484415E-02 -0.50765688010E-03  0.35510495044E-01  0.35737005818E-01  0.00000000000E+00 0.  1.
  9000001    1    1    2    0    0  0.39850484415E-02  0.50765688010E-03 -0.35510495044E-01  0.35750994182E-01  0.10000000475E-02 0. -1.
</event>
<event>
 4   0  0.2441219E-02  0.9118800E+02  0.7818609E-02  0.1379984E+01
      -11   -1    0    0    0    0  0.00000000000E+00  0.00000000000E+00  0.35740347158E-01  0.35744000000E-01  0.51099999109E-03 0. -1.
       11   -1    0    0    0    0 -0.00000000000E+00 -0.00000000000E+00 -0.35740347158E-01  0.35744000000E-01  0.51099999109E-03 0.  1.
       22    1    1    2    0    0 -0.15976877848E-01 -0.31591494245E-02  0.31810261458E-01  0.35737005818E-01  0.00000000000E+00 0. -1.
  9000001    1    1    2    0    0  0.15976877848E-01  0.31591494245E-02 -0.31810261458E-01  0.35750994182E-01  0.10000000475E-02 0.  1.
</event>
<event>
 4   0  0.2441219E-02  0.9118800E+02  0.7818609E-02  0.1379984E+01
      -11   -1    0    0    0    0  0.00000000000E+00  0.00000000000E+00  0.35740347158E-01  0.35744000000E-01  0.51099999109E-03 0. -1.
       11   -1    0    0    0    0 -0.00000000000E+00 -0.00000000000E+00 -0.35740347158E-01  0.35744000000E-01  0.51099999109E-03 0.  1.
       22    1    1    2    0    0  0.98943119900E-02  0.49145984448E-02 -0.33986510519E-01  0.35737005818E-01  0.00000000000E+00 0.  1.
  9000001    1    1    2    0    0 -0.98943119900E-02 -0.49145984448E-02  0.33986510519E-01  0.35750994182E-01  0.10000000475E-02 0. -1.
</event>
<event>
 4   0  0.2441219E-02  0.9118800E+02  0.7818609E-02  0.1379984E+01
      -11   -1    0    0    0    0  0.00000000000E+00  0.00000000000E+00  0.35740347158E-01  0.35744000000E-01  0.51099999109E-03 0.  1.
       11   -1    0    0    0    0 -0.00000000000E+00 -0.00000000000E+00 -0.35740347158E-01  0.35744000000E-01  0.51099999109E-03 0. -1.
       22    1    1    2    0    0  0.17807768423E-01 -0.28253688011E-02  0.30855052419E-01  0.35737005818E-01  0.00000000000E+00 0.  1.
  9000001    1    1    2    0    0 -0.17807768423E-01  0.28253688011E-02 -0.30855052419E-01  0.35750994182E-01  0.10000000475E-02 0. -1.
</event>
<event>
 4   0  0.2441219E-02  0.9118800E+02  0.7818609E-02  0.1379984E+01
      -11   -1    0    0    0    0  0.00000000000E+00  0.00000000000E+00  0.35740347158E-01  0.35744000000E-01  0.51099999109E-03 0.  1.
       11   -1    0    0    0    0 -0.00000000000E+00 -0.00000000000E+00 -0.35740347158E-01  0.35744000000E-01  0.51099999109E-03 0. -1.
       22    1    1    2    0    0 -0.92580894545E-02  0.11567471740E-01  0.32520992636E-01  0.35737005818E-01  0.00000000000E+00 0.  1.
  9000001    1    1    2    0    0  0.92580894545E-02 -0.11567471740E-01 -0.32520992636E-01  0.35750994182E-01  0.10000000475E-02 0. -1.
</event>
<event>
 4   0  0.2441219E-02  0.9118800E+02  0.7818609E-02  0.1379984E+01
      -11   -1    0    0    0    0  0.00000000000E+00  0.00000000000E+00  0.35740347158E-01  0.35744000000E-01  0.51099999109E-03 0.  1.
       11   -1    0    0    0    0 -0.00000000000E+00 -0.00000000000E+00 -0.35740347158E-01  0.35744000000E-01  0.51099999109E-03 0. -1.
       22    1    1    2    0    0  0.43904221707E-02 -0.78643814611E-02  0.34583367133E-01  0.35737005818E-01  0.00000000000E+00 0.  1.
  9000001    1    1    2    0    0 -0.43904221707E-02  0.78643814611E-02 -0.34583367133E-01  0.35750994182E-01  0.10000000475E-02 0. -1.
</event>
<event>
 4   0  0.2441219E-02  0.9118800E+02  0.7818609E-02  0.1379984E+01
      -11   -1    0    0    0    0  0.00000000000E+00  0.00000000000E+00  0.35740347158E-01  0.35744000000E-01  0.51099999109E-03 0.  1.
       11   -1    0    0    0    0 -0.00000000000E+00 -0.00000000000E+00 -0.35740347158E-01  0.35744000000E-01  0.51099999109E-03 0. -1.
       22    1    1    2    0    0 -0.14116332629E-02  0.25025680710E-01 -0.25472655562E-01  0.35737005818E-01  0.00000000000E+00 0. -1.
  9000001    1    1    2    0    0  0.14116332629E-02 -0.25025680710E-01  0.25472655562E-01  0.35750994182E-01  0.10000000475E-02 0.  1.
</event>
<event>
 4   0  0.2441219E-02  0.9118800E+02  0.7818609E-02  0.1379984E+01
      -11   -1    0    0    0    0  0.00000000000E+00  0.00000000000E+00  0.35740347158E-01  0.35744000000E-01  0.51099999109E-03 0. -1.
       11   -1    0    0    0    0 -0.00000000000E+00 -0.00000000000E+00 -0.35740347158E-01  0.35744000000E-01  0.51099999109E-03 0.  1.
       22    1    1    2    0    0 -0.12468901452E-01 -0.49974414331E-04 -0.33491156803E-01  0.35737005818E-01  0.00000000000E+00 0.  1.
  9000001    1    1    2    0    0  0.12468901452E-01  0.49974414331E-04  0.33491156803E-01  0.35750994182E-01  0.10000000475E-02 0. -1.
</event>
<event>
 4   0  0.2441219E-02  0.9118800E+02  0.7818609E-02  0.1379984E+01
      -11   -1    0    0    0    0  0.00000000000E+00  0.00000000000E+00  0.35740347158E-01  0.35744000000E-01  0.51099999109E-03 0. -1.
       11   -1    0    0    0    0 -0.00000000000E+00 -0.00000000000E+00 -0.35740347158E-01  0.35744000000E-01  0.51099999109E-03 0.  1.
       22    1    1    2    0    0 -0.40615589784E-02 -0.25554048869E-02 -0.35413376419E-01  0.35737005818E-01  0.00000000000E+00 0.  1.
  9000001    1    1    2    0    0  0.40615589784E-02  0.25554048869E-02  0.35413376419E-01  0.35750994182E-01  0.10000000475E-02 0. -1.
</event>
<event>
 4   0  0.2441219E-02  0.9118800E+02  0.7818609E-02  0.1379984E+01
      -11   -1    0    0    0    0  0.00000000000E+00  0.00000000000E+00  0.35740347158E-01  0.35744000000E-01  0.51099999109E-03 0. -1.
       11   -1    0    0    0    0 -0.00000000000E+00 -0.00000000000E+00 -0.35740347158E-01  0.35744000000E-01  0.51099999109E-03 0.  1.
       22    1    1    2    0    0  0.92716519576E-02  0.28737542635E-01 -0.19113442865E-01  0.35737005818E-01  0.00000000000E+00 0.  1.
  9000001    1    1    2    0    0 -0.92716519576E-02 -0.28737542635E-01  0.19113442865E-01  0.35750994182E-01  0.10000000475E-02 0. -1.
</event>
<event>
 4   0  0.2441219E-02  0.9118800E+02  0.7818609E-02  0.1379984E+01
      -11   -1    0    0    0    0  0.00000000000E+00  0.00000000000E+00  0.35740347158E-01  0.35744000000E-01  0.51099999109E-03 0.  1.
       11   -1    0    0    0    0 -0.00000000000E+00 -0.00000000000E+00 -0.35740347158E-01  0.35744000000E-01  0.51099999109E-03 0. -1.
       22    1    1    2    0    0  0.16495318978E-01  0.28561179362E-01  0.13758527180E-01  0.35737005818E-01  0.00000000000E+00 0.  1.
  9000001    1    1    2    0    0 -0.16495318978E-01 -0.28561179362E-01 -0.13758527180E-01  0.35750994182E-01  0.10000000475E-02 0. -1.
</event>
<event>
 4   0  0.2441219E-02  0.9118800E+02  0.7818609E-02  0.1379984E+01
      -11   -1    0    0    0    0  0.00000000000E+00  0.00000000000E+00  0.35740347158E-01  0.35744000000E-01  0.51099999109E-03 0.  1.
       11   -1    0    0    0    0 -0.00000000000E+00 -0.00000000000E+00 -0.35740347158E-01  0.35744000000E-01  0.51099999109E-03 0. -1.
       22    1    1    2    0    0 -0.87109691690E-02 -0.34157400625E-01  0.58757623813E-02  0.35737005818E-01  0.00000000000E+00 0. -1.
  9000001    1    1    2    0    0  0.87109691690E-02  0.34157400625E-01 -0.58757623813E-02  0.35750994182E-01  0.10000000475E-02 0.  1.
</event>
<event>
 4   0  0.2441219E-02  0.9118800E+02  0.7818609E-02  0.1379984E+01
      -11   -1    0    0    0    0  0.00000000000E+00  0.00000000000E+00  0.35740347158E-01  0.35744000000E-01  0.51099999109E-03 0.  1.
       11   -1    0    0    0    0 -0.00000000000E+00 -0.00000000000E+00 -0.35740347158E-01  0.35744000000E-01  0.51099999109E-03 0. -1.
       22    1    1    2    0    0  0.14918763375E-02  0.90520051930E-02 -0.34539384648E-01  0.35737005818E-01  0.00000000000E+00 0. -1.
  9000001    1    1    2    0    0 -0.14918763375E-02 -0.90520051930E-02  0.34539384648E-01  0.35750994182E-01  0.10000000475E-02 0.  1.
</event>
<event>
 4   0  0.2441219E-02  0.9118800E+02  0.7818609E-02  0.1379984E+01
      -11   -1    0    0    0    0  0.00000000000E+00  0.00000000000E+00  0.35740347158E-01  0.35744000000E-01  0.51099999109E-03 0. -1.
       11   -1    0    0    0    0 -0.00000000000E+00 -0.00000000000E+00 -0.35740347158E-01  0.35744000000E-01  0.51099999109E-03 0.  1.
       22    1    1    2    0    0 -0.69975855660E-02 -0.15004575665E-01  0.31670650297E-01  0.35737005818E-01  0.00000000000E+00 0. -1.
  9000001    1    1    2    0    0  0.69975855660E-02  0.15004575665E-01 -0.31670650297E-01  0.35750994182E-01  0.10000000475E-02 0.  1.
</event>
<event>
 4   0  0.2441219E-02  0.9118800E+02  0.7818609E-02  0.1379984E+01
      -11   -1    0    0    0    0  0.00000000000E+00  0.00000000000E+00  0.35740347158E-01  0.35744000000E-01  0.51099999109E-03 0.  1.
       11   -1    0    0    0    0 -0.00000000000E+00 -0.00000000000E+00 -0.35740347158E-01  0.35744000000E-01  0.51099999109E-03 0. -1.
       22    1    1    2    0    0  0.50021847059E-02 -0.18000209874E-02  0.35339378284E-01  0.35737005818E-01  0.00000000000E+00 0.  1.
  9000001    1    1    2    0    0 -0.50021847059E-02  0.18000209874E-02 -0.35339378284E-01  0.35750994182E-01  0.10000000475E-02 0. -1.
</event>
<event>
 4   0  0.2441219E-02  0.9118800E+02  0.7818609E-02  0.1379984E+01
      -11   -1    0    0    0    0  0.00000000000E+00  0.00000000000E+00  0.35740347158E-01  0.35744000000E-01  0.51099999109E-03 0.  1.
       11   -1    0    0    0    0 -0.00000000000E+00 -0.00000000000E+00 -0.35740347158E-01  0.35744000000E-01  0.51099999109E-03 0. -1.
       22    1    1    2    0    0 -0.14166174092E-01 -0.32798046933E-01 -0.86093777168E-03  0.35737005818E-01  0.00000000000E+00 0.  1.
  9000001    1    1    2    0    0  0.14166174092E-01  0.32798046933E-01  0.86093777168E-03  0.35750994182E-01  0.10000000475E-02 0. -1.
</event>
<event>
 4   0  0.2441219E-02  0.9118800E+02  0.7818609E-02  0.1379984E+01
      -11   -1    0    0    0    0  0.00000000000E+00  0.00000000000E+00  0.35740347158E-01  0.35744000000E-01  0.51099999109E-03 0.  1.
       11   -1    0    0    0    0 -0.00000000000E+00 -0.00000000000E+00 -0.35740347158E-01  0.35744000000E-01  0.51099999109E-03 0. -1.
       22    1    1    2    0    0 -0.20408990881E-01 -0.14805041886E-01 -0.25326219830E-01  0.35737005818E-01  0.00000000000E+00 0. -1.
  9000001    1    1    2    0    0  0.20408990881E-01  0.14805041886E-01  0.25326219830E-01  0.35750994182E-01  0.10000000475E-02 0.  1.
</event>
<event>
 4   0  0.2441219E-02  0.9118800E+02  0.7818609E-02  0.1379984E+01
      -11   -1    0    0    0    0  0.00000000000E+00  0.00000000000E+00  0.35740347158E-01  0.35744000000E-01  0.51099999109E-03 0.  1.
       11   -1    0    0    0    0 -0.00000000000E+00 -0.00000000000E+00 -0.35740347158E-01  0.35744000000E-01  0.51099999109E-03 0. -1.
       22    1    1    2    0    0 -0.15191162536E-02  0.79587466367E-02 -0.34806381924E-01  0.35737005818E-01  0.00000000000E+00 0. -1.
  9000001    1    1    2    0    0  0.15191162536E-02 -0.79587466367E-02  0.34806381924E-01  0.35750994182E-01  0.10000000475E-02 0.  1.
</event>
<event>
 4   0  0.2441219E-02  0.9118800E+02  0.7818609E-02  0.1379984E+01
      -11   -1    0    0    0    0  0.00000000000E+00  0.00000000000E+00  0.35740347158E-01  0.35744000000E-01  0.51099999109E-03 0. -1.
       11   -1    0    0    0    0 -0.00000000000E+00 -0.00000000000E+00 -0.35740347158E-01  0.35744000000E-01  0.51099999109E-03 0.  1.
       22    1    1    2    0    0  0.10869169905E-02  0.29442027459E-02  0.35598930693E-01  0.35737005818E-01  0.00000000000E+00 0. -1.
  9000001    1    1    2    0    0 -0.10869169905E-02 -0.29442027459E-02 -0.35598930693E-01  0.35750994182E-01  0.10000000475E-02 0.  1.
</event>
<event>
 4   0  0.2441219E-02  0.9118800E+02  0.7818609E-02  0.1379984E+01
      -11   -1    0    0    0    0  0.00000000000E+00  0.00000000000E+00  0.35740347158E-01  0.35744000000E-01  0.51099999109E-03 0.  1.
       11   -1    0    0    0    0 -0.00000000000E+00 -0.00000000000E+00 -0.35740347158E-01  0.35744000000E-01  0.51099999109E-03 0. -1.
       22    1    1    2    0    0 -0.53631946960E-02  0.91394844613E-03 -0.35320453363E-01  0.35737005818E-01  0.00000000000E+00 0. -1.
  9000001    1    1    2    0    0  0.53631946960E-02 -0.91394844613E-03  0.35320453363E-01  0.35750994182E-01  0.10000000475E-02 0.  1.
</event>
<event>
 4   0  0.2441219E-02  0.9118800E+02  0.7818609E-02  0.1379984E+01
      -11   -1    0    0    0    0  0.00000000000E+00  0.00000000000E+00  0.35740347158E-01  0.35744000000E-01  0.51099999109E-03 0. -1.
       11   -1    0    0    0    0 -0.00000000000E+00 -0.00000000000E+00 -0.35740347158E-01  0.35744000000E-01  0.51099999109E-03 0.  1.
       22    1    1    2    0    0  0.13481256187E-01  0.50397295807E-02 -0.32710708373E-01  0.35737005818E-01  0.00000000000E+00 0.  1.
  9000001    1    1    2    0    0 -0.13481256187E-01 -0.50397295807E-02  0.32710708373E-01  0.35750994182E-01  0.10000000475E-02 0. -1.
</event>
<event>
 4   0  0.2441219E-02  0.9118800E+02  0.7818609E-02  0.1379984E+01
      -11   -1    0    0    0    0  0.00000000000E+00  0.00000000000E+00  0.35740347158E-01  0.35744000000E-01  0.51099999109E-03 0. -1.
       11   -1    0    0    0    0 -0.00000000000E+00 -0.00000000000E+00 -0.35740347158E-01  0.35744000000E-01  0.51099999109E-03 0.  1.
       22    1    1    2    0    0  0.54475115372E-02  0.20161521336E-02 -0.35261782903E-01  0.35737005818E-01  0.00000000000E+00 0.  1.
  9000001    1    1    2    0    0 -0.54475115372E-02 -0.20161521336E-02  0.35261782903E-01  0.35750994182E-01  0.10000000475E-02 0. -1.
</event>
<event>
 4   0  0.2441219E-02  0.9118800E+02  0.7818609E-02  0.1379984E+01
      -11   -1    0    0    0    0  0.00000000000E+00  0.00000000000E+00  0.35740347158E-01  0.35744000000E-01  0.51099999109E-03 0.  1.
       11   -1    0    0    0    0 -0.00000000000E+00 -0.00000000000E+00 -0.35740347158E-01  0.35744000000E-01  0.51099999109E-03 0. -1.
       22    1    1    2    0    0  0.83912127338E-03 -0.20442653297E-01  0.29300637988E-01  0.35737005818E-01  0.00000000000E+00 0.  1.
  9000001    1    1    2    0    0 -0.83912127338E-03  0.20442653297E-01 -0.29300637988E-01  0.35750994182E-01  0.10000000475E-02 0. -1.
</event>
<event>
 4   0  0.2441219E-02  0.9118800E+02  0.7818609E-02  0.1379984E+01
      -11   -1    0    0    0    0  0.00000000000E+00  0.00000000000E+00  0.35740347158E-01  0.35744000000E-01  0.51099999109E-03 0. -1.
       11   -1    0    0    0    0 -0.00000000000E+00 -0.00000000000E+00 -0.35740347158E-01  0.35744000000E-01  0.51099999109E-03 0.  1.
       22    1    1    2    0    0  0.16241851908E-04  0.61551794428E-02 -0.35202941455E-01  0.35737005818E-01  0.00000000000E+00 0.  1.
  9000001    1    1    2    0    0 -0.16241851908E-04 -0.61551794428E-02  0.35202941455E-01  0.35750994182E-01  0.10000000475E-02 0. -1.
</event>
<event>
 4   0  0.2441219E-02  0.9118800E+02  0.7818609E-02  0.1379984E+01
      -11   -1    0    0    0    0  0.00000000000E+00  0.00000000000E+00  0.35740347158E-01  0.35744000000E-01  0.51099999109E-03 0. -1.
       11   -1    0    0    0    0 -0.00000000000E+00 -0.00000000000E+00 -0.35740347158E-01  0.35744000000E-01  0.51099999109E-03 0.  1.
       22    1    1    2    0    0  0.28607046259E-02  0.96199186959E-02 -0.34298791789E-01  0.35737005818E-01  0.00000000000E+00 0.  1.
  9000001    1    1    2    0    0 -0.28607046259E-02 -0.96199186959E-02  0.34298791789E-01  0.35750994182E-01  0.10000000475E-02 0. -1.
</event>
<event>
 4   0  0.2441219E-02  0.9118800E+02  0.7818609E-02  0.1379984E+01
      -11   -1    0    0    0    0  0.00000000000E+00  0.00000000000E+00  0.35740347158E-01  0.35744000000E-01  0.51099999109E-03 0.  1.
       11   -1    0    0    0    0 -0.00000000000E+00 -0.00000000000E+00 -0.35740347158E-01  0.35744000000E-01  0.51099999109E-03 0. -1.
       22    1    1    2    0    0 -0.29402114808E-02 -0.84440941258E-03  0.35605838202E-01  0.35737005818E-01  0.00000000000E+00 0.  1.
  9000001    1    1    2    0    0  0.29402114808E-02  0.84440941258E-03 -0.35605838202E-01  0.35750994182E-01  0.10000000475E-02 0. -1.
</event>
<event>
 4   0  0.2441219E-02  0.9118800E+02  0.7818609E-02  0.1379984E+01
      -11   -1    0    0    0    0  0.00000000000E+00  0.00000000000E+00  0.35740347158E-01  0.35744000000E-01  0.51099999109E-03 0.  1.
       11   -1    0    0    0    0 -0.00000000000E+00 -0.00000000000E+00 -0.35740347158E-01  0.35744000000E-01  0.51099999109E-03 0. -1.
       22    1    1    2    0    0  0.15683341011E-02  0.57915405939E-02 -0.35229702959E-01  0.35737005818E-01  0.00000000000E+00 0. -1.
  9000001    1    1    2    0    0 -0.15683341011E-02 -0.57915405939E-02  0.35229702959E-01  0.35750994182E-01  0.10000000475E-02 0.  1.
</event>
<event>
 4   0  0.2441219E-02  0.9118800E+02  0.7818609E-02  0.1379984E+01
      -11   -1    0    0    0    0  0.00000000000E+00  0.00000000000E+00  0.35740347158E-01  0.35744000000E-01  0.51099999109E-03 0. -1.
       11   -1    0    0    0    0 -0.00000000000E+00 -0.00000000000E+00 -0.35740347158E-01  0.35744000000E-01  0.51099999109E-03 0.  1.
       22    1    1    2    0    0  0.68158619793E-03  0.44214533851E-02 -0.35455884915E-01  0.35737005818E-01  0.00000000000E+00 0.  1.
  9000001    1    1    2    0    0 -0.68158619793E-03 -0.44214533851E-02  0.35455884915E-01  0.35750994182E-01  0.10000000475E-02 0. -1.
</event>
<event>
 4   0  0.2441219E-02  0.9118800E+02  0.7818609E-02  0.1379984E+01
      -11   -1    0    0    0    0  0.00000000000E+00  0.00000000000E+00  0.35740347158E-01  0.35744000000E-01  0.51099999109E-03 0.  1.
       11   -1    0    0    0    0 -0.00000000000E+00 -0.00000000000E+00 -0.35740347158E-01  0.35744000000E-01  0.51099999109E-03 0. -1.
       22    1    1    2    0    0 -0.17496441441E-01  0.22363834645E-01 -0.21699470541E-01  0.35737005818E-01  0.00000000000E+00 0. -1.
  9000001    1    1    2    0    0  0.17496441441E-01 -0.22363834645E-01  0.21699470541E-01  0.35750994182E-01  0.10000000475E-02 0.  1.
</event>
<event>
 4   0  0.2441219E-02  0.9118800E+02  0.7818609E-02  0.1379984E+01
      -11   -1    0    0    0    0  0.00000000000E+00  0.00000000000E+00  0.35740347158E-01  0.35744000000E-01  0.51099999109E-03 0. -1.
       11   -1    0    0    0    0 -0.00000000000E+00 -0.00000000000E+00 -0.35740347158E-01  0.35744000000E-01  0.51099999109E-03 0.  1.
       22    1    1    2    0    0 -0.63894618721E-02  0.16602104357E-01 -0.30994813966E-01  0.35737005818E-01  0.00000000000E+00 0.  1.
  9000001    1    1    2    0    0  0.63894618721E-02 -0.16602104357E-01  0.30994813966E-01  0.35750994182E-01  0.10000000475E-02 0. -1.
</event>
<event>
 4   0  0.2441219E-02  0.9118800E+02  0.7818609E-02  0.1379984E+01
      -11   -1    0    0    0    0  0.00000000000E+00  0.00000000000E+00  0.35740347158E-01  0.35744000000E-01  0.51099999109E-03 0. -1.
       11   -1    0    0    0    0 -0.00000000000E+00 -0.00000000000E+00 -0.35740347158E-01  0.35744000000E-01  0.51099999109E-03 0.  1.
       22    1    1    2    0    0  0.28239295709E-01  0.17638960716E-01 -0.12982404537E-01  0.35737005818E-01  0.00000000000E+00 0.  1.
  9000001    1    1    2    0    0 -0.28239295709E-01 -0.17638960716E-01  0.12982404537E-01  0.35750994182E-01  0.10000000475E-02 0. -1.
</event>
<event>
 4   0  0.2441219E-02  0.9118800E+02  0.7818609E-02  0.1379984E+01
      -11   -1    0    0    0    0  0.00000000000E+00  0.00000000000E+00  0.35740347158E-01  0.35744000000E-01  0.51099999109E-03 0.  1.
       11   -1    0    0    0    0 -0.00000000000E+00 -0.00000000000E+00 -0.35740347158E-01  0.35744000000E-01  0.51099999109E-03 0. -1.
       22    1    1    2    0    0  0.11259172845E-02  0.20440600449E-01  0.29292452072E-01  0.35737005818E-01  0.00000000000E+00 0.  1.
  9000001    1    1    2    0    0 -0.11259172845E-02 -0.20440600449E-01 -0.29292452072E-01  0.35750994182E-01  0.10000000475E-02 0. -1.
</event>
<event>
 4   0  0.2441219E-02  0.9118800E+02  0.7818609E-02  0.1379984E+01
      -11   -1    0    0    0    0  0.00000000000E+00  0.00000000000E+00  0.35740347158E-01  0.35744000000E-01  0.51099999109E-03 0. -1.
       11   -1    0    0    0    0 -0.00000000000E+00 -0.00000000000E+00 -0.35740347158E-01  0.35744000000E-01  0.51099999109E-03 0.  1.
       22    1    1    2    0    0  0.63954874294E-02  0.90990536259E-02 -0.33962310706E-01  0.35737005818E-01  0.00000000000E+00 0.  1.
  9000001    1    1    2    0    0 -0.63954874294E-02 -0.90990536259E-02  0.33962310706E-01  0.35750994182E-01  0.10000000475E-02 0. -1.
</event>
<event>
 4   0  0.2441219E-02  0.9118800E+02  0.7818609E-02  0.1379984E+01
      -11   -1    0    0    0    0  0.00000000000E+00  0.00000000000E+00  0.35740347158E-01  0.35744000000E-01  0.51099999109E-03 0. -1.
       11   -1    0    0    0    0 -0.00000000000E+00 -0.00000000000E+00 -0.35740347158E-01  0.35744000000E-01  0.51099999109E-03 0.  1.
       22    1    1    2    0    0 -0.37171733522E-03 -0.67215159420E-02 -0.35097245398E-01  0.35737005818E-01  0.00000000000E+00 0.  1.
  9000001    1    1    2    0    0  0.37171733522E-03  0.67215159420E-02  0.35097245398E-01  0.35750994182E-01  0.10000000475E-02 0. -1.
</event>
<event>
 4   0  0.2441219E-02  0.9118800E+02  0.7818609E-02  0.1379984E+01
      -11   -1    0    0    0    0  0.00000000000E+00  0.00000000000E+00  0.35740347158E-01  0.35744000000E-01  0.51099999109E-03 0.  1.
       11   -1    0    0    0    0 -0.00000000000E+00 -0.00000000000E+00 -0.35740347158E-01  0.35744000000E-01  0.51099999109E-03 0. -1.
       22    1    1    2    0    0 -0.35378017922E-01 -0.29806656021E-02 -0.40798364340E-02  0.35737005818E-01  0.00000000000E+00 0. -1.
  9000001    1    1    2    0    0  0.35378017922E-01  0.29806656021E-02  0.40798364340E-02  0.35750994182E-01  0.10000000475E-02 0.  1.
</event>
<event>
 4   0  0.2441219E-02  0.9118800E+02  0.7818609E-02  0.1379984E+01
      -11   -1    0    0    0    0  0.00000000000E+00  0.00000000000E+00  0.35740347158E-01  0.35744000000E-01  0.51099999109E-03 0. -1.
       11   -1    0    0    0    0 -0.00000000000E+00 -0.00000000000E+00 -0.35740347158E-01  0.35744000000E-01  0.51099999109E-03 0.  1.
       22    1    1    2    0    0  0.22917474166E-01  0.26978116993E-01 -0.49095993953E-02  0.35737005818E-01  0.00000000000E+00 0.  1.
  9000001    1    1    2    0    0 -0.22917474166E-01 -0.26978116993E-01  0.49095993953E-02  0.35750994182E-01  0.10000000475E-02 0. -1.
</event>
<event>
 4   0  0.2441219E-02  0.9118800E+02  0.7818609E-02  0.1379984E+01
      -11   -1    0    0    0    0  0.00000000000E+00  0.00000000000E+00  0.35740347158E-01  0.35744000000E-01  0.51099999109E-03 0.  1.
       11   -1    0    0    0    0 -0.00000000000E+00 -0.00000000000E+00 -0.35740347158E-01  0.35744000000E-01  0.51099999109E-03 0. -1.
       22    1    1    2    0    0  0.40910170200E-02  0.57463782358E-02 -0.35033930721E-01  0.35737005818E-01  0.00000000000E+00 0. -1.
  9000001    1    1    2    0    0 -0.40910170200E-02 -0.57463782358E-02  0.35033930721E-01  0.35750994182E-01  0.10000000475E-02 0.  1.
</event>
<event>
 4   0  0.2441219E-02  0.9118800E+02  0.7818609E-02  0.1379984E+01
      -11   -1    0    0    0    0  0.00000000000E+00  0.00000000000E+00  0.35740347158E-01  0.35744000000E-01  0.51099999109E-03 0.  1.
       11   -1    0    0    0    0 -0.00000000000E+00 -0.00000000000E+00 -0.35740347158E-01  0.35744000000E-01  0.51099999109E-03 0. -1.
       22    1    1    2    0    0 -0.11563091943E-01  0.35373239847E-02  0.33629091998E-01  0.35737005818E-01  0.00000000000E+00 0.  1.
  9000001    1    1    2    0    0  0.11563091943E-01 -0.35373239847E-02 -0.33629091998E-01  0.35750994182E-01  0.10000000475E-02 0. -1.
</event>
<event>
 4   0  0.2441219E-02  0.9118800E+02  0.7818609E-02  0.1379984E+01
      -11   -1    0    0    0    0  0.00000000000E+00  0.00000000000E+00  0.35740347158E-01  0.35744000000E-01  0.51099999109E-03 0. -1.
       11   -1    0    0    0    0 -0.00000000000E+00 -0.00000000000E+00 -0.35740347158E-01  0.35744000000E-01  0.51099999109E-03 0.  1.
       22    1    1    2    0    0  0.26703446147E-02 -0.23249665652E-01  0.27008441118E-01  0.35737005818E-01  0.00000000000E+00 0. -1.
  9000001    1    1    2    0    0 -0.26703446147E-02  0.23249665652E-01 -0.27008441118E-01  0.35750994182E-01  0.10000000475E-02 0.  1.
</event>
<event>
 4   0  0.2441219E-02  0.9118800E+02  0.7818609E-02  0.1379984E+01
      -11   -1    0    0    0    0  0.00000000000E+00  0.00000000000E+00  0.35740347158E-01  0.35744000000E-01  0.51099999109E-03 0.  1.
       11   -1    0    0    0    0 -0.00000000000E+00 -0.00000000000E+00 -0.35740347158E-01  0.35744000000E-01  0.51099999109E-03 0. -1.
       22    1    1    2    0    0  0.16146913694E-01 -0.13820705581E-01 -0.28729755660E-01  0.35737005818E-01  0.00000000000E+00 0. -1.
  9000001    1    1    2    0    0 -0.16146913694E-01  0.13820705581E-01  0.28729755660E-01  0.35750994182E-01  0.10000000475E-02 0.  1.
</event>
<event>
 4   0  0.2441219E-02  0.9118800E+02  0.7818609E-02  0.1379984E+01
      -11   -1    0    0    0    0  0.00000000000E+00  0.00000000000E+00  0.35740347158E-01  0.35744000000E-01  0.51099999109E-03 0. -1.
       11   -1    0    0    0    0 -0.00000000000E+00 -0.00000000000E+00 -0.35740347158E-01  0.35744000000E-01  0.51099999109E-03 0.  1.
       22    1    1    2    0    0  0.11039656882E-01  0.30048554206E-03  0.33987781176E-01  0.35737005818E-01  0.00000000000E+00 0. -1.
  9000001    1    1    2    0    0 -0.11039656882E-01 -0.30048554206E-03 -0.33987781176E-01  0.35750994182E-01  0.10000000475E-02 0.  1.
</event>
<event>
 4   0  0.2441219E-02  0.9118800E+02  0.7818609E-02  0.1379984E+01
      -11   -1    0    0    0    0  0.00000000000E+00  0.00000000000E+00  0.35740347158E-01  0.35744000000E-01  0.51099999109E-03 0. -1.
       11   -1    0    0    0    0 -0.00000000000E+00 -0.00000000000E+00 -0.35740347158E-01  0.35744000000E-01  0.51099999109E-03 0.  1.
       22    1    1    2    0    0  0.69539097180E-02  0.23874316419E-02  0.34972516276E-01  0.35737005818E-01  0.00000000000E+00 0. -1.
  9000001    1    1    2    0    0 -0.69539097180E-02 -0.23874316419E-02 -0.34972516276E-01  0.35750994182E-01  0.10000000475E-02 0.  1.
</event>
<event>
 4   0  0.2441219E-02  0.9118800E+02  0.7818609E-02  0.1379984E+01
      -11   -1    0    0    0    0  0.00000000000E+00  0.00000000000E+00  0.35740347158E-01  0.35744000000E-01  0.51099999109E-03 0.  1.
       11   -1    0    0    0    0 -0.00000000000E+00 -0.00000000000E+00 -0.35740347158E-01  0.35744000000E-01  0.51099999109E-03 0. -1.
       22    1    1    2    0    0 -0.39498343058E-02  0.23601856374E-01  0.26542131970E-01  0.35737005818E-01  0.00000000000E+00 0.  1.
  9000001    1    1    2    0    0  0.39498343058E-02 -0.23601856374E-01 -0.26542131970E-01  0.35750994182E-01  0.10000000475E-02 0. -1.
</event>
<event>
 4   0  0.2441219E-02  0.9118800E+02  0.7818609E-02  0.1379984E+01
      -11   -1    0    0    0    0  0.00000000000E+00  0.00000000000E+00  0.35740347158E-01  0.35744000000E-01  0.51099999109E-03 0.  1.
       11   -1    0    0    0    0 -0.00000000000E+00 -0.00000000000E+00 -0.35740347158E-01  0.35744000000E-01  0.51099999109E-03 0. -1.
       22    1    1    2    0    0 -0.46287026545E-02 -0.55142991604E-02 -0.35004302612E-01  0.35737005818E-01  0.00000000000E+00 0. -1.
  9000001    1    1    2    0    0  0.46287026545E-02  0.55142991604E-02  0.35004302612E-01  0.35750994182E-01  0.10000000475E-02 0.  1.
</event>
<event>
 4   0  0.2441219E-02  0.9118800E+02  0.7818609E-02  0.1379984E+01
      -11   -1    0    0    0    0  0.00000000000E+00  0.00000000000E+00  0.35740347158E-01  0.35744000000E-01  0.51099999109E-03 0. -1.
       11   -1    0    0    0    0 -0.00000000000E+00 -0.00000000000E+00 -0.35740347158E-01  0.35744000000E-01  0.51099999109E-03 0.  1.
       22    1    1    2    0    0 -0.65902308795E-02  0.94677424675E-02 -0.33824019489E-01  0.35737005818E-01  0.00000000000E+00 0.  1.
  9000001    1    1    2    0    0  0.65902308795E-02 -0.94677424675E-02  0.33824019489E-01  0.35750994182E-01  0.10000000475E-02 0. -1.
</event>
<event>
 4   0  0.2441219E-02  0.9118800E+02  0.7818609E-02  0.1379984E+01
      -11   -1    0    0    0    0  0.00000000000E+00  0.00000000000E+00  0.35740347158E-01  0.35744000000E-01  0.51099999109E-03 0.  1.
       11   -1    0    0    0    0 -0.00000000000E+00 -0.00000000000E+00 -0.35740347158E-01  0.35744000000E-01  0.51099999109E-03 0. -1.
       22    1    1    2    0    0 -0.31766839447E-02 -0.27949365540E-03 -0.35594439837E-01  0.35737005818E-01  0.00000000000E+00 0. -1.
  9000001    1    1    2    0    0  0.31766839447E-02  0.27949365540E-03  0.35594439837E-01  0.35750994182E-01  0.10000000475E-02 0.  1.
</event>
<event>
 4   0  0.2441219E-02  0.9118800E+02  0.7818609E-02  0.1379984E+01
      -11   -1    0    0    0    0  0.00000000000E+00  0.00000000000E+00  0.35740347158E-01  0.35744000000E-01  0.51099999109E-03 0. -1.
       11   -1    0    0    0    0 -0.00000000000E+00 -0.00000000000E+00 -0.35740347158E-01  0.35744000000E-01  0.51099999109E-03 0.  1.
       22    1    1    2    0    0 -0.26354820231E-02  0.25045028099E-02  0.35551586252E-01  0.35737005818E-01  0.00000000000E+00 0. -1.
  9000001    1    1    2    0    0  0.26354820231E-02 -0.25045028099E-02 -0.35551586252E-01  0.35750994182E-01  0.10000000475E-02 0.  1.
</event>
<event>
 4   0  0.2441219E-02  0.9118800E+02  0.7818609E-02  0.1379984E+01
      -11   -1    0    0    0    0  0.00000000000E+00  0.00000000000E+00  0.35740347158E-01  0.35744000000E-01  0.51099999109E-03 0. -1.
       11   -1    0    0    0    0 -0.00000000000E+00 -0.00000000000E+00 -0.35740347158E-01  0.35744000000E-01  0.51099999109E-03 0.  1.
       22    1    1    2    0    0 -0.36228556282E-02 -0.14955375900E-01 -0.32254383169E-01  0.35737005818E-01  0.00000000000E+00 0.  1.
  9000001    1    1    2    0    0  0.36228556282E-02  0.14955375900E-01  0.32254383169E-01  0.35750994182E-01  0.10000000475E-02 0. -1.
</event>
<event>
 4   0  0.2441219E-02  0.9118800E+02  0.7818609E-02  0.1379984E+01
      -11   -1    0    0    0    0  0.00000000000E+00  0.00000000000E+00  0.35740347158E-01  0.35744000000E-01  0.51099999109E-03 0.  1.
       11   -1    0    0    0    0 -0.00000000000E+00 -0.00000000000E+00 -0.35740347158E-01  0.35744000000E-01  0.51099999109E-03 0. -1.
       22    1    1    2    0    0  0.14837275126E-02 -0.21515669194E-01 -0.28495756117E-01  0.35737005818E-01  0.00000000000E+00 0. -1.
  9000001    1    1    2    0    0 -0.14837275126E-02  0.21515669194E-01  0.28495756117E-01  0.35750994182E-01  0.10000000475E-02 0.  1.
</event>
<event>
 4   0  0.2441219E-02  0.9118800E+02  0.7818609E-02  0.1379984E+01
      -11   -1    0    0    0    0  0.00000000000E+00  0.00000000000E+00  0.35740347158E-01  0.35744000000E-01  0.51099999109E-03 0. -1.
       11   -1    0    0    0    0 -0.00000000000E+00 -0.00000000000E+00 -0.35740347158E-01  0.35744000000E-01  0.51099999109E-03 0.  1.
       22    1    1    2    0    0  0.96806016148E-02 -0.10315043564E-01 -0.32817973940E-01  0.35737005818E-01  0.00000000000E+00 0.  1.
  9000001    1    1    2    0    0 -0.96806016148E-02  0.10315043564E-01  0.32817973940E-01  0.35750994182E-01  0.10000000475E-02 0. -1.
</event>
<event>
 4   0  0.2441219E-02  0.9118800E+02  0.7818609E-02  0.1379984E+01
      -11   -1    0    0    0    0  0.00000000000E+00  0.00000000000E+00  0.35740347158E-01  0.35744000000E-01  0.51099999109E-03 0. -1.
       11   -1    0    0    0    0 -0.00000000000E+00 -0.00000000000E+00 -0.35740347158E-01  0.35744000000E-01  0.51099999109E-03 0.  1.
       22    1    1    2    0    0  0.32508224537E-01  0.20369430627E-02 -0.14703733720E-01  0.35737005818E-01  0.00000000000E+00 0.  1.
  9000001    1    1    2    0    0 -0.32508224537E-01 -0.20369430627E-02  0.14703733720E-01  0.35750994182E-01  0.10000000475E-02 0. -1.
</event>
<event>
 4   0  0.2441219E-02  0.9118800E+02  0.7818609E-02  0.1379984E+01
      -11   -1    0    0    0    0  0.00000000000E+00  0.00000000000E+00  0.35740347158E-01  0.35744000000E-01  0.51099999109E-03 0.  1.
       11   -1    0    0    0    0 -0.00000000000E+00 -0.00000000000E+00 -0.35740347158E-01  0.35744000000E-01  0.51099999109E-03 0. -1.
       22    1    1    2    0    0  0.30991697257E-02  0.37400923137E-02 -0.35405373058E-01  0.35737005818E-01  0.00000000000E+00 0. -1.
  9000001    1    1    2    0    0 -0.30991697257E-02 -0.37400923137E-02  0.35405373058E-01  0.35750994182E-01  0.10000000475E-02 0.  1.
</event>
<event>
 4   0  0.2441219E-02  0.9118800E+02  0.7818609E-02  0.1379984E+01
      -11   -1    0    0    0    0  0.00000000000E+00  0.00000000000E+00  0.35740347158E-01  0.35744000000E-01  0.51099999109E-03 0. -1.
       11   -1    0    0    0    0 -0.00000000000E+00 -0.00000000000E+00 -0.35740347158E-01  0.35744000000E-01  0.51099999109E-03 0.  1.
       22    1    1    2    0    0 -0.42224337059E-02  0.20514371125E-02  0.35427337527E-01  0.35737005818E-01  0.00000000000E+00 0. -1.
  9000001    1    1    2    0    0  0.42224337059E-02 -0.20514371125E-02 -0.35427337527E-01  0.35750994182E-01  0.10000000475E-02 0.  1.
</event>
<event>
 4   0  0.2441219E-02  0.9118800E+02  0.7818609E-02  0.1379984E+01
      -11   -1    0    0    0    0  0.00000000000E+00  0.00000000000E+00  0.35740347158E-01  0.35744000000E-01  0.51099999109E-03 0. -1.
       11   -1    0    0    0    0 -0.00000000000E+00 -0.00000000000E+00 -0.35740347158E-01  0.35744000000E-01  0.51099999109E-03 0.  1.
       22    1    1    2    0    0 -0.20799530969E-01  0.48541799826E-02 -0.28652225621E-01  0.35737005818E-01  0.00000000000E+00 0.  1.
  9000001    1    1    2    0    0  0.20799530969E-01 -0.48541799826E-02  0.28652225621E-01  0.35750994182E-01  0.10000000475E-02 0. -1.
</event>
<event>
 4   0  0.2441219E-02  0.9118800E+02  0.7818609E-02  0.1379984E+01
      -11   -1    0    0    0    0  0.00000000000E+00  0.00000000000E+00  0.35740347158E-01  0.35744000000E-01  0.51099999109E-03 0. -1.
       11   -1    0    0    0    0 -0.00000000000E+00 -0.00000000000E+00 -0.35740347158E-01  0.35744000000E-01  0.51099999109E-03 0.  1.
       22    1    1    2    0    0 -0.48522991298E-02  0.39615687207E-02  0.35183728502E-01  0.35737005818E-01  0.00000000000E+00 0. -1.
  9000001    1    1    2    0    0  0.48522991298E-02 -0.39615687207E-02 -0.35183728502E-01  0.35750994182E-01  0.10000000475E-02 0.  1.
</event>
<event>
 4   0  0.2441219E-02  0.9118800E+02  0.7818609E-02  0.1379984E+01
      -11   -1    0    0    0    0  0.00000000000E+00  0.00000000000E+00  0.35740347158E-01  0.35744000000E-01  0.51099999109E-03 0.  1.
       11   -1    0    0    0    0 -0.00000000000E+00 -0.00000000000E+00 -0.35740347158E-01  0.35744000000E-01  0.51099999109E-03 0. -1.
       22    1    1    2    0    0  0.39545531078E-03 -0.42902166150E-02 -0.35476347633E-01  0.35737005818E-01  0.00000000000E+00 0. -1.
  9000001    1    1    2    0    0 -0.39545531078E-03  0.42902166150E-02  0.35476347633E-01  0.35750994182E-01  0.10000000475E-02 0.  1.
</event>
<event>
 4   0  0.2441219E-02  0.9118800E+02  0.7818609E-02  0.1379984E+01
      -11   -1    0    0    0    0  0.00000000000E+00  0.00000000000E+00  0.35740347158E-01  0.35744000000E-01  0.51099999109E-03 0. -1.
       11   -1    0    0    0    0 -0.00000000000E+00 -0.00000000000E+00 -0.35740347158E-01  0.35744000000E-01  0.51099999109E-03 0.  1.
       22    1    1    2    0    0 -0.86033072084E-02 -0.86253464544E-02 -0.33596429699E-01  0.35737005818E-01  0.00000000000E+00 0.  1.
  9000001    1    1    2    0    0  0.86033072084E-02  0.86253464544E-02  0.33596429699E-01  0.35750994182E-01  0.10000000475E-02 0. -1.
</event>
<event>
 4   0  0.2441219E-02  0.9118800E+02  0.7818609E-02  0.1379984E+01
      -11   -1    0    0    0    0  0.00000000000E+00  0.00000000000E+00  0.35740347158E-01  0.35744000000E-01  0.51099999109E-03 0.  1.
       11   -1    0    0    0    0 -0.00000000000E+00 -0.00000000000E+00 -0.35740347158E-01  0.35744000000E-01  0.51099999109E-03 0. -1.
       22    1    1    2    0    0  0.16544695108E-01  0.40057414506E-02  0.31422295971E-01  0.35737005818E-01  0.00000000000E+00 0.  1.
  9000001    1    1    2    0    0 -0.16544695108E-01 -0.40057414506E-02 -0.31422295971E-01  0.35750994182E-01  0.10000000475E-02 0. -1.
</event>
<event>
 4   0  0.2441219E-02  0.9118800E+02  0.7818609E-02  0.1379984E+01
      -11   -1    0    0    0    0  0.00000000000E+00  0.00000000000E+00  0.35740347158E-01  0.35744000000E-01  0.51099999109E-03 0. -1.
       11   -1    0    0    0    0 -0.00000000000E+00 -0.00000000000E+00 -0.35740347158E-01  0.35744000000E-01  0.51099999109E-03 0.  1.
       22    1    1    2    0    0 -0.51713730737E-02 -0.80287190477E-02 -0.34437336655E-01  0.35737005818E-01  0.00000000000E+00 0.  1.
  9000001    1    1    2    0    0  0.51713730737E-02  0.80287190477E-02  0.34437336655E-01  0.35750994182E-01  0.10000000475E-02 0. -1.
</event>
<event>
 4   0  0.2441219E-02  0.9118800E+02  0.7818609E-02  0.1379984E+01
      -11   -1    0    0    0    0  0.00000000000E+00  0.00000000000E+00  0.35740347158E-01  0.35744000000E-01  0.51099999109E-03 0.  1.
       11   -1    0    0    0    0 -0.00000000000E+00 -0.00000000000E+00 -0.35740347158E-01  0.35744000000E-01  0.51099999109E-03 0. -1.
       22    1    1    2    0    0  0.58964679821E-02  0.24798567660E-02 -0.35159857233E-01  0.35737005818E-01  0.00000000000E+00 0. -1.
  9000001    1    1    2    0    0 -0.58964679821E-02 -0.24798567660E-02  0.35159857233E-01  0.35750994182E-01  0.10000000475E-02 0.  1.
</event>
<event>
 4   0  0.2441219E-02  0.9118800E+02  0.7818609E-02  0.1379984E+01
      -11   -1    0    0    0    0  0.00000000000E+00  0.00000000000E+00  0.35740347158E-01  0.35744000000E-01  0.51099999109E-03 0. -1.
       11   -1    0    0    0    0 -0.00000000000E+00 -0.00000000000E+00 -0.35740347158E-01  0.35744000000E-01  0.51099999109E-03 0.  1.
       22    1    1    2    0    0 -0.57570816608E-02  0.60533937883E-02 -0.34746885030E-01  0.35737005818E-01  0.00000000000E+00 0.  1.
  9000001    1    1    2    0    0  0.57570816608E-02 -0.60533937883E-02  0.34746885030E-01  0.35750994182E-01  0.10000000475E-02 0. -1.
</event>
<event>
 4   0  0.2441219E-02  0.9118800E+02  0.7818609E-02  0.1379984E+01
      -11   -1    0    0    0    0  0.00000000000E+00  0.00000000000E+00  0.35740347158E-01  0.35744000000E-01  0.51099999109E-03 0. -1.
       11   -1    0    0    0    0 -0.00000000000E+00 -0.00000000000E+00 -0.35740347158E-01  0.35744000000E-01  0.51099999109E-03 0.  1.
       22    1    1    2    0    0  0.86480782235E-02  0.12582817872E-01 -0.32311252255E-01  0.35737005818E-01  0.00000000000E+00 0.  1.
  9000001    1    1    2    0    0 -0.86480782235E-02 -0.12582817872E-01  0.32311252255E-01  0.35750994182E-01  0.10000000475E-02 0. -1.
</event>
<event>
 4   0  0.2441219E-02  0.9118800E+02  0.7818609E-02  0.1379984E+01
      -11   -1    0    0    0    0  0.00000000000E+00  0.00000000000E+00  0.35740347158E-01  0.35744000000E-01  0.51099999109E-03 0. -1.
       11   -1    0    0    0    0 -0.00000000000E+00 -0.00000000000E+00 -0.35740347158E-01  0.35744000000E-01  0.51099999109E-03 0.  1.
       22    1    1    2    0    0  0.25970736065E-02 -0.50597936496E-02  0.35281543075E-01  0.35737005818E-01  0.00000000000E+00 0. -1.
  9000001    1    1    2    0    0 -0.25970736065E-02  0.50597936496E-02 -0.35281543075E-01  0.35750994182E-01  0.10000000475E-02 0.  1.
</event>
<event>
 4   0  0.2441219E-02  0.9118800E+02  0.7818609E-02  0.1379984E+01
      -11   -1    0    0    0    0  0.00000000000E+00  0.00000000000E+00  0.35740347158E-01  0.35744000000E-01  0.51099999109E-03 0.  1.
       11   -1    0    0    0    0 -0.00000000000E+00 -0.00000000000E+00 -0.35740347158E-01  0.35744000000E-01  0.51099999109E-03 0. -1.
       22    1    1    2    0    0 -0.10896648646E-01  0.67244272211E-02 -0.33364332928E-01  0.35737005818E-01  0.00000000000E+00 0. -1.
  9000001    1    1    2    0    0  0.10896648646E-01 -0.67244272211E-02  0.33364332928E-01  0.35750994182E-01  0.10000000475E-02 0.  1.
</event>
<event>
 4   0  0.2441219E-02  0.9118800E+02  0.7818609E-02  0.1379984E+01
      -11   -1    0    0    0    0  0.00000000000E+00  0.00000000000E+00  0.35740347158E-01  0.35744000000E-01  0.51099999109E-03 0. -1.
       11   -1    0    0    0    0 -0.00000000000E+00 -0.00000000000E+00 -0.35740347158E-01  0.35744000000E-01  0.51099999109E-03 0.  1.
       22    1    1    2    0    0  0.75779272559E-02 -0.51493395997E-02 -0.34542624467E-01  0.35737005818E-01  0.00000000000E+00 0.  1.
  9000001    1    1    2    0    0 -0.75779272559E-02  0.51493395997E-02  0.34542624467E-01  0.35750994182E-01  0.10000000475E-02 0. -1.
</event>
<event>
 4   0  0.2441219E-02  0.9118800E+02  0.7818609E-02  0.1379984E+01
      -11   -1    0    0    0    0  0.00000000000E+00  0.00000000000E+00  0.35740347158E-01  0.35744000000E-01  0.51099999109E-03 0. -1.
       11   -1    0    0    0    0 -0.00000000000E+00 -0.00000000000E+00 -0.35740347158E-01  0.35744000000E-01  0.51099999109E-03 0.  1.
       22    1    1    2    0    0  0.56544457408E-02 -0.10391038910E-01  0.33722205423E-01  0.35737005818E-01  0.00000000000E+00 0. -1.
  9000001    1    1    2    0    0 -0.56544457408E-02  0.10391038910E-01 -0.33722205423E-01  0.35750994182E-01  0.10000000475E-02 0.  1.
</event>
<event>
 4   0  0.2441219E-02  0.9118800E+02  0.7818609E-02  0.1379984E+01
      -11   -1    0    0    0    0  0.00000000000E+00  0.00000000000E+00  0.35740347158E-01  0.35744000000E-01  0.51099999109E-03 0. -1.
       11   -1    0    0    0    0 -0.00000000000E+00 -0.00000000000E+00 -0.35740347158E-01  0.35744000000E-01  0.51099999109E-03 0. -1.
       22    1    1    2    0    0 -0.13356772945E-02 -0.28951177721E-02 -0.35594491767E-01  0.35737005818E-01  0.00000000000E+00 0. -1.
  9000001    1    1    2    0    0  0.13356772945E-02  0.28951177721E-02  0.35594491767E-01  0.35750994182E-01  0.10000000475E-02 0. -1.
</event>
<event>
 4   0  0.2441219E-02  0.9118800E+02  0.7818609E-02  0.1379984E+01
      -11   -1    0    0    0    0  0.00000000000E+00  0.00000000000E+00  0.35740347158E-01  0.35744000000E-01  0.51099999109E-03 0. -1.
       11   -1    0    0    0    0 -0.00000000000E+00 -0.00000000000E+00 -0.35740347158E-01  0.35744000000E-01  0.51099999109E-03 0.  1.
       22    1    1    2    0    0  0.16155988253E-01 -0.15880286997E-01 -0.27639358048E-01  0.35737005818E-01  0.00000000000E+00 0.  1.
  9000001    1    1    2    0    0 -0.16155988253E-01  0.15880286997E-01  0.27639358048E-01  0.35750994182E-01  0.10000000475E-02 0. -1.
</event>
<event>
 4   0  0.2441219E-02  0.9118800E+02  0.7818609E-02  0.1379984E+01
      -11   -1    0    0    0    0  0.00000000000E+00  0.00000000000E+00  0.35740347158E-01  0.35744000000E-01  0.51099999109E-03 0. -1.
       11   -1    0    0    0    0 -0.00000000000E+00 -0.00000000000E+00 -0.35740347158E-01  0.35744000000E-01  0.51099999109E-03 0.  1.
       22    1    1    2    0    0  0.31187481110E-02  0.32879072952E-02 -0.35448507172E-01  0.35737005818E-01  0.00000000000E+00 0.  1.
  9000001    1    1    2    0    0 -0.31187481110E-02 -0.32879072952E-02  0.35448507172E-01  0.35750994182E-01  0.10000000475E-02 0. -1.
</event>
<event>
 4   0  0.2441219E-02  0.9118800E+02  0.7818609E-02  0.1379984E+01
      -11   -1    0    0    0    0  0.00000000000E+00  0.00000000000E+00  0.35740347158E-01  0.35744000000E-01  0.51099999109E-03 0. -1.
       11   -1    0    0    0    0 -0.00000000000E+00 -0.00000000000E+00 -0.35740347158E-01  0.35744000000E-01  0.51099999109E-03 0.  1.
       22    1    1    2    0    0 -0.95388966416E-02  0.62109004804E-02  0.33875769378E-01  0.35737005818E-01  0.00000000000E+00 0. -1.
  9000001    1    1    2    0    0  0.95388966416E-02 -0.62109004804E-02 -0.33875769378E-01  0.35750994182E-01  0.10000000475E-02 0.  1.
</event>
<event>
 4   0  0.2441219E-02  0.9118800E+02  0.7818609E-02  0.1379984E+01
      -11   -1    0    0    0    0  0.00000000000E+00  0.00000000000E+00  0.35740347158E-01  0.35744000000E-01  0.51099999109E-03 0.  1.
       11   -1    0    0    0    0 -0.00000000000E+00 -0.00000000000E+00 -0.35740347158E-01  0.35744000000E-01  0.51099999109E-03 0. -1.
       22    1    1    2    0    0 -0.11081960212E-01 -0.10556044906E-01 -0.32293864102E-01  0.35737005818E-01  0.00000000000E+00 0. -1.
  9000001    1    1    2    0    0  0.11081960212E-01  0.10556044906E-01  0.32293864102E-01  0.35750994182E-01  0.10000000475E-02 0.  1.
</event>
<event>
 4   0  0.2441219E-02  0.9118800E+02  0.7818609E-02  0.1379984E+01
      -11   -1    0    0    0    0  0.00000000000E+00  0.00000000000E+00  0.35740347158E-01  0.35744000000E-01  0.51099999109E-03 0. -1.
       11   -1    0    0    0    0 -0.00000000000E+00 -0.00000000000E+00 -0.35740347158E-01  0.35744000000E-01  0.51099999109E-03 0.  1.
       22    1    1    2    0    0 -0.35433383575E-02 -0.16240353362E-01 -0.31635885650E-01  0.35737005818E-01  0.00000000000E+00 0.  1.
  9000001    1    1    2    0    0  0.35433383575E-02  0.16240353362E-01  0.31635885650E-01  0.35750994182E-01  0.10000000475E-02 0. -1.
</event>
<event>
 4   0  0.2441219E-02  0.9118800E+02  0.7818609E-02  0.1379984E+01
      -11   -1    0    0    0    0  0.00000000000E+00  0.00000000000E+00  0.35740347158E-01  0.35744000000E-01  0.51099999109E-03 0. -1.
       11   -1    0    0    0    0 -0.00000000000E+00 -0.00000000000E+00 -0.35740347158E-01  0.35744000000E-01  0.51099999109E-03 0.  1.
       22    1    1    2    0    0  0.25435795318E-02 -0.93000475171E-02 -0.34411813440E-01  0.35737005818E-01  0.00000000000E+00 0.  1.
  9000001    1    1    2    0    0 -0.25435795318E-02  0.93000475171E-02  0.34411813440E-01  0.35750994182E-01  0.10000000475E-02 0. -1.
</event>
<event>
 4   0  0.2441219E-02  0.9118800E+02  0.7818609E-02  0.1379984E+01
      -11   -1    0    0    0    0  0.00000000000E+00  0.00000000000E+00  0.35740347158E-01  0.35744000000E-01  0.51099999109E-03 0. -1.
       11   -1    0    0    0    0 -0.00000000000E+00 -0.00000000000E+00 -0.35740347158E-01  0.35744000000E-01  0.51099999109E-03 0.  1.
       22    1    1    2    0    0  0.11684358338E-01 -0.23576403915E-04  0.33772900368E-01  0.35737005818E-01  0.00000000000E+00 0. -1.
  9000001    1    1    2    0    0 -0.11684358338E-01  0.23576403915E-04 -0.33772900368E-01  0.35750994182E-01  0.10000000475E-02 0.  1.
</event>
<event>
 4   0  0.2441219E-02  0.9118800E+02  0.7818609E-02  0.1379984E+01
      -11   -1    0    0    0    0  0.00000000000E+00  0.00000000000E+00  0.35740347158E-01  0.35744000000E-01  0.51099999109E-03 0.  1.
       11   -1    0    0    0    0 -0.00000000000E+00 -0.00000000000E+00 -0.35740347158E-01  0.35744000000E-01  0.51099999109E-03 0. -1.
       22    1    1    2    0    0 -0.18992395332E-01  0.69438734282E-02 -0.29465320739E-01  0.35737005818E-01  0.00000000000E+00 0. -1.
  9000001    1    1    2    0    0  0.18992395332E-01 -0.69438734282E-02  0.29465320739E-01  0.35750994182E-01  0.10000000475E-02 0.  1.
</event>
<event>
 4   0  0.2441219E-02  0.9118800E+02  0.7818609E-02  0.1379984E+01
      -11   -1    0    0    0    0  0.00000000000E+00  0.00000000000E+00  0.35740347158E-01  0.35744000000E-01  0.51099999109E-03 0.  1.
       11   -1    0    0    0    0 -0.00000000000E+00 -0.00000000000E+00 -0.35740347158E-01  0.35744000000E-01  0.51099999109E-03 0. -1.
       22    1    1    2    0    0  0.23125525533E-01 -0.22374751850E-01  0.15547158369E-01  0.35737005818E-01  0.00000000000E+00 0.  1.
  9000001    1    1    2    0    0 -0.23125525533E-01  0.22374751850E-01 -0.15547158369E-01  0.35750994182E-01  0.10000000475E-02 0. -1.
</event>
<event>
 4   0  0.2441219E-02  0.9118800E+02  0.7818609E-02  0.1379984E+01
      -11   -1    0    0    0    0  0.00000000000E+00  0.00000000000E+00  0.35740347158E-01  0.35744000000E-01  0.51099999109E-03 0.  1.
       11   -1    0    0    0    0 -0.00000000000E+00 -0.00000000000E+00 -0.35740347158E-01  0.35744000000E-01  0.51099999109E-03 0. -1.
       22    1    1    2    0    0 -0.25367918919E-01  0.86276508297E-02 -0.23646689319E-01  0.35737005818E-01  0.00000000000E+00 0.  1.
  9000001    1    1    2    0    0  0.25367918919E-01 -0.86276508297E-02  0.23646689319E-01  0.35750994182E-01  0.10000000475E-02 0. -1.
</event>
<event>
 4   0  0.2441219E-02  0.9118800E+02  0.7818609E-02  0.1379984E+01
      -11   -1    0    0    0    0  0.00000000000E+00  0.00000000000E+00  0.35740347158E-01  0.35744000000E-01  0.51099999109E-03 0. -1.
       11   -1    0    0    0    0 -0.00000000000E+00 -0.00000000000E+00 -0.35740347158E-01  0.35744000000E-01  0.51099999109E-03 0.  1.
       22    1    1    2    0    0  0.13196363779E-01 -0.10679001601E-02  0.33194113290E-01  0.35737005818E-01  0.00000000000E+00 0. -1.
  9000001    1    1    2    0    0 -0.13196363779E-01  0.10679001601E-02 -0.33194113290E-01  0.35750994182E-01  0.10000000475E-02 0.  1.
</event>
<event>
 4   0  0.2441219E-02  0.9118800E+02  0.7818609E-02  0.1379984E+01
      -11   -1    0    0    0    0  0.00000000000E+00  0.00000000000E+00  0.35740347158E-01  0.35744000000E-01  0.51099999109E-03 0. -1.
       11   -1    0    0    0    0 -0.00000000000E+00 -0.00000000000E+00 -0.35740347158E-01  0.35744000000E-01  0.51099999109E-03 0.  1.
       22    1    1    2    0    0  0.28619894716E-03  0.60131958872E-02 -0.35226313322E-01  0.35737005818E-01  0.00000000000E+00 0.  1.
  9000001    1    1    2    0    0 -0.28619894716E-03 -0.60131958872E-02  0.35226313322E-01  0.35750994182E-01  0.10000000475E-02 0. -1.
</event>
<event>
 4   0  0.2441219E-02  0.9118800E+02  0.7818609E-02  0.1379984E+01
      -11   -1    0    0    0    0  0.00000000000E+00  0.00000000000E+00  0.35740347158E-01  0.35744000000E-01  0.51099999109E-03 0.  1.
       11   -1    0    0    0    0 -0.00000000000E+00 -0.00000000000E+00 -0.35740347158E-01  0.35744000000E-01  0.51099999109E-03 0. -1.
       22    1    1    2    0    0 -0.55901864280E-02 -0.55603276878E-02 -0.34856364649E-01  0.35737005818E-01  0.00000000000E+00 0. -1.
  9000001    1    1    2    0    0  0.55901864280E-02  0.55603276878E-02  0.34856364649E-01  0.35750994182E-01  0.10000000475E-02 0.  1.
</event>
<event>
 4   0  0.2441219E-02  0.9118800E+02  0.7818609E-02  0.1379984E+01
      -11   -1    0    0    0    0  0.00000000000E+00  0.00000000000E+00  0.35740347158E-01  0.35744000000E-01  0.51099999109E-03 0. -1.
       11   -1    0    0    0    0 -0.00000000000E+00 -0.00000000000E+00 -0.35740347158E-01  0.35744000000E-01  0.51099999109E-03 0.  1.
       22    1    1    2    0    0  0.13428741547E-02  0.61199843520E-02 -0.35183462954E-01  0.35737005818E-01  0.00000000000E+00 0.  1.
  9000001    1    1    2    0    0 -0.13428741547E-02 -0.61199843520E-02  0.35183462954E-01  0.35750994182E-01  0.10000000475E-02 0. -1.
</event>
<event>
 4   0  0.2441219E-02  0.9118800E+02  0.7818609E-02  0.1379984E+01
      -11   -1    0    0    0    0  0.00000000000E+00  0.00000000000E+00  0.35740347158E-01  0.35744000000E-01  0.51099999109E-03 0.  1.
       11   -1    0    0    0    0 -0.00000000000E+00 -0.00000000000E+00 -0.35740347158E-01  0.35744000000E-01  0.51099999109E-03 0. -1.
       22    1    1    2    0    0 -0.25589137326E-02  0.65620305002E-02  0.35036057157E-01  0.35737005818E-01  0.00000000000E+00 0.  1.
  9000001    1    1    2    0    0  0.25589137326E-02 -0.65620305002E-02 -0.35036057157E-01  0.35750994182E-01  0.10000000475E-02 0. -1.
</event>
<event>
 4   0  0.2441219E-02  0.9118800E+02  0.7818609E-02  0.1379984E+01
      -11   -1    0    0    0    0  0.00000000000E+00  0.00000000000E+00  0.35740347158E-01  0.35744000000E-01  0.51099999109E-03 0. -1.
       11   -1    0    0    0    0 -0.00000000000E+00 -0.00000000000E+00 -0.35740347158E-01  0.35744000000E-01  0.51099999109E-03 0.  1.
       22    1    1    2    0    0 -0.32647509906E-01 -0.64915813007E-02  0.13005116456E-01  0.35737005818E-01  0.00000000000E+00 0.  1.
  9000001    1    1    2    0    0  0.32647509906E-01  0.64915813007E-02 -0.13005116456E-01  0.35750994182E-01  0.10000000475E-02 0. -1.
</event>
<event>
 4   0  0.2441219E-02  0.9118800E+02  0.7818609E-02  0.1379984E+01
      -11   -1    0    0    0    0  0.00000000000E+00  0.00000000000E+00  0.35740347158E-01  0.35744000000E-01  0.51099999109E-03 0.  1.
       11   -1    0    0    0    0 -0.00000000000E+00 -0.00000000000E+00 -0.35740347158E-01  0.35744000000E-01  0.51099999109E-03 0. -1.
       22    1    1    2    0    0  0.13804826970E-02  0.55557315107E-02  0.35275511333E-01  0.35737005818E-01  0.00000000000E+00 0.  1.
  9000001    1    1    2    0    0 -0.13804826970E-02 -0.55557315107E-02 -0.35275511333E-01  0.35750994182E-01  0.10000000475E-02 0. -1.
</event>
<event>
 4   0  0.2441219E-02  0.9118800E+02  0.7818609E-02  0.1379984E+01
      -11   -1    0    0    0    0  0.00000000000E+00  0.00000000000E+00  0.35740347158E-01  0.35744000000E-01  0.51099999109E-03 0.  1.
       11   -1    0    0    0    0 -0.00000000000E+00 -0.00000000000E+00 -0.35740347158E-01  0.35744000000E-01  0.51099999109E-03 0. -1.
       22    1    1    2    0    0  0.86175442209E-02 -0.57303088194E-02  0.34205775496E-01  0.35737005818E-01  0.00000000000E+00 0.  1.
  9000001    1    1    2    0    0 -0.86175442209E-02  0.57303088194E-02 -0.34205775496E-01  0.35750994182E-01  0.10000000475E-02 0. -1.
</event>
<event>
 4   0  0.2441219E-02  0.9118800E+02  0.7818609E-02  0.1379984E+01
      -11   -1    0    0    0    0  0.00000000000E+00  0.00000000000E+00  0.35740347158E-01  0.35744000000E-01  0.51099999109E-03 0. -1.
       11   -1    0    0    0    0 -0.00000000000E+00 -0.00000000000E+00 -0.35740347158E-01  0.35744000000E-01  0.51099999109E-03 0.  1.
       22    1    1    2    0    0 -0.50342881284E-02 -0.35379206997E-01 -0.31818261633E-03  0.35737005818E-01  0.00000000000E+00 0. -1.
  9000001    1    1    2    0    0  0.50342881284E-02  0.35379206997E-01  0.31818261633E-03  0.35750994182E-01  0.10000000475E-02 0.  1.
</event>
<event>
 4   0  0.2441219E-02  0.9118800E+02  0.7818609E-02  0.1379984E+01
      -11   -1    0    0    0    0  0.00000000000E+00  0.00000000000E+00  0.35740347158E-01  0.35744000000E-01  0.51099999109E-03 0. -1.
       11   -1    0    0    0    0 -0.00000000000E+00 -0.00000000000E+00 -0.35740347158E-01  0.35744000000E-01  0.51099999109E-03 0.  1.
       22    1    1    2    0    0  0.17938984791E-01 -0.54493087953E-02 -0.30424191743E-01  0.35737005818E-01  0.00000000000E+00 0.  1.
  9000001    1    1    2    0    0 -0.17938984791E-01  0.54493087953E-02  0.30424191743E-01  0.35750994182E-01  0.10000000475E-02 0. -1.
</event>
<event>
 4   0  0.2441219E-02  0.9118800E+02  0.7818609E-02  0.1379984E+01
      -11   -1    0    0    0    0  0.00000000000E+00  0.00000000000E+00  0.35740347158E-01  0.35744000000E-01  0.51099999109E-03 0. -1.
       11   -1    0    0    0    0 -0.00000000000E+00 -0.00000000000E+00 -0.35740347158E-01  0.35744000000E-01  0.51099999109E-03 0.  1.
       22    1    1    2    0    0  0.49889135070E-02 -0.10735249262E-01 -0.33719412068E-01  0.35737005818E-01  0.00000000000E+00 0.  1.
  9000001    1    1    2    0    0 -0.49889135070E-02  0.10735249262E-01  0.33719412068E-01  0.35750994182E-01  0.10000000475E-02 0. -1.
</event>
<event>
 4   0  0.2441219E-02  0.9118800E+02  0.7818609E-02  0.1379984E+01
      -11   -1    0    0    0    0  0.00000000000E+00  0.00000000000E+00  0.35740347158E-01  0.35744000000E-01  0.51099999109E-03 0.  1.
       11   -1    0    0    0    0 -0.00000000000E+00 -0.00000000000E+00 -0.35740347158E-01  0.35744000000E-01  0.51099999109E-03 0. -1.
       22    1    1    2    0    0 -0.16069643539E-01 -0.11977864804E-01  0.29587681493E-01  0.35737005818E-01  0.00000000000E+00 0.  1.
  9000001    1    1    2    0    0  0.16069643539E-01  0.11977864804E-01 -0.29587681493E-01  0.35750994182E-01  0.10000000475E-02 0. -1.
</event>
<event>
 4   0  0.2441219E-02  0.9118800E+02  0.7818609E-02  0.1379984E+01
      -11   -1    0    0    0    0  0.00000000000E+00  0.00000000000E+00  0.35740347158E-01  0.35744000000E-01  0.51099999109E-03 0. -1.
       11   -1    0    0    0    0 -0.00000000000E+00 -0.00000000000E+00 -0.35740347158E-01  0.35744000000E-01  0.51099999109E-03 0.  1.
       22    1    1    2    0    0 -0.28262774568E-02 -0.35206336533E-02 -0.35450682353E-01  0.35737005818E-01  0.00000000000E+00 0.  1.
  9000001    1    1    2    0    0  0.28262774568E-02  0.35206336533E-02  0.35450682353E-01  0.35750994182E-01  0.10000000475E-02 0. -1.
</event>
<event>
 4   0  0.2441219E-02  0.9118800E+02  0.7818609E-02  0.1379984E+01
      -11   -1    0    0    0    0  0.00000000000E+00  0.00000000000E+00  0.35740347158E-01  0.35744000000E-01  0.51099999109E-03 0.  1.
       11   -1    0    0    0    0 -0.00000000000E+00 -0.00000000000E+00 -0.35740347158E-01  0.35744000000E-01  0.51099999109E-03 0. -1.
       22    1    1    2    0    0  0.21533195588E-01  0.21168787992E-01  0.19113803588E-01  0.35737005818E-01  0.00000000000E+00 0.  1.
  9000001    1    1    2    0    0 -0.21533195588E-01 -0.21168787992E-01 -0.19113803588E-01  0.35750994182E-01  0.10000000475E-02 0. -1.
</event>
<event>
 4   0  0.2441219E-02  0.9118800E+02  0.7818609E-02  0.1379984E+01
      -11   -1    0    0    0    0  0.00000000000E+00  0.00000000000E+00  0.35740347158E-01  0.35744000000E-01  0.51099999109E-03 0. -1.
       11   -1    0    0    0    0 -0.00000000000E+00 -0.00000000000E+00 -0.35740347158E-01  0.35744000000E-01  0.51099999109E-03 0.  1.
       22    1    1    2    0    0  0.19956381339E-02 -0.46824189799E-02  0.35372672585E-01  0.35737005818E-01  0.00000000000E+00 0. -1.
  9000001    1    1    2    0    0 -0.19956381339E-02  0.46824189799E-02 -0.35372672585E-01  0.35750994182E-01  0.10000000475E-02 0.  1.
</event>
<event>
 4   0  0.2441219E-02  0.9118800E+02  0.7818609E-02  0.1379984E+01
      -11   -1    0    0    0    0  0.00000000000E+00  0.00000000000E+00  0.35740347158E-01  0.35744000000E-01  0.51099999109E-03 0.  1.
       11   -1    0    0    0    0 -0.00000000000E+00 -0.00000000000E+00 -0.35740347158E-01  0.35744000000E-01  0.51099999109E-03 0. -1.
       22    1    1    2    0    0  0.59521767856E-02 -0.10418307266E-01  0.33662502137E-01  0.35737005818E-01  0.00000000000E+00 0.  1.
  9000001    1    1    2    0    0 -0.59521767856E-02  0.10418307266E-01 -0.33662502137E-01  0.35750994182E-01  0.10000000475E-02 0. -1.
</event>
<event>
 4   0  0.2441219E-02  0.9118800E+02  0.7818609E-02  0.1379984E+01
      -11   -1    0    0    0    0  0.00000000000E+00  0.00000000000E+00  0.35740347158E-01  0.35744000000E-01  0.51099999109E-03 0.  1.
       11   -1    0    0    0    0 -0.00000000000E+00 -0.00000000000E+00 -0.35740347158E-01  0.35744000000E-01  0.51099999109E-03 0. -1.
       22    1    1    2    0    0 -0.18731235206E-01  0.12554603286E-01 -0.27724652367E-01  0.35737005818E-01  0.00000000000E+00 0. -1.
  9000001    1    1    2    0    0  0.18731235206E-01 -0.12554603286E-01  0.27724652367E-01  0.35750994182E-01  0.10000000475E-02 0.  1.
</event>
<event>
 4   0  0.2441219E-02  0.9118800E+02  0.7818609E-02  0.1379984E+01
      -11   -1    0    0    0    0  0.00000000000E+00  0.00000000000E+00  0.35740347158E-01  0.35744000000E-01  0.51099999109E-03 0. -1.
       11   -1    0    0    0    0 -0.00000000000E+00 -0.00000000000E+00 -0.35740347158E-01  0.35744000000E-01  0.51099999109E-03 0.  1.
       22    1    1    2    0    0 -0.84602979751E-03  0.35961525422E-02 -0.35545541286E-01  0.35737005818E-01  0.00000000000E+00 0.  1.
  9000001    1    1    2    0    0  0.84602979751E-03 -0.35961525422E-02  0.35545541286E-01  0.35750994182E-01  0.10000000475E-02 0. -1.
</event>
<event>
 4   0  0.2441219E-02  0.9118800E+02  0.7818609E-02  0.1379984E+01
      -11   -1    0    0    0    0  0.00000000000E+00  0.00000000000E+00  0.35740347158E-01  0.35744000000E-01  0.51099999109E-03 0. -1.
       11   -1    0    0    0    0 -0.00000000000E+00 -0.00000000000E+00 -0.35740347158E-01  0.35744000000E-01  0.51099999109E-03 0.  1.
       22    1    1    2    0    0  0.10702449071E-01 -0.12661335588E-01  0.31658833679E-01  0.35737005818E-01  0.00000000000E+00 0. -1.
  9000001    1    1    2    0    0 -0.10702449071E-01  0.12661335588E-01 -0.31658833679E-01  0.35750994182E-01  0.10000000475E-02 0.  1.
</event>
<event>
 4   0  0.2441219E-02  0.9118800E+02  0.7818609E-02  0.1379984E+01
      -11   -1    0    0    0    0  0.00000000000E+00  0.00000000000E+00  0.35740347158E-01  0.35744000000E-01  0.51099999109E-03 0. -1.
       11   -1    0    0    0    0 -0.00000000000E+00 -0.00000000000E+00 -0.35740347158E-01  0.35744000000E-01  0.51099999109E-03 0.  1.
       22    1    1    2    0    0 -0.73926722612E-02 -0.10025896023E-01 -0.33495721975E-01  0.35737005818E-01  0.00000000000E+00 0.  1.
  9000001    1    1    2    0    0  0.73926722612E-02  0.10025896023E-01  0.33495721975E-01  0.35750994182E-01  0.10000000475E-02 0. -1.
</event>
<event>
 4   0  0.2441219E-02  0.9118800E+02  0.7818609E-02  0.1379984E+01
      -11   -1    0    0    0    0  0.00000000000E+00  0.00000000000E+00  0.35740347158E-01  0.35744000000E-01  0.51099999109E-03 0. -1.
       11   -1    0    0    0    0 -0.00000000000E+00 -0.00000000000E+00 -0.35740347158E-01  0.35744000000E-01  0.51099999109E-03 0.  1.
       22    1    1    2    0    0 -0.35930408426E-02 -0.28685784152E-01  0.21008318113E-01  0.35737005818E-01  0.00000000000E+00 0. -1.
  9000001    1    1    2    0    0  0.35930408426E-02  0.28685784152E-01 -0.21008318113E-01  0.35750994182E-01  0.10000000475E-02 0.  1.
</event>
<event>
 4   0  0.2441219E-02  0.9118800E+02  0.7818609E-02  0.1379984E+01
      -11   -1    0    0    0    0  0.00000000000E+00  0.00000000000E+00  0.35740347158E-01  0.35744000000E-01  0.51099999109E-03 0.  1.
       11   -1    0    0    0    0 -0.00000000000E+00 -0.00000000000E+00 -0.35740347158E-01  0.35744000000E-01  0.51099999109E-03 0. -1.
       22    1    1    2    0    0  0.10535065441E-01 -0.66921004199E-02  0.33486740256E-01  0.35737005818E-01  0.00000000000E+00 0.  1.
  9000001    1    1    2    0    0 -0.10535065441E-01  0.66921004199E-02 -0.33486740256E-01  0.35750994182E-01  0.10000000475E-02 0. -1.
</event>
<event>
 4   0  0.2441219E-02  0.9118800E+02  0.7818609E-02  0.1379984E+01
      -11   -1    0    0    0    0  0.00000000000E+00  0.00000000000E+00  0.35740347158E-01  0.35744000000E-01  0.51099999109E-03 0. -1.
       11   -1    0    0    0    0 -0.00000000000E+00 -0.00000000000E+00 -0.35740347158E-01  0.35744000000E-01  0.51099999109E-03 0.  1.
       22    1    1    2    0    0  0.16212936153E-01 -0.65052524865E-02  0.31176208497E-01  0.35737005818E-01  0.00000000000E+00 0. -1.
  9000001    1    1    2    0    0 -0.16212936153E-01  0.65052524865E-02 -0.31176208497E-01  0.35750994182E-01  0.10000000475E-02 0.  1.
</event>
<event>
 4   0  0.2441219E-02  0.9118800E+02  0.7818609E-02  0.1379984E+01
      -11   -1    0    0    0    0  0.00000000000E+00  0.00000000000E+00  0.35740347158E-01  0.35744000000E-01  0.51099999109E-03 0.  1.
       11   -1    0    0    0    0 -0.00000000000E+00 -0.00000000000E+00 -0.35740347158E-01  0.35744000000E-01  0.51099999109E-03 0.  1.
       22    1    1    2    0    0 -0.42158484550E-02 -0.18269677505E-02  0.35440406255E-01  0.35737005818E-01  0.00000000000E+00 0.  1.
  9000001    1    1    2    0    0  0.42158484550E-02  0.18269677505E-02 -0.35440406255E-01  0.35750994182E-01  0.10000000475E-02 0.  1.
</event>
<event>
 4   0  0.2441219E-02  0.9118800E+02  0.7818609E-02  0.1379984E+01
      -11   -1    0    0    0    0  0.00000000000E+00  0.00000000000E+00  0.35740347158E-01  0.35744000000E-01  0.51099999109E-03 0. -1.
       11   -1    0    0    0    0 -0.00000000000E+00 -0.00000000000E+00 -0.35740347158E-01  0.35744000000E-01  0.51099999109E-03 0.  1.
       22    1    1    2    0    0  0.95872723661E-02  0.29450091469E-02 -0.34300797579E-01  0.35737005818E-01  0.00000000000E+00 0.  1.
  9000001    1    1    2    0    0 -0.95872723661E-02 -0.29450091469E-02  0.34300797579E-01  0.35750994182E-01  0.10000000475E-02 0. -1.
</event>
<event>
 4   0  0.2441219E-02  0.9118800E+02  0.7818609E-02  0.1379984E+01
      -11   -1    0    0    0    0  0.00000000000E+00  0.00000000000E+00  0.35740347158E-01  0.35744000000E-01  0.51099999109E-03 0. -1.
       11   -1    0    0    0    0 -0.00000000000E+00 -0.00000000000E+00 -0.35740347158E-01  0.35744000000E-01  0.51099999109E-03 0.  1.
       22    1    1    2    0    0  0.99095203138E-03 -0.37376842198E-02 -0.35527191215E-01  0.35737005818E-01  0.00000000000E+00 0.  1.
  9000001    1    1    2    0    0 -0.99095203138E-03  0.37376842198E-02  0.35527191215E-01  0.35750994182E-01  0.10000000475E-02 0. -1.
</event>
<event>
 4   0  0.2441219E-02  0.9118800E+02  0.7818609E-02  0.1379984E+01
      -11   -1    0    0    0    0  0.00000000000E+00  0.00000000000E+00  0.35740347158E-01  0.35744000000E-01  0.51099999109E-03 0.  1.
       11   -1    0    0    0    0 -0.00000000000E+00 -0.00000000000E+00 -0.35740347158E-01  0.35744000000E-01  0.51099999109E-03 0. -1.
       22    1    1    2    0    0  0.47116981386E-02 -0.62209298204E-03  0.35419577720E-01  0.35737005818E-01  0.00000000000E+00 0.  1.
  9000001    1    1    2    0    0 -0.47116981386E-02  0.62209298204E-03 -0.35419577720E-01  0.35750994182E-01  0.10000000475E-02 0. -1.
</event>
<event>
 4   0  0.2441219E-02  0.9118800E+02  0.7818609E-02  0.1379984E+01
      -11   -1    0    0    0    0  0.00000000000E+00  0.00000000000E+00  0.35740347158E-01  0.35744000000E-01  0.51099999109E-03 0.  1.
       11   -1    0    0    0    0 -0.00000000000E+00 -0.00000000000E+00 -0.35740347158E-01  0.35744000000E-01  0.51099999109E-03 0. -1.
       22    1    1    2    0    0 -0.63134933426E-03  0.47133361987E-02 -0.35419195993E-01  0.35737005818E-01  0.00000000000E+00 0. -1.
  9000001    1    1    2    0    0  0.63134933426E-03 -0.47133361987E-02  0.35419195993E-01  0.35750994182E-01  0.10000000475E-02 0.  1.
</event>
<event>
 4   0  0.2441219E-02  0.9118800E+02  0.7818609E-02  0.1379984E+01
      -11   -1    0    0    0    0  0.00000000000E+00  0.00000000000E+00  0.35740347158E-01  0.35744000000E-01  0.51099999109E-03 0. -1.
       11   -1    0    0    0    0 -0.00000000000E+00 -0.00000000000E+00 -0.35740347158E-01  0.35744000000E-01  0.51099999109E-03 0.  1.
       22    1    1    2    0    0  0.17985729852E-02 -0.11644115799E-01 -0.33738898728E-01  0.35737005818E-01  0.00000000000E+00 0.  1.
  9000001    1    1    2    0    0 -0.17985729852E-02  0.11644115799E-01  0.33738898728E-01  0.35750994182E-01  0.10000000475E-02 0. -1.
</event>
<event>
 4   0  0.2441219E-02  0.9118800E+02  0.7818609E-02  0.1379984E+01
      -11   -1    0    0    0    0  0.00000000000E+00  0.00000000000E+00  0.35740347158E-01  0.35744000000E-01  0.51099999109E-03 0. -1.
       11   -1    0    0    0    0 -0.00000000000E+00 -0.00000000000E+00 -0.35740347158E-01  0.35744000000E-01  0.51099999109E-03 0.  1.
       22    1    1    2    0    0 -0.30584465653E-02 -0.59262400184E-02  0.35109246200E-01  0.35737005818E-01  0.00000000000E+00 0. -1.
  9000001    1    1    2    0    0  0.30584465653E-02  0.59262400184E-02 -0.35109246200E-01  0.35750994182E-01  0.10000000475E-02 0.  1.
</event>
<event>
 4   0  0.2441219E-02  0.9118800E+02  0.7818609E-02  0.1379984E+01
      -11   -1    0    0    0    0  0.00000000000E+00  0.00000000000E+00  0.35740347158E-01  0.35744000000E-01  0.51099999109E-03 0. -1.
       11   -1    0    0    0    0 -0.00000000000E+00 -0.00000000000E+00 -0.35740347158E-01  0.35744000000E-01  0.51099999109E-03 0.  1.
       22    1    1    2    0    0  0.53376921541E-02 -0.22741156049E-03 -0.35335405917E-01  0.35737005818E-01  0.00000000000E+00 0.  1.
  9000001    1    1    2    0    0 -0.53376921541E-02  0.22741156049E-03  0.35335405917E-01  0.35750994182E-01  0.10000000475E-02 0. -1.
</event>
<event>
 4   0  0.2441219E-02  0.9118800E+02  0.7818609E-02  0.1379984E+01
      -11   -1    0    0    0    0  0.00000000000E+00  0.00000000000E+00  0.35740347158E-01  0.35744000000E-01  0.51099999109E-03 0.  1.
       11   -1    0    0    0    0 -0.00000000000E+00 -0.00000000000E+00 -0.35740347158E-01  0.35744000000E-01  0.51099999109E-03 0. -1.
       22    1    1    2    0    0  0.20873248542E-01 -0.12603945081E-01  0.26126263579E-01  0.35737005818E-01  0.00000000000E+00 0.  1.
  9000001    1    1    2    0    0 -0.20873248542E-01  0.12603945081E-01 -0.26126263579E-01  0.35750994182E-01  0.10000000475E-02 0. -1.
</event>
<event>
 4   0  0.2441219E-02  0.9118800E+02  0.7818609E-02  0.1379984E+01
      -11   -1    0    0    0    0  0.00000000000E+00  0.00000000000E+00  0.35740347158E-01  0.35744000000E-01  0.51099999109E-03 0. -1.
       11   -1    0    0    0    0 -0.00000000000E+00 -0.00000000000E+00 -0.35740347158E-01  0.35744000000E-01  0.51099999109E-03 0.  1.
       22    1    1    2    0    0 -0.12555398290E-01  0.35981408147E-02  0.33264830397E-01  0.35737005818E-01  0.00000000000E+00 0. -1.
  9000001    1    1    2    0    0  0.12555398290E-01 -0.35981408147E-02 -0.33264830397E-01  0.35750994182E-01  0.10000000475E-02 0.  1.
</event>
<event>
 4   0  0.2441219E-02  0.9118800E+02  0.7818609E-02  0.1379984E+01
      -11   -1    0    0    0    0  0.00000000000E+00  0.00000000000E+00  0.35740347158E-01  0.35744000000E-01  0.51099999109E-03 0.  1.
       11   -1    0    0    0    0 -0.00000000000E+00 -0.00000000000E+00 -0.35740347158E-01  0.35744000000E-01  0.51099999109E-03 0. -1.
       22    1    1    2    0    0 -0.11771350825E-01  0.21331420453E-01 -0.26144586172E-01  0.35737005818E-01  0.00000000000E+00 0. -1.
  9000001    1    1    2    0    0  0.11771350825E-01 -0.21331420453E-01  0.26144586172E-01  0.35750994182E-01  0.10000000475E-02 0.  1.
</event>
<event>
 4   0  0.2441219E-02  0.9118800E+02  0.7818609E-02  0.1379984E+01
      -11   -1    0    0    0    0  0.00000000000E+00  0.00000000000E+00  0.35740347158E-01  0.35744000000E-01  0.51099999109E-03 0.  1.
       11   -1    0    0    0    0 -0.00000000000E+00 -0.00000000000E+00 -0.35740347158E-01  0.35744000000E-01  0.51099999109E-03 0. -1.
       22    1    1    2    0    0 -0.81088818861E-02 -0.20475646406E-01 -0.28144760146E-01  0.35737005818E-01  0.00000000000E+00 0. -1.
  9000001    1    1    2    0    0  0.81088818861E-02  0.20475646406E-01  0.28144760146E-01  0.35750994182E-01  0.10000000475E-02 0.  1.
</event>
<event>
 4   0  0.2441219E-02  0.9118800E+02  0.7818609E-02  0.1379984E+01
      -11   -1    0    0    0    0  0.00000000000E+00  0.00000000000E+00  0.35740347158E-01  0.35744000000E-01  0.51099999109E-03 0.  1.
       11   -1    0    0    0    0 -0.00000000000E+00 -0.00000000000E+00 -0.35740347158E-01  0.35744000000E-01  0.51099999109E-03 0. -1.
       22    1    1    2    0    0  0.10170187496E-01 -0.22841219253E-01 -0.25533890698E-01  0.35737005818E-01  0.00000000000E+00 0. -1.
  9000001    1    1    2    0    0 -0.10170187496E-01  0.22841219253E-01  0.25533890698E-01  0.35750994182E-01  0.10000000475E-02 0.  1.
</event>
<event>
 4   0  0.2441219E-02  0.9118800E+02  0.7818609E-02  0.1379984E+01
      -11   -1    0    0    0    0  0.00000000000E+00  0.00000000000E+00  0.35740347158E-01  0.35744000000E-01  0.51099999109E-03 0. -1.
       11   -1    0    0    0    0 -0.00000000000E+00 -0.00000000000E+00 -0.35740347158E-01  0.35744000000E-01  0.51099999109E-03 0.  1.
       22    1    1    2    0    0  0.25549773496E-01 -0.24743910608E-01 -0.34758519858E-02  0.35737005818E-01  0.00000000000E+00 0. -1.
  9000001    1    1    2    0    0 -0.25549773496E-01  0.24743910608E-01  0.34758519858E-02  0.35750994182E-01  0.10000000475E-02 0.  1.
</event>
<event>
 4   0  0.2441219E-02  0.9118800E+02  0.7818609E-02  0.1379984E+01
      -11   -1    0    0    0    0  0.00000000000E+00  0.00000000000E+00  0.35740347158E-01  0.35744000000E-01  0.51099999109E-03 0.  1.
       11   -1    0    0    0    0 -0.00000000000E+00 -0.00000000000E+00 -0.35740347158E-01  0.35744000000E-01  0.51099999109E-03 0. -1.
       22    1    1    2    0    0  0.18269889081E-02 -0.56848818758E-02 -0.35234611030E-01  0.35737005818E-01  0.00000000000E+00 0. -1.
  9000001    1    1    2    0    0 -0.18269889081E-02  0.56848818758E-02  0.35234611030E-01  0.35750994182E-01  0.10000000475E-02 0.  1.
</event>
<event>
 4   0  0.2441219E-02  0.9118800E+02  0.7818609E-02  0.1379984E+01
      -11   -1    0    0    0    0  0.00000000000E+00  0.00000000000E+00  0.35740347158E-01  0.35744000000E-01  0.51099999109E-03 0.  1.
       11   -1    0    0    0    0 -0.00000000000E+00 -0.00000000000E+00 -0.35740347158E-01  0.35744000000E-01  0.51099999109E-03 0. -1.
       22    1    1    2    0    0  0.65936692792E-02  0.59667706354E-02  0.34612927621E-01  0.35737005818E-01  0.00000000000E+00 0.  1.
  9000001    1    1    2    0    0 -0.65936692792E-02 -0.59667706354E-02 -0.34612927621E-01  0.35750994182E-01  0.10000000475E-02 0. -1.
</event>
<event>
 4   0  0.2441219E-02  0.9118800E+02  0.7818609E-02  0.1379984E+01
      -11   -1    0    0    0    0  0.00000000000E+00  0.00000000000E+00  0.35740347158E-01  0.35744000000E-01  0.51099999109E-03 0. -1.
       11   -1    0    0    0    0 -0.00000000000E+00 -0.00000000000E+00 -0.35740347158E-01  0.35744000000E-01  0.51099999109E-03 0.  1.
       22    1    1    2    0    0 -0.25916115706E-01 -0.24028051602E-01  0.53048343807E-02  0.35737005818E-01  0.00000000000E+00 0.  1.
  9000001    1    1    2    0    0  0.25916115706E-01  0.24028051602E-01 -0.53048343807E-02  0.35750994182E-01  0.10000000475E-02 0. -1.
</event>
<event>
 4   0  0.2441219E-02  0.9118800E+02  0.7818609E-02  0.1379984E+01
      -11   -1    0    0    0    0  0.00000000000E+00  0.00000000000E+00  0.35740347158E-01  0.35744000000E-01  0.51099999109E-03 0. -1.
       11   -1    0    0    0    0 -0.00000000000E+00 -0.00000000000E+00 -0.35740347158E-01  0.35744000000E-01  0.51099999109E-03 0.  1.
       22    1    1    2    0    0  0.71858529717E-02 -0.31302670382E-02  0.34866868661E-01  0.35737005818E-01  0.00000000000E+00 0. -1.
  9000001    1    1    2    0    0 -0.71858529717E-02  0.31302670382E-02 -0.34866868661E-01  0.35750994182E-01  0.10000000475E-02 0.  1.
</event>
<event>
 4   0  0.2441219E-02  0.9118800E+02  0.7818609E-02  0.1379984E+01
      -11   -1    0    0    0    0  0.00000000000E+00  0.00000000000E+00  0.35740347158E-01  0.35744000000E-01  0.51099999109E-03 0.  1.
       11   -1    0    0    0    0 -0.00000000000E+00 -0.00000000000E+00 -0.35740347158E-01  0.35744000000E-01  0.51099999109E-03 0. -1.
       22    1    1    2    0    0  0.16042549458E-02 -0.30534662054E-02 -0.35570160178E-01  0.35737005818E-01  0.00000000000E+00 0. -1.
  9000001    1    1    2    0    0 -0.16042549458E-02  0.30534662054E-02  0.35570160178E-01  0.35750994182E-01  0.10000000475E-02 0.  1.
</event>
<event>
 4   0  0.2441219E-02  0.9118800E+02  0.7818609E-02  0.1379984E+01
      -11   -1    0    0    0    0  0.00000000000E+00  0.00000000000E+00  0.35740347158E-01  0.35744000000E-01  0.51099999109E-03 0. -1.
       11   -1    0    0    0    0 -0.00000000000E+00 -0.00000000000E+00 -0.35740347158E-01  0.35744000000E-01  0.51099999109E-03 0.  1.
       22    1    1    2    0    0  0.74200547949E-03 -0.99774942592E-02  0.34307909016E-01  0.35737005818E-01  0.00000000000E+00 0. -1.
  9000001    1    1    2    0    0 -0.74200547949E-03  0.99774942592E-02 -0.34307909016E-01  0.35750994182E-01  0.10000000475E-02 0.  1.
</event>
<event>
 4   0  0.2441219E-02  0.9118800E+02  0.7818609E-02  0.1379984E+01
      -11   -1    0    0    0    0  0.00000000000E+00  0.00000000000E+00  0.35740347158E-01  0.35744000000E-01  0.51099999109E-03 0.  1.
       11   -1    0    0    0    0 -0.00000000000E+00 -0.00000000000E+00 -0.35740347158E-01  0.35744000000E-01  0.51099999109E-03 0. -1.
       22    1    1    2    0    0  0.20232839629E-01 -0.22895651716E-01 -0.18535234499E-01  0.35737005818E-01  0.00000000000E+00 0. -1.
  9000001    1    1    2    0    0 -0.20232839629E-01  0.22895651716E-01  0.18535234499E-01  0.35750994182E-01  0.10000000475E-02 0.  1.
</event>
<event>
 4   0  0.2441219E-02  0.9118800E+02  0.7818609E-02  0.1379984E+01
      -11   -1    0    0    0    0  0.00000000000E+00  0.00000000000E+00  0.35740347158E-01  0.35744000000E-01  0.51099999109E-03 0.  1.
       11   -1    0    0    0    0 -0.00000000000E+00 -0.00000000000E+00 -0.35740347158E-01  0.35744000000E-01  0.51099999109E-03 0. -1.
       22    1    1    2    0    0  0.40061300997E-02  0.41322161029E-02  0.35270515967E-01  0.35737005818E-01  0.00000000000E+00 0.  1.
  9000001    1    1    2    0    0 -0.40061300997E-02 -0.41322161029E-02 -0.35270515967E-01  0.35750994182E-01  0.10000000475E-02 0. -1.
</event>
<event>
 4   0  0.2441219E-02  0.9118800E+02  0.7818609E-02  0.1379984E+01
      -11   -1    0    0    0    0  0.00000000000E+00  0.00000000000E+00  0.35740347158E-01  0.35744000000E-01  0.51099999109E-03 0. -1.
       11   -1    0    0    0    0 -0.00000000000E+00 -0.00000000000E+00 -0.35740347158E-01  0.35744000000E-01  0.51099999109E-03 0.  1.
       22    1    1    2    0    0  0.77160618247E-02 -0.39529180924E-02 -0.34669444953E-01  0.35737005818E-01  0.00000000000E+00 0.  1.
  9000001    1    1    2    0    0 -0.77160618247E-02  0.39529180924E-02  0.34669444953E-01  0.35750994182E-01  0.10000000475E-02 0. -1.
</event>
<event>
 4   0  0.2441219E-02  0.9118800E+02  0.7818609E-02  0.1379984E+01
      -11   -1    0    0    0    0  0.00000000000E+00  0.00000000000E+00  0.35740347158E-01  0.35744000000E-01  0.51099999109E-03 0.  1.
       11   -1    0    0    0    0 -0.00000000000E+00 -0.00000000000E+00 -0.35740347158E-01  0.35744000000E-01  0.51099999109E-03 0. -1.
       22    1    1    2    0    0 -0.53000744835E-02 -0.10514110687E-01 -0.33741610391E-01  0.35737005818E-01  0.00000000000E+00 0. -1.
  9000001    1    1    2    0    0  0.53000744835E-02  0.10514110687E-01  0.33741610391E-01  0.35750994182E-01  0.10000000475E-02 0.  1.
</event>
<event>
 4   0  0.2441219E-02  0.9118800E+02  0.7818609E-02  0.1379984E+01
      -11   -1    0    0    0    0  0.00000000000E+00  0.00000000000E+00  0.35740347158E-01  0.35744000000E-01  0.51099999109E-03 0. -1.
       11   -1    0    0    0    0 -0.00000000000E+00 -0.00000000000E+00 -0.35740347158E-01  0.35744000000E-01  0.51099999109E-03 0.  1.
       22    1    1    2    0    0 -0.45819685497E-02 -0.49327165410E-02  0.35097114648E-01  0.35737005818E-01  0.00000000000E+00 0. -1.
  9000001    1    1    2    0    0  0.45819685497E-02  0.49327165410E-02 -0.35097114648E-01  0.35750994182E-01  0.10000000475E-02 0.  1.
</event>
<event>
 4   0  0.2441219E-02  0.9118800E+02  0.7818609E-02  0.1379984E+01
      -11   -1    0    0    0    0  0.00000000000E+00  0.00000000000E+00  0.35740347158E-01  0.35744000000E-01  0.51099999109E-03 0. -1.
       11   -1    0    0    0    0 -0.00000000000E+00 -0.00000000000E+00 -0.35740347158E-01  0.35744000000E-01  0.51099999109E-03 0.  1.
       22    1    1    2    0    0  0.25247086893E-02 -0.26007627040E-02 -0.35552713880E-01  0.35737005818E-01  0.00000000000E+00 0.  1.
  9000001    1    1    2    0    0 -0.25247086893E-02  0.26007627040E-02  0.35552713880E-01  0.35750994182E-01  0.10000000475E-02 0. -1.
</event>
<event>
 4   0  0.2441219E-02  0.9118800E+02  0.7818609E-02  0.1379984E+01
      -11   -1    0    0    0    0  0.00000000000E+00  0.00000000000E+00  0.35740347158E-01  0.35744000000E-01  0.51099999109E-03 0.  1.
       11   -1    0    0    0    0 -0.00000000000E+00 -0.00000000000E+00 -0.35740347158E-01  0.35744000000E-01  0.51099999109E-03 0. -1.
       22    1    1    2    0    0 -0.28541593166E-02  0.23234761289E-02  0.35546994502E-01  0.35737005818E-01  0.00000000000E+00 0.  1.
  9000001    1    1    2    0    0  0.28541593166E-02 -0.23234761289E-02 -0.35546994502E-01  0.35750994182E-01  0.10000000475E-02 0. -1.
</event>
<event>
 4   0  0.2441219E-02  0.9118800E+02  0.7818609E-02  0.1379984E+01
      -11   -1    0    0    0    0  0.00000000000E+00  0.00000000000E+00  0.35740347158E-01  0.35744000000E-01  0.51099999109E-03 0.  1.
       11   -1    0    0    0    0 -0.00000000000E+00 -0.00000000000E+00 -0.35740347158E-01  0.35744000000E-01  0.51099999109E-03 0. -1.
       22    1    1    2    0    0  0.61811938958E-02  0.17702303665E-02 -0.35153843479E-01  0.35737005818E-01  0.00000000000E+00 0. -1.
  9000001    1    1    2    0    0 -0.61811938958E-02 -0.17702303665E-02  0.35153843479E-01  0.35750994182E-01  0.10000000475E-02 0.  1.
</event>
<event>
 4   0  0.2441219E-02  0.9118800E+02  0.7818609E-02  0.1379984E+01
      -11   -1    0    0    0    0  0.00000000000E+00  0.00000000000E+00  0.35740347158E-01  0.35744000000E-01  0.51099999109E-03 0. -1.
       11   -1    0    0    0    0 -0.00000000000E+00 -0.00000000000E+00 -0.35740347158E-01  0.35744000000E-01  0.51099999109E-03 0.  1.
       22    1    1    2    0    0 -0.30033625081E-01 -0.42654384660E-04 -0.19367837515E-01  0.35737005818E-01  0.00000000000E+00 0.  1.
  9000001    1    1    2    0    0  0.30033625081E-01  0.42654384660E-04  0.19367837515E-01  0.35750994182E-01  0.10000000475E-02 0. -1.
</event>
<event>
 4   0  0.2441219E-02  0.9118800E+02  0.7818609E-02  0.1379984E+01
      -11   -1    0    0    0    0  0.00000000000E+00  0.00000000000E+00  0.35740347158E-01  0.35744000000E-01  0.51099999109E-03 0.  1.
       11   -1    0    0    0    0 -0.00000000000E+00 -0.00000000000E+00 -0.35740347158E-01  0.35744000000E-01  0.51099999109E-03 0. -1.
       22    1    1    2    0    0 -0.28052080824E-01 -0.74846195077E-02 -0.20837341893E-01  0.35737005818E-01  0.00000000000E+00 0. -1.
  9000001    1    1    2    0    0  0.28052080824E-01  0.74846195077E-02  0.20837341893E-01  0.35750994182E-01  0.10000000475E-02 0.  1.
</event>
<event>
 4   0  0.2441219E-02  0.9118800E+02  0.7818609E-02  0.1379984E+01
      -11   -1    0    0    0    0  0.00000000000E+00  0.00000000000E+00  0.35740347158E-01  0.35744000000E-01  0.51099999109E-03 0.  1.
       11   -1    0    0    0    0 -0.00000000000E+00 -0.00000000000E+00 -0.35740347158E-01  0.35744000000E-01  0.51099999109E-03 0. -1.
       22    1    1    2    0    0  0.32479738245E-01 -0.12265314671E-01  0.84712599093E-02  0.35737005818E-01  0.00000000000E+00 0.  1.
  9000001    1    1    2    0    0 -0.32479738245E-01  0.12265314671E-01 -0.84712599093E-02  0.35750994182E-01  0.10000000475E-02 0. -1.
</event>
<event>
 4   0  0.2441219E-02  0.9118800E+02  0.7818609E-02  0.1379984E+01
      -11   -1    0    0    0    0  0.00000000000E+00  0.00000000000E+00  0.35740347158E-01  0.35744000000E-01  0.51099999109E-03 0.  1.
       11   -1    0    0    0    0 -0.00000000000E+00 -0.00000000000E+00 -0.35740347158E-01  0.35744000000E-01  0.51099999109E-03 0. -1.
       22    1    1    2    0    0  0.55142611940E-02  0.32968442189E-01 -0.12641531870E-01  0.35737005818E-01  0.00000000000E+00 0.  1.
  9000001    1    1    2    0    0 -0.55142611940E-02 -0.32968442189E-01  0.12641531870E-01  0.35750994182E-01  0.10000000475E-02 0. -1.
</event>
<event>
 4   0  0.2441219E-02  0.9118800E+02  0.7818609E-02  0.1379984E+01
      -11   -1    0    0    0    0  0.00000000000E+00  0.00000000000E+00  0.35740347158E-01  0.35744000000E-01  0.51099999109E-03 0. -1.
       11   -1    0    0    0    0 -0.00000000000E+00 -0.00000000000E+00 -0.35740347158E-01  0.35744000000E-01  0.51099999109E-03 0.  1.
       22    1    1    2    0    0 -0.64811495272E-02  0.20117136782E-01  0.28817166643E-01  0.35737005818E-01  0.00000000000E+00 0. -1.
  9000001    1    1    2    0    0  0.64811495272E-02 -0.20117136782E-01 -0.28817166643E-01  0.35750994182E-01  0.10000000475E-02 0.  1.
</event>
<event>
 4   0  0.2441219E-02  0.9118800E+02  0.7818609E-02  0.1379984E+01
      -11   -1    0    0    0    0  0.00000000000E+00  0.00000000000E+00  0.35740347158E-01  0.35744000000E-01  0.51099999109E-03 0.  1.
       11   -1    0    0    0    0 -0.00000000000E+00 -0.00000000000E+00 -0.35740347158E-01  0.35744000000E-01  0.51099999109E-03 0. -1.
       22    1    1    2    0    0 -0.11765525555E-01  0.18475532634E-01 -0.28237575802E-01  0.35737005818E-01  0.00000000000E+00 0. -1.
  9000001    1    1    2    0    0  0.11765525555E-01 -0.18475532634E-01  0.28237575802E-01  0.35750994182E-01  0.10000000475E-02 0.  1.
</event>
<event>
 4   0  0.2441219E-02  0.9118800E+02  0.7818609E-02  0.1379984E+01
      -11   -1    0    0    0    0  0.00000000000E+00  0.00000000000E+00  0.35740347158E-01  0.35744000000E-01  0.51099999109E-03 0. -1.
       11   -1    0    0    0    0 -0.00000000000E+00 -0.00000000000E+00 -0.35740347158E-01  0.35744000000E-01  0.51099999109E-03 0.  1.
       22    1    1    2    0    0  0.22469873922E-01  0.59442536812E-03  0.27782818599E-01  0.35737005818E-01  0.00000000000E+00 0. -1.
  9000001    1    1    2    0    0 -0.22469873922E-01 -0.59442536812E-03 -0.27782818599E-01  0.35750994182E-01  0.10000000475E-02 0.  1.
</event>
<event>
 4   0  0.2441219E-02  0.9118800E+02  0.7818609E-02  0.1379984E+01
      -11   -1    0    0    0    0  0.00000000000E+00  0.00000000000E+00  0.35740347158E-01  0.35744000000E-01  0.51099999109E-03 0. -1.
       11   -1    0    0    0    0 -0.00000000000E+00 -0.00000000000E+00 -0.35740347158E-01  0.35744000000E-01  0.51099999109E-03 0.  1.
       22    1    1    2    0    0 -0.10035656586E-01  0.20588780849E-01 -0.27432121408E-01  0.35737005818E-01  0.00000000000E+00 0.  1.
  9000001    1    1    2    0    0  0.10035656586E-01 -0.20588780849E-01  0.27432121408E-01  0.35750994182E-01  0.10000000475E-02 0. -1.
</event>
<event>
 4   0  0.2441219E-02  0.9118800E+02  0.7818609E-02  0.1379984E+01
      -11   -1    0    0    0    0  0.00000000000E+00  0.00000000000E+00  0.35740347158E-01  0.35744000000E-01  0.51099999109E-03 0.  1.
       11   -1    0    0    0    0 -0.00000000000E+00 -0.00000000000E+00 -0.35740347158E-01  0.35744000000E-01  0.51099999109E-03 0. -1.
       22    1    1    2    0    0 -0.67373340517E-02 -0.59491116428E-03 -0.35091138418E-01  0.35737005818E-01  0.00000000000E+00 0. -1.
  9000001    1    1    2    0    0  0.67373340517E-02  0.59491116428E-03  0.35091138418E-01  0.35750994182E-01  0.10000000475E-02 0.  1.
</event>
<event>
 4   0  0.2441219E-02  0.9118800E+02  0.7818609E-02  0.1379984E+01
      -11   -1    0    0    0    0  0.00000000000E+00  0.00000000000E+00  0.35740347158E-01  0.35744000000E-01  0.51099999109E-03 0. -1.
       11   -1    0    0    0    0 -0.00000000000E+00 -0.00000000000E+00 -0.35740347158E-01  0.35744000000E-01  0.51099999109E-03 0.  1.
       22    1    1    2    0    0 -0.12232591295E-01  0.35784371663E-04 -0.33578207435E-01  0.35737005818E-01  0.00000000000E+00 0.  1.
  9000001    1    1    2    0    0  0.12232591295E-01 -0.35784371663E-04  0.33578207435E-01  0.35750994182E-01  0.10000000475E-02 0. -1.
</event>
<event>
 4   0  0.2441219E-02  0.9118800E+02  0.7818609E-02  0.1379984E+01
      -11   -1    0    0    0    0  0.00000000000E+00  0.00000000000E+00  0.35740347158E-01  0.35744000000E-01  0.51099999109E-03 0.  1.
       11   -1    0    0    0    0 -0.00000000000E+00 -0.00000000000E+00 -0.35740347158E-01  0.35744000000E-01  0.51099999109E-03 0. -1.
       22    1    1    2    0    0 -0.38345566932E-02  0.61538140651E-02 -0.34993718469E-01  0.35737005818E-01  0.00000000000E+00 0. -1.
  9000001    1    1    2    0    0  0.38345566932E-02 -0.61538140651E-02  0.34993718469E-01  0.35750994182E-01  0.10000000475E-02 0.  1.
</event>
<event>
 4   0  0.2441219E-02  0.9118800E+02  0.7818609E-02  0.1379984E+01
      -11   -1    0    0    0    0  0.00000000000E+00  0.00000000000E+00  0.35740347158E-01  0.35744000000E-01  0.51099999109E-03 0.  1.
       11   -1    0    0    0    0 -0.00000000000E+00 -0.00000000000E+00 -0.35740347158E-01  0.35744000000E-01  0.51099999109E-03 0. -1.
       22    1    1    2    0    0 -0.46989448436E-02  0.60330883916E-02 -0.34909244430E-01  0.35737005818E-01  0.00000000000E+00 0. -1.
  9000001    1    1    2    0    0  0.46989448436E-02 -0.60330883916E-02  0.34909244430E-01  0.35750994182E-01  0.10000000475E-02 0.  1.
</event>
<event>
 4   0  0.2441219E-02  0.9118800E+02  0.7818609E-02  0.1379984E+01
      -11   -1    0    0    0    0  0.00000000000E+00  0.00000000000E+00  0.35740347158E-01  0.35744000000E-01  0.51099999109E-03 0.  1.
       11   -1    0    0    0    0 -0.00000000000E+00 -0.00000000000E+00 -0.35740347158E-01  0.35744000000E-01  0.51099999109E-03 0. -1.
       22    1    1    2    0    0  0.13224773507E-01 -0.70266563010E-02  0.32447882085E-01  0.35737005818E-01  0.00000000000E+00 0.  1.
  9000001    1    1    2    0    0 -0.13224773507E-01  0.70266563010E-02 -0.32447882085E-01  0.35750994182E-01  0.10000000475E-02 0. -1.
</event>
<event>
 4   0  0.2441219E-02  0.9118800E+02  0.7818609E-02  0.1379984E+01
      -11   -1    0    0    0    0  0.00000000000E+00  0.00000000000E+00  0.35740347158E-01  0.35744000000E-01  0.51099999109E-03 0. -1.
       11   -1    0    0    0    0 -0.00000000000E+00 -0.00000000000E+00 -0.35740347158E-01  0.35744000000E-01  0.51099999109E-03 0.  1.
       22    1    1    2    0    0  0.18883799495E-03 -0.35229452336E-02 -0.35562434984E-01  0.35737005818E-01  0.00000000000E+00 0.  1.
  9000001    1    1    2    0    0 -0.18883799495E-03  0.35229452336E-02  0.35562434984E-01  0.35750994182E-01  0.10000000475E-02 0. -1.
</event>
<event>
 4   0  0.2441219E-02  0.9118800E+02  0.7818609E-02  0.1379984E+01
      -11   -1    0    0    0    0  0.00000000000E+00  0.00000000000E+00  0.35740347158E-01  0.35744000000E-01  0.51099999109E-03 0. -1.
       11   -1    0    0    0    0 -0.00000000000E+00 -0.00000000000E+00 -0.35740347158E-01  0.35744000000E-01  0.51099999109E-03 0.  1.
       22    1    1    2    0    0  0.16205991303E-02  0.25687651443E-02  0.35607705472E-01  0.35737005818E-01  0.00000000000E+00 0. -1.
  9000001    1    1    2    0    0 -0.16205991303E-02 -0.25687651443E-02 -0.35607705472E-01  0.35750994182E-01  0.10000000475E-02 0.  1.
</event>
<event>
 4   0  0.2441219E-02  0.9118800E+02  0.7818609E-02  0.1379984E+01
      -11   -1    0    0    0    0  0.00000000000E+00  0.00000000000E+00  0.35740347158E-01  0.35744000000E-01  0.51099999109E-03 0.  1.
       11   -1    0    0    0    0 -0.00000000000E+00 -0.00000000000E+00 -0.35740347158E-01  0.35744000000E-01  0.51099999109E-03 0. -1.
       22    1    1    2    0    0  0.11502498290E-02 -0.50570737905E-02 -0.35358683727E-01  0.35737005818E-01  0.00000000000E+00 0. -1.
  9000001    1    1    2    0    0 -0.11502498290E-02  0.50570737905E-02  0.35358683727E-01  0.35750994182E-01  0.10000000475E-02 0.  1.
</event>
<event>
 4   0  0.2441219E-02  0.9118800E+02  0.7818609E-02  0.1379984E+01
      -11   -1    0    0    0    0  0.00000000000E+00  0.00000000000E+00  0.35740347158E-01  0.35744000000E-01  0.51099999109E-03 0.  1.
       11   -1    0    0    0    0 -0.00000000000E+00 -0.00000000000E+00 -0.35740347158E-01  0.35744000000E-01  0.51099999109E-03 0. -1.
       22    1    1    2    0    0  0.83545731358E-02 -0.97042230234E-03 -0.34733168199E-01  0.35737005818E-01  0.00000000000E+00 0. -1.
  9000001    1    1    2    0    0 -0.83545731358E-02  0.97042230234E-03  0.34733168199E-01  0.35750994182E-01  0.10000000475E-02 0.  1.
</event>
<event>
 4   0  0.2441219E-02  0.9118800E+02  0.7818609E-02  0.1379984E+01
      -11   -1    0    0    0    0  0.00000000000E+00  0.00000000000E+00  0.35740347158E-01  0.35744000000E-01  0.51099999109E-03 0.  1.
       11   -1    0    0    0    0 -0.00000000000E+00 -0.00000000000E+00 -0.35740347158E-01  0.35744000000E-01  0.51099999109E-03 0. -1.
       22    1    1    2    0    0 -0.56809443481E-02 -0.39156152200E-02 -0.35064631948E-01  0.35737005818E-01  0.00000000000E+00 0. -1.
  9000001    1    1    2    0    0  0.56809443481E-02  0.39156152200E-02  0.35064631948E-01  0.35750994182E-01  0.10000000475E-02 0.  1.
</event>
<event>
 4   0  0.2441219E-02  0.9118800E+02  0.7818609E-02  0.1379984E+01
      -11   -1    0    0    0    0  0.00000000000E+00  0.00000000000E+00  0.35740347158E-01  0.35744000000E-01  0.51099999109E-03 0. -1.
       11   -1    0    0    0    0 -0.00000000000E+00 -0.00000000000E+00 -0.35740347158E-01  0.35744000000E-01  0.51099999109E-03 0.  1.
       22    1    1    2    0    0 -0.77373976058E-02  0.75093937017E-02 -0.34071619706E-01  0.35737005818E-01  0.00000000000E+00 0.  1.
  9000001    1    1    2    0    0  0.77373976058E-02 -0.75093937017E-02  0.34071619706E-01  0.35750994182E-01  0.10000000475E-02 0. -1.
</event>
<event>
 4   0  0.2441219E-02  0.9118800E+02  0.7818609E-02  0.1379984E+01
      -11   -1    0    0    0    0  0.00000000000E+00  0.00000000000E+00  0.35740347158E-01  0.35744000000E-01  0.51099999109E-03 0.  1.
       11   -1    0    0    0    0 -0.00000000000E+00 -0.00000000000E+00 -0.35740347158E-01  0.35744000000E-01  0.51099999109E-03 0. -1.
       22    1    1    2    0    0  0.96602859505E-02  0.89240142773E-02  0.33229120202E-01  0.35737005818E-01  0.00000000000E+00 0.  1.
  9000001    1    1    2    0    0 -0.96602859505E-02 -0.89240142773E-02 -0.33229120202E-01  0.35750994182E-01  0.10000000475E-02 0. -1.
</event>
<event>
 4   0  0.2441219E-02  0.9118800E+02  0.7818609E-02  0.1379984E+01
      -11   -1    0    0    0    0  0.00000000000E+00  0.00000000000E+00  0.35740347158E-01  0.35744000000E-01  0.51099999109E-03 0.  1.
       11   -1    0    0    0    0 -0.00000000000E+00 -0.00000000000E+00 -0.35740347158E-01  0.35744000000E-01  0.51099999109E-03 0. -1.
       22    1    1    2    0    0  0.19455351913E-02 -0.14004449621E-01  0.32821088777E-01  0.35737005818E-01  0.00000000000E+00 0.  1.
  9000001    1    1    2    0    0 -0.19455351913E-02  0.14004449621E-01 -0.32821088777E-01  0.35750994182E-01  0.10000000475E-02 0. -1.
</event>
<event>
 4   0  0.2441219E-02  0.9118800E+02  0.7818609E-02  0.1379984E+01
      -11   -1    0    0    0    0  0.00000000000E+00  0.00000000000E+00  0.35740347158E-01  0.35744000000E-01  0.51099999109E-03 0.  1.
       11   -1    0    0    0    0 -0.00000000000E+00 -0.00000000000E+00 -0.35740347158E-01  0.35744000000E-01  0.51099999109E-03 0. -1.
       22    1    1    2    0    0 -0.15619596902E-02 -0.42916294366E-02  0.35443980922E-01  0.35737005818E-01  0.00000000000E+00 0.  1.
  9000001    1    1    2    0    0  0.15619596902E-02  0.42916294366E-02 -0.35443980922E-01  0.35750994182E-01  0.10000000475E-02 0. -1.
</event>
<event>
 4   0  0.2441219E-02  0.9118800E+02  0.7818609E-02  0.1379984E+01
      -11   -1    0    0    0    0  0.00000000000E+00  0.00000000000E+00  0.35740347158E-01  0.35744000000E-01  0.51099999109E-03 0.  1.
       11   -1    0    0    0    0 -0.00000000000E+00 -0.00000000000E+00 -0.35740347158E-01  0.35744000000E-01  0.51099999109E-03 0. -1.
       22    1    1    2    0    0 -0.11168296465E-01  0.61681837534E-02 -0.33381974898E-01  0.35737005818E-01  0.00000000000E+00 0. -1.
  9000001    1    1    2    0    0  0.11168296465E-01 -0.61681837534E-02  0.33381974898E-01  0.35750994182E-01  0.10000000475E-02 0.  1.
</event>
<event>
 4   0  0.2441219E-02  0.9118800E+02  0.7818609E-02  0.1379984E+01
      -11   -1    0    0    0    0  0.00000000000E+00  0.00000000000E+00  0.35740347158E-01  0.35744000000E-01  0.51099999109E-03 0.  1.
       11   -1    0    0    0    0 -0.00000000000E+00 -0.00000000000E+00 -0.35740347158E-01  0.35744000000E-01  0.51099999109E-03 0. -1.
       22    1    1    2    0    0 -0.42135300103E-02  0.47829546404E-02 -0.35163945948E-01  0.35737005818E-01  0.00000000000E+00 0. -1.
  9000001    1    1    2    0    0  0.42135300103E-02 -0.47829546404E-02  0.35163945948E-01  0.35750994182E-01  0.10000000475E-02 0.  1.
</event>
<event>
 4   0  0.2441219E-02  0.9118800E+02  0.7818609E-02  0.1379984E+01
      -11   -1    0    0    0    0  0.00000000000E+00  0.00000000000E+00  0.35740347158E-01  0.35744000000E-01  0.51099999109E-03 0.  1.
       11   -1    0    0    0    0 -0.00000000000E+00 -0.00000000000E+00 -0.35740347158E-01  0.35744000000E-01  0.51099999109E-03 0. -1.
       22    1    1    2    0    0 -0.16188963377E-01  0.22037896543E-01 -0.23008306448E-01  0.35737005818E-01  0.00000000000E+00 0. -1.
  9000001    1    1    2    0    0  0.16188963377E-01 -0.22037896543E-01  0.23008306448E-01  0.35750994182E-01  0.10000000475E-02 0.  1.
</event>
<event>
 4   0  0.2441219E-02  0.9118800E+02  0.7818609E-02  0.1379984E+01
      -11   -1    0    0    0    0  0.00000000000E+00  0.00000000000E+00  0.35740347158E-01  0.35744000000E-01  0.51099999109E-03 0. -1.
       11   -1    0    0    0    0 -0.00000000000E+00 -0.00000000000E+00 -0.35740347158E-01  0.35744000000E-01  0.51099999109E-03 0.  1.
       22    1    1    2    0    0 -0.57710829491E-02  0.31888376751E-03 -0.35266506768E-01  0.35737005818E-01  0.00000000000E+00 0.  1.
  9000001    1    1    2    0    0  0.57710829491E-02 -0.31888376751E-03  0.35266506768E-01  0.35750994182E-01  0.10000000475E-02 0. -1.
</event>
<event>
 4   0  0.2441219E-02  0.9118800E+02  0.7818609E-02  0.1379984E+01
      -11   -1    0    0    0    0  0.00000000000E+00  0.00000000000E+00  0.35740347158E-01  0.35744000000E-01  0.51099999109E-03 0. -1.
       11   -1    0    0    0    0 -0.00000000000E+00 -0.00000000000E+00 -0.35740347158E-01  0.35744000000E-01  0.51099999109E-03 0.  1.
       22    1    1    2    0    0  0.20918996027E-01 -0.87740159011E-02 -0.27614232473E-01  0.35737005818E-01  0.00000000000E+00 0.  1.
  9000001    1    1    2    0    0 -0.20918996027E-01  0.87740159011E-02  0.27614232473E-01  0.35750994182E-01  0.10000000475E-02 0. -1.
</event>
<event>
 4   0  0.2441219E-02  0.9118800E+02  0.7818609E-02  0.1379984E+01
      -11   -1    0    0    0    0  0.00000000000E+00  0.00000000000E+00  0.35740347158E-01  0.35744000000E-01  0.51099999109E-03 0.  1.
       11   -1    0    0    0    0 -0.00000000000E+00 -0.00000000000E+00 -0.35740347158E-01  0.35744000000E-01  0.51099999109E-03 0. -1.
       22    1    1    2    0    0 -0.39261149404E-02  0.81177088240E-03  0.35511409918E-01  0.35737005818E-01  0.00000000000E+00 0.  1.
  9000001    1    1    2    0    0  0.39261149404E-02 -0.81177088240E-03 -0.35511409918E-01  0.35750994182E-01  0.10000000475E-02 0. -1.
</event>
<event>
 4   0  0.2441219E-02  0.9118800E+02  0.7818609E-02  0.1379984E+01
      -11   -1    0    0    0    0  0.00000000000E+00  0.00000000000E+00  0.35740347158E-01  0.35744000000E-01  0.51099999109E-03 0.  1.
       11   -1    0    0    0    0 -0.00000000000E+00 -0.00000000000E+00 -0.35740347158E-01  0.35744000000E-01  0.51099999109E-03 0. -1.
       22    1    1    2    0    0  0.62171863864E-02  0.21598355449E-01 -0.27784729983E-01  0.35737005818E-01  0.00000000000E+00 0. -1.
  9000001    1    1    2    0    0 -0.62171863864E-02 -0.21598355449E-01  0.27784729983E-01  0.35750994182E-01  0.10000000475E-02 0.  1.
</event>
<event>
 4   0  0.2441219E-02  0.9118800E+02  0.7818609E-02  0.1379984E+01
      -11   -1    0    0    0    0  0.00000000000E+00  0.00000000000E+00  0.35740347158E-01  0.35744000000E-01  0.51099999109E-03 0. -1.
       11   -1    0    0    0    0 -0.00000000000E+00 -0.00000000000E+00 -0.35740347158E-01  0.35744000000E-01  0.51099999109E-03 0.  1.
       22    1    1    2    0    0 -0.31844038238E-02  0.20790743710E-03 -0.35594240147E-01  0.35737005818E-01  0.00000000000E+00 0.  1.
  9000001    1    1    2    0    0  0.31844038238E-02 -0.20790743710E-03  0.35594240147E-01  0.35750994182E-01  0.10000000475E-02 0. -1.
</event>
<event>
 4   0  0.2441219E-02  0.9118800E+02  0.7818609E-02  0.1379984E+01
      -11   -1    0    0    0    0  0.00000000000E+00  0.00000000000E+00  0.35740347158E-01  0.35744000000E-01  0.51099999109E-03 0.  1.
       11   -1    0    0    0    0 -0.00000000000E+00 -0.00000000000E+00 -0.35740347158E-01  0.35744000000E-01  0.51099999109E-03 0. -1.
       22    1    1    2    0    0  0.23216475941E-02 -0.50572951215E-02  0.35301094932E-01  0.35737005818E-01  0.00000000000E+00 0.  1.
  9000001    1    1    2    0    0 -0.23216475941E-02  0.50572951215E-02 -0.35301094932E-01  0.35750994182E-01  0.10000000475E-02 0. -1.
</event>
<event>
 4   0  0.2441219E-02  0.9118800E+02  0.7818609E-02  0.1379984E+01
      -11   -1    0    0    0    0  0.00000000000E+00  0.00000000000E+00  0.35740347158E-01  0.35744000000E-01  0.51099999109E-03 0. -1.
       11   -1    0    0    0    0 -0.00000000000E+00 -0.00000000000E+00 -0.35740347158E-01  0.35744000000E-01  0.51099999109E-03 0.  1.
       22    1    1    2    0    0 -0.35861447638E-02  0.13407244459E-01  0.32932035264E-01  0.35737005818E-01  0.00000000000E+00 0. -1.
  9000001    1    1    2    0    0  0.35861447638E-02 -0.13407244459E-01 -0.32932035264E-01  0.35750994182E-01  0.10000000475E-02 0.  1.
</event>
<event>
 4   0  0.2441219E-02  0.9118800E+02  0.7818609E-02  0.1379984E+01
      -11   -1    0    0    0    0  0.00000000000E+00  0.00000000000E+00  0.35740347158E-01  0.35744000000E-01  0.51099999109E-03 0. -1.
       11   -1    0    0    0    0 -0.00000000000E+00 -0.00000000000E+00 -0.35740347158E-01  0.35744000000E-01  0.51099999109E-03 0.  1.
       22    1    1    2    0    0  0.11453812837E-01 -0.45174650325E-02 -0.33549012892E-01  0.35737005818E-01  0.00000000000E+00 0.  1.
  9000001    1    1    2    0    0 -0.11453812837E-01  0.45174650325E-02  0.33549012892E-01  0.35750994182E-01  0.10000000475E-02 0. -1.
</event>
<event>
 4   0  0.2441219E-02  0.9118800E+02  0.7818609E-02  0.1379984E+01
      -11   -1    0    0    0    0  0.00000000000E+00  0.00000000000E+00  0.35740347158E-01  0.35744000000E-01  0.51099999109E-03 0.  1.
       11   -1    0    0    0    0 -0.00000000000E+00 -0.00000000000E+00 -0.35740347158E-01  0.35744000000E-01  0.51099999109E-03 0. -1.
       22    1    1    2    0    0  0.57472706124E-02 -0.25317508542E-01 -0.24558628354E-01  0.35737005818E-01  0.00000000000E+00 0. -1.
  9000001    1    1    2    0    0 -0.57472706124E-02  0.25317508542E-01  0.24558628354E-01  0.35750994182E-01  0.10000000475E-02 0.  1.
</event>
<event>
 4   0  0.2441219E-02  0.9118800E+02  0.7818609E-02  0.1379984E+01
      -11   -1    0    0    0    0  0.00000000000E+00  0.00000000000E+00  0.35740347158E-01  0.35744000000E-01  0.51099999109E-03 0. -1.
       11   -1    0    0    0    0 -0.00000000000E+00 -0.00000000000E+00 -0.35740347158E-01  0.35744000000E-01  0.51099999109E-03 0.  1.
       22    1    1    2    0    0  0.24711297969E-01  0.41443184786E-02 -0.25481561214E-01  0.35737005818E-01  0.00000000000E+00 0.  1.
  9000001    1    1    2    0    0 -0.24711297969E-01 -0.41443184786E-02  0.25481561214E-01  0.35750994182E-01  0.10000000475E-02 0. -1.
</event>
<event>
 4   0  0.2441219E-02  0.9118800E+02  0.7818609E-02  0.1379984E+01
      -11   -1    0    0    0    0  0.00000000000E+00  0.00000000000E+00  0.35740347158E-01  0.35744000000E-01  0.51099999109E-03 0. -1.
       11   -1    0    0    0    0 -0.00000000000E+00 -0.00000000000E+00 -0.35740347158E-01  0.35744000000E-01  0.51099999109E-03 0.  1.
       22    1    1    2    0    0  0.49647327822E-02  0.37413645240E-02  0.35192146919E-01  0.35737005818E-01  0.00000000000E+00 0. -1.
  9000001    1    1    2    0    0 -0.49647327822E-02 -0.37413645240E-02 -0.35192146919E-01  0.35750994182E-01  0.10000000475E-02 0.  1.
</event>
<event>
 4   0  0.2441219E-02  0.9118800E+02  0.7818609E-02  0.1379984E+01
      -11   -1    0    0    0    0  0.00000000000E+00  0.00000000000E+00  0.35740347158E-01  0.35744000000E-01  0.51099999109E-03 0.  1.
       11   -1    0    0    0    0 -0.00000000000E+00 -0.00000000000E+00 -0.35740347158E-01  0.35744000000E-01  0.51099999109E-03 0. -1.
       22    1    1    2    0    0 -0.16891637869E-01  0.99828480850E-02 -0.29868861697E-01  0.35737005818E-01  0.00000000000E+00 0. -1.
  9000001    1    1    2    0    0  0.16891637869E-01 -0.99828480850E-02  0.29868861697E-01  0.35750994182E-01  0.10000000475E-02 0.  1.
</event>
<event>
 4   0  0.2441219E-02  0.9118800E+02  0.7818609E-02  0.1379984E+01
      -11   -1    0    0    0    0  0.00000000000E+00  0.00000000000E+00  0.35740347158E-01  0.35744000000E-01  0.51099999109E-03 0. -1.
       11   -1    0    0    0    0 -0.00000000000E+00 -0.00000000000E+00 -0.35740347158E-01  0.35744000000E-01  0.51099999109E-03 0.  1.
       22    1    1    2    0    0  0.47522110065E-02 -0.29419541040E-01  0.19724114186E-01  0.35737005818E-01  0.00000000000E+00 0. -1.
  9000001    1    1    2    0    0 -0.47522110065E-02  0.29419541040E-01 -0.19724114186E-01  0.35750994182E-01  0.10000000475E-02 0.  1.
</event>
<event>
 4   0  0.2441219E-02  0.9118800E+02  0.7818609E-02  0.1379984E+01
      -11   -1    0    0    0    0  0.00000000000E+00  0.00000000000E+00  0.35740347158E-01  0.35744000000E-01  0.51099999109E-03 0.  1.
       11   -1    0    0    0    0 -0.00000000000E+00 -0.00000000000E+00 -0.35740347158E-01  0.35744000000E-01  0.51099999109E-03 0. -1.
       22    1    1    2    0    0  0.25465206220E-01  0.78360201755E-02  0.23817087245E-01  0.35737005818E-01  0.00000000000E+00 0.  1.
  9000001    1    1    2    0    0 -0.25465206220E-01 -0.78360201755E-02 -0.23817087245E-01  0.35750994182E-01  0.10000000475E-02 0. -1.
</event>
<event>
 4   0  0.2441219E-02  0.9118800E+02  0.7818609E-02  0.1379984E+01
      -11   -1    0    0    0    0  0.00000000000E+00  0.00000000000E+00  0.35740347158E-01  0.35744000000E-01  0.51099999109E-03 0.  1.
       11   -1    0    0    0    0 -0.00000000000E+00 -0.00000000000E+00 -0.35740347158E-01  0.35744000000E-01  0.51099999109E-03 0. -1.
       22    1    1    2    0    0 -0.46953870645E-03  0.38886269785E-02 -0.35521707427E-01  0.35737005818E-01  0.00000000000E+00 0. -1.
  9000001    1    1    2    0    0  0.46953870645E-03 -0.38886269785E-02  0.35521707427E-01  0.35750994182E-01  0.10000000475E-02 0.  1.
</event>
<event>
 4   0  0.2441219E-02  0.9118800E+02  0.7818609E-02  0.1379984E+01
      -11   -1    0    0    0    0  0.00000000000E+00  0.00000000000E+00  0.35740347158E-01  0.35744000000E-01  0.51099999109E-03 0. -1.
       11   -1    0    0    0    0 -0.00000000000E+00 -0.00000000000E+00 -0.35740347158E-01  0.35744000000E-01  0.51099999109E-03 0.  1.
       22    1    1    2    0    0 -0.16536879009E-01  0.28701886408E-01 -0.13411447876E-01  0.35737005818E-01  0.00000000000E+00 0.  1.
  9000001    1    1    2    0    0  0.16536879009E-01 -0.28701886408E-01  0.13411447876E-01  0.35750994182E-01  0.10000000475E-02 0. -1.
</event>
<event>
 4   0  0.2441219E-02  0.9118800E+02  0.7818609E-02  0.1379984E+01
      -11   -1    0    0    0    0  0.00000000000E+00  0.00000000000E+00  0.35740347158E-01  0.35744000000E-01  0.51099999109E-03 0.  1.
       11   -1    0    0    0    0 -0.00000000000E+00 -0.00000000000E+00 -0.35740347158E-01  0.35744000000E-01  0.51099999109E-03 0. -1.
       22    1    1    2    0    0 -0.31259207546E-02 -0.55899530891E-02  0.35158421875E-01  0.35737005818E-01  0.00000000000E+00 0.  1.
  9000001    1    1    2    0    0  0.31259207546E-02  0.55899530891E-02 -0.35158421875E-01  0.35750994182E-01  0.10000000475E-02 0. -1.
</event>
<event>
 4   0  0.2441219E-02  0.9118800E+02  0.7818609E-02  0.1379984E+01
      -11   -1    0    0    0    0  0.00000000000E+00  0.00000000000E+00  0.35740347158E-01  0.35744000000E-01  0.51099999109E-03 0. -1.
       11   -1    0    0    0    0 -0.00000000000E+00 -0.00000000000E+00 -0.35740347158E-01  0.35744000000E-01  0.51099999109E-03 0.  1.
       22    1    1    2    0    0  0.39050986832E-02 -0.10247099297E-01 -0.34012949668E-01  0.35737005818E-01  0.00000000000E+00 0.  1.
  9000001    1    1    2    0    0 -0.39050986832E-02  0.10247099297E-01  0.34012949668E-01  0.35750994182E-01  0.10000000475E-02 0. -1.
</event>
<event>
 4   0  0.2441219E-02  0.9118800E+02  0.7818609E-02  0.1379984E+01
      -11   -1    0    0    0    0  0.00000000000E+00  0.00000000000E+00  0.35740347158E-01  0.35744000000E-01  0.51099999109E-03 0.  1.
       11   -1    0    0    0    0 -0.00000000000E+00 -0.00000000000E+00 -0.35740347158E-01  0.35744000000E-01  0.51099999109E-03 0. -1.
       22    1    1    2    0    0  0.46048448671E-02  0.47431359385E-02 -0.35120245587E-01  0.35737005818E-01  0.00000000000E+00 0. -1.
  9000001    1    1    2    0    0 -0.46048448671E-02 -0.47431359385E-02  0.35120245587E-01  0.35750994182E-01  0.10000000475E-02 0.  1.
</event>
<event>
 4   0  0.2441219E-02  0.9118800E+02  0.7818609E-02  0.1379984E+01
      -11   -1    0    0    0    0  0.00000000000E+00  0.00000000000E+00  0.35740347158E-01  0.35744000000E-01  0.51099999109E-03 0. -1.
       11   -1    0    0    0    0 -0.00000000000E+00 -0.00000000000E+00 -0.35740347158E-01  0.35744000000E-01  0.51099999109E-03 0.  1.
       22    1    1    2    0    0 -0.38425542974E-02 -0.13759121214E-03 -0.35529557132E-01  0.35737005818E-01  0.00000000000E+00 0.  1.
  9000001    1    1    2    0    0  0.38425542974E-02  0.13759121214E-03  0.35529557132E-01  0.35750994182E-01  0.10000000475E-02 0. -1.
</event>
<event>
 4   0  0.2441219E-02  0.9118800E+02  0.7818609E-02  0.1379984E+01
      -11   -1    0    0    0    0  0.00000000000E+00  0.00000000000E+00  0.35740347158E-01  0.35744000000E-01  0.51099999109E-03 0.  1.
       11   -1    0    0    0    0 -0.00000000000E+00 -0.00000000000E+00 -0.35740347158E-01  0.35744000000E-01  0.51099999109E-03 0. -1.
       22    1    1    2    0    0 -0.26572761914E-01  0.41066201316E-02 -0.23540551825E-01  0.35737005818E-01  0.00000000000E+00 0. -1.
  9000001    1    1    2    0    0  0.26572761914E-01 -0.41066201316E-02  0.23540551825E-01  0.35750994182E-01  0.10000000475E-02 0.  1.
</event>
<event>
 4   0  0.2441219E-02  0.9118800E+02  0.7818609E-02  0.1379984E+01
      -11   -1    0    0    0    0  0.00000000000E+00  0.00000000000E+00  0.35740347158E-01  0.35744000000E-01  0.51099999109E-03 0.  1.
       11   -1    0    0    0    0 -0.00000000000E+00 -0.00000000000E+00 -0.35740347158E-01  0.35744000000E-01  0.51099999109E-03 0. -1.
       22    1    1    2    0    0  0.34948105133E-02 -0.21695696214E-02 -0.35499476785E-01  0.35737005818E-01  0.00000000000E+00 0. -1.
  9000001    1    1    2    0    0 -0.34948105133E-02  0.21695696214E-02  0.35499476785E-01  0.35750994182E-01  0.10000000475E-02 0.  1.
</event>
<event>
 4   0  0.2441219E-02  0.9118800E+02  0.7818609E-02  0.1379984E+01
      -11   -1    0    0    0    0  0.00000000000E+00  0.00000000000E+00  0.35740347158E-01  0.35744000000E-01  0.51099999109E-03 0.  1.
       11   -1    0    0    0    0 -0.00000000000E+00 -0.00000000000E+00 -0.35740347158E-01  0.35744000000E-01  0.51099999109E-03 0. -1.
       22    1    1    2    0    0 -0.90263081245E-03 -0.36093527052E-02 -0.35542811025E-01  0.35737005818E-01  0.00000000000E+00 0. -1.
  9000001    1    1    2    0    0  0.90263081245E-03  0.36093527052E-02  0.35542811025E-01  0.35750994182E-01  0.10000000475E-02 0.  1.
</event>
<event>
 4   0  0.2441219E-02  0.9118800E+02  0.7818609E-02  0.1379984E+01
      -11   -1    0    0    0    0  0.00000000000E+00  0.00000000000E+00  0.35740347158E-01  0.35744000000E-01  0.51099999109E-03 0. -1.
       11   -1    0    0    0    0 -0.00000000000E+00 -0.00000000000E+00 -0.35740347158E-01  0.35744000000E-01  0.51099999109E-03 0.  1.
       22    1    1    2    0    0  0.14740081214E-01 -0.10225241676E-01 -0.30908057579E-01  0.35737005818E-01  0.00000000000E+00 0.  1.
  9000001    1    1    2    0    0 -0.14740081214E-01  0.10225241676E-01  0.30908057579E-01  0.35750994182E-01  0.10000000475E-02 0. -1.
</event>
<event>
 4   0  0.2441219E-02  0.9118800E+02  0.7818609E-02  0.1379984E+01
      -11   -1    0    0    0    0  0.00000000000E+00  0.00000000000E+00  0.35740347158E-01  0.35744000000E-01  0.51099999109E-03 0. -1.
       11   -1    0    0    0    0 -0.00000000000E+00 -0.00000000000E+00 -0.35740347158E-01  0.35744000000E-01  0.51099999109E-03 0.  1.
       22    1    1    2    0    0  0.20439580418E-01 -0.32804420050E-02  0.29130668332E-01  0.35737005818E-01  0.00000000000E+00 0. -1.
  9000001    1    1    2    0    0 -0.20439580418E-01  0.32804420050E-02 -0.29130668332E-01  0.35750994182E-01  0.10000000475E-02 0.  1.
</event>
<event>
 4   0  0.2441219E-02  0.9118800E+02  0.7818609E-02  0.1379984E+01
      -11   -1    0    0    0    0  0.00000000000E+00  0.00000000000E+00  0.35740347158E-01  0.35744000000E-01  0.51099999109E-03 0.  1.
       11   -1    0    0    0    0 -0.00000000000E+00 -0.00000000000E+00 -0.35740347158E-01  0.35744000000E-01  0.51099999109E-03 0. -1.
       22    1    1    2    0    0 -0.42362020081E-02  0.34645848067E-01 -0.76715962563E-02  0.35737005818E-01  0.00000000000E+00 0.  1.
  9000001    1    1    2    0    0  0.42362020081E-02 -0.34645848067E-01  0.76715962563E-02  0.35750994182E-01  0.10000000475E-02 0. -1.
</event>
<event>
 4   0  0.2441219E-02  0.9118800E+02  0.7818609E-02  0.1379984E+01
      -11   -1    0    0    0    0  0.00000000000E+00  0.00000000000E+00  0.35740347158E-01  0.35744000000E-01  0.51099999109E-03 0.  1.
       11   -1    0    0    0    0 -0.00000000000E+00 -0.00000000000E+00 -0.35740347158E-01  0.35744000000E-01  0.51099999109E-03 0. -1.
       22    1    1    2    0    0 -0.10409653010E-01  0.71308430057E-03  0.34179880337E-01  0.35737005818E-01  0.00000000000E+00 0.  1.
  9000001    1    1    2    0    0  0.10409653010E-01 -0.71308430057E-03 -0.34179880337E-01  0.35750994182E-01  0.10000000475E-02 0. -1.
</event>
<event>
 4   0  0.2441219E-02  0.9118800E+02  0.7818609E-02  0.1379984E+01
      -11   -1    0    0    0    0  0.00000000000E+00  0.00000000000E+00  0.35740347158E-01  0.35744000000E-01  0.51099999109E-03 0.  1.
       11   -1    0    0    0    0 -0.00000000000E+00 -0.00000000000E+00 -0.35740347158E-01  0.35744000000E-01  0.51099999109E-03 0. -1.
       22    1    1    2    0    0 -0.19370122213E-01  0.30993328779E-02  0.29871827631E-01  0.35737005818E-01  0.00000000000E+00 0.  1.
  9000001    1    1    2    0    0  0.19370122213E-01 -0.30993328779E-02 -0.29871827631E-01  0.35750994182E-01  0.10000000475E-02 0. -1.
</event>
<event>
 4   0  0.2441219E-02  0.9118800E+02  0.7818609E-02  0.1379984E+01
      -11   -1    0    0    0    0  0.00000000000E+00  0.00000000000E+00  0.35740347158E-01  0.35744000000E-01  0.51099999109E-03 0.  1.
       11   -1    0    0    0    0 -0.00000000000E+00 -0.00000000000E+00 -0.35740347158E-01  0.35744000000E-01  0.51099999109E-03 0. -1.
       22    1    1    2    0    0  0.38932832104E-02  0.12580589688E-02  0.35502017102E-01  0.35737005818E-01  0.00000000000E+00 0.  1.
  9000001    1    1    2    0    0 -0.38932832104E-02 -0.12580589688E-02 -0.35502017102E-01  0.35750994182E-01  0.10000000475E-02 0. -1.
</event>
<event>
 4   0  0.2441219E-02  0.9118800E+02  0.7818609E-02  0.1379984E+01
      -11   -1    0    0    0    0  0.00000000000E+00  0.00000000000E+00  0.35740347158E-01  0.35744000000E-01  0.51099999109E-03 0. -1.
       11   -1    0    0    0    0 -0.00000000000E+00 -0.00000000000E+00 -0.35740347158E-01  0.35744000000E-01  0.51099999109E-03 0.  1.
       22    1    1    2    0    0 -0.16595038558E-01  0.13523660167E-01  0.28615535917E-01  0.35737005818E-01  0.00000000000E+00 0. -1.
  9000001    1    1    2    0    0  0.16595038558E-01 -0.13523660167E-01 -0.28615535917E-01  0.35750994182E-01  0.10000000475E-02 0.  1.
</event>
<event>
 4   0  0.2441219E-02  0.9118800E+02  0.7818609E-02  0.1379984E+01
      -11   -1    0    0    0    0  0.00000000000E+00  0.00000000000E+00  0.35740347158E-01  0.35744000000E-01  0.51099999109E-03 0. -1.
       11   -1    0    0    0    0 -0.00000000000E+00 -0.00000000000E+00 -0.35740347158E-01  0.35744000000E-01  0.51099999109E-03 0.  1.
       22    1    1    2    0    0 -0.37463040389E-03  0.15835660127E-01 -0.32034748404E-01  0.35737005818E-01  0.00000000000E+00 0.  1.
  9000001    1    1    2    0    0  0.37463040389E-03 -0.15835660127E-01  0.32034748404E-01  0.35750994182E-01  0.10000000475E-02 0. -1.
</event>
<event>
 4   0  0.2441219E-02  0.9118800E+02  0.7818609E-02  0.1379984E+01
      -11   -1    0    0    0    0  0.00000000000E+00  0.00000000000E+00  0.35740347158E-01  0.35744000000E-01  0.51099999109E-03 0.  1.
       11   -1    0    0    0    0 -0.00000000000E+00 -0.00000000000E+00 -0.35740347158E-01  0.35744000000E-01  0.51099999109E-03 0. -1.
       22    1    1    2    0    0 -0.15161723811E-01  0.15748795285E-02 -0.32322986719E-01  0.35737005818E-01  0.00000000000E+00 0. -1.
  9000001    1    1    2    0    0  0.15161723811E-01 -0.15748795285E-02  0.32322986719E-01  0.35750994182E-01  0.10000000475E-02 0.  1.
</event>
<event>
 4   0  0.2441219E-02  0.9118800E+02  0.7818609E-02  0.1379984E+01
      -11   -1    0    0    0    0  0.00000000000E+00  0.00000000000E+00  0.35740347158E-01  0.35744000000E-01  0.51099999109E-03 0. -1.
       11   -1    0    0    0    0 -0.00000000000E+00 -0.00000000000E+00 -0.35740347158E-01  0.35744000000E-01  0.51099999109E-03 0.  1.
       22    1    1    2    0    0 -0.35323193322E-02 -0.12666239538E-02  0.35539442437E-01  0.35737005818E-01  0.00000000000E+00 0. -1.
  9000001    1    1    2    0    0  0.35323193322E-02  0.12666239538E-02 -0.35539442437E-01  0.35750994182E-01  0.10000000475E-02 0.  1.
</event>
<event>
 4   0  0.2441219E-02  0.9118800E+02  0.7818609E-02  0.1379984E+01
      -11   -1    0    0    0    0  0.00000000000E+00  0.00000000000E+00  0.35740347158E-01  0.35744000000E-01  0.51099999109E-03 0. -1.
       11   -1    0    0    0    0 -0.00000000000E+00 -0.00000000000E+00 -0.35740347158E-01  0.35744000000E-01  0.51099999109E-03 0.  1.
       22    1    1    2    0    0  0.40490266536E-02  0.16057796193E-02 -0.35470557366E-01  0.35737005818E-01  0.00000000000E+00 0.  1.
  9000001    1    1    2    0    0 -0.40490266536E-02 -0.16057796193E-02  0.35470557366E-01  0.35750994182E-01  0.10000000475E-02 0. -1.
</event>
<event>
 4   0  0.2441219E-02  0.9118800E+02  0.7818609E-02  0.1379984E+01
      -11   -1    0    0    0    0  0.00000000000E+00  0.00000000000E+00  0.35740347158E-01  0.35744000000E-01  0.51099999109E-03 0.  1.
       11   -1    0    0    0    0 -0.00000000000E+00 -0.00000000000E+00 -0.35740347158E-01  0.35744000000E-01  0.51099999109E-03 0. -1.
       22    1    1    2    0    0  0.33354814792E-02  0.51482754455E-02 -0.35206581886E-01  0.35737005818E-01  0.00000000000E+00 0. -1.
  9000001    1    1    2    0    0 -0.33354814792E-02 -0.51482754455E-02  0.35206581886E-01  0.35750994182E-01  0.10000000475E-02 0.  1.
</event>
<event>
 4   0  0.2441219E-02  0.9118800E+02  0.7818609E-02  0.1379984E+01
      -11   -1    0    0    0    0  0.00000000000E+00  0.00000000000E+00  0.35740347158E-01  0.35744000000E-01  0.51099999109E-03 0.  1.
       11   -1    0    0    0    0 -0.00000000000E+00 -0.00000000000E+00 -0.35740347158E-01  0.35744000000E-01  0.51099999109E-03 0. -1.
       22    1    1    2    0    0 -0.74063615210E-02  0.32343517083E-02  0.34811181579E-01  0.35737005818E-01  0.00000000000E+00 0.  1.
  9000001    1    1    2    0    0  0.74063615210E-02 -0.32343517083E-02 -0.34811181579E-01  0.35750994182E-01  0.10000000475E-02 0. -1.
</event>
<event>
 4   0  0.2441219E-02  0.9118800E+02  0.7818609E-02  0.1379984E+01
      -11   -1    0    0    0    0  0.00000000000E+00  0.00000000000E+00  0.35740347158E-01  0.35744000000E-01  0.51099999109E-03 0.  1.
       11   -1    0    0    0    0 -0.00000000000E+00 -0.00000000000E+00 -0.35740347158E-01  0.35744000000E-01  0.51099999109E-03 0. -1.
       22    1    1    2    0    0  0.86947816809E-02  0.34800166152E-02  0.34488024599E-01  0.35737005818E-01  0.00000000000E+00 0.  1.
  9000001    1    1    2    0    0 -0.86947816809E-02 -0.34800166152E-02 -0.34488024599E-01  0.35750994182E-01  0.10000000475E-02 0. -1.
</event>
<event>
 4   0  0.2441219E-02  0.9118800E+02  0.7818609E-02  0.1379984E+01
      -11   -1    0    0    0    0  0.00000000000E+00  0.00000000000E+00  0.35740347158E-01  0.35744000000E-01  0.51099999109E-03 0. -1.
       11   -1    0    0    0    0 -0.00000000000E+00 -0.00000000000E+00 -0.35740347158E-01  0.35744000000E-01  0.51099999109E-03 0.  1.
       22    1    1    2    0    0 -0.28012950580E-02 -0.13614246568E-02  0.35601023212E-01  0.35737005818E-01  0.00000000000E+00 0. -1.
  9000001    1    1    2    0    0  0.28012950580E-02  0.13614246568E-02 -0.35601023212E-01  0.35750994182E-01  0.10000000475E-02 0.  1.
</event>
<event>
 4   0  0.2441219E-02  0.9118800E+02  0.7818609E-02  0.1379984E+01
      -11   -1    0    0    0    0  0.00000000000E+00  0.00000000000E+00  0.35740347158E-01  0.35744000000E-01  0.51099999109E-03 0. -1.
       11   -1    0    0    0    0 -0.00000000000E+00 -0.00000000000E+00 -0.35740347158E-01  0.35744000000E-01  0.51099999109E-03 0.  1.
       22    1    1    2    0    0  0.95804201393E-02 -0.18136271456E-01  0.29264736331E-01  0.35737005818E-01  0.00000000000E+00 0. -1.
  9000001    1    1    2    0    0 -0.95804201393E-02  0.18136271456E-01 -0.29264736331E-01  0.35750994182E-01  0.10000000475E-02 0.  1.
</event>
<event>
 4   0  0.2441219E-02  0.9118800E+02  0.7818609E-02  0.1379984E+01
      -11   -1    0    0    0    0  0.00000000000E+00  0.00000000000E+00  0.35740347158E-01  0.35744000000E-01  0.51099999109E-03 0. -1.
       11   -1    0    0    0    0 -0.00000000000E+00 -0.00000000000E+00 -0.35740347158E-01  0.35744000000E-01  0.51099999109E-03 0.  1.
       22    1    1    2    0    0 -0.23181933300E-01  0.14950071794E-01 -0.22720627339E-01  0.35737005818E-01  0.00000000000E+00 0.  1.
  9000001    1    1    2    0    0  0.23181933300E-01 -0.14950071794E-01  0.22720627339E-01  0.35750994182E-01  0.10000000475E-02 0. -1.
</event>
<event>
 4   0  0.2441219E-02  0.9118800E+02  0.7818609E-02  0.1379984E+01
      -11   -1    0    0    0    0  0.00000000000E+00  0.00000000000E+00  0.35740347158E-01  0.35744000000E-01  0.51099999109E-03 0. -1.
       11   -1    0    0    0    0 -0.00000000000E+00 -0.00000000000E+00 -0.35740347158E-01  0.35744000000E-01  0.51099999109E-03 0.  1.
       22    1    1    2    0    0 -0.37635320329E-02 -0.70052704870E-02  0.34841004534E-01  0.35737005818E-01  0.00000000000E+00 0. -1.
  9000001    1    1    2    0    0  0.37635320329E-02  0.70052704870E-02 -0.34841004534E-01  0.35750994182E-01  0.10000000475E-02 0.  1.
</event>
<event>
 4   0  0.2441219E-02  0.9118800E+02  0.7818609E-02  0.1379984E+01
      -11   -1    0    0    0    0  0.00000000000E+00  0.00000000000E+00  0.35740347158E-01  0.35744000000E-01  0.51099999109E-03 0.  1.
       11   -1    0    0    0    0 -0.00000000000E+00 -0.00000000000E+00 -0.35740347158E-01  0.35744000000E-01  0.51099999109E-03 0. -1.
       22    1    1    2    0    0 -0.29182299166E-01 -0.14881769273E-01  0.14284955148E-01  0.35737005818E-01  0.00000000000E+00 0.  1.
  9000001    1    1    2    0    0  0.29182299166E-01  0.14881769273E-01 -0.14284955148E-01  0.35750994182E-01  0.10000000475E-02 0. -1.
</event>
<event>
 4   0  0.2441219E-02  0.9118800E+02  0.7818609E-02  0.1379984E+01
      -11   -1    0    0    0    0  0.00000000000E+00  0.00000000000E+00  0.35740347158E-01  0.35744000000E-01  0.51099999109E-03 0. -1.
       11   -1    0    0    0    0 -0.00000000000E+00 -0.00000000000E+00 -0.35740347158E-01  0.35744000000E-01  0.51099999109E-03 0.  1.
       22    1    1    2    0    0  0.31255587864E-01 -0.16645851801E-01  0.48101382438E-02  0.35737005818E-01  0.00000000000E+00 0. -1.
  9000001    1    1    2    0    0 -0.31255587864E-01  0.16645851801E-01 -0.48101382438E-02  0.35750994182E-01  0.10000000475E-02 0.  1.
</event>
<event>
 4   0  0.2441219E-02  0.9118800E+02  0.7818609E-02  0.1379984E+01
      -11   -1    0    0    0    0  0.00000000000E+00  0.00000000000E+00  0.35740347158E-01  0.35744000000E-01  0.51099999109E-03 0. -1.
       11   -1    0    0    0    0 -0.00000000000E+00 -0.00000000000E+00 -0.35740347158E-01  0.35744000000E-01  0.51099999109E-03 0.  1.
       22    1    1    2    0    0  0.19233360228E-01  0.15586559884E-02 -0.30079594923E-01  0.35737005818E-01  0.00000000000E+00 0.  1.
  9000001    1    1    2    0    0 -0.19233360228E-01 -0.15586559884E-02  0.30079594923E-01  0.35750994182E-01  0.10000000475E-02 0. -1.
</event>
<event>
 4   0  0.2441219E-02  0.9118800E+02  0.7818609E-02  0.1379984E+01
      -11   -1    0    0    0    0  0.00000000000E+00  0.00000000000E+00  0.35740347158E-01  0.35744000000E-01  0.51099999109E-03 0.  1.
       11   -1    0    0    0    0 -0.00000000000E+00 -0.00000000000E+00 -0.35740347158E-01  0.35744000000E-01  0.51099999109E-03 0. -1.
       22    1    1    2    0    0  0.10734556293E-02 -0.35342528285E-02 -0.35545609220E-01  0.35737005818E-01  0.00000000000E+00 0. -1.
  9000001    1    1    2    0    0 -0.10734556293E-02  0.35342528285E-02  0.35545609220E-01  0.35750994182E-01  0.10000000475E-02 0.  1.
</event>
<event>
 4   0  0.2441219E-02  0.9118800E+02  0.7818609E-02  0.1379984E+01
      -11   -1    0    0    0    0  0.00000000000E+00  0.00000000000E+00  0.35740347158E-01  0.35744000000E-01  0.51099999109E-03 0. -1.
       11   -1    0    0    0    0 -0.00000000000E+00 -0.00000000000E+00 -0.35740347158E-01  0.35744000000E-01  0.51099999109E-03 0.  1.
       22    1    1    2    0    0 -0.71448386879E-02 -0.86289620506E-02  0.33935613725E-01  0.35737005818E-01  0.00000000000E+00 0. -1.
  9000001    1    1    2    0    0  0.71448386879E-02  0.86289620506E-02 -0.33935613725E-01  0.35750994182E-01  0.10000000475E-02 0.  1.
</event>
<event>
 4   0  0.2441219E-02  0.9118800E+02  0.7818609E-02  0.1379984E+01
      -11   -1    0    0    0    0  0.00000000000E+00  0.00000000000E+00  0.35740347158E-01  0.35744000000E-01  0.51099999109E-03 0.  1.
       11   -1    0    0    0    0 -0.00000000000E+00 -0.00000000000E+00 -0.35740347158E-01  0.35744000000E-01  0.51099999109E-03 0. -1.
       22    1    1    2    0    0  0.70433247031E-02 -0.60337442248E-03 -0.35030859272E-01  0.35737005818E-01  0.00000000000E+00 0. -1.
  9000001    1    1    2    0    0 -0.70433247031E-02  0.60337442248E-03  0.35030859272E-01  0.35750994182E-01  0.10000000475E-02 0.  1.
</event>
<event>
 4   0  0.2441219E-02  0.9118800E+02  0.7818609E-02  0.1379984E+01
      -11   -1    0    0    0    0  0.00000000000E+00  0.00000000000E+00  0.35740347158E-01  0.35744000000E-01  0.51099999109E-03 0. -1.
       11   -1    0    0    0    0 -0.00000000000E+00 -0.00000000000E+00 -0.35740347158E-01  0.35744000000E-01  0.51099999109E-03 0.  1.
       22    1    1    2    0    0 -0.58665480042E-02  0.92959609128E-02 -0.34004445446E-01  0.35737005818E-01  0.00000000000E+00 0.  1.
  9000001    1    1    2    0    0  0.58665480042E-02 -0.92959609128E-02  0.34004445446E-01  0.35750994182E-01  0.10000000475E-02 0. -1.
</event>
<event>
 4   0  0.2441219E-02  0.9118800E+02  0.7818609E-02  0.1379984E+01
      -11   -1    0    0    0    0  0.00000000000E+00  0.00000000000E+00  0.35740347158E-01  0.35744000000E-01  0.51099999109E-03 0.  1.
       11   -1    0    0    0    0 -0.00000000000E+00 -0.00000000000E+00 -0.35740347158E-01  0.35744000000E-01  0.51099999109E-03 0. -1.
       22    1    1    2    0    0 -0.89196546860E-02 -0.12334850841E-01  0.32333029550E-01  0.35737005818E-01  0.00000000000E+00 0.  1.
  9000001    1    1    2    0    0  0.89196546860E-02  0.12334850841E-01 -0.32333029550E-01  0.35750994182E-01  0.10000000475E-02 0. -1.
</event>
<event>
 4   0  0.2441219E-02  0.9118800E+02  0.7818609E-02  0.1379984E+01
      -11   -1    0    0    0    0  0.00000000000E+00  0.00000000000E+00  0.35740347158E-01  0.35744000000E-01  0.51099999109E-03 0. -1.
       11   -1    0    0    0    0 -0.00000000000E+00 -0.00000000000E+00 -0.35740347158E-01  0.35744000000E-01  0.51099999109E-03 0.  1.
       22    1    1    2    0    0 -0.99201808625E-03 -0.34459954273E-02  0.35556639331E-01  0.35737005818E-01  0.00000000000E+00 0. -1.
  9000001    1    1    2    0    0  0.99201808625E-03  0.34459954273E-02 -0.35556639331E-01  0.35750994182E-01  0.10000000475E-02 0.  1.
</event>
<event>
 4   0  0.2441219E-02  0.9118800E+02  0.7818609E-02  0.1379984E+01
      -11   -1    0    0    0    0  0.00000000000E+00  0.00000000000E+00  0.35740347158E-01  0.35744000000E-01  0.51099999109E-03 0.  1.
       11   -1    0    0    0    0 -0.00000000000E+00 -0.00000000000E+00 -0.35740347158E-01  0.35744000000E-01  0.51099999109E-03 0. -1.
       22    1    1    2    0    0 -0.77163686572E-02  0.25172062071E-03  0.34893092101E-01  0.35737005818E-01  0.00000000000E+00 0.  1.
  9000001    1    1    2    0    0  0.77163686572E-02 -0.25172062071E-03 -0.34893092101E-01  0.35750994182E-01  0.10000000475E-02 0. -1.
</event>
<event>
 4   0  0.2441219E-02  0.9118800E+02  0.7818609E-02  0.1379984E+01
      -11   -1    0    0    0    0  0.00000000000E+00  0.00000000000E+00  0.35740347158E-01  0.35744000000E-01  0.51099999109E-03 0.  1.
       11   -1    0    0    0    0 -0.00000000000E+00 -0.00000000000E+00 -0.35740347158E-01  0.35744000000E-01  0.51099999109E-03 0. -1.
       22    1    1    2    0    0 -0.47985729550E-02 -0.37206791517E-02 -0.35217379646E-01  0.35737005818E-01  0.00000000000E+00 0. -1.
  9000001    1    1    2    0    0  0.47985729550E-02  0.37206791517E-02  0.35217379646E-01  0.35750994182E-01  0.10000000475E-02 0.  1.
</event>
<event>
 4   0  0.2441219E-02  0.9118800E+02  0.7818609E-02  0.1379984E+01
      -11   -1    0    0    0    0  0.00000000000E+00  0.00000000000E+00  0.35740347158E-01  0.35744000000E-01  0.51099999109E-03 0. -1.
       11   -1    0    0    0    0 -0.00000000000E+00 -0.00000000000E+00 -0.35740347158E-01  0.35744000000E-01  0.51099999109E-03 0.  1.
       22    1    1    2    0    0 -0.61002628360E-02  0.68039909352E-02 -0.34548894129E-01  0.35737005818E-01  0.00000000000E+00 0.  1.
  9000001    1    1    2    0    0  0.61002628360E-02 -0.68039909352E-02  0.34548894129E-01  0.35750994182E-01  0.10000000475E-02 0. -1.
</event>
<event>
 4   0  0.2441219E-02  0.9118800E+02  0.7818609E-02  0.1379984E+01
      -11   -1    0    0    0    0  0.00000000000E+00  0.00000000000E+00  0.35740347158E-01  0.35744000000E-01  0.51099999109E-03 0.  1.
       11   -1    0    0    0    0 -0.00000000000E+00 -0.00000000000E+00 -0.35740347158E-01  0.35744000000E-01  0.51099999109E-03 0. -1.
       22    1    1    2    0    0  0.14768099702E-01 -0.96358852346E-02  0.31083541172E-01  0.35737005818E-01  0.00000000000E+00 0.  1.
  9000001    1    1    2    0    0 -0.14768099702E-01  0.96358852346E-02 -0.31083541172E-01  0.35750994182E-01  0.10000000475E-02 0. -1.
</event>
<event>
 4   0  0.2441219E-02  0.9118800E+02  0.7818609E-02  0.1379984E+01
      -11   -1    0    0    0    0  0.00000000000E+00  0.00000000000E+00  0.35740347158E-01  0.35744000000E-01  0.51099999109E-03 0.  1.
       11   -1    0    0    0    0 -0.00000000000E+00 -0.00000000000E+00 -0.35740347158E-01  0.35744000000E-01  0.51099999109E-03 0. -1.
       22    1    1    2    0    0  0.10583060940E-02  0.38853815847E-02 -0.35509398517E-01  0.35737005818E-01  0.00000000000E+00 0. -1.
  9000001    1    1    2    0    0 -0.10583060940E-02 -0.38853815847E-02  0.35509398517E-01  0.35750994182E-01  0.10000000475E-02 0.  1.
</event>
<event>
 4   0  0.2441219E-02  0.9118800E+02  0.7818609E-02  0.1379984E+01
      -11   -1    0    0    0    0  0.00000000000E+00  0.00000000000E+00  0.35740347158E-01  0.35744000000E-01  0.51099999109E-03 0. -1.
       11   -1    0    0    0    0 -0.00000000000E+00 -0.00000000000E+00 -0.35740347158E-01  0.35744000000E-01  0.51099999109E-03 0.  1.
       22    1    1    2    0    0  0.10356963418E-01  0.14691065615E-01  0.30887529599E-01  0.35737005818E-01  0.00000000000E+00 0. -1.
  9000001    1    1    2    0    0 -0.10356963418E-01 -0.14691065615E-01 -0.30887529599E-01  0.35750994182E-01  0.10000000475E-02 0.  1.
</event>
<event>
 4   0  0.2441219E-02  0.9118800E+02  0.7818609E-02  0.1379984E+01
      -11   -1    0    0    0    0  0.00000000000E+00  0.00000000000E+00  0.35740347158E-01  0.35744000000E-01  0.51099999109E-03 0.  1.
       11   -1    0    0    0    0 -0.00000000000E+00 -0.00000000000E+00 -0.35740347158E-01  0.35744000000E-01  0.51099999109E-03 0. -1.
       22    1    1    2    0    0 -0.63490280541E-02  0.55142115880E-02  0.34733512610E-01  0.35737005818E-01  0.00000000000E+00 0.  1.
  9000001    1    1    2    0    0  0.63490280541E-02 -0.55142115880E-02 -0.34733512610E-01  0.35750994182E-01  0.10000000475E-02 0. -1.
</event>
<event>
 4   0  0.2441219E-02  0.9118800E+02  0.7818609E-02  0.1379984E+01
      -11   -1    0    0    0    0  0.00000000000E+00  0.00000000000E+00  0.35740347158E-01  0.35744000000E-01  0.51099999109E-03 0. -1.
       11   -1    0    0    0    0 -0.00000000000E+00 -0.00000000000E+00 -0.35740347158E-01  0.35744000000E-01  0.51099999109E-03 0.  1.
       22    1    1    2    0    0  0.33261043916E-02 -0.20077108803E-02  0.35525198261E-01  0.35737005818E-01  0.00000000000E+00 0. -1.
  9000001    1    1    2    0    0 -0.33261043916E-02  0.20077108803E-02 -0.35525198261E-01  0.35750994182E-01  0.10000000475E-02 0.  1.
</event>
<event>
 4   0  0.2441219E-02  0.9118800E+02  0.7818609E-02  0.1379984E+01
      -11   -1    0    0    0    0  0.00000000000E+00  0.00000000000E+00  0.35740347158E-01  0.35744000000E-01  0.51099999109E-03 0.  1.
       11   -1    0    0    0    0 -0.00000000000E+00 -0.00000000000E+00 -0.35740347158E-01  0.35744000000E-01  0.51099999109E-03 0. -1.
       22    1    1    2    0    0  0.35324309510E-02 -0.58976694201E-02  0.35069545361E-01  0.35737005818E-01  0.00000000000E+00 0.  1.
  9000001    1    1    2    0    0 -0.35324309510E-02  0.58976694201E-02 -0.35069545361E-01  0.35750994182E-01  0.10000000475E-02 0. -1.
</event>
<event>
 4   0  0.2441219E-02  0.9118800E+02  0.7818609E-02  0.1379984E+01
      -11   -1    0    0    0    0  0.00000000000E+00  0.00000000000E+00  0.35740347158E-01  0.35744000000E-01  0.51099999109E-03 0. -1.
       11   -1    0    0    0    0 -0.00000000000E+00 -0.00000000000E+00 -0.35740347158E-01  0.35744000000E-01  0.51099999109E-03 0.  1.
       22    1    1    2    0    0 -0.12073110148E-01 -0.90008307033E-02 -0.32409236999E-01  0.35737005818E-01  0.00000000000E+00 0.  1.
  9000001    1    1    2    0    0  0.12073110148E-01  0.90008307033E-02  0.32409236999E-01  0.35750994182E-01  0.10000000475E-02 0. -1.
</event>
<event>
 4   0  0.2441219E-02  0.9118800E+02  0.7818609E-02  0.1379984E+01
      -11   -1    0    0    0    0  0.00000000000E+00  0.00000000000E+00  0.35740347158E-01  0.35744000000E-01  0.51099999109E-03 0.  1.
       11   -1    0    0    0    0 -0.00000000000E+00 -0.00000000000E+00 -0.35740347158E-01  0.35744000000E-01  0.51099999109E-03 0. -1.
       22    1    1    2    0    0  0.28467347361E-01  0.16466815865E-01  0.13985267047E-01  0.35737005818E-01  0.00000000000E+00 0.  1.
  9000001    1    1    2    0    0 -0.28467347361E-01 -0.16466815865E-01 -0.13985267047E-01  0.35750994182E-01  0.10000000475E-02 0. -1.
</event>
<event>
 4   0  0.2441219E-02  0.9118800E+02  0.7818609E-02  0.1379984E+01
      -11   -1    0    0    0    0  0.00000000000E+00  0.00000000000E+00  0.35740347158E-01  0.35744000000E-01  0.51099999109E-03 0. -1.
       11   -1    0    0    0    0 -0.00000000000E+00 -0.00000000000E+00 -0.35740347158E-01  0.35744000000E-01  0.51099999109E-03 0.  1.
       22    1    1    2    0    0 -0.19660383777E-02 -0.23352898021E-02 -0.35606385656E-01  0.35737005818E-01  0.00000000000E+00 0.  1.
  9000001    1    1    2    0    0  0.19660383777E-02  0.23352898021E-02  0.35606385656E-01  0.35750994182E-01  0.10000000475E-02 0. -1.
</event>
<event>
 4   0  0.2441219E-02  0.9118800E+02  0.7818609E-02  0.1379984E+01
      -11   -1    0    0    0    0  0.00000000000E+00  0.00000000000E+00  0.35740347158E-01  0.35744000000E-01  0.51099999109E-03 0. -1.
       11   -1    0    0    0    0 -0.00000000000E+00 -0.00000000000E+00 -0.35740347158E-01  0.35744000000E-01  0.51099999109E-03 0.  1.
       22    1    1    2    0    0 -0.79324625415E-02 -0.60485224976E-02  0.34316541179E-01  0.35737005818E-01  0.00000000000E+00 0. -1.
  9000001    1    1    2    0    0  0.79324625415E-02  0.60485224976E-02 -0.34316541179E-01  0.35750994182E-01  0.10000000475E-02 0.  1.
</event>
<event>
 4   0  0.2441219E-02  0.9118800E+02  0.7818609E-02  0.1379984E+01
      -11   -1    0    0    0    0  0.00000000000E+00  0.00000000000E+00  0.35740347158E-01  0.35744000000E-01  0.51099999109E-03 0. -1.
       11   -1    0    0    0    0 -0.00000000000E+00 -0.00000000000E+00 -0.35740347158E-01  0.35744000000E-01  0.51099999109E-03 0.  1.
       22    1    1    2    0    0 -0.22201586216E-01  0.25728507134E-01  0.11057444326E-01  0.35737005818E-01  0.00000000000E+00 0. -1.
  9000001    1    1    2    0    0  0.22201586216E-01 -0.25728507134E-01 -0.11057444326E-01  0.35750994182E-01  0.10000000475E-02 0.  1.
</event>
<event>
 4   0  0.2441219E-02  0.9118800E+02  0.7818609E-02  0.1379984E+01
      -11   -1    0    0    0    0  0.00000000000E+00  0.00000000000E+00  0.35740347158E-01  0.35744000000E-01  0.51099999109E-03 0. -1.
       11   -1    0    0    0    0 -0.00000000000E+00 -0.00000000000E+00 -0.35740347158E-01  0.35744000000E-01  0.51099999109E-03 0.  1.
       22    1    1    2    0    0 -0.42581115392E-02 -0.58139152986E-02 -0.35002863596E-01  0.35737005818E-01  0.00000000000E+00 0.  1.
  9000001    1    1    2    0    0  0.42581115392E-02  0.58139152986E-02  0.35002863596E-01  0.35750994182E-01  0.10000000475E-02 0. -1.
</event>
<event>
 4   0  0.2441219E-02  0.9118800E+02  0.7818609E-02  0.1379984E+01
      -11   -1    0    0    0    0  0.00000000000E+00  0.00000000000E+00  0.35740347158E-01  0.35744000000E-01  0.51099999109E-03 0. -1.
       11   -1    0    0    0    0 -0.00000000000E+00 -0.00000000000E+00 -0.35740347158E-01  0.35744000000E-01  0.51099999109E-03 0.  1.
       22    1    1    2    0    0 -0.11472221159E-01 -0.15244828861E-02 -0.33811206404E-01  0.35737005818E-01  0.00000000000E+00 0.  1.
  9000001    1    1    2    0    0  0.11472221159E-01  0.15244828861E-02  0.33811206404E-01  0.35750994182E-01  0.10000000475E-02 0. -1.
</event>
<event>
 4   0  0.2441219E-02  0.9118800E+02  0.7818609E-02  0.1379984E+01
      -11   -1    0    0    0    0  0.00000000000E+00  0.00000000000E+00  0.35740347158E-01  0.35744000000E-01  0.51099999109E-03 0.  1.
       11   -1    0    0    0    0 -0.00000000000E+00 -0.00000000000E+00 -0.35740347158E-01  0.35744000000E-01  0.51099999109E-03 0. -1.
       22    1    1    2    0    0  0.15385738268E-02  0.52297258538E-02 -0.35318781731E-01  0.35737005818E-01  0.00000000000E+00 0. -1.
  9000001    1    1    2    0    0 -0.15385738268E-02 -0.52297258538E-02  0.35318781731E-01  0.35750994182E-01  0.10000000475E-02 0.  1.
</event>
<event>
 4   0  0.2441219E-02  0.9118800E+02  0.7818609E-02  0.1379984E+01
      -11   -1    0    0    0    0  0.00000000000E+00  0.00000000000E+00  0.35740347158E-01  0.35744000000E-01  0.51099999109E-03 0.  1.
       11   -1    0    0    0    0 -0.00000000000E+00 -0.00000000000E+00 -0.35740347158E-01  0.35744000000E-01  0.51099999109E-03 0. -1.
       22    1    1    2    0    0  0.11248849103E-01 -0.60077055868E-02 -0.33384194648E-01  0.35737005818E-01  0.00000000000E+00 0. -1.
  9000001    1    1    2    0    0 -0.11248849103E-01  0.60077055868E-02  0.33384194648E-01  0.35750994182E-01  0.10000000475E-02 0.  1.
</event>
<event>
 4   0  0.2441219E-02  0.9118800E+02  0.7818609E-02  0.1379984E+01
      -11   -1    0    0    0    0  0.00000000000E+00  0.00000000000E+00  0.35740347158E-01  0.35744000000E-01  0.51099999109E-03 0. -1.
       11   -1    0    0    0    0 -0.00000000000E+00 -0.00000000000E+00 -0.35740347158E-01  0.35744000000E-01  0.51099999109E-03 0.  1.
       22    1    1    2    0    0  0.14472985845E-02  0.72101429367E-02 -0.34972171087E-01  0.35737005818E-01  0.00000000000E+00 0.  1.
  9000001    1    1    2    0    0 -0.14472985845E-02 -0.72101429367E-02  0.34972171087E-01  0.35750994182E-01  0.10000000475E-02 0. -1.
</event>
<event>
 4   0  0.2441219E-02  0.9118800E+02  0.7818609E-02  0.1379984E+01
      -11   -1    0    0    0    0  0.00000000000E+00  0.00000000000E+00  0.35740347158E-01  0.35744000000E-01  0.51099999109E-03 0. -1.
       11   -1    0    0    0    0 -0.00000000000E+00 -0.00000000000E+00 -0.35740347158E-01  0.35744000000E-01  0.51099999109E-03 0.  1.
       22    1    1    2    0    0 -0.33002024252E-02 -0.61584113037E-02 -0.35047342539E-01  0.35737005818E-01  0.00000000000E+00 0.  1.
  9000001    1    1    2    0    0  0.33002024252E-02  0.61584113037E-02  0.35047342539E-01  0.35750994182E-01  0.10000000475E-02 0. -1.
</event>
<event>
 4   0  0.2441219E-02  0.9118800E+02  0.7818609E-02  0.1379984E+01
      -11   -1    0    0    0    0  0.00000000000E+00  0.00000000000E+00  0.35740347158E-01  0.35744000000E-01  0.51099999109E-03 0.  1.
       11   -1    0    0    0    0 -0.00000000000E+00 -0.00000000000E+00 -0.35740347158E-01  0.35744000000E-01  0.51099999109E-03 0. -1.
       22    1    1    2    0    0 -0.14351341477E-01 -0.76526165572E-03 -0.32719825141E-01  0.35737005818E-01  0.00000000000E+00 0. -1.
  9000001    1    1    2    0    0  0.14351341477E-01  0.76526165572E-03  0.32719825141E-01  0.35750994182E-01  0.10000000475E-02 0.  1.
</event>
<event>
 4   0  0.2441219E-02  0.9118800E+02  0.7818609E-02  0.1379984E+01
      -11   -1    0    0    0    0  0.00000000000E+00  0.00000000000E+00  0.35740347158E-01  0.35744000000E-01  0.51099999109E-03 0. -1.
       11   -1    0    0    0    0 -0.00000000000E+00 -0.00000000000E+00 -0.35740347158E-01  0.35744000000E-01  0.51099999109E-03 0.  1.
       22    1    1    2    0    0 -0.13152805271E-01  0.39790123748E-02  0.32989464362E-01  0.35737005818E-01  0.00000000000E+00 0. -1.
  9000001    1    1    2    0    0  0.13152805271E-01 -0.39790123748E-02 -0.32989464362E-01  0.35750994182E-01  0.10000000475E-02 0.  1.
</event>
<event>
 4   0  0.2441219E-02  0.9118800E+02  0.7818609E-02  0.1379984E+01
      -11   -1    0    0    0    0  0.00000000000E+00  0.00000000000E+00  0.35740347158E-01  0.35744000000E-01  0.51099999109E-03 0. -1.
       11   -1    0    0    0    0 -0.00000000000E+00 -0.00000000000E+00 -0.35740347158E-01  0.35744000000E-01  0.51099999109E-03 0.  1.
       22    1    1    2    0    0  0.91592519163E-02 -0.56563682956E-02 -0.34077077147E-01  0.35737005818E-01  0.00000000000E+00 0.  1.
  9000001    1    1    2    0    0 -0.91592519163E-02  0.56563682956E-02  0.34077077147E-01  0.35750994182E-01  0.10000000475E-02 0. -1.
</event>
<event>
 4   0  0.2441219E-02  0.9118800E+02  0.7818609E-02  0.1379984E+01
      -11   -1    0    0    0    0  0.00000000000E+00  0.00000000000E+00  0.35740347158E-01  0.35744000000E-01  0.51099999109E-03 0. -1.
       11   -1    0    0    0    0 -0.00000000000E+00 -0.00000000000E+00 -0.35740347158E-01  0.35744000000E-01  0.51099999109E-03 0.  1.
       22    1    1    2    0    0 -0.83060912501E-04 -0.50539876556E-02  0.35377731619E-01  0.35737005818E-01  0.00000000000E+00 0. -1.
  9000001    1    1    2    0    0  0.83060912501E-04  0.50539876556E-02 -0.35377731619E-01  0.35750994182E-01  0.10000000475E-02 0.  1.
</event>
<event>
 4   0  0.2441219E-02  0.9118800E+02  0.7818609E-02  0.1379984E+01
      -11   -1    0    0    0    0  0.00000000000E+00  0.00000000000E+00  0.35740347158E-01  0.35744000000E-01  0.51099999109E-03 0. -1.
       11   -1    0    0    0    0 -0.00000000000E+00 -0.00000000000E+00 -0.35740347158E-01  0.35744000000E-01  0.51099999109E-03 0.  1.
       22    1    1    2    0    0  0.11823368551E-02 -0.31749274838E-02 -0.35576052337E-01  0.35737005818E-01  0.00000000000E+00 0.  1.
  9000001    1    1    2    0    0 -0.11823368551E-02  0.31749274838E-02  0.35576052337E-01  0.35750994182E-01  0.10000000475E-02 0. -1.
</event>
<event>
 4   0  0.2441219E-02  0.9118800E+02  0.7818609E-02  0.1379984E+01
      -11   -1    0    0    0    0  0.00000000000E+00  0.00000000000E+00  0.35740347158E-01  0.35744000000E-01  0.51099999109E-03 0. -1.
       11   -1    0    0    0    0 -0.00000000000E+00 -0.00000000000E+00 -0.35740347158E-01  0.35744000000E-01  0.51099999109E-03 0.  1.
       22    1    1    2    0    0 -0.37894769657E-02 -0.33147617592E-02  0.35380585123E-01  0.35737005818E-01  0.00000000000E+00 0. -1.
  9000001    1    1    2    0    0  0.37894769657E-02  0.33147617592E-02 -0.35380585123E-01  0.35750994182E-01  0.10000000475E-02 0.  1.
</event>
<event>
 4   0  0.2441219E-02  0.9118800E+02  0.7818609E-02  0.1379984E+01
      -11   -1    0    0    0    0  0.00000000000E+00  0.00000000000E+00  0.35740347158E-01  0.35744000000E-01  0.51099999109E-03 0. -1.
       11   -1    0    0    0    0 -0.00000000000E+00 -0.00000000000E+00 -0.35740347158E-01  0.35744000000E-01  0.51099999109E-03 0.  1.
       22    1    1    2    0    0 -0.44672866219E-02 -0.21877911475E-02  0.35389129758E-01  0.35737005818E-01  0.00000000000E+00 0. -1.
  9000001    1    1    2    0    0  0.44672866219E-02  0.21877911475E-02 -0.35389129758E-01  0.35750994182E-01  0.10000000475E-02 0.  1.
</event>
<event>
 4   0  0.2441219E-02  0.9118800E+02  0.7818609E-02  0.1379984E+01
      -11   -1    0    0    0    0  0.00000000000E+00  0.00000000000E+00  0.35740347158E-01  0.35744000000E-01  0.51099999109E-03 0. -1.
       11   -1    0    0    0    0 -0.00000000000E+00 -0.00000000000E+00 -0.35740347158E-01  0.35744000000E-01  0.51099999109E-03 0.  1.
       22    1    1    2    0    0  0.10159398467E-01 -0.70274224660E-02 -0.33534095204E-01  0.35737005818E-01  0.00000000000E+00 0.  1.
  9000001    1    1    2    0    0 -0.10159398467E-01  0.70274224660E-02  0.33534095204E-01  0.35750994182E-01  0.10000000475E-02 0. -1.
</event>
<event>
 4   0  0.2441219E-02  0.9118800E+02  0.7818609E-02  0.1379984E+01
      -11   -1    0    0    0    0  0.00000000000E+00  0.00000000000E+00  0.35740347158E-01  0.35744000000E-01  0.51099999109E-03 0. -1.
       11   -1    0    0    0    0 -0.00000000000E+00 -0.00000000000E+00 -0.35740347158E-01  0.35744000000E-01  0.51099999109E-03 0.  1.
       22    1    1    2    0    0  0.83735810721E-02  0.23523698673E-01  0.25566625230E-01  0.35737005818E-01  0.00000000000E+00 0. -1.
  9000001    1    1    2    0    0 -0.83735810721E-02 -0.23523698673E-01 -0.25566625230E-01  0.35750994182E-01  0.10000000475E-02 0.  1.
</event>
<event>
 4   0  0.2441219E-02  0.9118800E+02  0.7818609E-02  0.1379984E+01
      -11   -1    0    0    0    0  0.00000000000E+00  0.00000000000E+00  0.35740347158E-01  0.35744000000E-01  0.51099999109E-03 0.  1.
       11   -1    0    0    0    0 -0.00000000000E+00 -0.00000000000E+00 -0.35740347158E-01  0.35744000000E-01  0.51099999109E-03 0. -1.
       22    1    1    2    0    0 -0.36657306415E-02 -0.40108314472E-02  0.35321512352E-01  0.35737005818E-01  0.00000000000E+00 0.  1.
  9000001    1    1    2    0    0  0.36657306415E-02  0.40108314472E-02 -0.35321512352E-01  0.35750994182E-01  0.10000000475E-02 0. -1.
</event>
<event>
 4   0  0.2441219E-02  0.9118800E+02  0.7818609E-02  0.1379984E+01
      -11   -1    0    0    0    0  0.00000000000E+00  0.00000000000E+00  0.35740347158E-01  0.35744000000E-01  0.51099999109E-03 0.  1.
       11   -1    0    0    0    0 -0.00000000000E+00 -0.00000000000E+00 -0.35740347158E-01  0.35744000000E-01  0.51099999109E-03 0. -1.
       22    1    1    2    0    0 -0.10220830889E-01  0.30977463306E-01  0.14596745115E-01  0.35737005818E-01  0.00000000000E+00 0.  1.
  9000001    1    1    2    0    0  0.10220830889E-01 -0.30977463306E-01 -0.14596745115E-01  0.35750994182E-01  0.10000000475E-02 0. -1.
</event>
<event>
 4   0  0.2441219E-02  0.9118800E+02  0.7818609E-02  0.1379984E+01
      -11   -1    0    0    0    0  0.00000000000E+00  0.00000000000E+00  0.35740347158E-01  0.35744000000E-01  0.51099999109E-03 0.  1.
       11   -1    0    0    0    0 -0.00000000000E+00 -0.00000000000E+00 -0.35740347158E-01  0.35744000000E-01  0.51099999109E-03 0. -1.
       22    1    1    2    0    0  0.32002397220E-02 -0.52239101599E-02 -0.35207993599E-01  0.35737005818E-01  0.00000000000E+00 0. -1.
  9000001    1    1    2    0    0 -0.32002397220E-02  0.52239101599E-02  0.35207993599E-01  0.35750994182E-01  0.10000000475E-02 0.  1.
</event>
<event>
 4   0  0.2441219E-02  0.9118800E+02  0.7818609E-02  0.1379984E+01
      -11   -1    0    0    0    0  0.00000000000E+00  0.00000000000E+00  0.35740347158E-01  0.35744000000E-01  0.51099999109E-03 0. -1.
       11   -1    0    0    0    0 -0.00000000000E+00 -0.00000000000E+00 -0.35740347158E-01  0.35744000000E-01  0.51099999109E-03 0.  1.
       22    1    1    2    0    0 -0.71682096204E-03 -0.22261424294E-01  0.27947249256E-01  0.35737005818E-01  0.00000000000E+00 0. -1.
  9000001    1    1    2    0    0  0.71682096204E-03  0.22261424294E-01 -0.27947249256E-01  0.35750994182E-01  0.10000000475E-02 0.  1.
</event>
<event>
 4   0  0.2441219E-02  0.9118800E+02  0.7818609E-02  0.1379984E+01
      -11   -1    0    0    0    0  0.00000000000E+00  0.00000000000E+00  0.35740347158E-01  0.35744000000E-01  0.51099999109E-03 0.  1.
       11   -1    0    0    0    0 -0.00000000000E+00 -0.00000000000E+00 -0.35740347158E-01  0.35744000000E-01  0.51099999109E-03 0. -1.
       22    1    1    2    0    0  0.10276281311E-01 -0.15227289161E-01 -0.30653895219E-01  0.35737005818E-01  0.00000000000E+00 0. -1.
  9000001    1    1    2    0    0 -0.10276281311E-01  0.15227289161E-01  0.30653895219E-01  0.35750994182E-01  0.10000000475E-02 0.  1.
</event>
<event>
 4   0  0.2441219E-02  0.9118800E+02  0.7818609E-02  0.1379984E+01
      -11   -1    0    0    0    0  0.00000000000E+00  0.00000000000E+00  0.35740347158E-01  0.35744000000E-01  0.51099999109E-03 0.  1.
       11   -1    0    0    0    0 -0.00000000000E+00 -0.00000000000E+00 -0.35740347158E-01  0.35744000000E-01  0.51099999109E-03 0. -1.
       22    1    1    2    0    0  0.45029098615E-02 -0.13294357948E-03 -0.35451935260E-01  0.35737005818E-01  0.00000000000E+00 0. -1.
  9000001    1    1    2    0    0 -0.45029098615E-02  0.13294357948E-03  0.35451935260E-01  0.35750994182E-01  0.10000000475E-02 0.  1.
</event>
<event>
 4   0  0.2441219E-02  0.9118800E+02  0.7818609E-02  0.1379984E+01
      -11   -1    0    0    0    0  0.00000000000E+00  0.00000000000E+00  0.35740347158E-01  0.35744000000E-01  0.51099999109E-03 0. -1.
       11   -1    0    0    0    0 -0.00000000000E+00 -0.00000000000E+00 -0.35740347158E-01  0.35744000000E-01  0.51099999109E-03 0.  1.
       22    1    1    2    0    0  0.83943183453E-02  0.86836188624E-02  0.33634264788E-01  0.35737005818E-01  0.00000000000E+00 0. -1.
  9000001    1    1    2    0    0 -0.83943183453E-02 -0.86836188624E-02 -0.33634264788E-01  0.35750994182E-01  0.10000000475E-02 0.  1.
</event>
<event>
 4   0  0.2441219E-02  0.9118800E+02  0.7818609E-02  0.1379984E+01
      -11   -1    0    0    0    0  0.00000000000E+00  0.00000000000E+00  0.35740347158E-01  0.35744000000E-01  0.51099999109E-03 0. -1.
       11   -1    0    0    0    0 -0.00000000000E+00 -0.00000000000E+00 -0.35740347158E-01  0.35744000000E-01  0.51099999109E-03 0.  1.
       22    1    1    2    0    0  0.90166765648E-02  0.62263496407E-02 -0.34015668430E-01  0.35737005818E-01  0.00000000000E+00 0.  1.
  9000001    1    1    2    0    0 -0.90166765648E-02 -0.62263496407E-02  0.34015668430E-01  0.35750994182E-01  0.10000000475E-02 0. -1.
</event>
<event>
 4   0  0.2441219E-02  0.9118800E+02  0.7818609E-02  0.1379984E+01
      -11   -1    0    0    0    0  0.00000000000E+00  0.00000000000E+00  0.35740347158E-01  0.35744000000E-01  0.51099999109E-03 0. -1.
       11   -1    0    0    0    0 -0.00000000000E+00 -0.00000000000E+00 -0.35740347158E-01  0.35744000000E-01  0.51099999109E-03 0.  1.
       22    1    1    2    0    0 -0.15912985609E-01 -0.10549500629E-01 -0.30209576468E-01  0.35737005818E-01  0.00000000000E+00 0.  1.
  9000001    1    1    2    0    0  0.15912985609E-01  0.10549500629E-01  0.30209576468E-01  0.35750994182E-01  0.10000000475E-02 0. -1.
</event>
<event>
 4   0  0.2441219E-02  0.9118800E+02  0.7818609E-02  0.1379984E+01
      -11   -1    0    0    0    0  0.00000000000E+00  0.00000000000E+00  0.35740347158E-01  0.35744000000E-01  0.51099999109E-03 0.  1.
       11   -1    0    0    0    0 -0.00000000000E+00 -0.00000000000E+00 -0.35740347158E-01  0.35744000000E-01  0.51099999109E-03 0. -1.
       22    1    1    2    0    0 -0.38029115886E-02 -0.50132712290E-02  0.35178666261E-01  0.35737005818E-01  0.00000000000E+00 0.  1.
  9000001    1    1    2    0    0  0.38029115886E-02  0.50132712290E-02 -0.35178666261E-01  0.35750994182E-01  0.10000000475E-02 0. -1.
</event>
<event>
 4   0  0.2441219E-02  0.9118800E+02  0.7818609E-02  0.1379984E+01
      -11   -1    0    0    0    0  0.00000000000E+00  0.00000000000E+00  0.35740347158E-01  0.35744000000E-01  0.51099999109E-03 0. -1.
       11   -1    0    0    0    0 -0.00000000000E+00 -0.00000000000E+00 -0.35740347158E-01  0.35744000000E-01  0.51099999109E-03 0.  1.
       22    1    1    2    0    0 -0.16455225198E-02 -0.29651070033E-02 -0.35575749900E-01  0.35737005818E-01  0.00000000000E+00 0.  1.
  9000001    1    1    2    0    0  0.16455225198E-02  0.29651070033E-02  0.35575749900E-01  0.35750994182E-01  0.10000000475E-02 0. -1.
</event>
<event>
 4   0  0.2441219E-02  0.9118800E+02  0.7818609E-02  0.1379984E+01
      -11   -1    0    0    0    0  0.00000000000E+00  0.00000000000E+00  0.35740347158E-01  0.35744000000E-01  0.51099999109E-03 0. -1.
       11   -1    0    0    0    0 -0.00000000000E+00 -0.00000000000E+00 -0.35740347158E-01  0.35744000000E-01  0.51099999109E-03 0.  1.
       22    1    1    2    0    0  0.64872486973E-02  0.34505059133E-02  0.34973464200E-01  0.35737005818E-01  0.00000000000E+00 0. -1.
  9000001    1    1    2    0    0 -0.64872486973E-02 -0.34505059133E-02 -0.34973464200E-01  0.35750994182E-01  0.10000000475E-02 0.  1.
</event>
<event>
 4   0  0.2441219E-02  0.9118800E+02  0.7818609E-02  0.1379984E+01
      -11   -1    0    0    0    0  0.00000000000E+00  0.00000000000E+00  0.35740347158E-01  0.35744000000E-01  0.51099999109E-03 0. -1.
       11   -1    0    0    0    0 -0.00000000000E+00 -0.00000000000E+00 -0.35740347158E-01  0.35744000000E-01  0.51099999109E-03 0.  1.
       22    1    1    2    0    0 -0.54602874179E-02 -0.34681238931E-02  0.35146706287E-01  0.35737005818E-01  0.00000000000E+00 0. -1.
  9000001    1    1    2    0    0  0.54602874179E-02  0.34681238931E-02 -0.35146706287E-01  0.35750994182E-01  0.10000000475E-02 0.  1.
</event>
<event>
 4   0  0.2441219E-02  0.9118800E+02  0.7818609E-02  0.1379984E+01
      -11   -1    0    0    0    0  0.00000000000E+00  0.00000000000E+00  0.35740347158E-01  0.35744000000E-01  0.51099999109E-03 0.  1.
       11   -1    0    0    0    0 -0.00000000000E+00 -0.00000000000E+00 -0.35740347158E-01  0.35744000000E-01  0.51099999109E-03 0.  1.
       22    1    1    2    0    0 -0.32242089515E-02  0.14002223181E-01  0.32721182856E-01  0.35737005818E-01  0.00000000000E+00 0.  1.
  9000001    1    1    2    0    0  0.32242089515E-02 -0.14002223181E-01 -0.32721182856E-01  0.35750994182E-01  0.10000000475E-02 0.  1.
</event>
<event>
 4   0  0.2441219E-02  0.9118800E+02  0.7818609E-02  0.1379984E+01
      -11   -1    0    0    0    0  0.00000000000E+00  0.00000000000E+00  0.35740347158E-01  0.35744000000E-01  0.51099999109E-03 0. -1.
       11   -1    0    0    0    0 -0.00000000000E+00 -0.00000000000E+00 -0.35740347158E-01  0.35744000000E-01  0.51099999109E-03 0.  1.
       22    1    1    2    0    0  0.16596274198E-01  0.40048768376E-02 -0.31395194364E-01  0.35737005818E-01  0.00000000000E+00 0.  1.
  9000001    1    1    2    0    0 -0.16596274198E-01 -0.40048768376E-02  0.31395194364E-01  0.35750994182E-01  0.10000000475E-02 0. -1.
</event>
<event>
 4   0  0.2441219E-02  0.9118800E+02  0.7818609E-02  0.1379984E+01
      -11   -1    0    0    0    0  0.00000000000E+00  0.00000000000E+00  0.35740347158E-01  0.35744000000E-01  0.51099999109E-03 0.  1.
       11   -1    0    0    0    0 -0.00000000000E+00 -0.00000000000E+00 -0.35740347158E-01  0.35744000000E-01  0.51099999109E-03 0. -1.
       22    1    1    2    0    0 -0.15493066740E-01 -0.16350652738E-01 -0.27744452110E-01  0.35737005818E-01  0.00000000000E+00 0. -1.
  9000001    1    1    2    0    0  0.15493066740E-01  0.16350652738E-01  0.27744452110E-01  0.35750994182E-01  0.10000000475E-02 0.  1.
</event>
<event>
 4   0  0.2441219E-02  0.9118800E+02  0.7818609E-02  0.1379984E+01
      -11   -1    0    0    0    0  0.00000000000E+00  0.00000000000E+00  0.35740347158E-01  0.35744000000E-01  0.51099999109E-03 0. -1.
       11   -1    0    0    0    0 -0.00000000000E+00 -0.00000000000E+00 -0.35740347158E-01  0.35744000000E-01  0.51099999109E-03 0.  1.
       22    1    1    2    0    0  0.34957114555E-02  0.30645655728E-02  0.35433346217E-01  0.35737005818E-01  0.00000000000E+00 0. -1.
  9000001    1    1    2    0    0 -0.34957114555E-02 -0.30645655728E-02 -0.35433346217E-01  0.35750994182E-01  0.10000000475E-02 0.  1.
</event>
<event>
 4   0  0.2441219E-02  0.9118800E+02  0.7818609E-02  0.1379984E+01
      -11   -1    0    0    0    0  0.00000000000E+00  0.00000000000E+00  0.35740347158E-01  0.35744000000E-01  0.51099999109E-03 0. -1.
       11   -1    0    0    0    0 -0.00000000000E+00 -0.00000000000E+00 -0.35740347158E-01  0.35744000000E-01  0.51099999109E-03 0.  1.
       22    1    1    2    0    0  0.16271298151E-01 -0.16334002998E-01 -0.27305288635E-01  0.35737005818E-01  0.00000000000E+00 0.  1.
  9000001    1    1    2    0    0 -0.16271298151E-01  0.16334002998E-01  0.27305288635E-01  0.35750994182E-01  0.10000000475E-02 0. -1.
</event>
<event>
 4   0  0.2441219E-02  0.9118800E+02  0.7818609E-02  0.1379984E+01
      -11   -1    0    0    0    0  0.00000000000E+00  0.00000000000E+00  0.35740347158E-01  0.35744000000E-01  0.51099999109E-03 0. -1.
       11   -1    0    0    0    0 -0.00000000000E+00 -0.00000000000E+00 -0.35740347158E-01  0.35744000000E-01  0.51099999109E-03 0.  1.
       22    1    1    2    0    0  0.37347259049E-02 -0.60032489666E-02 -0.35030649568E-01  0.35737005818E-01  0.00000000000E+00 0.  1.
  9000001    1    1    2    0    0 -0.37347259049E-02  0.60032489666E-02  0.35030649568E-01  0.35750994182E-01  0.10000000475E-02 0. -1.
</event>
<event>
 4   0  0.2441219E-02  0.9118800E+02  0.7818609E-02  0.1379984E+01
      -11   -1    0    0    0    0  0.00000000000E+00  0.00000000000E+00  0.35740347158E-01  0.35744000000E-01  0.51099999109E-03 0. -1.
       11   -1    0    0    0    0 -0.00000000000E+00 -0.00000000000E+00 -0.35740347158E-01  0.35744000000E-01  0.51099999109E-03 0.  1.
       22    1    1    2    0    0 -0.11973364936E-02  0.46500561706E-02 -0.35412948872E-01  0.35737005818E-01  0.00000000000E+00 0.  1.
  9000001    1    1    2    0    0  0.11973364936E-02 -0.46500561706E-02  0.35412948872E-01  0.35750994182E-01  0.10000000475E-02 0. -1.
</event>
<event>
 4   0  0.2441219E-02  0.9118800E+02  0.7818609E-02  0.1379984E+01
      -11   -1    0    0    0    0  0.00000000000E+00  0.00000000000E+00  0.35740347158E-01  0.35744000000E-01  0.51099999109E-03 0.  1.
       11   -1    0    0    0    0 -0.00000000000E+00 -0.00000000000E+00 -0.35740347158E-01  0.35744000000E-01  0.51099999109E-03 0. -1.
       22    1    1    2    0    0 -0.53041843150E-02  0.12152514497E-01  0.33186075469E-01  0.35737005818E-01  0.00000000000E+00 0.  1.
  9000001    1    1    2    0    0  0.53041843150E-02 -0.12152514497E-01 -0.33186075469E-01  0.35750994182E-01  0.10000000475E-02 0. -1.
</event>
<event>
 4   0  0.2441219E-02  0.9118800E+02  0.7818609E-02  0.1379984E+01
      -11   -1    0    0    0    0  0.00000000000E+00  0.00000000000E+00  0.35740347158E-01  0.35744000000E-01  0.51099999109E-03 0.  1.
       11   -1    0    0    0    0 -0.00000000000E+00 -0.00000000000E+00 -0.35740347158E-01  0.35744000000E-01  0.51099999109E-03 0. -1.
       22    1    1    2    0    0  0.14668460119E-03 -0.74623218378E-02  0.34948903006E-01  0.35737005818E-01  0.00000000000E+00 0.  1.
  9000001    1    1    2    0    0 -0.14668460119E-03  0.74623218378E-02 -0.34948903006E-01  0.35750994182E-01  0.10000000475E-02 0. -1.
</event>
<event>
 4   0  0.2441219E-02  0.9118800E+02  0.7818609E-02  0.1379984E+01
      -11   -1    0    0    0    0  0.00000000000E+00  0.00000000000E+00  0.35740347158E-01  0.35744000000E-01  0.51099999109E-03 0.  1.
       11   -1    0    0    0    0 -0.00000000000E+00 -0.00000000000E+00 -0.35740347158E-01  0.35744000000E-01  0.51099999109E-03 0. -1.
       22    1    1    2    0    0 -0.23924242637E-02 -0.10839158414E-01 -0.33969435319E-01  0.35737005818E-01  0.00000000000E+00 0. -1.
  9000001    1    1    2    0    0  0.23924242637E-02  0.10839158414E-01  0.33969435319E-01  0.35750994182E-01  0.10000000475E-02 0.  1.
</event>
<event>
 4   0  0.2441219E-02  0.9118800E+02  0.7818609E-02  0.1379984E+01
      -11   -1    0    0    0    0  0.00000000000E+00  0.00000000000E+00  0.35740347158E-01  0.35744000000E-01  0.51099999109E-03 0.  1.
       11   -1    0    0    0    0 -0.00000000000E+00 -0.00000000000E+00 -0.35740347158E-01  0.35744000000E-01  0.51099999109E-03 0. -1.
       22    1    1    2    0    0 -0.27231264947E-02  0.21788562399E-02 -0.35566427322E-01  0.35737005818E-01  0.00000000000E+00 0. -1.
  9000001    1    1    2    0    0  0.27231264947E-02 -0.21788562399E-02  0.35566427322E-01  0.35750994182E-01  0.10000000475E-02 0.  1.
</event>
<event>
 4   0  0.2441219E-02  0.9118800E+02  0.7818609E-02  0.1379984E+01
      -11   -1    0    0    0    0  0.00000000000E+00  0.00000000000E+00  0.35740347158E-01  0.35744000000E-01  0.51099999109E-03 0.  1.
       11   -1    0    0    0    0 -0.00000000000E+00 -0.00000000000E+00 -0.35740347158E-01  0.35744000000E-01  0.51099999109E-03 0. -1.
       22    1    1    2    0    0  0.75634909186E-04  0.31397557675E-01  0.17068135114E-01  0.35737005818E-01  0.00000000000E+00 0.  1.
  9000001    1    1    2    0    0 -0.75634909186E-04 -0.31397557675E-01 -0.17068135114E-01  0.35750994182E-01  0.10000000475E-02 0. -1.
</event>
<event>
 4   0  0.2441219E-02  0.9118800E+02  0.7818609E-02  0.1379984E+01
      -11   -1    0    0    0    0  0.00000000000E+00  0.00000000000E+00  0.35740347158E-01  0.35744000000E-01  0.51099999109E-03 0. -1.
       11   -1    0    0    0    0 -0.00000000000E+00 -0.00000000000E+00 -0.35740347158E-01  0.35744000000E-01  0.51099999109E-03 0.  1.
       22    1    1    2    0    0 -0.48341713272E-02 -0.36567001532E-03 -0.35406647086E-01  0.35737005818E-01  0.00000000000E+00 0.  1.
  9000001    1    1    2    0    0  0.48341713272E-02  0.36567001532E-03  0.35406647086E-01  0.35750994182E-01  0.10000000475E-02 0. -1.
</event>
<event>
 4   0  0.2441219E-02  0.9118800E+02  0.7818609E-02  0.1379984E+01
      -11   -1    0    0    0    0  0.00000000000E+00  0.00000000000E+00  0.35740347158E-01  0.35744000000E-01  0.51099999109E-03 0.  1.
       11   -1    0    0    0    0 -0.00000000000E+00 -0.00000000000E+00 -0.35740347158E-01  0.35744000000E-01  0.51099999109E-03 0. -1.
       22    1    1    2    0    0  0.36819305855E-02  0.35410233695E-01  0.31132493818E-02  0.35737005818E-01  0.00000000000E+00 0. -1.
  9000001    1    1    2    0    0 -0.36819305855E-02 -0.35410233695E-01 -0.31132493818E-02  0.35750994182E-01  0.10000000475E-02 0.  1.
</event>
<event>
 4   0  0.2441219E-02  0.9118800E+02  0.7818609E-02  0.1379984E+01
      -11   -1    0    0    0    0  0.00000000000E+00  0.00000000000E+00  0.35740347158E-01  0.35744000000E-01  0.51099999109E-03 0.  1.
       11   -1    0    0    0    0 -0.00000000000E+00 -0.00000000000E+00 -0.35740347158E-01  0.35744000000E-01  0.51099999109E-03 0. -1.
       22    1    1    2    0    0  0.62611659739E-02 -0.10301554255E-03  0.35184098302E-01  0.35737005818E-01  0.00000000000E+00 0.  1.
  9000001    1    1    2    0    0 -0.62611659739E-02  0.10301554255E-03 -0.35184098302E-01  0.35750994182E-01  0.10000000475E-02 0. -1.
</event>
<event>
 4   0  0.2441219E-02  0.9118800E+02  0.7818609E-02  0.1379984E+01
      -11   -1    0    0    0    0  0.00000000000E+00  0.00000000000E+00  0.35740347158E-01  0.35744000000E-01  0.51099999109E-03 0.  1.
       11   -1    0    0    0    0 -0.00000000000E+00 -0.00000000000E+00 -0.35740347158E-01  0.35744000000E-01  0.51099999109E-03 0.  1.
       22    1    1    2    0    0  0.17206899183E-02  0.36675407151E-02  0.35506646648E-01  0.35737005818E-01  0.00000000000E+00 0.  1.
  9000001    1    1    2    0    0 -0.17206899183E-02 -0.36675407151E-02 -0.35506646648E-01  0.35750994182E-01  0.10000000475E-02 0.  1.
</event>
<event>
 4   0  0.2441219E-02  0.9118800E+02  0.7818609E-02  0.1379984E+01
      -11   -1    0    0    0    0  0.00000000000E+00  0.00000000000E+00  0.35740347158E-01  0.35744000000E-01  0.51099999109E-03 0.  1.
       11   -1    0    0    0    0 -0.00000000000E+00 -0.00000000000E+00 -0.35740347158E-01  0.35744000000E-01  0.51099999109E-03 0. -1.
       22    1    1    2    0    0  0.35786684673E-02 -0.26477063043E-04 -0.35557362330E-01  0.35737005818E-01  0.00000000000E+00 0. -1.
  9000001    1    1    2    0    0 -0.35786684673E-02  0.26477063043E-04  0.35557362330E-01  0.35750994182E-01  0.10000000475E-02 0.  1.
</event>
<event>
 4   0  0.2441219E-02  0.9118800E+02  0.7818609E-02  0.1379984E+01
      -11   -1    0    0    0    0  0.00000000000E+00  0.00000000000E+00  0.35740347158E-01  0.35744000000E-01  0.51099999109E-03 0.  1.
       11   -1    0    0    0    0 -0.00000000000E+00 -0.00000000000E+00 -0.35740347158E-01  0.35744000000E-01  0.51099999109E-03 0. -1.
       22    1    1    2    0    0 -0.33883738411E-02  0.39226074567E-02  0.35359095836E-01  0.35737005818E-01  0.00000000000E+00 0.  1.
  9000001    1    1    2    0    0  0.33883738411E-02 -0.39226074567E-02 -0.35359095836E-01  0.35750994182E-01  0.10000000475E-02 0. -1.
</event>
<event>
 4   0  0.2441219E-02  0.9118800E+02  0.7818609E-02  0.1379984E+01
      -11   -1    0    0    0    0  0.00000000000E+00  0.00000000000E+00  0.35740347158E-01  0.35744000000E-01  0.51099999109E-03 0. -1.
       11   -1    0    0    0    0 -0.00000000000E+00 -0.00000000000E+00 -0.35740347158E-01  0.35744000000E-01  0.51099999109E-03 0.  1.
       22    1    1    2    0    0 -0.55458372255E-02  0.45645540694E-02  0.35007743722E-01  0.35737005818E-01  0.00000000000E+00 0. -1.
  9000001    1    1    2    0    0  0.55458372255E-02 -0.45645540694E-02 -0.35007743722E-01  0.35750994182E-01  0.10000000475E-02 0.  1.
</event>
<event>
 4   0  0.2441219E-02  0.9118800E+02  0.7818609E-02  0.1379984E+01
      -11   -1    0    0    0    0  0.00000000000E+00  0.00000000000E+00  0.35740347158E-01  0.35744000000E-01  0.51099999109E-03 0.  1.
       11   -1    0    0    0    0 -0.00000000000E+00 -0.00000000000E+00 -0.35740347158E-01  0.35744000000E-01  0.51099999109E-03 0. -1.
       22    1    1    2    0    0 -0.61330876687E-02  0.22047623049E-02  0.35137698327E-01  0.35737005818E-01  0.00000000000E+00 0.  1.
  9000001    1    1    2    0    0  0.61330876687E-02 -0.22047623049E-02 -0.35137698327E-01  0.35750994182E-01  0.10000000475E-02 0. -1.
</event>
<event>
 4   0  0.2441219E-02  0.9118800E+02  0.7818609E-02  0.1379984E+01
      -11   -1    0    0    0    0  0.00000000000E+00  0.00000000000E+00  0.35740347158E-01  0.35744000000E-01  0.51099999109E-03 0.  1.
       11   -1    0    0    0    0 -0.00000000000E+00 -0.00000000000E+00 -0.35740347158E-01  0.35744000000E-01  0.51099999109E-03 0. -1.
       22    1    1    2    0    0 -0.13177652810E-01 -0.13862250828E-01 -0.30188094562E-01  0.35737005818E-01  0.00000000000E+00 0. -1.
  9000001    1    1    2    0    0  0.13177652810E-01  0.13862250828E-01  0.30188094562E-01  0.35750994182E-01  0.10000000475E-02 0.  1.
</event>
<event>
 4   0  0.2441219E-02  0.9118800E+02  0.7818609E-02  0.1379984E+01
      -11   -1    0    0    0    0  0.00000000000E+00  0.00000000000E+00  0.35740347158E-01  0.35744000000E-01  0.51099999109E-03 0. -1.
       11   -1    0    0    0    0 -0.00000000000E+00 -0.00000000000E+00 -0.35740347158E-01  0.35744000000E-01  0.51099999109E-03 0.  1.
       22    1    1    2    0    0  0.20214147355E-02  0.35678226959E-02  0.35500959262E-01  0.35737005818E-01  0.00000000000E+00 0. -1.
  9000001    1    1    2    0    0 -0.20214147355E-02 -0.35678226959E-02 -0.35500959262E-01  0.35750994182E-01  0.10000000475E-02 0.  1.
</event>
<event>
 4   0  0.2441219E-02  0.9118800E+02  0.7818609E-02  0.1379984E+01
      -11   -1    0    0    0    0  0.00000000000E+00  0.00000000000E+00  0.35740347158E-01  0.35744000000E-01  0.51099999109E-03 0.  1.
       11   -1    0    0    0    0 -0.00000000000E+00 -0.00000000000E+00 -0.35740347158E-01  0.35744000000E-01  0.51099999109E-03 0. -1.
       22    1    1    2    0    0  0.36077690192E-02 -0.20479068230E-02 -0.35495403438E-01  0.35737005818E-01  0.00000000000E+00 0. -1.
  9000001    1    1    2    0    0 -0.36077690192E-02  0.20479068230E-02  0.35495403438E-01  0.35750994182E-01  0.10000000475E-02 0.  1.
</event>
<event>
 4   0  0.2441219E-02  0.9118800E+02  0.7818609E-02  0.1379984E+01
      -11   -1    0    0    0    0  0.00000000000E+00  0.00000000000E+00  0.35740347158E-01  0.35744000000E-01  0.51099999109E-03 0.  1.
       11   -1    0    0    0    0 -0.00000000000E+00 -0.00000000000E+00 -0.35740347158E-01  0.35744000000E-01  0.51099999109E-03 0. -1.
       22    1    1    2    0    0  0.61596075987E-02  0.11577095036E-01 -0.33244002311E-01  0.35737005818E-01  0.00000000000E+00 0. -1.
  9000001    1    1    2    0    0 -0.61596075987E-02 -0.11577095036E-01  0.33244002311E-01  0.35750994182E-01  0.10000000475E-02 0.  1.
</event>
<event>
 4   0  0.2441219E-02  0.9118800E+02  0.7818609E-02  0.1379984E+01
      -11   -1    0    0    0    0  0.00000000000E+00  0.00000000000E+00  0.35740347158E-01  0.35744000000E-01  0.51099999109E-03 0. -1.
       11   -1    0    0    0    0 -0.00000000000E+00 -0.00000000000E+00 -0.35740347158E-01  0.35744000000E-01  0.51099999109E-03 0.  1.
       22    1    1    2    0    0  0.20507093587E-01  0.19576657656E-02  0.29202058870E-01  0.35737005818E-01  0.00000000000E+00 0. -1.
  9000001    1    1    2    0    0 -0.20507093587E-01 -0.19576657656E-02 -0.29202058870E-01  0.35750994182E-01  0.10000000475E-02 0.  1.
</event>
<event>
 4   0  0.2441219E-02  0.9118800E+02  0.7818609E-02  0.1379984E+01
      -11   -1    0    0    0    0  0.00000000000E+00  0.00000000000E+00  0.35740347158E-01  0.35744000000E-01  0.51099999109E-03 0.  1.
       11   -1    0    0    0    0 -0.00000000000E+00 -0.00000000000E+00 -0.35740347158E-01  0.35744000000E-01  0.51099999109E-03 0. -1.
       22    1    1    2    0    0 -0.19506106783E-01 -0.16141509931E-01  0.25220964299E-01  0.35737005818E-01  0.00000000000E+00 0.  1.
  9000001    1    1    2    0    0  0.19506106783E-01  0.16141509931E-01 -0.25220964299E-01  0.35750994182E-01  0.10000000475E-02 0. -1.
</event>
<event>
 4   0  0.2441219E-02  0.9118800E+02  0.7818609E-02  0.1379984E+01
      -11   -1    0    0    0    0  0.00000000000E+00  0.00000000000E+00  0.35740347158E-01  0.35744000000E-01  0.51099999109E-03 0. -1.
       11   -1    0    0    0    0 -0.00000000000E+00 -0.00000000000E+00 -0.35740347158E-01  0.35744000000E-01  0.51099999109E-03 0.  1.
       22    1    1    2    0    0 -0.59769656370E-02 -0.23431333058E-01  0.26313154463E-01  0.35737005818E-01  0.00000000000E+00 0. -1.
  9000001    1    1    2    0    0  0.59769656370E-02  0.23431333058E-01 -0.26313154463E-01  0.35750994182E-01  0.10000000475E-02 0.  1.
</event>
<event>
 4   0  0.2441219E-02  0.9118800E+02  0.7818609E-02  0.1379984E+01
      -11   -1    0    0    0    0  0.00000000000E+00  0.00000000000E+00  0.35740347158E-01  0.35744000000E-01  0.51099999109E-03 0. -1.
       11   -1    0    0    0    0 -0.00000000000E+00 -0.00000000000E+00 -0.35740347158E-01  0.35744000000E-01  0.51099999109E-03 0.  1.
       22    1    1    2    0    0  0.33535982775E-01  0.77565142806E-02  0.96077016205E-02  0.35737005818E-01  0.00000000000E+00 0. -1.
  9000001    1    1    2    0    0 -0.33535982775E-01 -0.77565142806E-02 -0.96077016205E-02  0.35750994182E-01  0.10000000475E-02 0.  1.
</event>
<event>
 4   0  0.2441219E-02  0.9118800E+02  0.7818609E-02  0.1379984E+01
      -11   -1    0    0    0    0  0.00000000000E+00  0.00000000000E+00  0.35740347158E-01  0.35744000000E-01  0.51099999109E-03 0.  1.
       11   -1    0    0    0    0 -0.00000000000E+00 -0.00000000000E+00 -0.35740347158E-01  0.35744000000E-01  0.51099999109E-03 0. -1.
       22    1    1    2    0    0  0.30710174759E-01 -0.26184050802E-02  0.18087639591E-01  0.35737005818E-01  0.00000000000E+00 0.  1.
  9000001    1    1    2    0    0 -0.30710174759E-01  0.26184050802E-02 -0.18087639591E-01  0.35750994182E-01  0.10000000475E-02 0. -1.
</event>
<event>
 4   0  0.2441219E-02  0.9118800E+02  0.7818609E-02  0.1379984E+01
      -11   -1    0    0    0    0  0.00000000000E+00  0.00000000000E+00  0.35740347158E-01  0.35744000000E-01  0.51099999109E-03 0.  1.
       11   -1    0    0    0    0 -0.00000000000E+00 -0.00000000000E+00 -0.35740347158E-01  0.35744000000E-01  0.51099999109E-03 0. -1.
       22    1    1    2    0    0  0.10902430040E-01 -0.83993218830E-02 -0.32980630619E-01  0.35737005818E-01  0.00000000000E+00 0. -1.
  9000001    1    1    2    0    0 -0.10902430040E-01  0.83993218830E-02  0.32980630619E-01  0.35750994182E-01  0.10000000475E-02 0.  1.
</event>
<event>
 4   0  0.2441219E-02  0.9118800E+02  0.7818609E-02  0.1379984E+01
      -11   -1    0    0    0    0  0.00000000000E+00  0.00000000000E+00  0.35740347158E-01  0.35744000000E-01  0.51099999109E-03 0.  1.
       11   -1    0    0    0    0 -0.00000000000E+00 -0.00000000000E+00 -0.35740347158E-01  0.35744000000E-01  0.51099999109E-03 0. -1.
       22    1    1    2    0    0  0.24974986808E-02  0.12375973343E-01  0.33432489722E-01  0.35737005818E-01  0.00000000000E+00 0.  1.
  9000001    1    1    2    0    0 -0.24974986808E-02 -0.12375973343E-01 -0.33432489722E-01  0.35750994182E-01  0.10000000475E-02 0. -1.
</event>
<event>
 4   0  0.2441219E-02  0.9118800E+02  0.7818609E-02  0.1379984E+01
      -11   -1    0    0    0    0  0.00000000000E+00  0.00000000000E+00  0.35740347158E-01  0.35744000000E-01  0.51099999109E-03 0. -1.
       11   -1    0    0    0    0 -0.00000000000E+00 -0.00000000000E+00 -0.35740347158E-01  0.35744000000E-01  0.51099999109E-03 0.  1.
       22    1    1    2    0    0 -0.17476681359E-01 -0.59572912505E-02  0.30597546871E-01  0.35737005818E-01  0.00000000000E+00 0. -1.
  9000001    1    1    2    0    0  0.17476681359E-01  0.59572912505E-02 -0.30597546871E-01  0.35750994182E-01  0.10000000475E-02 0.  1.
</event>
<event>
 4   0  0.2441219E-02  0.9118800E+02  0.7818609E-02  0.1379984E+01
      -11   -1    0    0    0    0  0.00000000000E+00  0.00000000000E+00  0.35740347158E-01  0.35744000000E-01  0.51099999109E-03 0. -1.
       11   -1    0    0    0    0 -0.00000000000E+00 -0.00000000000E+00 -0.35740347158E-01  0.35744000000E-01  0.51099999109E-03 0.  1.
       22    1    1    2    0    0  0.59404809518E-03  0.73773651072E-02  0.34962196381E-01  0.35737005818E-01  0.00000000000E+00 0. -1.
  9000001    1    1    2    0    0 -0.59404809518E-03 -0.73773651072E-02 -0.34962196381E-01  0.35750994182E-01  0.10000000475E-02 0.  1.
</event>
<event>
 4   0  0.2441219E-02  0.9118800E+02  0.7818609E-02  0.1379984E+01
      -11   -1    0    0    0    0  0.00000000000E+00  0.00000000000E+00  0.35740347158E-01  0.35744000000E-01  0.51099999109E-03 0. -1.
       11   -1    0    0    0    0 -0.00000000000E+00 -0.00000000000E+00 -0.35740347158E-01  0.35744000000E-01  0.51099999109E-03 0.  1.
       22    1    1    2    0    0 -0.16318278655E-02 -0.46427459074E-02 -0.35396548322E-01  0.35737005818E-01  0.00000000000E+00 0.  1.
  9000001    1    1    2    0    0  0.16318278655E-02  0.46427459074E-02  0.35396548322E-01  0.35750994182E-01  0.10000000475E-02 0. -1.
</event>
<event>
 4   0  0.2441219E-02  0.9118800E+02  0.7818609E-02  0.1379984E+01
      -11   -1    0    0    0    0  0.00000000000E+00  0.00000000000E+00  0.35740347158E-01  0.35744000000E-01  0.51099999109E-03 0. -1.
       11   -1    0    0    0    0 -0.00000000000E+00 -0.00000000000E+00 -0.35740347158E-01  0.35744000000E-01  0.51099999109E-03 0.  1.
       22    1    1    2    0    0  0.75114946045E-02  0.27262626650E-02  0.34832147875E-01  0.35737005818E-01  0.00000000000E+00 0. -1.
  9000001    1    1    2    0    0 -0.75114946045E-02 -0.27262626650E-02 -0.34832147875E-01  0.35750994182E-01  0.10000000475E-02 0.  1.
</event>
<event>
 4   0  0.2441219E-02  0.9118800E+02  0.7818609E-02  0.1379984E+01
      -11   -1    0    0    0    0  0.00000000000E+00  0.00000000000E+00  0.35740347158E-01  0.35744000000E-01  0.51099999109E-03 0. -1.
       11   -1    0    0    0    0 -0.00000000000E+00 -0.00000000000E+00 -0.35740347158E-01  0.35744000000E-01  0.51099999109E-03 0.  1.
       22    1    1    2    0    0  0.71153589089E-02 -0.12642157466E-01 -0.32660084309E-01  0.35737005818E-01  0.00000000000E+00 0.  1.
  9000001    1    1    2    0    0 -0.71153589089E-02  0.12642157466E-01  0.32660084309E-01  0.35750994182E-01  0.10000000475E-02 0. -1.
</event>
<event>
 4   0  0.2441219E-02  0.9118800E+02  0.7818609E-02  0.1379984E+01
      -11   -1    0    0    0    0  0.00000000000E+00  0.00000000000E+00  0.35740347158E-01  0.35744000000E-01  0.51099999109E-03 0.  1.
       11   -1    0    0    0    0 -0.00000000000E+00 -0.00000000000E+00 -0.35740347158E-01  0.35744000000E-01  0.51099999109E-03 0. -1.
       22    1    1    2    0    0 -0.15087553738E-01 -0.22813083290E-01 -0.23001359479E-01  0.35737005818E-01  0.00000000000E+00 0. -1.
  9000001    1    1    2    0    0  0.15087553738E-01  0.22813083290E-01  0.23001359479E-01  0.35750994182E-01  0.10000000475E-02 0.  1.
</event>
<event>
 4   0  0.2441219E-02  0.9118800E+02  0.7818609E-02  0.1379984E+01
      -11   -1    0    0    0    0  0.00000000000E+00  0.00000000000E+00  0.35740347158E-01  0.35744000000E-01  0.51099999109E-03 0. -1.
       11   -1    0    0    0    0 -0.00000000000E+00 -0.00000000000E+00 -0.35740347158E-01  0.35744000000E-01  0.51099999109E-03 0.  1.
       22    1    1    2    0    0  0.14230455916E-02  0.12363705461E-01  0.33499959901E-01  0.35737005818E-01  0.00000000000E+00 0. -1.
  9000001    1    1    2    0    0 -0.14230455916E-02 -0.12363705461E-01 -0.33499959901E-01  0.35750994182E-01  0.10000000475E-02 0.  1.
</event>
<event>
 4   0  0.2441219E-02  0.9118800E+02  0.7818609E-02  0.1379984E+01
      -11   -1    0    0    0    0  0.00000000000E+00  0.00000000000E+00  0.35740347158E-01  0.35744000000E-01  0.51099999109E-03 0. -1.
       11   -1    0    0    0    0 -0.00000000000E+00 -0.00000000000E+00 -0.35740347158E-01  0.35744000000E-01  0.51099999109E-03 0.  1.
       22    1    1    2    0    0 -0.10855943134E-01  0.83445314941E-02 -0.33009860310E-01  0.35737005818E-01  0.00000000000E+00 0.  1.
  9000001    1    1    2    0    0  0.10855943134E-01 -0.83445314941E-02  0.33009860310E-01  0.35750994182E-01  0.10000000475E-02 0. -1.
</event>
<event>
 4   0  0.2441219E-02  0.9118800E+02  0.7818609E-02  0.1379984E+01
      -11   -1    0    0    0    0  0.00000000000E+00  0.00000000000E+00  0.35740347158E-01  0.35744000000E-01  0.51099999109E-03 0.  1.
       11   -1    0    0    0    0 -0.00000000000E+00 -0.00000000000E+00 -0.35740347158E-01  0.35744000000E-01  0.51099999109E-03 0. -1.
       22    1    1    2    0    0  0.35733569476E-01 -0.81001278181E-04 -0.48891328819E-03  0.35737005818E-01  0.00000000000E+00 0.  1.
  9000001    1    1    2    0    0 -0.35733569476E-01  0.81001278181E-04  0.48891328819E-03  0.35750994182E-01  0.10000000475E-02 0. -1.
</event>
<event>
 4   0  0.2441219E-02  0.9118800E+02  0.7818609E-02  0.1379984E+01
      -11   -1    0    0    0    0  0.00000000000E+00  0.00000000000E+00  0.35740347158E-01  0.35744000000E-01  0.51099999109E-03 0.  1.
       11   -1    0    0    0    0 -0.00000000000E+00 -0.00000000000E+00 -0.35740347158E-01  0.35744000000E-01  0.51099999109E-03 0. -1.
       22    1    1    2    0    0 -0.12436552581E-01  0.45826010670E-02 -0.33188333978E-01  0.35737005818E-01  0.00000000000E+00 0. -1.
  9000001    1    1    2    0    0  0.12436552581E-01 -0.45826010670E-02  0.33188333978E-01  0.35750994182E-01  0.10000000475E-02 0.  1.
</event>
<event>
 4   0  0.2441219E-02  0.9118800E+02  0.7818609E-02  0.1379984E+01
      -11   -1    0    0    0    0  0.00000000000E+00  0.00000000000E+00  0.35740347158E-01  0.35744000000E-01  0.51099999109E-03 0. -1.
       11   -1    0    0    0    0 -0.00000000000E+00 -0.00000000000E+00 -0.35740347158E-01  0.35744000000E-01  0.51099999109E-03 0.  1.
       22    1    1    2    0    0 -0.62431365343E-02 -0.20368668561E-02 -0.35128450073E-01  0.35737005818E-01  0.00000000000E+00 0.  1.
  9000001    1    1    2    0    0  0.62431365343E-02  0.20368668561E-02  0.35128450073E-01  0.35750994182E-01  0.10000000475E-02 0. -1.
</event>
<event>
 4   0  0.2441219E-02  0.9118800E+02  0.7818609E-02  0.1379984E+01
      -11   -1    0    0    0    0  0.00000000000E+00  0.00000000000E+00  0.35740347158E-01  0.35744000000E-01  0.51099999109E-03 0. -1.
       11   -1    0    0    0    0 -0.00000000000E+00 -0.00000000000E+00 -0.35740347158E-01  0.35744000000E-01  0.51099999109E-03 0.  1.
       22    1    1    2    0    0 -0.42412470195E-02 -0.62276511457E-02 -0.34933676729E-01  0.35737005818E-01  0.00000000000E+00 0.  1.
  9000001    1    1    2    0    0  0.42412470195E-02  0.62276511457E-02  0.34933676729E-01  0.35750994182E-01  0.10000000475E-02 0. -1.
</event>
<event>
 4   0  0.2441219E-02  0.9118800E+02  0.7818609E-02  0.1379984E+01
      -11   -1    0    0    0    0  0.00000000000E+00  0.00000000000E+00  0.35740347158E-01  0.35744000000E-01  0.51099999109E-03 0.  1.
       11   -1    0    0    0    0 -0.00000000000E+00 -0.00000000000E+00 -0.35740347158E-01  0.35744000000E-01  0.51099999109E-03 0. -1.
       22    1    1    2    0    0  0.21801030052E-01 -0.76253106898E-02  0.27270924268E-01  0.35737005818E-01  0.00000000000E+00 0.  1.
  9000001    1    1    2    0    0 -0.21801030052E-01  0.76253106898E-02 -0.27270924268E-01  0.35750994182E-01  0.10000000475E-02 0. -1.
</event>
<event>
 4   0  0.2441219E-02  0.9118800E+02  0.7818609E-02  0.1379984E+01
      -11   -1    0    0    0    0  0.00000000000E+00  0.00000000000E+00  0.35740347158E-01  0.35744000000E-01  0.51099999109E-03 0.  1.
       11   -1    0    0    0    0 -0.00000000000E+00 -0.00000000000E+00 -0.35740347158E-01  0.35744000000E-01  0.51099999109E-03 0. -1.
       22    1    1    2    0    0  0.16640667124E-01 -0.22054786155E-01 -0.22667337518E-01  0.35737005818E-01  0.00000000000E+00 0. -1.
  9000001    1    1    2    0    0 -0.16640667124E-01  0.22054786155E-01  0.22667337518E-01  0.35750994182E-01  0.10000000475E-02 0.  1.
</event>
<event>
 4   0  0.2441219E-02  0.9118800E+02  0.7818609E-02  0.1379984E+01
      -11   -1    0    0    0    0  0.00000000000E+00  0.00000000000E+00  0.35740347158E-01  0.35744000000E-01  0.51099999109E-03 0.  1.
       11   -1    0    0    0    0 -0.00000000000E+00 -0.00000000000E+00 -0.35740347158E-01  0.35744000000E-01  0.51099999109E-03 0. -1.
       22    1    1    2    0    0  0.23185463885E-01 -0.17749284396E-01 -0.20604144068E-01  0.35737005818E-01  0.00000000000E+00 0. -1.
  9000001    1    1    2    0    0 -0.23185463885E-01  0.17749284396E-01  0.20604144068E-01  0.35750994182E-01  0.10000000475E-02 0.  1.
</event>
<event>
 4   0  0.2441219E-02  0.9118800E+02  0.7818609E-02  0.1379984E+01
      -11   -1    0    0    0    0  0.00000000000E+00  0.00000000000E+00  0.35740347158E-01  0.35744000000E-01  0.51099999109E-03 0.  1.
       11   -1    0    0    0    0 -0.00000000000E+00 -0.00000000000E+00 -0.35740347158E-01  0.35744000000E-01  0.51099999109E-03 0. -1.
       22    1    1    2    0    0 -0.38255362825E-03  0.44270888161E-02 -0.35459668952E-01  0.35737005818E-01  0.00000000000E+00 0. -1.
  9000001    1    1    2    0    0  0.38255362825E-03 -0.44270888161E-02  0.35459668952E-01  0.35750994182E-01  0.10000000475E-02 0.  1.
</event>
<event>
 4   0  0.2441219E-02  0.9118800E+02  0.7818609E-02  0.1379984E+01
      -11   -1    0    0    0    0  0.00000000000E+00  0.00000000000E+00  0.35740347158E-01  0.35744000000E-01  0.51099999109E-03 0. -1.
       11   -1    0    0    0    0 -0.00000000000E+00 -0.00000000000E+00 -0.35740347158E-01  0.35744000000E-01  0.51099999109E-03 0.  1.
       22    1    1    2    0    0 -0.96609131307E-02  0.16206109901E-01 -0.30350656405E-01  0.35737005818E-01  0.00000000000E+00 0.  1.
  9000001    1    1    2    0    0  0.96609131307E-02 -0.16206109901E-01  0.30350656405E-01  0.35750994182E-01  0.10000000475E-02 0. -1.
</event>
<event>
 4   0  0.2441219E-02  0.9118800E+02  0.7818609E-02  0.1379984E+01
      -11   -1    0    0    0    0  0.00000000000E+00  0.00000000000E+00  0.35740347158E-01  0.35744000000E-01  0.51099999109E-03 0.  1.
       11   -1    0    0    0    0 -0.00000000000E+00 -0.00000000000E+00 -0.35740347158E-01  0.35744000000E-01  0.51099999109E-03 0. -1.
       22    1    1    2    0    0 -0.11227965750E-01 -0.40657751969E-03 -0.33924932789E-01  0.35737005818E-01  0.00000000000E+00 0. -1.
  9000001    1    1    2    0    0  0.11227965750E-01  0.40657751969E-03  0.33924932789E-01  0.35750994182E-01  0.10000000475E-02 0.  1.
</event>
<event>
 4   0  0.2441219E-02  0.9118800E+02  0.7818609E-02  0.1379984E+01
      -11   -1    0    0    0    0  0.00000000000E+00  0.00000000000E+00  0.35740347158E-01  0.35744000000E-01  0.51099999109E-03 0. -1.
       11   -1    0    0    0    0 -0.00000000000E+00 -0.00000000000E+00 -0.35740347158E-01  0.35744000000E-01  0.51099999109E-03 0.  1.
       22    1    1    2    0    0 -0.18870287358E-01 -0.13334733412E-01  0.27262258247E-01  0.35737005818E-01  0.00000000000E+00 0.  1.
  9000001    1    1    2    0    0  0.18870287358E-01  0.13334733412E-01 -0.27262258247E-01  0.35750994182E-01  0.10000000475E-02 0. -1.
</event>
<event>
 4   0  0.2441219E-02  0.9118800E+02  0.7818609E-02  0.1379984E+01
      -11   -1    0    0    0    0  0.00000000000E+00  0.00000000000E+00  0.35740347158E-01  0.35744000000E-01  0.51099999109E-03 0.  1.
       11   -1    0    0    0    0 -0.00000000000E+00 -0.00000000000E+00 -0.35740347158E-01  0.35744000000E-01  0.51099999109E-03 0. -1.
       22    1    1    2    0    0  0.42379604587E-02  0.62769048593E-02 -0.34925259361E-01  0.35737005818E-01  0.00000000000E+00 0. -1.
  9000001    1    1    2    0    0 -0.42379604587E-02 -0.62769048593E-02  0.34925259361E-01  0.35750994182E-01  0.10000000475E-02 0.  1.
</event>
<event>
 4   0  0.2441219E-02  0.9118800E+02  0.7818609E-02  0.1379984E+01
      -11   -1    0    0    0    0  0.00000000000E+00  0.00000000000E+00  0.35740347158E-01  0.35744000000E-01  0.51099999109E-03 0. -1.
       11   -1    0    0    0    0 -0.00000000000E+00 -0.00000000000E+00 -0.35740347158E-01  0.35744000000E-01  0.51099999109E-03 0.  1.
       22    1    1    2    0    0 -0.92866120261E-02 -0.11085099557E-01  0.32680468016E-01  0.35737005818E-01  0.00000000000E+00 0. -1.
  9000001    1    1    2    0    0  0.92866120261E-02  0.11085099557E-01 -0.32680468016E-01  0.35750994182E-01  0.10000000475E-02 0.  1.
</event>
<event>
 4   0  0.2441219E-02  0.9118800E+02  0.7818609E-02  0.1379984E+01
      -11   -1    0    0    0    0  0.00000000000E+00  0.00000000000E+00  0.35740347158E-01  0.35744000000E-01  0.51099999109E-03 0. -1.
       11   -1    0    0    0    0 -0.00000000000E+00 -0.00000000000E+00 -0.35740347158E-01  0.35744000000E-01  0.51099999109E-03 0.  1.
       22    1    1    2    0    0  0.33119468346E-01 -0.11687372529E-01 -0.66060369902E-02  0.35737005818E-01  0.00000000000E+00 0.  1.
  9000001    1    1    2    0    0 -0.33119468346E-01  0.11687372529E-01  0.66060369902E-02  0.35750994182E-01  0.10000000475E-02 0. -1.
</event>
<event>
 4   0  0.2441219E-02  0.9118800E+02  0.7818609E-02  0.1379984E+01
      -11   -1    0    0    0    0  0.00000000000E+00  0.00000000000E+00  0.35740347158E-01  0.35744000000E-01  0.51099999109E-03 0.  1.
       11   -1    0    0    0    0 -0.00000000000E+00 -0.00000000000E+00 -0.35740347158E-01  0.35744000000E-01  0.51099999109E-03 0. -1.
       22    1    1    2    0    0 -0.76606421754E-02  0.30026803732E-01  0.17799977639E-01  0.35737005818E-01  0.00000000000E+00 0. -1.
  9000001    1    1    2    0    0  0.76606421754E-02 -0.30026803732E-01 -0.17799977639E-01  0.35750994182E-01  0.10000000475E-02 0.  1.
</event>
<event>
 4   0  0.2441219E-02  0.9118800E+02  0.7818609E-02  0.1379984E+01
      -11   -1    0    0    0    0  0.00000000000E+00  0.00000000000E+00  0.35740347158E-01  0.35744000000E-01  0.51099999109E-03 0. -1.
       11   -1    0    0    0    0 -0.00000000000E+00 -0.00000000000E+00 -0.35740347158E-01  0.35744000000E-01  0.51099999109E-03 0.  1.
       22    1    1    2    0    0 -0.65373655602E-02  0.80750349739E-02 -0.34193424025E-01  0.35737005818E-01  0.00000000000E+00 0.  1.
  9000001    1    1    2    0    0  0.65373655602E-02 -0.80750349739E-02  0.34193424025E-01  0.35750994182E-01  0.10000000475E-02 0. -1.
</event>
<event>
 4   0  0.2441219E-02  0.9118800E+02  0.7818609E-02  0.1379984E+01
      -11   -1    0    0    0    0  0.00000000000E+00  0.00000000000E+00  0.35740347158E-01  0.35744000000E-01  0.51099999109E-03 0. -1.
       11   -1    0    0    0    0 -0.00000000000E+00 -0.00000000000E+00 -0.35740347158E-01  0.35744000000E-01  0.51099999109E-03 0.  1.
       22    1    1    2    0    0  0.57600389175E-02 -0.10575479273E-01  0.33646913301E-01  0.35737005818E-01  0.00000000000E+00 0. -1.
  9000001    1    1    2    0    0 -0.57600389175E-02  0.10575479273E-01 -0.33646913301E-01  0.35750994182E-01  0.10000000475E-02 0.  1.
</event>
<event>
 4   0  0.2441219E-02  0.9118800E+02  0.7818609E-02  0.1379984E+01
      -11   -1    0    0    0    0  0.00000000000E+00  0.00000000000E+00  0.35740347158E-01  0.35744000000E-01  0.51099999109E-03 0. -1.
       11   -1    0    0    0    0 -0.00000000000E+00 -0.00000000000E+00 -0.35740347158E-01  0.35744000000E-01  0.51099999109E-03 0.  1.
       22    1    1    2    0    0 -0.25279859965E-01 -0.14691935581E-01 -0.20547732087E-01  0.35737005818E-01  0.00000000000E+00 0.  1.
  9000001    1    1    2    0    0  0.25279859965E-01  0.14691935581E-01  0.20547732087E-01  0.35750994182E-01  0.10000000475E-02 0. -1.
</event>
<event>
 4   0  0.2441219E-02  0.9118800E+02  0.7818609E-02  0.1379984E+01
      -11   -1    0    0    0    0  0.00000000000E+00  0.00000000000E+00  0.35740347158E-01  0.35744000000E-01  0.51099999109E-03 0.  1.
       11   -1    0    0    0    0 -0.00000000000E+00 -0.00000000000E+00 -0.35740347158E-01  0.35744000000E-01  0.51099999109E-03 0. -1.
       22    1    1    2    0    0 -0.12345795247E-01  0.12320377327E-01 -0.31191717284E-01  0.35737005818E-01  0.00000000000E+00 0. -1.
  9000001    1    1    2    0    0  0.12345795247E-01 -0.12320377327E-01  0.31191717284E-01  0.35750994182E-01  0.10000000475E-02 0.  1.
</event>
<event>
 4   0  0.2441219E-02  0.9118800E+02  0.7818609E-02  0.1379984E+01
      -11   -1    0    0    0    0  0.00000000000E+00  0.00000000000E+00  0.35740347158E-01  0.35744000000E-01  0.51099999109E-03 0.  1.
       11   -1    0    0    0    0 -0.00000000000E+00 -0.00000000000E+00 -0.35740347158E-01  0.35744000000E-01  0.51099999109E-03 0. -1.
       22    1    1    2    0    0 -0.50319422401E-02  0.65017974291E-02 -0.34778438325E-01  0.35737005818E-01  0.00000000000E+00 0. -1.
  9000001    1    1    2    0    0  0.50319422401E-02 -0.65017974291E-02  0.34778438325E-01  0.35750994182E-01  0.10000000475E-02 0.  1.
</event>
<event>
 4   0  0.2441219E-02  0.9118800E+02  0.7818609E-02  0.1379984E+01
      -11   -1    0    0    0    0  0.00000000000E+00  0.00000000000E+00  0.35740347158E-01  0.35744000000E-01  0.51099999109E-03 0.  1.
       11   -1    0    0    0    0 -0.00000000000E+00 -0.00000000000E+00 -0.35740347158E-01  0.35744000000E-01  0.51099999109E-03 0. -1.
       22    1    1    2    0    0  0.73735278638E-02 -0.54329160900E-02 -0.34543423317E-01  0.35737005818E-01  0.00000000000E+00 0. -1.
  9000001    1    1    2    0    0 -0.73735278638E-02  0.54329160900E-02  0.34543423317E-01  0.35750994182E-01  0.10000000475E-02 0.  1.
</event>
<event>
 4   0  0.2441219E-02  0.9118800E+02  0.7818609E-02  0.1379984E+01
      -11   -1    0    0    0    0  0.00000000000E+00  0.00000000000E+00  0.35740347158E-01  0.35744000000E-01  0.51099999109E-03 0. -1.
       11   -1    0    0    0    0 -0.00000000000E+00 -0.00000000000E+00 -0.35740347158E-01  0.35744000000E-01  0.51099999109E-03 0.  1.
       22    1    1    2    0    0  0.29537366285E-01  0.77090134803E-03 -0.20101823025E-01  0.35737005818E-01  0.00000000000E+00 0.  1.
  9000001    1    1    2    0    0 -0.29537366285E-01 -0.77090134803E-03  0.20101823025E-01  0.35750994182E-01  0.10000000475E-02 0. -1.
</event>
<event>
 4   0  0.2441219E-02  0.9118800E+02  0.7818609E-02  0.1379984E+01
      -11   -1    0    0    0    0  0.00000000000E+00  0.00000000000E+00  0.35740347158E-01  0.35744000000E-01  0.51099999109E-03 0. -1.
       11   -1    0    0    0    0 -0.00000000000E+00 -0.00000000000E+00 -0.35740347158E-01  0.35744000000E-01  0.51099999109E-03 0.  1.
       22    1    1    2    0    0  0.53589340333E-02  0.87176591869E-02  0.34240587454E-01  0.35737005818E-01  0.00000000000E+00 0. -1.
  9000001    1    1    2    0    0 -0.53589340333E-02 -0.87176591869E-02 -0.34240587454E-01  0.35750994182E-01  0.10000000475E-02 0.  1.
</event>
<event>
 4   0  0.2441219E-02  0.9118800E+02  0.7818609E-02  0.1379984E+01
      -11   -1    0    0    0    0  0.00000000000E+00  0.00000000000E+00  0.35740347158E-01  0.35744000000E-01  0.51099999109E-03 0.  1.
       11   -1    0    0    0    0 -0.00000000000E+00 -0.00000000000E+00 -0.35740347158E-01  0.35744000000E-01  0.51099999109E-03 0. -1.
       22    1    1    2    0    0 -0.40565118556E-02  0.82791887764E-02  0.34527283844E-01  0.35737005818E-01  0.00000000000E+00 0.  1.
  9000001    1    1    2    0    0  0.40565118556E-02 -0.82791887764E-02 -0.34527283844E-01  0.35750994182E-01  0.10000000475E-02 0. -1.
</event>
<event>
 4   0  0.2441219E-02  0.9118800E+02  0.7818609E-02  0.1379984E+01
      -11   -1    0    0    0    0  0.00000000000E+00  0.00000000000E+00  0.35740347158E-01  0.35744000000E-01  0.51099999109E-03 0. -1.
       11   -1    0    0    0    0 -0.00000000000E+00 -0.00000000000E+00 -0.35740347158E-01  0.35744000000E-01  0.51099999109E-03 0.  1.
       22    1    1    2    0    0 -0.25546952784E-01 -0.64203406739E-02  0.24150900893E-01  0.35737005818E-01  0.00000000000E+00 0. -1.
  9000001    1    1    2    0    0  0.25546952784E-01  0.64203406739E-02 -0.24150900893E-01  0.35750994182E-01  0.10000000475E-02 0.  1.
</event>
<event>
 4   0  0.2441219E-02  0.9118800E+02  0.7818609E-02  0.1379984E+01
      -11   -1    0    0    0    0  0.00000000000E+00  0.00000000000E+00  0.35740347158E-01  0.35744000000E-01  0.51099999109E-03 0. -1.
       11   -1    0    0    0    0 -0.00000000000E+00 -0.00000000000E+00 -0.35740347158E-01  0.35744000000E-01  0.51099999109E-03 0.  1.
       22    1    1    2    0    0 -0.53291385484E-02  0.74413174035E-02 -0.34545052649E-01  0.35737005818E-01  0.00000000000E+00 0.  1.
  9000001    1    1    2    0    0  0.53291385484E-02 -0.74413174035E-02  0.34545052649E-01  0.35750994182E-01  0.10000000475E-02 0. -1.
</event>
<event>
 4   0  0.2441219E-02  0.9118800E+02  0.7818609E-02  0.1379984E+01
      -11   -1    0    0    0    0  0.00000000000E+00  0.00000000000E+00  0.35740347158E-01  0.35744000000E-01  0.51099999109E-03 0. -1.
       11   -1    0    0    0    0 -0.00000000000E+00 -0.00000000000E+00 -0.35740347158E-01  0.35744000000E-01  0.51099999109E-03 0.  1.
       22    1    1    2    0    0  0.86318714739E-02 -0.22275644692E-01  0.26578563416E-01  0.35737005818E-01  0.00000000000E+00 0. -1.
  9000001    1    1    2    0    0 -0.86318714739E-02  0.22275644692E-01 -0.26578563416E-01  0.35750994182E-01  0.10000000475E-02 0.  1.
</event>
<event>
 4   0  0.2441219E-02  0.9118800E+02  0.7818609E-02  0.1379984E+01
      -11   -1    0    0    0    0  0.00000000000E+00  0.00000000000E+00  0.35740347158E-01  0.35744000000E-01  0.51099999109E-03 0. -1.
       11   -1    0    0    0    0 -0.00000000000E+00 -0.00000000000E+00 -0.35740347158E-01  0.35744000000E-01  0.51099999109E-03 0.  1.
       22    1    1    2    0    0  0.11571487402E-01  0.14311760259E-01  0.30633442224E-01  0.35737005818E-01  0.00000000000E+00 0. -1.
  9000001    1    1    2    0    0 -0.11571487402E-01 -0.14311760259E-01 -0.30633442224E-01  0.35750994182E-01  0.10000000475E-02 0.  1.
</event>
<event>
 4   0  0.2441219E-02  0.9118800E+02  0.7818609E-02  0.1379984E+01
      -11   -1    0    0    0    0  0.00000000000E+00  0.00000000000E+00  0.35740347158E-01  0.35744000000E-01  0.51099999109E-03 0.  1.
       11   -1    0    0    0    0 -0.00000000000E+00 -0.00000000000E+00 -0.35740347158E-01  0.35744000000E-01  0.51099999109E-03 0. -1.
       22    1    1    2    0    0 -0.69445400568E-02  0.11365146862E-01  0.33162333830E-01  0.35737005818E-01  0.00000000000E+00 0.  1.
  9000001    1    1    2    0    0  0.69445400568E-02 -0.11365146862E-01 -0.33162333830E-01  0.35750994182E-01  0.10000000475E-02 0. -1.
</event>
<event>
 4   0  0.2441219E-02  0.9118800E+02  0.7818609E-02  0.1379984E+01
      -11   -1    0    0    0    0  0.00000000000E+00  0.00000000000E+00  0.35740347158E-01  0.35744000000E-01  0.51099999109E-03 0.  1.
       11   -1    0    0    0    0 -0.00000000000E+00 -0.00000000000E+00 -0.35740347158E-01  0.35744000000E-01  0.51099999109E-03 0. -1.
       22    1    1    2    0    0  0.20839599886E-01 -0.28026369862E-01 -0.75741173622E-02  0.35737005818E-01  0.00000000000E+00 0. -1.
  9000001    1    1    2    0    0 -0.20839599886E-01  0.28026369862E-01  0.75741173622E-02  0.35750994182E-01  0.10000000475E-02 0.  1.
</event>
<event>
 4   0  0.2441219E-02  0.9118800E+02  0.7818609E-02  0.1379984E+01
      -11   -1    0    0    0    0  0.00000000000E+00  0.00000000000E+00  0.35740347158E-01  0.35744000000E-01  0.51099999109E-03 0.  1.
       11   -1    0    0    0    0 -0.00000000000E+00 -0.00000000000E+00 -0.35740347158E-01  0.35744000000E-01  0.51099999109E-03 0. -1.
       22    1    1    2    0    0  0.40807034530E-02 -0.64783374317E-02 -0.34907199663E-01  0.35737005818E-01  0.00000000000E+00 0. -1.
  9000001    1    1    2    0    0 -0.40807034530E-02  0.64783374317E-02  0.34907199663E-01  0.35750994182E-01  0.10000000475E-02 0.  1.
</event>
<event>
 4   0  0.2441219E-02  0.9118800E+02  0.7818609E-02  0.1379984E+01
      -11   -1    0    0    0    0  0.00000000000E+00  0.00000000000E+00  0.35740347158E-01  0.35744000000E-01  0.51099999109E-03 0. -1.
       11   -1    0    0    0    0 -0.00000000000E+00 -0.00000000000E+00 -0.35740347158E-01  0.35744000000E-01  0.51099999109E-03 0.  1.
       22    1    1    2    0    0 -0.55566725965E-02  0.19178776506E-01  0.29638345201E-01  0.35737005818E-01  0.00000000000E+00 0. -1.
  9000001    1    1    2    0    0  0.55566725965E-02 -0.19178776506E-01 -0.29638345201E-01  0.35750994182E-01  0.10000000475E-02 0.  1.
</event>
<event>
 4   0  0.2441219E-02  0.9118800E+02  0.7818609E-02  0.1379984E+01
      -11   -1    0    0    0    0  0.00000000000E+00  0.00000000000E+00  0.35740347158E-01  0.35744000000E-01  0.51099999109E-03 0.  1.
       11   -1    0    0    0    0 -0.00000000000E+00 -0.00000000000E+00 -0.35740347158E-01  0.35744000000E-01  0.51099999109E-03 0. -1.
       22    1    1    2    0    0 -0.24118413525E-01  0.46941513683E-02  0.25949964486E-01  0.35737005818E-01  0.00000000000E+00 0.  1.
  9000001    1    1    2    0    0  0.24118413525E-01 -0.46941513683E-02 -0.25949964486E-01  0.35750994182E-01  0.10000000475E-02 0. -1.
</event>
<event>
 4   0  0.2441219E-02  0.9118800E+02  0.7818609E-02  0.1379984E+01
      -11   -1    0    0    0    0  0.00000000000E+00  0.00000000000E+00  0.35740347158E-01  0.35744000000E-01  0.51099999109E-03 0.  1.
       11   -1    0    0    0    0 -0.00000000000E+00 -0.00000000000E+00 -0.35740347158E-01  0.35744000000E-01  0.51099999109E-03 0. -1.
       22    1    1    2    0    0 -0.11714946879E-01 -0.66099399407E-02 -0.33108945898E-01  0.35737005818E-01  0.00000000000E+00 0. -1.
  9000001    1    1    2    0    0  0.11714946879E-01  0.66099399407E-02  0.33108945898E-01  0.35750994182E-01  0.10000000475E-02 0.  1.
</event>
<event>
 4   0  0.2441219E-02  0.9118800E+02  0.7818609E-02  0.1379984E+01
      -11   -1    0    0    0    0  0.00000000000E+00  0.00000000000E+00  0.35740347158E-01  0.35744000000E-01  0.51099999109E-03 0. -1.
       11   -1    0    0    0    0 -0.00000000000E+00 -0.00000000000E+00 -0.35740347158E-01  0.35744000000E-01  0.51099999109E-03 0.  1.
       22    1    1    2    0    0  0.39785041038E-02 -0.11685965538E-01 -0.33537192778E-01  0.35737005818E-01  0.00000000000E+00 0.  1.
  9000001    1    1    2    0    0 -0.39785041038E-02  0.11685965538E-01  0.33537192778E-01  0.35750994182E-01  0.10000000475E-02 0. -1.
</event>
<event>
 4   0  0.2441219E-02  0.9118800E+02  0.7818609E-02  0.1379984E+01
      -11   -1    0    0    0    0  0.00000000000E+00  0.00000000000E+00  0.35740347158E-01  0.35744000000E-01  0.51099999109E-03 0. -1.
       11   -1    0    0    0    0 -0.00000000000E+00 -0.00000000000E+00 -0.35740347158E-01  0.35744000000E-01  0.51099999109E-03 0.  1.
       22    1    1    2    0    0 -0.58358875995E-02 -0.74795843194E-02  0.34454779338E-01  0.35737005818E-01  0.00000000000E+00 0. -1.
  9000001    1    1    2    0    0  0.58358875995E-02  0.74795843194E-02 -0.34454779338E-01  0.35750994182E-01  0.10000000475E-02 0.  1.
</event>
<event>
 4   0  0.2441219E-02  0.9118800E+02  0.7818609E-02  0.1379984E+01
      -11   -1    0    0    0    0  0.00000000000E+00  0.00000000000E+00  0.35740347158E-01  0.35744000000E-01  0.51099999109E-03 0. -1.
       11   -1    0    0    0    0 -0.00000000000E+00 -0.00000000000E+00 -0.35740347158E-01  0.35744000000E-01  0.51099999109E-03 0.  1.
       22    1    1    2    0    0  0.13563037080E-01  0.15475015300E-02  0.33027001817E-01  0.35737005818E-01  0.00000000000E+00 0. -1.
  9000001    1    1    2    0    0 -0.13563037080E-01 -0.15475015300E-02 -0.33027001817E-01  0.35750994182E-01  0.10000000475E-02 0.  1.
</event>
<event>
 4   0  0.2441219E-02  0.9118800E+02  0.7818609E-02  0.1379984E+01
      -11   -1    0    0    0    0  0.00000000000E+00  0.00000000000E+00  0.35740347158E-01  0.35744000000E-01  0.51099999109E-03 0.  1.
       11   -1    0    0    0    0 -0.00000000000E+00 -0.00000000000E+00 -0.35740347158E-01  0.35744000000E-01  0.51099999109E-03 0. -1.
       22    1    1    2    0    0  0.48856872466E-03 -0.78332865791E-02 -0.34864516444E-01  0.35737005818E-01  0.00000000000E+00 0. -1.
  9000001    1    1    2    0    0 -0.48856872466E-03  0.78332865791E-02  0.34864516444E-01  0.35750994182E-01  0.10000000475E-02 0.  1.
</event>
<event>
 4   0  0.2441219E-02  0.9118800E+02  0.7818609E-02  0.1379984E+01
      -11   -1    0    0    0    0  0.00000000000E+00  0.00000000000E+00  0.35740347158E-01  0.35744000000E-01  0.51099999109E-03 0.  1.
       11   -1    0    0    0    0 -0.00000000000E+00 -0.00000000000E+00 -0.35740347158E-01  0.35744000000E-01  0.51099999109E-03 0. -1.
       22    1    1    2    0    0 -0.74773469363E-02  0.36240918155E-02 -0.34757572214E-01  0.35737005818E-01  0.00000000000E+00 0. -1.
  9000001    1    1    2    0    0  0.74773469363E-02 -0.36240918155E-02  0.34757572214E-01  0.35750994182E-01  0.10000000475E-02 0.  1.
</event>
<event>
 4   0  0.2441219E-02  0.9118800E+02  0.7818609E-02  0.1379984E+01
      -11   -1    0    0    0    0  0.00000000000E+00  0.00000000000E+00  0.35740347158E-01  0.35744000000E-01  0.51099999109E-03 0. -1.
       11   -1    0    0    0    0 -0.00000000000E+00 -0.00000000000E+00 -0.35740347158E-01  0.35744000000E-01  0.51099999109E-03 0.  1.
       22    1    1    2    0    0  0.18530917998E-01  0.13815170626E-01  0.27255819995E-01  0.35737005818E-01  0.00000000000E+00 0. -1.
  9000001    1    1    2    0    0 -0.18530917998E-01 -0.13815170626E-01 -0.27255819995E-01  0.35750994182E-01  0.10000000475E-02 0.  1.
</event>
<event>
 4   0  0.2441219E-02  0.9118800E+02  0.7818609E-02  0.1379984E+01
      -11   -1    0    0    0    0  0.00000000000E+00  0.00000000000E+00  0.35740347158E-01  0.35744000000E-01  0.51099999109E-03 0.  1.
       11   -1    0    0    0    0 -0.00000000000E+00 -0.00000000000E+00 -0.35740347158E-01  0.35744000000E-01  0.51099999109E-03 0. -1.
       22    1    1    2    0    0  0.73370011989E-02 -0.69303422858E-03  0.34968867609E-01  0.35737005818E-01  0.00000000000E+00 0.  1.
  9000001    1    1    2    0    0 -0.73370011989E-02  0.69303422858E-03 -0.34968867609E-01  0.35750994182E-01  0.10000000475E-02 0. -1.
</event>
<event>
 4   0  0.2441219E-02  0.9118800E+02  0.7818609E-02  0.1379984E+01
      -11   -1    0    0    0    0  0.00000000000E+00  0.00000000000E+00  0.35740347158E-01  0.35744000000E-01  0.51099999109E-03 0. -1.
       11   -1    0    0    0    0 -0.00000000000E+00 -0.00000000000E+00 -0.35740347158E-01  0.35744000000E-01  0.51099999109E-03 0.  1.
       22    1    1    2    0    0 -0.20138898919E-02  0.25433776943E-02  0.35589451559E-01  0.35737005818E-01  0.00000000000E+00 0. -1.
  9000001    1    1    2    0    0  0.20138898919E-02 -0.25433776943E-02 -0.35589451559E-01  0.35750994182E-01  0.10000000475E-02 0.  1.
</event>
<event>
 4   0  0.2441219E-02  0.9118800E+02  0.7818609E-02  0.1379984E+01
      -11   -1    0    0    0    0  0.00000000000E+00  0.00000000000E+00  0.35740347158E-01  0.35744000000E-01  0.51099999109E-03 0.  1.
       11   -1    0    0    0    0 -0.00000000000E+00 -0.00000000000E+00 -0.35740347158E-01  0.35744000000E-01  0.51099999109E-03 0. -1.
       22    1    1    2    0    0 -0.39240959542E-02 -0.79554051713E-02 -0.34618587267E-01  0.35737005818E-01  0.00000000000E+00 0. -1.
  9000001    1    1    2    0    0  0.39240959542E-02  0.79554051713E-02  0.34618587267E-01  0.35750994182E-01  0.10000000475E-02 0.  1.
</event>
<event>
 4   0  0.2441219E-02  0.9118800E+02  0.7818609E-02  0.1379984E+01
      -11   -1    0    0    0    0  0.00000000000E+00  0.00000000000E+00  0.35740347158E-01  0.35744000000E-01  0.51099999109E-03 0. -1.
       11   -1    0    0    0    0 -0.00000000000E+00 -0.00000000000E+00 -0.35740347158E-01  0.35744000000E-01  0.51099999109E-03 0.  1.
       22    1    1    2    0    0  0.92066564798E-02 -0.54916061139E-02  0.34091249957E-01  0.35737005818E-01  0.00000000000E+00 0. -1.
  9000001    1    1    2    0    0 -0.92066564798E-02  0.54916061139E-02 -0.34091249957E-01  0.35750994182E-01  0.10000000475E-02 0.  1.
</event>
<event>
 4   0  0.2441219E-02  0.9118800E+02  0.7818609E-02  0.1379984E+01
      -11   -1    0    0    0    0  0.00000000000E+00  0.00000000000E+00  0.35740347158E-01  0.35744000000E-01  0.51099999109E-03 0. -1.
       11   -1    0    0    0    0 -0.00000000000E+00 -0.00000000000E+00 -0.35740347158E-01  0.35744000000E-01  0.51099999109E-03 0.  1.
       22    1    1    2    0    0 -0.13111004096E-01  0.14955627346E-01 -0.29691149644E-01  0.35737005818E-01  0.00000000000E+00 0.  1.
  9000001    1    1    2    0    0  0.13111004096E-01 -0.14955627346E-01  0.29691149644E-01  0.35750994182E-01  0.10000000475E-02 0. -1.
</event>
<event>
 4   0  0.2441219E-02  0.9118800E+02  0.7818609E-02  0.1379984E+01
      -11   -1    0    0    0    0  0.00000000000E+00  0.00000000000E+00  0.35740347158E-01  0.35744000000E-01  0.51099999109E-03 0.  1.
       11   -1    0    0    0    0 -0.00000000000E+00 -0.00000000000E+00 -0.35740347158E-01  0.35744000000E-01  0.51099999109E-03 0. -1.
       22    1    1    2    0    0 -0.18203601884E-01 -0.29875705355E-01 -0.72941547040E-02  0.35737005818E-01  0.00000000000E+00 0. -1.
  9000001    1    1    2    0    0  0.18203601884E-01  0.29875705355E-01  0.72941547040E-02  0.35750994182E-01  0.10000000475E-02 0.  1.
</event>
<event>
 4   0  0.2441219E-02  0.9118800E+02  0.7818609E-02  0.1379984E+01
      -11   -1    0    0    0    0  0.00000000000E+00  0.00000000000E+00  0.35740347158E-01  0.35744000000E-01  0.51099999109E-03 0.  1.
       11   -1    0    0    0    0 -0.00000000000E+00 -0.00000000000E+00 -0.35740347158E-01  0.35744000000E-01  0.51099999109E-03 0. -1.
       22    1    1    2    0    0 -0.37053212470E-04  0.46276808313E-02 -0.35436094340E-01  0.35737005818E-01  0.00000000000E+00 0. -1.
  9000001    1    1    2    0    0  0.37053212470E-04 -0.46276808313E-02  0.35436094340E-01  0.35750994182E-01  0.10000000475E-02 0.  1.
</event>
<event>
 4   0  0.2441219E-02  0.9118800E+02  0.7818609E-02  0.1379984E+01
      -11   -1    0    0    0    0  0.00000000000E+00  0.00000000000E+00  0.35740347158E-01  0.35744000000E-01  0.51099999109E-03 0.  1.
       11   -1    0    0    0    0 -0.00000000000E+00 -0.00000000000E+00 -0.35740347158E-01  0.35744000000E-01  0.51099999109E-03 0. -1.
       22    1    1    2    0    0  0.17467447779E-02 -0.27562540408E-02 -0.35587716016E-01  0.35737005818E-01  0.00000000000E+00 0. -1.
  9000001    1    1    2    0    0 -0.17467447779E-02  0.27562540408E-02  0.35587716016E-01  0.35750994182E-01  0.10000000475E-02 0.  1.
</event>
<event>
 4   0  0.2441219E-02  0.9118800E+02  0.7818609E-02  0.1379984E+01
      -11   -1    0    0    0    0  0.00000000000E+00  0.00000000000E+00  0.35740347158E-01  0.35744000000E-01  0.51099999109E-03 0.  1.
       11   -1    0    0    0    0 -0.00000000000E+00 -0.00000000000E+00 -0.35740347158E-01  0.35744000000E-01  0.51099999109E-03 0. -1.
       22    1    1    2    0    0  0.22219934235E-02 -0.56407187770E-02  0.35219009381E-01  0.35737005818E-01  0.00000000000E+00 0.  1.
  9000001    1    1    2    0    0 -0.22219934235E-02  0.56407187770E-02 -0.35219009381E-01  0.35750994182E-01  0.10000000475E-02 0. -1.
</event>
<event>
 4   0  0.2441219E-02  0.9118800E+02  0.7818609E-02  0.1379984E+01
      -11   -1    0    0    0    0  0.00000000000E+00  0.00000000000E+00  0.35740347158E-01  0.35744000000E-01  0.51099999109E-03 0.  1.
       11   -1    0    0    0    0 -0.00000000000E+00 -0.00000000000E+00 -0.35740347158E-01  0.35744000000E-01  0.51099999109E-03 0. -1.
       22    1    1    2    0    0 -0.70431088795E-02  0.22294820063E-02  0.34965091336E-01  0.35737005818E-01  0.00000000000E+00 0.  1.
  9000001    1    1    2    0    0  0.70431088795E-02 -0.22294820063E-02 -0.34965091336E-01  0.35750994182E-01  0.10000000475E-02 0. -1.
</event>
<event>
 4   0  0.2441219E-02  0.9118800E+02  0.7818609E-02  0.1379984E+01
      -11   -1    0    0    0    0  0.00000000000E+00  0.00000000000E+00  0.35740347158E-01  0.35744000000E-01  0.51099999109E-03 0.  1.
       11   -1    0    0    0    0 -0.00000000000E+00 -0.00000000000E+00 -0.35740347158E-01  0.35744000000E-01  0.51099999109E-03 0. -1.
       22    1    1    2    0    0 -0.66818082093E-02  0.23588624510E-01  0.26001227233E-01  0.35737005818E-01  0.00000000000E+00 0.  1.
  9000001    1    1    2    0    0  0.66818082093E-02 -0.23588624510E-01 -0.26001227233E-01  0.35750994182E-01  0.10000000475E-02 0. -1.
</event>
<event>
 4   0  0.2441219E-02  0.9118800E+02  0.7818609E-02  0.1379984E+01
      -11   -1    0    0    0    0  0.00000000000E+00  0.00000000000E+00  0.35740347158E-01  0.35744000000E-01  0.51099999109E-03 0. -1.
       11   -1    0    0    0    0 -0.00000000000E+00 -0.00000000000E+00 -0.35740347158E-01  0.35744000000E-01  0.51099999109E-03 0.  1.
       22    1    1    2    0    0 -0.37269024406E-02  0.68420651797E-02 -0.34877355507E-01  0.35737005818E-01  0.00000000000E+00 0.  1.
  9000001    1    1    2    0    0  0.37269024406E-02 -0.68420651797E-02  0.34877355507E-01  0.35750994182E-01  0.10000000475E-02 0. -1.
</event>
<event>
 4   0  0.2441219E-02  0.9118800E+02  0.7818609E-02  0.1379984E+01
      -11   -1    0    0    0    0  0.00000000000E+00  0.00000000000E+00  0.35740347158E-01  0.35744000000E-01  0.51099999109E-03 0. -1.
       11   -1    0    0    0    0 -0.00000000000E+00 -0.00000000000E+00 -0.35740347158E-01  0.35744000000E-01  0.51099999109E-03 0.  1.
       22    1    1    2    0    0  0.14750234077E-02  0.88062525724E-02 -0.34603580833E-01  0.35737005818E-01  0.00000000000E+00 0.  1.
  9000001    1    1    2    0    0 -0.14750234077E-02 -0.88062525724E-02  0.34603580833E-01  0.35750994182E-01  0.10000000475E-02 0. -1.
</event>
<event>
 4   0  0.2441219E-02  0.9118800E+02  0.7818609E-02  0.1379984E+01
      -11   -1    0    0    0    0  0.00000000000E+00  0.00000000000E+00  0.35740347158E-01  0.35744000000E-01  0.51099999109E-03 0.  1.
       11   -1    0    0    0    0 -0.00000000000E+00 -0.00000000000E+00 -0.35740347158E-01  0.35744000000E-01  0.51099999109E-03 0. -1.
       22    1    1    2    0    0  0.83355075079E-02  0.21084400255E-02 -0.34687279803E-01  0.35737005818E-01  0.00000000000E+00 0. -1.
  9000001    1    1    2    0    0 -0.83355075079E-02 -0.21084400255E-02  0.34687279803E-01  0.35750994182E-01  0.10000000475E-02 0.  1.
</event>
<event>
 4   0  0.2441219E-02  0.9118800E+02  0.7818609E-02  0.1379984E+01
      -11   -1    0    0    0    0  0.00000000000E+00  0.00000000000E+00  0.35740347158E-01  0.35744000000E-01  0.51099999109E-03 0.  1.
       11   -1    0    0    0    0 -0.00000000000E+00 -0.00000000000E+00 -0.35740347158E-01  0.35744000000E-01  0.51099999109E-03 0. -1.
       22    1    1    2    0    0 -0.11058550446E-02 -0.76406840174E-02 -0.34893131376E-01  0.35737005818E-01  0.00000000000E+00 0. -1.
  9000001    1    1    2    0    0  0.11058550446E-02  0.76406840174E-02  0.34893131376E-01  0.35750994182E-01  0.10000000475E-02 0.  1.
</event>
<event>
 4   0  0.2441219E-02  0.9118800E+02  0.7818609E-02  0.1379984E+01
      -11   -1    0    0    0    0  0.00000000000E+00  0.00000000000E+00  0.35740347158E-01  0.35744000000E-01  0.51099999109E-03 0.  1.
       11   -1    0    0    0    0 -0.00000000000E+00 -0.00000000000E+00 -0.35740347158E-01  0.35744000000E-01  0.51099999109E-03 0. -1.
       22    1    1    2    0    0  0.26522564076E-01  0.22379960650E-01  0.85337296079E-02  0.35737005818E-01  0.00000000000E+00 0. -1.
  9000001    1    1    2    0    0 -0.26522564076E-01 -0.22379960650E-01 -0.85337296079E-02  0.35750994182E-01  0.10000000475E-02 0.  1.
</event>
<event>
 4   0  0.2441219E-02  0.9118800E+02  0.7818609E-02  0.1379984E+01
      -11   -1    0    0    0    0  0.00000000000E+00  0.00000000000E+00  0.35740347158E-01  0.35744000000E-01  0.51099999109E-03 0. -1.
       11   -1    0    0    0    0 -0.00000000000E+00 -0.00000000000E+00 -0.35740347158E-01  0.35744000000E-01  0.51099999109E-03 0.  1.
       22    1    1    2    0    0  0.11816311732E-01 -0.41499140739E-02 -0.33470682322E-01  0.35737005818E-01  0.00000000000E+00 0.  1.
  9000001    1    1    2    0    0 -0.11816311732E-01  0.41499140739E-02  0.33470682322E-01  0.35750994182E-01  0.10000000475E-02 0. -1.
</event>
<event>
 4   0  0.2441219E-02  0.9118800E+02  0.7818609E-02  0.1379984E+01
      -11   -1    0    0    0    0  0.00000000000E+00  0.00000000000E+00  0.35740347158E-01  0.35744000000E-01  0.51099999109E-03 0. -1.
       11   -1    0    0    0    0 -0.00000000000E+00 -0.00000000000E+00 -0.35740347158E-01  0.35744000000E-01  0.51099999109E-03 0.  1.
       22    1    1    2    0    0 -0.10492966964E-01  0.31066916681E-01  0.14208374894E-01  0.35737005818E-01  0.00000000000E+00 0. -1.
  9000001    1    1    2    0    0  0.10492966964E-01 -0.31066916681E-01 -0.14208374894E-01  0.35750994182E-01  0.10000000475E-02 0.  1.
</event>
<event>
 4   0  0.2441219E-02  0.9118800E+02  0.7818609E-02  0.1379984E+01
      -11   -1    0    0    0    0  0.00000000000E+00  0.00000000000E+00  0.35740347158E-01  0.35744000000E-01  0.51099999109E-03 0. -1.
       11   -1    0    0    0    0 -0.00000000000E+00 -0.00000000000E+00 -0.35740347158E-01  0.35744000000E-01  0.51099999109E-03 0.  1.
       22    1    1    2    0    0 -0.18793628690E-01  0.30018506084E-01  0.47772793529E-02  0.35737005818E-01  0.00000000000E+00 0. -1.
  9000001    1    1    2    0    0  0.18793628690E-01 -0.30018506084E-01 -0.47772793529E-02  0.35750994182E-01  0.10000000475E-02 0.  1.
</event>
<event>
 4   0  0.2441219E-02  0.9118800E+02  0.7818609E-02  0.1379984E+01
      -11   -1    0    0    0    0  0.00000000000E+00  0.00000000000E+00  0.35740347158E-01  0.35744000000E-01  0.51099999109E-03 0. -1.
       11   -1    0    0    0    0 -0.00000000000E+00 -0.00000000000E+00 -0.35740347158E-01  0.35744000000E-01  0.51099999109E-03 0.  1.
       22    1    1    2    0    0  0.23317952209E-02 -0.36417154992E-02 -0.35474416474E-01  0.35737005818E-01  0.00000000000E+00 0.  1.
  9000001    1    1    2    0    0 -0.23317952209E-02  0.36417154992E-02  0.35474416474E-01  0.35750994182E-01  0.10000000475E-02 0. -1.
</event>
<event>
 4   0  0.2441219E-02  0.9118800E+02  0.7818609E-02  0.1379984E+01
      -11   -1    0    0    0    0  0.00000000000E+00  0.00000000000E+00  0.35740347158E-01  0.35744000000E-01  0.51099999109E-03 0. -1.
       11   -1    0    0    0    0 -0.00000000000E+00 -0.00000000000E+00 -0.35740347158E-01  0.35744000000E-01  0.51099999109E-03 0.  1.
       22    1    1    2    0    0  0.91256116658E-02  0.17548200678E-01 -0.29764365432E-01  0.35737005818E-01  0.00000000000E+00 0.  1.
  9000001    1    1    2    0    0 -0.91256116658E-02 -0.17548200678E-01  0.29764365432E-01  0.35750994182E-01  0.10000000475E-02 0. -1.
</event>
<event>
 4   0  0.2441219E-02  0.9118800E+02  0.7818609E-02  0.1379984E+01
      -11   -1    0    0    0    0  0.00000000000E+00  0.00000000000E+00  0.35740347158E-01  0.35744000000E-01  0.51099999109E-03 0.  1.
       11   -1    0    0    0    0 -0.00000000000E+00 -0.00000000000E+00 -0.35740347158E-01  0.35744000000E-01  0.51099999109E-03 0. -1.
       22    1    1    2    0    0  0.17944382135E-01 -0.13972878364E-01 -0.27566127854E-01  0.35737005818E-01  0.00000000000E+00 0. -1.
  9000001    1    1    2    0    0 -0.17944382135E-01  0.13972878364E-01  0.27566127854E-01  0.35750994182E-01  0.10000000475E-02 0.  1.
</event>
<event>
 4   0  0.2441219E-02  0.9118800E+02  0.7818609E-02  0.1379984E+01
      -11   -1    0    0    0    0  0.00000000000E+00  0.00000000000E+00  0.35740347158E-01  0.35744000000E-01  0.51099999109E-03 0. -1.
       11   -1    0    0    0    0 -0.00000000000E+00 -0.00000000000E+00 -0.35740347158E-01  0.35744000000E-01  0.51099999109E-03 0.  1.
       22    1    1    2    0    0 -0.41981988877E-02  0.12691371072E-01  0.33142688655E-01  0.35737005818E-01  0.00000000000E+00 0. -1.
  9000001    1    1    2    0    0  0.41981988877E-02 -0.12691371072E-01 -0.33142688655E-01  0.35750994182E-01  0.10000000475E-02 0.  1.
</event>
<event>
 4   0  0.2441219E-02  0.9118800E+02  0.7818609E-02  0.1379984E+01
      -11   -1    0    0    0    0  0.00000000000E+00  0.00000000000E+00  0.35740347158E-01  0.35744000000E-01  0.51099999109E-03 0.  1.
       11   -1    0    0    0    0 -0.00000000000E+00 -0.00000000000E+00 -0.35740347158E-01  0.35744000000E-01  0.51099999109E-03 0. -1.
       22    1    1    2    0    0 -0.12354770432E-02  0.59498199265E-02 -0.35216570307E-01  0.35737005818E-01  0.00000000000E+00 0. -1.
  9000001    1    1    2    0    0  0.12354770432E-02 -0.59498199265E-02  0.35216570307E-01  0.35750994182E-01  0.10000000475E-02 0.  1.
</event>
<event>
 4   0  0.2441219E-02  0.9118800E+02  0.7818609E-02  0.1379984E+01
      -11   -1    0    0    0    0  0.00000000000E+00  0.00000000000E+00  0.35740347158E-01  0.35744000000E-01  0.51099999109E-03 0.  1.
       11   -1    0    0    0    0 -0.00000000000E+00 -0.00000000000E+00 -0.35740347158E-01  0.35744000000E-01  0.51099999109E-03 0. -1.
       22    1    1    2    0    0  0.52033808983E-02  0.10631990619E-01  0.33719715117E-01  0.35737005818E-01  0.00000000000E+00 0.  1.
  9000001    1    1    2    0    0 -0.52033808983E-02 -0.10631990619E-01 -0.33719715117E-01  0.35750994182E-01  0.10000000475E-02 0. -1.
</event>
<event>
 4   0  0.2441219E-02  0.9118800E+02  0.7818609E-02  0.1379984E+01
      -11   -1    0    0    0    0  0.00000000000E+00  0.00000000000E+00  0.35740347158E-01  0.35744000000E-01  0.51099999109E-03 0.  1.
       11   -1    0    0    0    0 -0.00000000000E+00 -0.00000000000E+00 -0.35740347158E-01  0.35744000000E-01  0.51099999109E-03 0. -1.
       22    1    1    2    0    0  0.37906591560E-02 -0.15002267064E-01 -0.32213296494E-01  0.35737005818E-01  0.00000000000E+00 0. -1.
  9000001    1    1    2    0    0 -0.37906591560E-02  0.15002267064E-01  0.32213296494E-01  0.35750994182E-01  0.10000000475E-02 0.  1.
</event>
<event>
 4   0  0.2441219E-02  0.9118800E+02  0.7818609E-02  0.1379984E+01
      -11   -1    0    0    0    0  0.00000000000E+00  0.00000000000E+00  0.35740347158E-01  0.35744000000E-01  0.51099999109E-03 0. -1.
       11   -1    0    0    0    0 -0.00000000000E+00 -0.00000000000E+00 -0.35740347158E-01  0.35744000000E-01  0.51099999109E-03 0.  1.
       22    1    1    2    0    0 -0.39429800265E-02  0.39627702582E-02 -0.35297067092E-01  0.35737005818E-01  0.00000000000E+00 0.  1.
  9000001    1    1    2    0    0  0.39429800265E-02 -0.39627702582E-02  0.35297067092E-01  0.35750994182E-01  0.10000000475E-02 0. -1.
</event>
<event>
 4   0  0.2441219E-02  0.9118800E+02  0.7818609E-02  0.1379984E+01
      -11   -1    0    0    0    0  0.00000000000E+00  0.00000000000E+00  0.35740347158E-01  0.35744000000E-01  0.51099999109E-03 0. -1.
       11   -1    0    0    0    0 -0.00000000000E+00 -0.00000000000E+00 -0.35740347158E-01  0.35744000000E-01  0.51099999109E-03 0.  1.
       22    1    1    2    0    0  0.17703281221E-02 -0.45076837503E-02  0.35407348255E-01  0.35737005818E-01  0.00000000000E+00 0. -1.
  9000001    1    1    2    0    0 -0.17703281221E-02  0.45076837503E-02 -0.35407348255E-01  0.35750994182E-01  0.10000000475E-02 0.  1.
</event>
<event>
 4   0  0.2441219E-02  0.9118800E+02  0.7818609E-02  0.1379984E+01
      -11   -1    0    0    0    0  0.00000000000E+00  0.00000000000E+00  0.35740347158E-01  0.35744000000E-01  0.51099999109E-03 0.  1.
       11   -1    0    0    0    0 -0.00000000000E+00 -0.00000000000E+00 -0.35740347158E-01  0.35744000000E-01  0.51099999109E-03 0. -1.
       22    1    1    2    0    0  0.59328135561E-02  0.18023592313E-02  0.35194982730E-01  0.35737005818E-01  0.00000000000E+00 0.  1.
  9000001    1    1    2    0    0 -0.59328135561E-02 -0.18023592313E-02 -0.35194982730E-01  0.35750994182E-01  0.10000000475E-02 0. -1.
</event>
<event>
 4   0  0.2441219E-02  0.9118800E+02  0.7818609E-02  0.1379984E+01
      -11   -1    0    0    0    0  0.00000000000E+00  0.00000000000E+00  0.35740347158E-01  0.35744000000E-01  0.51099999109E-03 0.  1.
       11   -1    0    0    0    0 -0.00000000000E+00 -0.00000000000E+00 -0.35740347158E-01  0.35744000000E-01  0.51099999109E-03 0. -1.
       22    1    1    2    0    0  0.20777110157E-02  0.53588502952E-02 -0.35271793622E-01  0.35737005818E-01  0.00000000000E+00 0. -1.
  9000001    1    1    2    0    0 -0.20777110157E-02 -0.53588502952E-02  0.35271793622E-01  0.35750994182E-01  0.10000000475E-02 0.  1.
</event>
<event>
 4   0  0.2441219E-02  0.9118800E+02  0.7818609E-02  0.1379984E+01
      -11   -1    0    0    0    0  0.00000000000E+00  0.00000000000E+00  0.35740347158E-01  0.35744000000E-01  0.51099999109E-03 0. -1.
       11   -1    0    0    0    0 -0.00000000000E+00 -0.00000000000E+00 -0.35740347158E-01  0.35744000000E-01  0.51099999109E-03 0.  1.
       22    1    1    2    0    0 -0.54735000842E-02 -0.91224471142E-02 -0.34116789713E-01  0.35737005818E-01  0.00000000000E+00 0.  1.
  9000001    1    1    2    0    0  0.54735000842E-02  0.91224471142E-02  0.34116789713E-01  0.35750994182E-01  0.10000000475E-02 0. -1.
</event>
<event>
 4   0  0.2441219E-02  0.9118800E+02  0.7818609E-02  0.1379984E+01
      -11   -1    0    0    0    0  0.00000000000E+00  0.00000000000E+00  0.35740347158E-01  0.35744000000E-01  0.51099999109E-03 0.  1.
       11   -1    0    0    0    0 -0.00000000000E+00 -0.00000000000E+00 -0.35740347158E-01  0.35744000000E-01  0.51099999109E-03 0. -1.
       22    1    1    2    0    0  0.12863942507E-01  0.25742002283E-02  0.33241932273E-01  0.35737005818E-01  0.00000000000E+00 0.  1.
  9000001    1    1    2    0    0 -0.12863942507E-01 -0.25742002283E-02 -0.33241932273E-01  0.35750994182E-01  0.10000000475E-02 0. -1.
</event>
<event>
 4   0  0.2441219E-02  0.9118800E+02  0.7818609E-02  0.1379984E+01
      -11   -1    0    0    0    0  0.00000000000E+00  0.00000000000E+00  0.35740347158E-01  0.35744000000E-01  0.51099999109E-03 0.  1.
       11   -1    0    0    0    0 -0.00000000000E+00 -0.00000000000E+00 -0.35740347158E-01  0.35744000000E-01  0.51099999109E-03 0. -1.
       22    1    1    2    0    0  0.10189577670E-01  0.22703693897E-02 -0.34178231590E-01  0.35737005818E-01  0.00000000000E+00 0. -1.
  9000001    1    1    2    0    0 -0.10189577670E-01 -0.22703693897E-02  0.34178231590E-01  0.35750994182E-01  0.10000000475E-02 0.  1.
</event>
<event>
 4   0  0.2441219E-02  0.9118800E+02  0.7818609E-02  0.1379984E+01
      -11   -1    0    0    0    0  0.00000000000E+00  0.00000000000E+00  0.35740347158E-01  0.35744000000E-01  0.51099999109E-03 0.  1.
       11   -1    0    0    0    0 -0.00000000000E+00 -0.00000000000E+00 -0.35740347158E-01  0.35744000000E-01  0.51099999109E-03 0. -1.
       22    1    1    2    0    0  0.19679377609E-01  0.59192463859E-02  0.29237274224E-01  0.35737005818E-01  0.00000000000E+00 0.  1.
  9000001    1    1    2    0    0 -0.19679377609E-01 -0.59192463859E-02 -0.29237274224E-01  0.35750994182E-01  0.10000000475E-02 0. -1.
</event>
<event>
 4   0  0.2441219E-02  0.9118800E+02  0.7818609E-02  0.1379984E+01
      -11   -1    0    0    0    0  0.00000000000E+00  0.00000000000E+00  0.35740347158E-01  0.35744000000E-01  0.51099999109E-03 0.  1.
       11   -1    0    0    0    0 -0.00000000000E+00 -0.00000000000E+00 -0.35740347158E-01  0.35744000000E-01  0.51099999109E-03 0. -1.
       22    1    1    2    0    0 -0.33066736712E-02 -0.87063491895E-02 -0.34502159032E-01  0.35737005818E-01  0.00000000000E+00 0. -1.
  9000001    1    1    2    0    0  0.33066736712E-02  0.87063491895E-02  0.34502159032E-01  0.35750994182E-01  0.10000000475E-02 0.  1.
</event>
<event>
 4   0  0.2441219E-02  0.9118800E+02  0.7818609E-02  0.1379984E+01
      -11   -1    0    0    0    0  0.00000000000E+00  0.00000000000E+00  0.35740347158E-01  0.35744000000E-01  0.51099999109E-03 0.  1.
       11   -1    0    0    0    0 -0.00000000000E+00 -0.00000000000E+00 -0.35740347158E-01  0.35744000000E-01  0.51099999109E-03 0. -1.
       22    1    1    2    0    0  0.54865999771E-02 -0.32818970262E-02  0.35160488584E-01  0.35737005818E-01  0.00000000000E+00 0.  1.
  9000001    1    1    2    0    0 -0.54865999771E-02  0.32818970262E-02 -0.35160488584E-01  0.35750994182E-01  0.10000000475E-02 0. -1.
</event>
<event>
 4   0  0.2441219E-02  0.9118800E+02  0.7818609E-02  0.1379984E+01
      -11   -1    0    0    0    0  0.00000000000E+00  0.00000000000E+00  0.35740347158E-01  0.35744000000E-01  0.51099999109E-03 0.  1.
       11   -1    0    0    0    0 -0.00000000000E+00 -0.00000000000E+00 -0.35740347158E-01  0.35744000000E-01  0.51099999109E-03 0. -1.
       22    1    1    2    0    0  0.21749533567E-02  0.29122032825E-02 -0.35551683994E-01  0.35737005818E-01  0.00000000000E+00 0. -1.
  9000001    1    1    2    0    0 -0.21749533567E-02 -0.29122032825E-02  0.35551683994E-01  0.35750994182E-01  0.10000000475E-02 0.  1.
</event>
<event>
 4   0  0.2441219E-02  0.9118800E+02  0.7818609E-02  0.1379984E+01
      -11   -1    0    0    0    0  0.00000000000E+00  0.00000000000E+00  0.35740347158E-01  0.35744000000E-01  0.51099999109E-03 0. -1.
       11   -1    0    0    0    0 -0.00000000000E+00 -0.00000000000E+00 -0.35740347158E-01  0.35744000000E-01  0.51099999109E-03 0.  1.
       22    1    1    2    0    0 -0.15941389344E-02 -0.34894271094E-02 -0.35530496821E-01  0.35737005818E-01  0.00000000000E+00 0.  1.
  9000001    1    1    2    0    0  0.15941389344E-02  0.34894271094E-02  0.35530496821E-01  0.35750994182E-01  0.10000000475E-02 0. -1.
</event>
<event>
 4   0  0.2441219E-02  0.9118800E+02  0.7818609E-02  0.1379984E+01
      -11   -1    0    0    0    0  0.00000000000E+00  0.00000000000E+00  0.35740347158E-01  0.35744000000E-01  0.51099999109E-03 0. -1.
       11   -1    0    0    0    0 -0.00000000000E+00 -0.00000000000E+00 -0.35740347158E-01  0.35744000000E-01  0.51099999109E-03 0.  1.
       22    1    1    2    0    0  0.30824507250E-01  0.17189577484E-01  0.56126431901E-02  0.35737005818E-01  0.00000000000E+00 0. -1.
  9000001    1    1    2    0    0 -0.30824507250E-01 -0.17189577484E-01 -0.56126431901E-02  0.35750994182E-01  0.10000000475E-02 0.  1.
</event>
<event>
 4   0  0.2441219E-02  0.9118800E+02  0.7818609E-02  0.1379984E+01
      -11   -1    0    0    0    0  0.00000000000E+00  0.00000000000E+00  0.35740347158E-01  0.35744000000E-01  0.51099999109E-03 0.  1.
       11   -1    0    0    0    0 -0.00000000000E+00 -0.00000000000E+00 -0.35740347158E-01  0.35744000000E-01  0.51099999109E-03 0. -1.
       22    1    1    2    0    0 -0.11214620377E-01 -0.31878680318E-01  0.11623924289E-01  0.35737005818E-01  0.00000000000E+00 0.  1.
  9000001    1    1    2    0    0  0.11214620377E-01  0.31878680318E-01 -0.11623924289E-01  0.35750994182E-01  0.10000000475E-02 0. -1.
</event>
<event>
 4   0  0.2441219E-02  0.9118800E+02  0.7818609E-02  0.1379984E+01
      -11   -1    0    0    0    0  0.00000000000E+00  0.00000000000E+00  0.35740347158E-01  0.35744000000E-01  0.51099999109E-03 0. -1.
       11   -1    0    0    0    0 -0.00000000000E+00 -0.00000000000E+00 -0.35740347158E-01  0.35744000000E-01  0.51099999109E-03 0.  1.
       22    1    1    2    0    0  0.15903997843E-01 -0.60134671590E-03  0.31997418952E-01  0.35737005818E-01  0.00000000000E+00 0. -1.
  9000001    1    1    2    0    0 -0.15903997843E-01  0.60134671590E-03 -0.31997418952E-01  0.35750994182E-01  0.10000000475E-02 0.  1.
</event>
<event>
 4   0  0.2441219E-02  0.9118800E+02  0.7818609E-02  0.1379984E+01
      -11   -1    0    0    0    0  0.00000000000E+00  0.00000000000E+00  0.35740347158E-01  0.35744000000E-01  0.51099999109E-03 0.  1.
       11   -1    0    0    0    0 -0.00000000000E+00 -0.00000000000E+00 -0.35740347158E-01  0.35744000000E-01  0.51099999109E-03 0. -1.
       22    1    1    2    0    0  0.31492038283E-01  0.16406596263E-01 -0.40260040644E-02  0.35737005818E-01  0.00000000000E+00 0. -1.
  9000001    1    1    2    0    0 -0.31492038283E-01 -0.16406596263E-01  0.40260040644E-02  0.35750994182E-01  0.10000000475E-02 0.  1.
</event>
<event>
 4   0  0.2441219E-02  0.9118800E+02  0.7818609E-02  0.1379984E+01
      -11   -1    0    0    0    0  0.00000000000E+00  0.00000000000E+00  0.35740347158E-01  0.35744000000E-01  0.51099999109E-03 0.  1.
       11   -1    0    0    0    0 -0.00000000000E+00 -0.00000000000E+00 -0.35740347158E-01  0.35744000000E-01  0.51099999109E-03 0. -1.
       22    1    1    2    0    0 -0.17542867202E-01  0.58571136635E-02 -0.30579006111E-01  0.35737005818E-01  0.00000000000E+00 0. -1.
  9000001    1    1    2    0    0  0.17542867202E-01 -0.58571136635E-02  0.30579006111E-01  0.35750994182E-01  0.10000000475E-02 0.  1.
</event>
<event>
 4   0  0.2441219E-02  0.9118800E+02  0.7818609E-02  0.1379984E+01
      -11   -1    0    0    0    0  0.00000000000E+00  0.00000000000E+00  0.35740347158E-01  0.35744000000E-01  0.51099999109E-03 0. -1.
       11   -1    0    0    0    0 -0.00000000000E+00 -0.00000000000E+00 -0.35740347158E-01  0.35744000000E-01  0.51099999109E-03 0.  1.
       22    1    1    2    0    0 -0.16686631374E-01 -0.56783063865E-02 -0.31087726756E-01  0.35737005818E-01  0.00000000000E+00 0.  1.
  9000001    1    1    2    0    0  0.16686631374E-01  0.56783063865E-02  0.31087726756E-01  0.35750994182E-01  0.10000000475E-02 0. -1.
</event>
<event>
 4   0  0.2441219E-02  0.9118800E+02  0.7818609E-02  0.1379984E+01
      -11   -1    0    0    0    0  0.00000000000E+00  0.00000000000E+00  0.35740347158E-01  0.35744000000E-01  0.51099999109E-03 0.  1.
       11   -1    0    0    0    0 -0.00000000000E+00 -0.00000000000E+00 -0.35740347158E-01  0.35744000000E-01  0.51099999109E-03 0. -1.
       22    1    1    2    0    0  0.49375345331E-02 -0.49012694683E-02  0.35053272247E-01  0.35737005818E-01  0.00000000000E+00 0.  1.
  9000001    1    1    2    0    0 -0.49375345331E-02  0.49012694683E-02 -0.35053272247E-01  0.35750994182E-01  0.10000000475E-02 0. -1.
</event>
<event>
 4   0  0.2441219E-02  0.9118800E+02  0.7818609E-02  0.1379984E+01
      -11   -1    0    0    0    0  0.00000000000E+00  0.00000000000E+00  0.35740347158E-01  0.35744000000E-01  0.51099999109E-03 0.  1.
       11   -1    0    0    0    0 -0.00000000000E+00 -0.00000000000E+00 -0.35740347158E-01  0.35744000000E-01  0.51099999109E-03 0. -1.
       22    1    1    2    0    0 -0.12230628668E-02  0.12780850945E-01  0.33350975266E-01  0.35737005818E-01  0.00000000000E+00 0.  1.
  9000001    1    1    2    0    0  0.12230628668E-02 -0.12780850945E-01 -0.33350975266E-01  0.35750994182E-01  0.10000000475E-02 0. -1.
</event>
<event>
 4   0  0.2441219E-02  0.9118800E+02  0.7818609E-02  0.1379984E+01
      -11   -1    0    0    0    0  0.00000000000E+00  0.00000000000E+00  0.35740347158E-01  0.35744000000E-01  0.51099999109E-03 0.  1.
       11   -1    0    0    0    0 -0.00000000000E+00 -0.00000000000E+00 -0.35740347158E-01  0.35744000000E-01  0.51099999109E-03 0. -1.
       22    1    1    2    0    0 -0.20263141327E-01 -0.13261599461E-01 -0.26280575872E-01  0.35737005818E-01  0.00000000000E+00 0. -1.
  9000001    1    1    2    0    0  0.20263141327E-01  0.13261599461E-01  0.26280575872E-01  0.35750994182E-01  0.10000000475E-02 0.  1.
</event>
<event>
 4   0  0.2441219E-02  0.9118800E+02  0.7818609E-02  0.1379984E+01
      -11   -1    0    0    0    0  0.00000000000E+00  0.00000000000E+00  0.35740347158E-01  0.35744000000E-01  0.51099999109E-03 0.  1.
       11   -1    0    0    0    0 -0.00000000000E+00 -0.00000000000E+00 -0.35740347158E-01  0.35744000000E-01  0.51099999109E-03 0. -1.
       22    1    1    2    0    0 -0.30798778383E-02 -0.39986134492E-02 -0.35378793477E-01  0.35737005818E-01  0.00000000000E+00 0. -1.
  9000001    1    1    2    0    0  0.30798778383E-02  0.39986134492E-02  0.35378793477E-01  0.35750994182E-01  0.10000000475E-02 0.  1.
</event>
<event>
 4   0  0.2441219E-02  0.9118800E+02  0.7818609E-02  0.1379984E+01
      -11   -1    0    0    0    0  0.00000000000E+00  0.00000000000E+00  0.35740347158E-01  0.35744000000E-01  0.51099999109E-03 0.  1.
       11   -1    0    0    0    0 -0.00000000000E+00 -0.00000000000E+00 -0.35740347158E-01  0.35744000000E-01  0.51099999109E-03 0. -1.
       22    1    1    2    0    0 -0.66429694026E-03  0.40270692164E-02  0.35503168985E-01  0.35737005818E-01  0.00000000000E+00 0.  1.
  9000001    1    1    2    0    0  0.66429694026E-03 -0.40270692164E-02 -0.35503168985E-01  0.35750994182E-01  0.10000000475E-02 0. -1.
</event>
<event>
 4   0  0.2441219E-02  0.9118800E+02  0.7818609E-02  0.1379984E+01
      -11   -1    0    0    0    0  0.00000000000E+00  0.00000000000E+00  0.35740347158E-01  0.35744000000E-01  0.51099999109E-03 0.  1.
       11   -1    0    0    0    0 -0.00000000000E+00 -0.00000000000E+00 -0.35740347158E-01  0.35744000000E-01  0.51099999109E-03 0. -1.
       22    1    1    2    0    0 -0.94013982287E-02  0.98988546564E-02  0.33026655488E-01  0.35737005818E-01  0.00000000000E+00 0.  1.
  9000001    1    1    2    0    0  0.94013982287E-02 -0.98988546564E-02 -0.33026655488E-01  0.35750994182E-01  0.10000000475E-02 0. -1.
</event>
<event>
 4   0  0.2441219E-02  0.9118800E+02  0.7818609E-02  0.1379984E+01
      -11   -1    0    0    0    0  0.00000000000E+00  0.00000000000E+00  0.35740347158E-01  0.35744000000E-01  0.51099999109E-03 0.  1.
       11   -1    0    0    0    0 -0.00000000000E+00 -0.00000000000E+00 -0.35740347158E-01  0.35744000000E-01  0.51099999109E-03 0. -1.
       22    1    1    2    0    0 -0.32293202357E-01 -0.11247288202E-02  0.15264915704E-01  0.35737005818E-01  0.00000000000E+00 0.  1.
  9000001    1    1    2    0    0  0.32293202357E-01  0.11247288202E-02 -0.15264915704E-01  0.35750994182E-01  0.10000000475E-02 0. -1.
</event>
<event>
 4   0  0.2441219E-02  0.9118800E+02  0.7818609E-02  0.1379984E+01
      -11   -1    0    0    0    0  0.00000000000E+00  0.00000000000E+00  0.35740347158E-01  0.35744000000E-01  0.51099999109E-03 0.  1.
       11   -1    0    0    0    0 -0.00000000000E+00 -0.00000000000E+00 -0.35740347158E-01  0.35744000000E-01  0.51099999109E-03 0. -1.
       22    1    1    2    0    0  0.30995689348E-01  0.17076115737E-01  0.49806724531E-02  0.35737005818E-01  0.00000000000E+00 0.  1.
  9000001    1    1    2    0    0 -0.30995689348E-01 -0.17076115737E-01 -0.49806724531E-02  0.35750994182E-01  0.10000000475E-02 0. -1.
</event>
<event>
 4   0  0.2441219E-02  0.9118800E+02  0.7818609E-02  0.1379984E+01
      -11   -1    0    0    0    0  0.00000000000E+00  0.00000000000E+00  0.35740347158E-01  0.35744000000E-01  0.51099999109E-03 0.  1.
       11   -1    0    0    0    0 -0.00000000000E+00 -0.00000000000E+00 -0.35740347158E-01  0.35744000000E-01  0.51099999109E-03 0. -1.
       22    1    1    2    0    0  0.29585866073E-02  0.93678242124E-02  0.34360212742E-01  0.35737005818E-01  0.00000000000E+00 0.  1.
  9000001    1    1    2    0    0 -0.29585866073E-02 -0.93678242124E-02 -0.34360212742E-01  0.35750994182E-01  0.10000000475E-02 0. -1.
</event>
<event>
 4   0  0.2441219E-02  0.9118800E+02  0.7818609E-02  0.1379984E+01
      -11   -1    0    0    0    0  0.00000000000E+00  0.00000000000E+00  0.35740347158E-01  0.35744000000E-01  0.51099999109E-03 0. -1.
       11   -1    0    0    0    0 -0.00000000000E+00 -0.00000000000E+00 -0.35740347158E-01  0.35744000000E-01  0.51099999109E-03 0.  1.
       22    1    1    2    0    0  0.60947151615E-04  0.38805416924E-02  0.35525642380E-01  0.35737005818E-01  0.00000000000E+00 0. -1.
  9000001    1    1    2    0    0 -0.60947151615E-04 -0.38805416924E-02 -0.35525642380E-01  0.35750994182E-01  0.10000000475E-02 0.  1.
</event>
<event>
 4   0  0.2441219E-02  0.9118800E+02  0.7818609E-02  0.1379984E+01
      -11   -1    0    0    0    0  0.00000000000E+00  0.00000000000E+00  0.35740347158E-01  0.35744000000E-01  0.51099999109E-03 0.  1.
       11   -1    0    0    0    0 -0.00000000000E+00 -0.00000000000E+00 -0.35740347158E-01  0.35744000000E-01  0.51099999109E-03 0. -1.
       22    1    1    2    0    0  0.21481633178E-02 -0.79190162882E-02 -0.34782296650E-01  0.35737005818E-01  0.00000000000E+00 0. -1.
  9000001    1    1    2    0    0 -0.21481633178E-02  0.79190162882E-02  0.34782296650E-01  0.35750994182E-01  0.10000000475E-02 0.  1.
</event>
<event>
 4   0  0.2441219E-02  0.9118800E+02  0.7818609E-02  0.1379984E+01
      -11   -1    0    0    0    0  0.00000000000E+00  0.00000000000E+00  0.35740347158E-01  0.35744000000E-01  0.51099999109E-03 0.  1.
       11   -1    0    0    0    0 -0.00000000000E+00 -0.00000000000E+00 -0.35740347158E-01  0.35744000000E-01  0.51099999109E-03 0. -1.
       22    1    1    2    0    0  0.15185857547E-01 -0.28451825812E-02  0.32224652853E-01  0.35737005818E-01  0.00000000000E+00 0.  1.
  9000001    1    1    2    0    0 -0.15185857547E-01  0.28451825812E-02 -0.32224652853E-01  0.35750994182E-01  0.10000000475E-02 0. -1.
</event>
<event>
 4   0  0.2441219E-02  0.9118800E+02  0.7818609E-02  0.1379984E+01
      -11   -1    0    0    0    0  0.00000000000E+00  0.00000000000E+00  0.35740347158E-01  0.35744000000E-01  0.51099999109E-03 0.  1.
       11   -1    0    0    0    0 -0.00000000000E+00 -0.00000000000E+00 -0.35740347158E-01  0.35744000000E-01  0.51099999109E-03 0. -1.
       22    1    1    2    0    0 -0.32125999629E-01 -0.14148322829E-01 -0.66991562040E-02  0.35737005818E-01  0.00000000000E+00 0. -1.
  9000001    1    1    2    0    0  0.32125999629E-01  0.14148322829E-01  0.66991562040E-02  0.35750994182E-01  0.10000000475E-02 0.  1.
</event>
<event>
 4   0  0.2441219E-02  0.9118800E+02  0.7818609E-02  0.1379984E+01
      -11   -1    0    0    0    0  0.00000000000E+00  0.00000000000E+00  0.35740347158E-01  0.35744000000E-01  0.51099999109E-03 0. -1.
       11   -1    0    0    0    0 -0.00000000000E+00 -0.00000000000E+00 -0.35740347158E-01  0.35744000000E-01  0.51099999109E-03 0.  1.
       22    1    1    2    0    0 -0.56047825580E-02  0.55506503494E-02  0.34855563086E-01  0.35737005818E-01  0.00000000000E+00 0. -1.
  9000001    1    1    2    0    0  0.56047825580E-02 -0.55506503494E-02 -0.34855563086E-01  0.35750994182E-01  0.10000000475E-02 0.  1.
</event>
<event>
 4   0  0.2441219E-02  0.9118800E+02  0.7818609E-02  0.1379984E+01
      -11   -1    0    0    0    0  0.00000000000E+00  0.00000000000E+00  0.35740347158E-01  0.35744000000E-01  0.51099999109E-03 0.  1.
       11   -1    0    0    0    0 -0.00000000000E+00 -0.00000000000E+00 -0.35740347158E-01  0.35744000000E-01  0.51099999109E-03 0. -1.
       22    1    1    2    0    0  0.27997649915E-02  0.45353568185E-02 -0.35337309453E-01  0.35737005818E-01  0.00000000000E+00 0. -1.
  9000001    1    1    2    0    0 -0.27997649915E-02 -0.45353568185E-02  0.35337309453E-01  0.35750994182E-01  0.10000000475E-02 0.  1.
</event>
<event>
 4   0  0.2441219E-02  0.9118800E+02  0.7818609E-02  0.1379984E+01
      -11   -1    0    0    0    0  0.00000000000E+00  0.00000000000E+00  0.35740347158E-01  0.35744000000E-01  0.51099999109E-03 0.  1.
       11   -1    0    0    0    0 -0.00000000000E+00 -0.00000000000E+00 -0.35740347158E-01  0.35744000000E-01  0.51099999109E-03 0. -1.
       22    1    1    2    0    0 -0.41525226622E-02  0.90203461872E-03  0.35483467615E-01  0.35737005818E-01  0.00000000000E+00 0.  1.
  9000001    1    1    2    0    0  0.41525226622E-02 -0.90203461872E-03 -0.35483467615E-01  0.35750994182E-01  0.10000000475E-02 0. -1.
</event>
<event>
 4   0  0.2441219E-02  0.9118800E+02  0.7818609E-02  0.1379984E+01
      -11   -1    0    0    0    0  0.00000000000E+00  0.00000000000E+00  0.35740347158E-01  0.35744000000E-01  0.51099999109E-03 0.  1.
       11   -1    0    0    0    0 -0.00000000000E+00 -0.00000000000E+00 -0.35740347158E-01  0.35744000000E-01  0.51099999109E-03 0. -1.
       22    1    1    2    0    0  0.94665006175E-02  0.83414842400E-02 -0.33435588698E-01  0.35737005818E-01  0.00000000000E+00 0. -1.
  9000001    1    1    2    0    0 -0.94665006175E-02 -0.83414842400E-02  0.33435588698E-01  0.35750994182E-01  0.10000000475E-02 0.  1.
</event>
<event>
 4   0  0.2441219E-02  0.9118800E+02  0.7818609E-02  0.1379984E+01
      -11   -1    0    0    0    0  0.00000000000E+00  0.00000000000E+00  0.35740347158E-01  0.35744000000E-01  0.51099999109E-03 0. -1.
       11   -1    0    0    0    0 -0.00000000000E+00 -0.00000000000E+00 -0.35740347158E-01  0.35744000000E-01  0.51099999109E-03 0.  1.
       22    1    1    2    0    0 -0.24499483846E-01 -0.11259757457E-01  0.23454780710E-01  0.35737005818E-01  0.00000000000E+00 0. -1.
  9000001    1    1    2    0    0  0.24499483846E-01  0.11259757457E-01 -0.23454780710E-01  0.35750994182E-01  0.10000000475E-02 0.  1.
</event>
<event>
 4   0  0.2441219E-02  0.9118800E+02  0.7818609E-02  0.1379984E+01
      -11   -1    0    0    0    0  0.00000000000E+00  0.00000000000E+00  0.35740347158E-01  0.35744000000E-01  0.51099999109E-03 0.  1.
       11   -1    0    0    0    0 -0.00000000000E+00 -0.00000000000E+00 -0.35740347158E-01  0.35744000000E-01  0.51099999109E-03 0. -1.
       22    1    1    2    0    0  0.52501875035E-02  0.23778064041E-02  0.35269181345E-01  0.35737005818E-01  0.00000000000E+00 0.  1.
  9000001    1    1    2    0    0 -0.52501875035E-02 -0.23778064041E-02 -0.35269181345E-01  0.35750994182E-01  0.10000000475E-02 0. -1.
</event>
<event>
 4   0  0.2441219E-02  0.9118800E+02  0.7818609E-02  0.1379984E+01
      -11   -1    0    0    0    0  0.00000000000E+00  0.00000000000E+00  0.35740347158E-01  0.35744000000E-01  0.51099999109E-03 0.  1.
       11   -1    0    0    0    0 -0.00000000000E+00 -0.00000000000E+00 -0.35740347158E-01  0.35744000000E-01  0.51099999109E-03 0. -1.
       22    1    1    2    0    0  0.12346085927E-01  0.22299846818E-01  0.25048444643E-01  0.35737005818E-01  0.00000000000E+00 0.  1.
  9000001    1    1    2    0    0 -0.12346085927E-01 -0.22299846818E-01 -0.25048444643E-01  0.35750994182E-01  0.10000000475E-02 0. -1.
</event>
<event>
 4   0  0.2441219E-02  0.9118800E+02  0.7818609E-02  0.1379984E+01
      -11   -1    0    0    0    0  0.00000000000E+00  0.00000000000E+00  0.35740347158E-01  0.35744000000E-01  0.51099999109E-03 0.  1.
       11   -1    0    0    0    0 -0.00000000000E+00 -0.00000000000E+00 -0.35740347158E-01  0.35744000000E-01  0.51099999109E-03 0. -1.
       22    1    1    2    0    0  0.46682894160E-03 -0.67579631692E-02 -0.35089109271E-01  0.35737005818E-01  0.00000000000E+00 0. -1.
  9000001    1    1    2    0    0 -0.46682894160E-03  0.67579631692E-02  0.35089109271E-01  0.35750994182E-01  0.10000000475E-02 0.  1.
</event>
<event>
 4   0  0.2441219E-02  0.9118800E+02  0.7818609E-02  0.1379984E+01
      -11   -1    0    0    0    0  0.00000000000E+00  0.00000000000E+00  0.35740347158E-01  0.35744000000E-01  0.51099999109E-03 0.  1.
       11   -1    0    0    0    0 -0.00000000000E+00 -0.00000000000E+00 -0.35740347158E-01  0.35744000000E-01  0.51099999109E-03 0. -1.
       22    1    1    2    0    0  0.17268170701E-02  0.27160067436E-02 -0.35591782690E-01  0.35737005818E-01  0.00000000000E+00 0. -1.
  9000001    1    1    2    0    0 -0.17268170701E-02 -0.27160067436E-02  0.35591782690E-01  0.35750994182E-01  0.10000000475E-02 0.  1.
</event>
<event>
 4   0  0.2441219E-02  0.9118800E+02  0.7818609E-02  0.1379984E+01
      -11   -1    0    0    0    0  0.00000000000E+00  0.00000000000E+00  0.35740347158E-01  0.35744000000E-01  0.51099999109E-03 0.  1.
       11   -1    0    0    0    0 -0.00000000000E+00 -0.00000000000E+00 -0.35740347158E-01  0.35744000000E-01  0.51099999109E-03 0. -1.
       22    1    1    2    0    0 -0.56013374938E-02 -0.87026718533E-03  0.35284575074E-01  0.35737005818E-01  0.00000000000E+00 0.  1.
  9000001    1    1    2    0    0  0.56013374938E-02  0.87026718533E-03 -0.35284575074E-01  0.35750994182E-01  0.10000000475E-02 0. -1.
</event>
<event>
 4   0  0.2441219E-02  0.9118800E+02  0.7818609E-02  0.1379984E+01
      -11   -1    0    0    0    0  0.00000000000E+00  0.00000000000E+00  0.35740347158E-01  0.35744000000E-01  0.51099999109E-03 0. -1.
       11   -1    0    0    0    0 -0.00000000000E+00 -0.00000000000E+00 -0.35740347158E-01  0.35744000000E-01  0.51099999109E-03 0.  1.
       22    1    1    2    0    0  0.14258656191E-01  0.24358588264E-01  0.21919933537E-01  0.35737005818E-01  0.00000000000E+00 0. -1.
  9000001    1    1    2    0    0 -0.14258656191E-01 -0.24358588264E-01 -0.21919933537E-01  0.35750994182E-01  0.10000000475E-02 0.  1.
</event>
<event>
 4   0  0.2441219E-02  0.9118800E+02  0.7818609E-02  0.1379984E+01
      -11   -1    0    0    0    0  0.00000000000E+00  0.00000000000E+00  0.35740347158E-01  0.35744000000E-01  0.51099999109E-03 0.  1.
       11   -1    0    0    0    0 -0.00000000000E+00 -0.00000000000E+00 -0.35740347158E-01  0.35744000000E-01  0.51099999109E-03 0. -1.
       22    1    1    2    0    0 -0.12522210628E-01 -0.17294344639E-01 -0.28657171343E-01  0.35737005818E-01  0.00000000000E+00 0. -1.
  9000001    1    1    2    0    0  0.12522210628E-01  0.17294344639E-01  0.28657171343E-01  0.35750994182E-01  0.10000000475E-02 0.  1.
</event>
<event>
 4   0  0.2441219E-02  0.9118800E+02  0.7818609E-02  0.1379984E+01
      -11   -1    0    0    0    0  0.00000000000E+00  0.00000000000E+00  0.35740347158E-01  0.35744000000E-01  0.51099999109E-03 0. -1.
       11   -1    0    0    0    0 -0.00000000000E+00 -0.00000000000E+00 -0.35740347158E-01  0.35744000000E-01  0.51099999109E-03 0.  1.
       22    1    1    2    0    0  0.11742734090E-01 -0.12517349991E-01  0.31345776912E-01  0.35737005818E-01  0.00000000000E+00 0. -1.
  9000001    1    1    2    0    0 -0.11742734090E-01  0.12517349991E-01 -0.31345776912E-01  0.35750994182E-01  0.10000000475E-02 0.  1.
</event>
<event>
 4   0  0.2441219E-02  0.9118800E+02  0.7818609E-02  0.1379984E+01
      -11   -1    0    0    0    0  0.00000000000E+00  0.00000000000E+00  0.35740347158E-01  0.35744000000E-01  0.51099999109E-03 0. -1.
       11   -1    0    0    0    0 -0.00000000000E+00 -0.00000000000E+00 -0.35740347158E-01  0.35744000000E-01  0.51099999109E-03 0.  1.
       22    1    1    2    0    0  0.69659488276E-02  0.29791954554E-03  0.35050255145E-01  0.35737005818E-01  0.00000000000E+00 0. -1.
  9000001    1    1    2    0    0 -0.69659488276E-02 -0.29791954554E-03 -0.35050255145E-01  0.35750994182E-01  0.10000000475E-02 0.  1.
</event>
<event>
 4   0  0.2441219E-02  0.9118800E+02  0.7818609E-02  0.1379984E+01
      -11   -1    0    0    0    0  0.00000000000E+00  0.00000000000E+00  0.35740347158E-01  0.35744000000E-01  0.51099999109E-03 0. -1.
       11   -1    0    0    0    0 -0.00000000000E+00 -0.00000000000E+00 -0.35740347158E-01  0.35744000000E-01  0.51099999109E-03 0.  1.
       22    1    1    2    0    0 -0.13048661694E-01  0.25479576283E-02 -0.33171884553E-01  0.35737005818E-01  0.00000000000E+00 0.  1.
  9000001    1    1    2    0    0  0.13048661694E-01 -0.25479576283E-02  0.33171884553E-01  0.35750994182E-01  0.10000000475E-02 0. -1.
</event>
<event>
 4   0  0.2441219E-02  0.9118800E+02  0.7818609E-02  0.1379984E+01
      -11   -1    0    0    0    0  0.00000000000E+00  0.00000000000E+00  0.35740347158E-01  0.35744000000E-01  0.51099999109E-03 0.  1.
       11   -1    0    0    0    0 -0.00000000000E+00 -0.00000000000E+00 -0.35740347158E-01  0.35744000000E-01  0.51099999109E-03 0. -1.
       22    1    1    2    0    0  0.18174991486E-01 -0.23134176416E-01  0.20288251549E-01  0.35737005818E-01  0.00000000000E+00 0. -1.
  9000001    1    1    2    0    0 -0.18174991486E-01  0.23134176416E-01 -0.20288251549E-01  0.35750994182E-01  0.10000000475E-02 0.  1.
</event>
<event>
 4   0  0.2441219E-02  0.9118800E+02  0.7818609E-02  0.1379984E+01
      -11   -1    0    0    0    0  0.00000000000E+00  0.00000000000E+00  0.35740347158E-01  0.35744000000E-01  0.51099999109E-03 0.  1.
       11   -1    0    0    0    0 -0.00000000000E+00 -0.00000000000E+00 -0.35740347158E-01  0.35744000000E-01  0.51099999109E-03 0. -1.
       22    1    1    2    0    0  0.63261393733E-02 -0.26348957455E-02  0.35073791781E-01  0.35737005818E-01  0.00000000000E+00 0.  1.
  9000001    1    1    2    0    0 -0.63261393733E-02  0.26348957455E-02 -0.35073791781E-01  0.35750994182E-01  0.10000000475E-02 0. -1.
</event>
<event>
 4   0  0.2441219E-02  0.9118800E+02  0.7818609E-02  0.1379984E+01
      -11   -1    0    0    0    0  0.00000000000E+00  0.00000000000E+00  0.35740347158E-01  0.35744000000E-01  0.51099999109E-03 0.  1.
       11   -1    0    0    0    0 -0.00000000000E+00 -0.00000000000E+00 -0.35740347158E-01  0.35744000000E-01  0.51099999109E-03 0. -1.
       22    1    1    2    0    0  0.68033313917E-02 -0.55943682407E-03  0.35078986549E-01  0.35737005818E-01  0.00000000000E+00 0.  1.
  9000001    1    1    2    0    0 -0.68033313917E-02  0.55943682407E-03 -0.35078986549E-01  0.35750994182E-01  0.10000000475E-02 0. -1.
</event>
<event>
 4   0  0.2441219E-02  0.9118800E+02  0.7818609E-02  0.1379984E+01
      -11   -1    0    0    0    0  0.00000000000E+00  0.00000000000E+00  0.35740347158E-01  0.35744000000E-01  0.51099999109E-03 0. -1.
       11   -1    0    0    0    0 -0.00000000000E+00 -0.00000000000E+00 -0.35740347158E-01  0.35744000000E-01  0.51099999109E-03 0.  1.
       22    1    1    2    0    0 -0.79200936089E-02 -0.17502660813E-01  0.30134076501E-01  0.35737005818E-01  0.00000000000E+00 0. -1.
  9000001    1    1    2    0    0  0.79200936089E-02  0.17502660813E-01 -0.30134076501E-01  0.35750994182E-01  0.10000000475E-02 0.  1.
</event>
<event>
 4   0  0.2441219E-02  0.9118800E+02  0.7818609E-02  0.1379984E+01
      -11   -1    0    0    0    0  0.00000000000E+00  0.00000000000E+00  0.35740347158E-01  0.35744000000E-01  0.51099999109E-03 0.  1.
       11   -1    0    0    0    0 -0.00000000000E+00 -0.00000000000E+00 -0.35740347158E-01  0.35744000000E-01  0.51099999109E-03 0. -1.
       22    1    1    2    0    0  0.56752414846E-02 -0.54758200027E-02  0.34855998254E-01  0.35737005818E-01  0.00000000000E+00 0.  1.
  9000001    1    1    2    0    0 -0.56752414846E-02  0.54758200027E-02 -0.34855998254E-01  0.35750994182E-01  0.10000000475E-02 0. -1.
</event>
<event>
 4   0  0.2441219E-02  0.9118800E+02  0.7818609E-02  0.1379984E+01
      -11   -1    0    0    0    0  0.00000000000E+00  0.00000000000E+00  0.35740347158E-01  0.35744000000E-01  0.51099999109E-03 0.  1.
       11   -1    0    0    0    0 -0.00000000000E+00 -0.00000000000E+00 -0.35740347158E-01  0.35744000000E-01  0.51099999109E-03 0. -1.
       22    1    1    2    0    0 -0.34330144716E-02 -0.39592031590E-02  0.35350710132E-01  0.35737005818E-01  0.00000000000E+00 0.  1.
  9000001    1    1    2    0    0  0.34330144716E-02  0.39592031590E-02 -0.35350710132E-01  0.35750994182E-01  0.10000000475E-02 0. -1.
</event>
<event>
 4   0  0.2441219E-02  0.9118800E+02  0.7818609E-02  0.1379984E+01
      -11   -1    0    0    0    0  0.00000000000E+00  0.00000000000E+00  0.35740347158E-01  0.35744000000E-01  0.51099999109E-03 0.  1.
       11   -1    0    0    0    0 -0.00000000000E+00 -0.00000000000E+00 -0.35740347158E-01  0.35744000000E-01  0.51099999109E-03 0. -1.
       22    1    1    2    0    0  0.75278392654E-03  0.32499264969E-02  0.35580962311E-01  0.35737005818E-01  0.00000000000E+00 0.  1.
  9000001    1    1    2    0    0 -0.75278392654E-03 -0.32499264969E-02 -0.35580962311E-01  0.35750994182E-01  0.10000000475E-02 0. -1.
</event>
<event>
 4   0  0.2441219E-02  0.9118800E+02  0.7818609E-02  0.1379984E+01
      -11   -1    0    0    0    0  0.00000000000E+00  0.00000000000E+00  0.35740347158E-01  0.35744000000E-01  0.51099999109E-03 0. -1.
       11   -1    0    0    0    0 -0.00000000000E+00 -0.00000000000E+00 -0.35740347158E-01  0.35744000000E-01  0.51099999109E-03 0.  1.
       22    1    1    2    0    0  0.14475572531E-02 -0.27988236235E-02  0.35597819444E-01  0.35737005818E-01  0.00000000000E+00 0. -1.
  9000001    1    1    2    0    0 -0.14475572531E-02  0.27988236235E-02 -0.35597819444E-01  0.35750994182E-01  0.10000000475E-02 0.  1.
</event>
<event>
 4   0  0.2441219E-02  0.9118800E+02  0.7818609E-02  0.1379984E+01
      -11   -1    0    0    0    0  0.00000000000E+00  0.00000000000E+00  0.35740347158E-01  0.35744000000E-01  0.51099999109E-03 0.  1.
       11   -1    0    0    0    0 -0.00000000000E+00 -0.00000000000E+00 -0.35740347158E-01  0.35744000000E-01  0.51099999109E-03 0. -1.
       22    1    1    2    0    0  0.12154402529E-01  0.23885919748E-02  0.33521615600E-01  0.35737005818E-01  0.00000000000E+00 0.  1.
  9000001    1    1    2    0    0 -0.12154402529E-01 -0.23885919748E-02 -0.33521615600E-01  0.35750994182E-01  0.10000000475E-02 0. -1.
</event>
<event>
 4   0  0.2441219E-02  0.9118800E+02  0.7818609E-02  0.1379984E+01
      -11   -1    0    0    0    0  0.00000000000E+00  0.00000000000E+00  0.35740347158E-01  0.35744000000E-01  0.51099999109E-03 0. -1.
       11   -1    0    0    0    0 -0.00000000000E+00 -0.00000000000E+00 -0.35740347158E-01  0.35744000000E-01  0.51099999109E-03 0.  1.
       22    1    1    2    0    0 -0.24944534141E-01  0.19553472434E-01  0.16509558358E-01  0.35737005818E-01  0.00000000000E+00 0. -1.
  9000001    1    1    2    0    0  0.24944534141E-01 -0.19553472434E-01 -0.16509558358E-01  0.35750994182E-01  0.10000000475E-02 0.  1.
</event>
<event>
 4   0  0.2441219E-02  0.9118800E+02  0.7818609E-02  0.1379984E+01
      -11   -1    0    0    0    0  0.00000000000E+00  0.00000000000E+00  0.35740347158E-01  0.35744000000E-01  0.51099999109E-03 0.  1.
       11   -1    0    0    0    0 -0.00000000000E+00 -0.00000000000E+00 -0.35740347158E-01  0.35744000000E-01  0.51099999109E-03 0. -1.
       22    1    1    2    0    0 -0.23514360342E-01  0.41326129454E-02  0.26591915178E-01  0.35737005818E-01  0.00000000000E+00 0.  1.
  9000001    1    1    2    0    0  0.23514360342E-01 -0.41326129454E-02 -0.26591915178E-01  0.35750994182E-01  0.10000000475E-02 0. -1.
</event>
<event>
 4   0  0.2441219E-02  0.9118800E+02  0.7818609E-02  0.1379984E+01
      -11   -1    0    0    0    0  0.00000000000E+00  0.00000000000E+00  0.35740347158E-01  0.35744000000E-01  0.51099999109E-03 0.  1.
       11   -1    0    0    0    0 -0.00000000000E+00 -0.00000000000E+00 -0.35740347158E-01  0.35744000000E-01  0.51099999109E-03 0. -1.
       22    1    1    2    0    0 -0.16633504876E-02 -0.11019471550E-01  0.33954942156E-01  0.35737005818E-01  0.00000000000E+00 0.  1.
  9000001    1    1    2    0    0  0.16633504876E-02  0.11019471550E-01 -0.33954942156E-01  0.35750994182E-01  0.10000000475E-02 0. -1.
</event>
<event>
 4   0  0.2441219E-02  0.9118800E+02  0.7818609E-02  0.1379984E+01
      -11   -1    0    0    0    0  0.00000000000E+00  0.00000000000E+00  0.35740347158E-01  0.35744000000E-01  0.51099999109E-03 0.  1.
       11   -1    0    0    0    0 -0.00000000000E+00 -0.00000000000E+00 -0.35740347158E-01  0.35744000000E-01  0.51099999109E-03 0. -1.
       22    1    1    2    0    0  0.17610717145E-02 -0.35506210989E-01 -0.36525597149E-02  0.35737005818E-01  0.00000000000E+00 0. -1.
  9000001    1    1    2    0    0 -0.17610717145E-02  0.35506210989E-01  0.36525597149E-02  0.35750994182E-01  0.10000000475E-02 0.  1.
</event>
<event>
 4   0  0.2441219E-02  0.9118800E+02  0.7818609E-02  0.1379984E+01
      -11   -1    0    0    0    0  0.00000000000E+00  0.00000000000E+00  0.35740347158E-01  0.35744000000E-01  0.51099999109E-03 0. -1.
       11   -1    0    0    0    0 -0.00000000000E+00 -0.00000000000E+00 -0.35740347158E-01  0.35744000000E-01  0.51099999109E-03 0.  1.
       22    1    1    2    0    0  0.39752211009E-02  0.83441805986E-03 -0.35505421397E-01  0.35737005818E-01  0.00000000000E+00 0.  1.
  9000001    1    1    2    0    0 -0.39752211009E-02 -0.83441805986E-03  0.35505421397E-01  0.35750994182E-01  0.10000000475E-02 0. -1.
</event>
<event>
 4   0  0.2441219E-02  0.9118800E+02  0.7818609E-02  0.1379984E+01
      -11   -1    0    0    0    0  0.00000000000E+00  0.00000000000E+00  0.35740347158E-01  0.35744000000E-01  0.51099999109E-03 0. -1.
       11   -1    0    0    0    0 -0.00000000000E+00 -0.00000000000E+00 -0.35740347158E-01  0.35744000000E-01  0.51099999109E-03 0.  1.
       22    1    1    2    0    0  0.26697496681E-01 -0.58833809043E-02 -0.23016582826E-01  0.35737005818E-01  0.00000000000E+00 0.  1.
  9000001    1    1    2    0    0 -0.26697496681E-01  0.58833809043E-02  0.23016582826E-01  0.35750994182E-01  0.10000000475E-02 0. -1.
</event>
<event>
 4   0  0.2441219E-02  0.9118800E+02  0.7818609E-02  0.1379984E+01
      -11   -1    0    0    0    0  0.00000000000E+00  0.00000000000E+00  0.35740347158E-01  0.35744000000E-01  0.51099999109E-03 0. -1.
       11   -1    0    0    0    0 -0.00000000000E+00 -0.00000000000E+00 -0.35740347158E-01  0.35744000000E-01  0.51099999109E-03 0.  1.
       22    1    1    2    0    0  0.24434789267E-01 -0.10480565445E-01 -0.23879539491E-01  0.35737005818E-01  0.00000000000E+00 0.  1.
  9000001    1    1    2    0    0 -0.24434789267E-01  0.10480565445E-01  0.23879539491E-01  0.35750994182E-01  0.10000000475E-02 0. -1.
</event>
<event>
 4   0  0.2441219E-02  0.9118800E+02  0.7818609E-02  0.1379984E+01
      -11   -1    0    0    0    0  0.00000000000E+00  0.00000000000E+00  0.35740347158E-01  0.35744000000E-01  0.51099999109E-03 0. -1.
       11   -1    0    0    0    0 -0.00000000000E+00 -0.00000000000E+00 -0.35740347158E-01  0.35744000000E-01  0.51099999109E-03 0.  1.
       22    1    1    2    0    0  0.69931368511E-02  0.10829807630E-02 -0.35029370170E-01  0.35737005818E-01  0.00000000000E+00 0.  1.
  9000001    1    1    2    0    0 -0.69931368511E-02 -0.10829807630E-02  0.35029370170E-01  0.35750994182E-01  0.10000000475E-02 0. -1.
</event>
<event>
 4   0  0.2441219E-02  0.9118800E+02  0.7818609E-02  0.1379984E+01
      -11   -1    0    0    0    0  0.00000000000E+00  0.00000000000E+00  0.35740347158E-01  0.35744000000E-01  0.51099999109E-03 0.  1.
       11   -1    0    0    0    0 -0.00000000000E+00 -0.00000000000E+00 -0.35740347158E-01  0.35744000000E-01  0.51099999109E-03 0. -1.
       22    1    1    2    0    0 -0.13241878788E-01 -0.89602423527E-02  0.31960918135E-01  0.35737005818E-01  0.00000000000E+00 0.  1.
  9000001    1    1    2    0    0  0.13241878788E-01  0.89602423527E-02 -0.31960918135E-01  0.35750994182E-01  0.10000000475E-02 0. -1.
</event>
<event>
 4   0  0.2441219E-02  0.9118800E+02  0.7818609E-02  0.1379984E+01
      -11   -1    0    0    0    0  0.00000000000E+00  0.00000000000E+00  0.35740347158E-01  0.35744000000E-01  0.51099999109E-03 0.  1.
       11   -1    0    0    0    0 -0.00000000000E+00 -0.00000000000E+00 -0.35740347158E-01  0.35744000000E-01  0.51099999109E-03 0. -1.
       22    1    1    2    0    0  0.84621484596E-02 -0.17615483264E-02  0.34675965391E-01  0.35737005818E-01  0.00000000000E+00 0.  1.
  9000001    1    1    2    0    0 -0.84621484596E-02  0.17615483264E-02 -0.34675965391E-01  0.35750994182E-01  0.10000000475E-02 0. -1.
</event>
<event>
 4   0  0.2441219E-02  0.9118800E+02  0.7818609E-02  0.1379984E+01
      -11   -1    0    0    0    0  0.00000000000E+00  0.00000000000E+00  0.35740347158E-01  0.35744000000E-01  0.51099999109E-03 0. -1.
       11   -1    0    0    0    0 -0.00000000000E+00 -0.00000000000E+00 -0.35740347158E-01  0.35744000000E-01  0.51099999109E-03 0.  1.
       22    1    1    2    0    0 -0.36279071178E-02 -0.38827357020E-03 -0.35550261862E-01  0.35737005818E-01  0.00000000000E+00 0.  1.
  9000001    1    1    2    0    0  0.36279071178E-02  0.38827357020E-03  0.35550261862E-01  0.35750994182E-01  0.10000000475E-02 0. -1.
</event>
<event>
 4   0  0.2441219E-02  0.9118800E+02  0.7818609E-02  0.1379984E+01
      -11   -1    0    0    0    0  0.00000000000E+00  0.00000000000E+00  0.35740347158E-01  0.35744000000E-01  0.51099999109E-03 0.  1.
       11   -1    0    0    0    0 -0.00000000000E+00 -0.00000000000E+00 -0.35740347158E-01  0.35744000000E-01  0.51099999109E-03 0. -1.
       22    1    1    2    0    0 -0.44179928375E-02  0.52973078280E-02  0.35064989005E-01  0.35737005818E-01  0.00000000000E+00 0.  1.
  9000001    1    1    2    0    0  0.44179928375E-02 -0.52973078280E-02 -0.35064989005E-01  0.35750994182E-01  0.10000000475E-02 0. -1.
</event>
<event>
 4   0  0.2441219E-02  0.9118800E+02  0.7818609E-02  0.1379984E+01
      -11   -1    0    0    0    0  0.00000000000E+00  0.00000000000E+00  0.35740347158E-01  0.35744000000E-01  0.51099999109E-03 0. -1.
       11   -1    0    0    0    0 -0.00000000000E+00 -0.00000000000E+00 -0.35740347158E-01  0.35744000000E-01  0.51099999109E-03 0.  1.
       22    1    1    2    0    0 -0.28881130019E-01  0.18954894863E-01 -0.91501843945E-02  0.35737005818E-01  0.00000000000E+00 0.  1.
  9000001    1    1    2    0    0  0.28881130019E-01 -0.18954894863E-01  0.91501843945E-02  0.35750994182E-01  0.10000000475E-02 0. -1.
</event>
<event>
 4   0  0.2441219E-02  0.9118800E+02  0.7818609E-02  0.1379984E+01
      -11   -1    0    0    0    0  0.00000000000E+00  0.00000000000E+00  0.35740347158E-01  0.35744000000E-01  0.51099999109E-03 0. -1.
       11   -1    0    0    0    0 -0.00000000000E+00 -0.00000000000E+00 -0.35740347158E-01  0.35744000000E-01  0.51099999109E-03 0.  1.
       22    1    1    2    0    0 -0.78688353720E-02 -0.39672886556E-03  0.34857676643E-01  0.35737005818E-01  0.00000000000E+00 0. -1.
  9000001    1    1    2    0    0  0.78688353720E-02  0.39672886556E-03 -0.34857676643E-01  0.35750994182E-01  0.10000000475E-02 0.  1.
</event>
<event>
 4   0  0.2441219E-02  0.9118800E+02  0.7818609E-02  0.1379984E+01
      -11   -1    0    0    0    0  0.00000000000E+00  0.00000000000E+00  0.35740347158E-01  0.35744000000E-01  0.51099999109E-03 0. -1.
       11   -1    0    0    0    0 -0.00000000000E+00 -0.00000000000E+00 -0.35740347158E-01  0.35744000000E-01  0.51099999109E-03 0.  1.
       22    1    1    2    0    0 -0.20857562010E-01 -0.25492304261E-01  0.13864996046E-01  0.35737005818E-01  0.00000000000E+00 0. -1.
  9000001    1    1    2    0    0  0.20857562010E-01  0.25492304261E-01 -0.13864996046E-01  0.35750994182E-01  0.10000000475E-02 0.  1.
</event>
<event>
 4   0  0.2441219E-02  0.9118800E+02  0.7818609E-02  0.1379984E+01
      -11   -1    0    0    0    0  0.00000000000E+00  0.00000000000E+00  0.35740347158E-01  0.35744000000E-01  0.51099999109E-03 0. -1.
       11   -1    0    0    0    0 -0.00000000000E+00 -0.00000000000E+00 -0.35740347158E-01  0.35744000000E-01  0.51099999109E-03 0.  1.
       22    1    1    2    0    0 -0.19455631932E-02  0.32152223403E-02 -0.35538862025E-01  0.35737005818E-01  0.00000000000E+00 0.  1.
  9000001    1    1    2    0    0  0.19455631932E-02 -0.32152223403E-02  0.35538862025E-01  0.35750994182E-01  0.10000000475E-02 0. -1.
</event>
<event>
 4   0  0.2441219E-02  0.9118800E+02  0.7818609E-02  0.1379984E+01
      -11   -1    0    0    0    0  0.00000000000E+00  0.00000000000E+00  0.35740347158E-01  0.35744000000E-01  0.51099999109E-03 0. -1.
       11   -1    0    0    0    0 -0.00000000000E+00 -0.00000000000E+00 -0.35740347158E-01  0.35744000000E-01  0.51099999109E-03 0.  1.
       22    1    1    2    0    0  0.29352421042E-02  0.15909706518E-02 -0.35580707568E-01  0.35737005818E-01  0.00000000000E+00 0.  1.
  9000001    1    1    2    0    0 -0.29352421042E-02 -0.15909706518E-02  0.35580707568E-01  0.35750994182E-01  0.10000000475E-02 0. -1.
</event>
<event>
 4   0  0.2441219E-02  0.9118800E+02  0.7818609E-02  0.1379984E+01
      -11   -1    0    0    0    0  0.00000000000E+00  0.00000000000E+00  0.35740347158E-01  0.35744000000E-01  0.51099999109E-03 0.  1.
       11   -1    0    0    0    0 -0.00000000000E+00 -0.00000000000E+00 -0.35740347158E-01  0.35744000000E-01  0.51099999109E-03 0. -1.
       22    1    1    2    0    0  0.12423625269E-01  0.10168667162E-01  0.31927814335E-01  0.35737005818E-01  0.00000000000E+00 0.  1.
  9000001    1    1    2    0    0 -0.12423625269E-01 -0.10168667162E-01 -0.31927814335E-01  0.35750994182E-01  0.10000000475E-02 0. -1.
</event>
<event>
 4   0  0.2441219E-02  0.9118800E+02  0.7818609E-02  0.1379984E+01
      -11   -1    0    0    0    0  0.00000000000E+00  0.00000000000E+00  0.35740347158E-01  0.35744000000E-01  0.51099999109E-03 0.  1.
       11   -1    0    0    0    0 -0.00000000000E+00 -0.00000000000E+00 -0.35740347158E-01  0.35744000000E-01  0.51099999109E-03 0. -1.
       22    1    1    2    0    0  0.11914945735E-01 -0.67447858586E-02  0.33010233515E-01  0.35737005818E-01  0.00000000000E+00 0.  1.
  9000001    1    1    2    0    0 -0.11914945735E-01  0.67447858586E-02 -0.33010233515E-01  0.35750994182E-01  0.10000000475E-02 0. -1.
</event>
<event>
 4   0  0.2441219E-02  0.9118800E+02  0.7818609E-02  0.1379984E+01
      -11   -1    0    0    0    0  0.00000000000E+00  0.00000000000E+00  0.35740347158E-01  0.35744000000E-01  0.51099999109E-03 0.  1.
       11   -1    0    0    0    0 -0.00000000000E+00 -0.00000000000E+00 -0.35740347158E-01  0.35744000000E-01  0.51099999109E-03 0. -1.
       22    1    1    2    0    0  0.27567029334E-03 -0.16414800059E-01 -0.31742903613E-01  0.35737005818E-01  0.00000000000E+00 0. -1.
  9000001    1    1    2    0    0 -0.27567029334E-03  0.16414800059E-01  0.31742903613E-01  0.35750994182E-01  0.10000000475E-02 0.  1.
</event>
<event>
 4   0  0.2441219E-02  0.9118800E+02  0.7818609E-02  0.1379984E+01
      -11   -1    0    0    0    0  0.00000000000E+00  0.00000000000E+00  0.35740347158E-01  0.35744000000E-01  0.51099999109E-03 0.  1.
       11   -1    0    0    0    0 -0.00000000000E+00 -0.00000000000E+00 -0.35740347158E-01  0.35744000000E-01  0.51099999109E-03 0. -1.
       22    1    1    2    0    0 -0.14257584518E-01 -0.10431128141E-01 -0.31065196511E-01  0.35737005818E-01  0.00000000000E+00 0. -1.
  9000001    1    1    2    0    0  0.14257584518E-01  0.10431128141E-01  0.31065196511E-01  0.35750994182E-01  0.10000000475E-02 0.  1.
</event>
<event>
 4   0  0.2441219E-02  0.9118800E+02  0.7818609E-02  0.1379984E+01
      -11   -1    0    0    0    0  0.00000000000E+00  0.00000000000E+00  0.35740347158E-01  0.35744000000E-01  0.51099999109E-03 0. -1.
       11   -1    0    0    0    0 -0.00000000000E+00 -0.00000000000E+00 -0.35740347158E-01  0.35744000000E-01  0.51099999109E-03 0.  1.
       22    1    1    2    0    0  0.18243221267E-01  0.29708122652E-02 -0.30585825756E-01  0.35737005818E-01  0.00000000000E+00 0.  1.
  9000001    1    1    2    0    0 -0.18243221267E-01 -0.29708122652E-02  0.30585825756E-01  0.35750994182E-01  0.10000000475E-02 0. -1.
</event>
<event>
 4   0  0.2441219E-02  0.9118800E+02  0.7818609E-02  0.1379984E+01
      -11   -1    0    0    0    0  0.00000000000E+00  0.00000000000E+00  0.35740347158E-01  0.35744000000E-01  0.51099999109E-03 0. -1.
       11   -1    0    0    0    0 -0.00000000000E+00 -0.00000000000E+00 -0.35740347158E-01  0.35744000000E-01  0.51099999109E-03 0.  1.
       22    1    1    2    0    0  0.73574650246E-02  0.66558694636E-02  0.34332210750E-01  0.35737005818E-01  0.00000000000E+00 0. -1.
  9000001    1    1    2    0    0 -0.73574650246E-02 -0.66558694636E-02 -0.34332210750E-01  0.35750994182E-01  0.10000000475E-02 0.  1.
</event>
<event>
 4   0  0.2441219E-02  0.9118800E+02  0.7818609E-02  0.1379984E+01
      -11   -1    0    0    0    0  0.00000000000E+00  0.00000000000E+00  0.35740347158E-01  0.35744000000E-01  0.51099999109E-03 0.  1.
       11   -1    0    0    0    0 -0.00000000000E+00 -0.00000000000E+00 -0.35740347158E-01  0.35744000000E-01  0.51099999109E-03 0. -1.
       22    1    1    2    0    0 -0.51267016348E-02 -0.19891420306E-01 -0.29243493523E-01  0.35737005818E-01  0.00000000000E+00 0. -1.
  9000001    1    1    2    0    0  0.51267016348E-02  0.19891420306E-01  0.29243493523E-01  0.35750994182E-01  0.10000000475E-02 0.  1.
</event>
<event>
 4   0  0.2441219E-02  0.9118800E+02  0.7818609E-02  0.1379984E+01
      -11   -1    0    0    0    0  0.00000000000E+00  0.00000000000E+00  0.35740347158E-01  0.35744000000E-01  0.51099999109E-03 0. -1.
       11   -1    0    0    0    0 -0.00000000000E+00 -0.00000000000E+00 -0.35740347158E-01  0.35744000000E-01  0.51099999109E-03 0.  1.
       22    1    1    2    0    0  0.17783833346E-02  0.70203373721E-02  0.34995511152E-01  0.35737005818E-01  0.00000000000E+00 0. -1.
  9000001    1    1    2    0    0 -0.17783833346E-02 -0.70203373721E-02 -0.34995511152E-01  0.35750994182E-01  0.10000000475E-02 0.  1.
</event>
<event>
 4   0  0.2441219E-02  0.9118800E+02  0.7818609E-02  0.1379984E+01
      -11   -1    0    0    0    0  0.00000000000E+00  0.00000000000E+00  0.35740347158E-01  0.35744000000E-01  0.51099999109E-03 0.  1.
       11   -1    0    0    0    0 -0.00000000000E+00 -0.00000000000E+00 -0.35740347158E-01  0.35744000000E-01  0.51099999109E-03 0. -1.
       22    1    1    2    0    0 -0.66560673784E-02 -0.21718649729E-01 -0.27588595576E-01  0.35737005818E-01  0.00000000000E+00 0. -1.
  9000001    1    1    2    0    0  0.66560673784E-02  0.21718649729E-01  0.27588595576E-01  0.35750994182E-01  0.10000000475E-02 0.  1.
</event>
<event>
 4   0  0.2441219E-02  0.9118800E+02  0.7818609E-02  0.1379984E+01
      -11   -1    0    0    0    0  0.00000000000E+00  0.00000000000E+00  0.35740347158E-01  0.35744000000E-01  0.51099999109E-03 0. -1.
       11   -1    0    0    0    0 -0.00000000000E+00 -0.00000000000E+00 -0.35740347158E-01  0.35744000000E-01  0.51099999109E-03 0.  1.
       22    1    1    2    0    0  0.47512679964E-03 -0.59127577436E-02 -0.35241270341E-01  0.35737005818E-01  0.00000000000E+00 0.  1.
  9000001    1    1    2    0    0 -0.47512679964E-03  0.59127577436E-02  0.35241270341E-01  0.35750994182E-01  0.10000000475E-02 0. -1.
</event>
<event>
 4   0  0.2441219E-02  0.9118800E+02  0.7818609E-02  0.1379984E+01
      -11   -1    0    0    0    0  0.00000000000E+00  0.00000000000E+00  0.35740347158E-01  0.35744000000E-01  0.51099999109E-03 0. -1.
       11   -1    0    0    0    0 -0.00000000000E+00 -0.00000000000E+00 -0.35740347158E-01  0.35744000000E-01  0.51099999109E-03 0.  1.
       22    1    1    2    0    0 -0.26189368371E-01  0.17635674563E-02  0.24251606112E-01  0.35737005818E-01  0.00000000000E+00 0. -1.
  9000001    1    1    2    0    0  0.26189368371E-01 -0.17635674563E-02 -0.24251606112E-01  0.35750994182E-01  0.10000000475E-02 0.  1.
</event>
<event>
 4   0  0.2441219E-02  0.9118800E+02  0.7818609E-02  0.1379984E+01
      -11   -1    0    0    0    0  0.00000000000E+00  0.00000000000E+00  0.35740347158E-01  0.35744000000E-01  0.51099999109E-03 0. -1.
       11   -1    0    0    0    0 -0.00000000000E+00 -0.00000000000E+00 -0.35740347158E-01  0.35744000000E-01  0.51099999109E-03 0.  1.
       22    1    1    2    0    0  0.25336207922E-01  0.19959985602E-01  0.15388603828E-01  0.35737005818E-01  0.00000000000E+00 0. -1.
  9000001    1    1    2    0    0 -0.25336207922E-01 -0.19959985602E-01 -0.15388603828E-01  0.35750994182E-01  0.10000000475E-02 0.  1.
</event>
<event>
 4   0  0.2441219E-02  0.9118800E+02  0.7818609E-02  0.1379984E+01
      -11   -1    0    0    0    0  0.00000000000E+00  0.00000000000E+00  0.35740347158E-01  0.35744000000E-01  0.51099999109E-03 0. -1.
       11   -1    0    0    0    0 -0.00000000000E+00 -0.00000000000E+00 -0.35740347158E-01  0.35744000000E-01  0.51099999109E-03 0.  1.
       22    1    1    2    0    0  0.71312964242E-02  0.31045227086E-01  0.16200989826E-01  0.35737005818E-01  0.00000000000E+00 0. -1.
  9000001    1    1    2    0    0 -0.71312964242E-02 -0.31045227086E-01 -0.16200989826E-01  0.35750994182E-01  0.10000000475E-02 0.  1.
</event>
<event>
 4   0  0.2441219E-02  0.9118800E+02  0.7818609E-02  0.1379984E+01
      -11   -1    0    0    0    0  0.00000000000E+00  0.00000000000E+00  0.35740347158E-01  0.35744000000E-01  0.51099999109E-03 0. -1.
       11   -1    0    0    0    0 -0.00000000000E+00 -0.00000000000E+00 -0.35740347158E-01  0.35744000000E-01  0.51099999109E-03 0.  1.
       22    1    1    2    0    0  0.88126006267E-02 -0.37334881454E-02  0.34431565769E-01  0.35737005818E-01  0.00000000000E+00 0. -1.
  9000001    1    1    2    0    0 -0.88126006267E-02  0.37334881454E-02 -0.34431565769E-01  0.35750994182E-01  0.10000000475E-02 0.  1.
</event>
<event>
 4   0  0.2441219E-02  0.9118800E+02  0.7818609E-02  0.1379984E+01
      -11   -1    0    0    0    0  0.00000000000E+00  0.00000000000E+00  0.35740347158E-01  0.35744000000E-01  0.51099999109E-03 0. -1.
       11   -1    0    0    0    0 -0.00000000000E+00 -0.00000000000E+00 -0.35740347158E-01  0.35744000000E-01  0.51099999109E-03 0.  1.
       22    1    1    2    0    0 -0.32629443621E-02  0.22144610289E-02 -0.35518768860E-01  0.35737005818E-01  0.00000000000E+00 0.  1.
  9000001    1    1    2    0    0  0.32629443621E-02 -0.22144610289E-02  0.35518768860E-01  0.35750994182E-01  0.10000000475E-02 0. -1.
</event>
<event>
 4   0  0.2441219E-02  0.9118800E+02  0.7818609E-02  0.1379984E+01
      -11   -1    0    0    0    0  0.00000000000E+00  0.00000000000E+00  0.35740347158E-01  0.35744000000E-01  0.51099999109E-03 0.  1.
       11   -1    0    0    0    0 -0.00000000000E+00 -0.00000000000E+00 -0.35740347158E-01  0.35744000000E-01  0.51099999109E-03 0. -1.
       22    1    1    2    0    0  0.27723855036E-01  0.14183133265E-02  0.22505773351E-01  0.35737005818E-01  0.00000000000E+00 0.  1.
  9000001    1    1    2    0    0 -0.27723855036E-01 -0.14183133265E-02 -0.22505773351E-01  0.35750994182E-01  0.10000000475E-02 0. -1.
</event>
<event>
 4   0  0.2441219E-02  0.9118800E+02  0.7818609E-02  0.1379984E+01
      -11   -1    0    0    0    0  0.00000000000E+00  0.00000000000E+00  0.35740347158E-01  0.35744000000E-01  0.51099999109E-03 0.  1.
       11   -1    0    0    0    0 -0.00000000000E+00 -0.00000000000E+00 -0.35740347158E-01  0.35744000000E-01  0.51099999109E-03 0. -1.
       22    1    1    2    0    0  0.84879304735E-02 -0.64283722210E-04  0.34714326851E-01  0.35737005818E-01  0.00000000000E+00 0.  1.
  9000001    1    1    2    0    0 -0.84879304735E-02  0.64283722210E-04 -0.34714326851E-01  0.35750994182E-01  0.10000000475E-02 0. -1.
</event>
<event>
 4   0  0.2441219E-02  0.9118800E+02  0.7818609E-02  0.1379984E+01
      -11   -1    0    0    0    0  0.00000000000E+00  0.00000000000E+00  0.35740347158E-01  0.35744000000E-01  0.51099999109E-03 0. -1.
       11   -1    0    0    0    0 -0.00000000000E+00 -0.00000000000E+00 -0.35740347158E-01  0.35744000000E-01  0.51099999109E-03 0.  1.
       22    1    1    2    0    0 -0.32733904874E-01  0.14170023298E-01  0.21989762015E-02  0.35737005818E-01  0.00000000000E+00 0. -1.
  9000001    1    1    2    0    0  0.32733904874E-01 -0.14170023298E-01 -0.21989762015E-02  0.35750994182E-01  0.10000000475E-02 0.  1.
</event>
<event>
 4   0  0.2441219E-02  0.9118800E+02  0.7818609E-02  0.1379984E+01
      -11   -1    0    0    0    0  0.00000000000E+00  0.00000000000E+00  0.35740347158E-01  0.35744000000E-01  0.51099999109E-03 0.  1.
       11   -1    0    0    0    0 -0.00000000000E+00 -0.00000000000E+00 -0.35740347158E-01  0.35744000000E-01  0.51099999109E-03 0. -1.
       22    1    1    2    0    0 -0.46738122803E-02 -0.16955702160E-02  0.35389463196E-01  0.35737005818E-01  0.00000000000E+00 0.  1.
  9000001    1    1    2    0    0  0.46738122803E-02  0.16955702160E-02 -0.35389463196E-01  0.35750994182E-01  0.10000000475E-02 0. -1.
</event>
<event>
 4   0  0.2441219E-02  0.9118800E+02  0.7818609E-02  0.1379984E+01
      -11   -1    0    0    0    0  0.00000000000E+00  0.00000000000E+00  0.35740347158E-01  0.35744000000E-01  0.51099999109E-03 0. -1.
       11   -1    0    0    0    0 -0.00000000000E+00 -0.00000000000E+00 -0.35740347158E-01  0.35744000000E-01  0.51099999109E-03 0.  1.
       22    1    1    2    0    0 -0.29733196257E-01  0.30236000711E-02  0.19594092677E-01  0.35737005818E-01  0.00000000000E+00 0. -1.
  9000001    1    1    2    0    0  0.29733196257E-01 -0.30236000711E-02 -0.19594092677E-01  0.35750994182E-01  0.10000000475E-02 0.  1.
</event>
<event>
 4   0  0.2441219E-02  0.9118800E+02  0.7818609E-02  0.1379984E+01
      -11   -1    0    0    0    0  0.00000000000E+00  0.00000000000E+00  0.35740347158E-01  0.35744000000E-01  0.51099999109E-03 0. -1.
       11   -1    0    0    0    0 -0.00000000000E+00 -0.00000000000E+00 -0.35740347158E-01  0.35744000000E-01  0.51099999109E-03 0.  1.
       22    1    1    2    0    0 -0.29648025917E-02  0.16601466902E-02 -0.35575095832E-01  0.35737005818E-01  0.00000000000E+00 0.  1.
  9000001    1    1    2    0    0  0.29648025917E-02 -0.16601466902E-02  0.35575095832E-01  0.35750994182E-01  0.10000000475E-02 0. -1.
</event>
<event>
 4   0  0.2441219E-02  0.9118800E+02  0.7818609E-02  0.1379984E+01
      -11   -1    0    0    0    0  0.00000000000E+00  0.00000000000E+00  0.35740347158E-01  0.35744000000E-01  0.51099999109E-03 0.  1.
       11   -1    0    0    0    0 -0.00000000000E+00 -0.00000000000E+00 -0.35740347158E-01  0.35744000000E-01  0.51099999109E-03 0. -1.
       22    1    1    2    0    0 -0.43790439192E-02 -0.19603826382E-02 -0.35413478495E-01  0.35737005818E-01  0.00000000000E+00 0. -1.
  9000001    1    1    2    0    0  0.43790439192E-02  0.19603826382E-02  0.35413478495E-01  0.35750994182E-01  0.10000000475E-02 0.  1.
</event>
<event>
 4   0  0.2441219E-02  0.9118800E+02  0.7818609E-02  0.1379984E+01
      -11   -1    0    0    0    0  0.00000000000E+00  0.00000000000E+00  0.35740347158E-01  0.35744000000E-01  0.51099999109E-03 0.  1.
       11   -1    0    0    0    0 -0.00000000000E+00 -0.00000000000E+00 -0.35740347158E-01  0.35744000000E-01  0.51099999109E-03 0. -1.
       22    1    1    2    0    0 -0.27027557390E-02 -0.34989919971E-02 -0.35462455517E-01  0.35737005818E-01  0.00000000000E+00 0. -1.
  9000001    1    1    2    0    0  0.27027557390E-02  0.34989919971E-02  0.35462455517E-01  0.35750994182E-01  0.10000000475E-02 0.  1.
</event>
<event>
 4   0  0.2441219E-02  0.9118800E+02  0.7818609E-02  0.1379984E+01
      -11   -1    0    0    0    0  0.00000000000E+00  0.00000000000E+00  0.35740347158E-01  0.35744000000E-01  0.51099999109E-03 0.  1.
       11   -1    0    0    0    0 -0.00000000000E+00 -0.00000000000E+00 -0.35740347158E-01  0.35744000000E-01  0.51099999109E-03 0. -1.
       22    1    1    2    0    0  0.51385066591E-02  0.94721559685E-02  0.34073561532E-01  0.35737005818E-01  0.00000000000E+00 0.  1.
  9000001    1    1    2    0    0 -0.51385066591E-02 -0.94721559685E-02 -0.34073561532E-01  0.35750994182E-01  0.10000000475E-02 0. -1.
</event>
<event>
 4   0  0.2441219E-02  0.9118800E+02  0.7818609E-02  0.1379984E+01
      -11   -1    0    0    0    0  0.00000000000E+00  0.00000000000E+00  0.35740347158E-01  0.35744000000E-01  0.51099999109E-03 0. -1.
       11   -1    0    0    0    0 -0.00000000000E+00 -0.00000000000E+00 -0.35740347158E-01  0.35744000000E-01  0.51099999109E-03 0.  1.
       22    1    1    2    0    0 -0.25313789115E-02  0.32286278342E-01 -0.15110325493E-01  0.35737005818E-01  0.00000000000E+00 0.  1.
  9000001    1    1    2    0    0  0.25313789115E-02 -0.32286278342E-01  0.15110325493E-01  0.35750994182E-01  0.10000000475E-02 0. -1.
</event>
<event>
 4   0  0.2441219E-02  0.9118800E+02  0.7818609E-02  0.1379984E+01
      -11   -1    0    0    0    0  0.00000000000E+00  0.00000000000E+00  0.35740347158E-01  0.35744000000E-01  0.51099999109E-03 0. -1.
       11   -1    0    0    0    0 -0.00000000000E+00 -0.00000000000E+00 -0.35740347158E-01  0.35744000000E-01  0.51099999109E-03 0.  1.
       22    1    1    2    0    0 -0.40887381888E-02 -0.15335635875E-01  0.32019276650E-01  0.35737005818E-01  0.00000000000E+00 0. -1.
  9000001    1    1    2    0    0  0.40887381888E-02  0.15335635875E-01 -0.32019276650E-01  0.35750994182E-01  0.10000000475E-02 0.  1.
</event>
<event>
 4   0  0.2441219E-02  0.9118800E+02  0.7818609E-02  0.1379984E+01
      -11   -1    0    0    0    0  0.00000000000E+00  0.00000000000E+00  0.35740347158E-01  0.35744000000E-01  0.51099999109E-03 0. -1.
       11   -1    0    0    0    0 -0.00000000000E+00 -0.00000000000E+00 -0.35740347158E-01  0.35744000000E-01  0.51099999109E-03 0.  1.
       22    1    1    2    0    0 -0.23438298545E-02 -0.96227187192E-02 -0.34337200395E-01  0.35737005818E-01  0.00000000000E+00 0.  1.
  9000001    1    1    2    0    0  0.23438298545E-02  0.96227187192E-02  0.34337200395E-01  0.35750994182E-01  0.10000000475E-02 0. -1.
</event>
<event>
 4   0  0.2441219E-02  0.9118800E+02  0.7818609E-02  0.1379984E+01
      -11   -1    0    0    0    0  0.00000000000E+00  0.00000000000E+00  0.35740347158E-01  0.35744000000E-01  0.51099999109E-03 0.  1.
       11   -1    0    0    0    0 -0.00000000000E+00 -0.00000000000E+00 -0.35740347158E-01  0.35744000000E-01  0.51099999109E-03 0. -1.
       22    1    1    2    0    0  0.35390427040E-02  0.69679072305E-03  0.35554510885E-01  0.35737005818E-01  0.00000000000E+00 0.  1.
  9000001    1    1    2    0    0 -0.35390427040E-02 -0.69679072305E-03 -0.35554510885E-01  0.35750994182E-01  0.10000000475E-02 0. -1.
</event>
<event>
 4   0  0.2441219E-02  0.9118800E+02  0.7818609E-02  0.1379984E+01
      -11   -1    0    0    0    0  0.00000000000E+00  0.00000000000E+00  0.35740347158E-01  0.35744000000E-01  0.51099999109E-03 0.  1.
       11   -1    0    0    0    0 -0.00000000000E+00 -0.00000000000E+00 -0.35740347158E-01  0.35744000000E-01  0.51099999109E-03 0. -1.
       22    1    1    2    0    0 -0.79896678133E-02 -0.19567621607E-02 -0.34777433415E-01  0.35737005818E-01  0.00000000000E+00 0. -1.
  9000001    1    1    2    0    0  0.79896678133E-02  0.19567621607E-02  0.34777433415E-01  0.35750994182E-01  0.10000000475E-02 0.  1.
</event>
<event>
 4   0  0.2441219E-02  0.9118800E+02  0.7818609E-02  0.1379984E+01
      -11   -1    0    0    0    0  0.00000000000E+00  0.00000000000E+00  0.35740347158E-01  0.35744000000E-01  0.51099999109E-03 0.  1.
       11   -1    0    0    0    0 -0.00000000000E+00 -0.00000000000E+00 -0.35740347158E-01  0.35744000000E-01  0.51099999109E-03 0. -1.
       22    1    1    2    0    0  0.48363540365E-02  0.13115910114E-01  0.32889453726E-01  0.35737005818E-01  0.00000000000E+00 0.  1.
  9000001    1    1    2    0    0 -0.48363540365E-02 -0.13115910114E-01 -0.32889453726E-01  0.35750994182E-01  0.10000000475E-02 0. -1.
</event>
<event>
 4   0  0.2441219E-02  0.9118800E+02  0.7818609E-02  0.1379984E+01
      -11   -1    0    0    0    0  0.00000000000E+00  0.00000000000E+00  0.35740347158E-01  0.35744000000E-01  0.51099999109E-03 0. -1.
       11   -1    0    0    0    0 -0.00000000000E+00 -0.00000000000E+00 -0.35740347158E-01  0.35744000000E-01  0.51099999109E-03 0.  1.
       22    1    1    2    0    0  0.25280661625E-01 -0.90920000013E-02 -0.23566019364E-01  0.35737005818E-01  0.00000000000E+00 0. -1.
  9000001    1    1    2    0    0 -0.25280661625E-01  0.90920000013E-02  0.23566019364E-01  0.35750994182E-01  0.10000000475E-02 0.  1.
</event>
<event>
 4   0  0.2441219E-02  0.9118800E+02  0.7818609E-02  0.1379984E+01
      -11   -1    0    0    0    0  0.00000000000E+00  0.00000000000E+00  0.35740347158E-01  0.35744000000E-01  0.51099999109E-03 0. -1.
       11   -1    0    0    0    0 -0.00000000000E+00 -0.00000000000E+00 -0.35740347158E-01  0.35744000000E-01  0.51099999109E-03 0.  1.
       22    1    1    2    0    0  0.57383544197E-02  0.66098101989E-02 -0.34648452816E-01  0.35737005818E-01  0.00000000000E+00 0.  1.
  9000001    1    1    2    0    0 -0.57383544197E-02 -0.66098101989E-02  0.34648452816E-01  0.35750994182E-01  0.10000000475E-02 0. -1.
</event>
<event>
 4   0  0.2441219E-02  0.9118800E+02  0.7818609E-02  0.1379984E+01
      -11   -1    0    0    0    0  0.00000000000E+00  0.00000000000E+00  0.35740347158E-01  0.35744000000E-01  0.51099999109E-03 0. -1.
       11   -1    0    0    0    0 -0.00000000000E+00 -0.00000000000E+00 -0.35740347158E-01  0.35744000000E-01  0.51099999109E-03 0.  1.
       22    1    1    2    0    0  0.49077423885E-02  0.70377040702E-02  0.34691762292E-01  0.35737005818E-01  0.00000000000E+00 0. -1.
  9000001    1    1    2    0    0 -0.49077423885E-02 -0.70377040702E-02 -0.34691762292E-01  0.35750994182E-01  0.10000000475E-02 0.  1.
</event>
<event>
 4   0  0.2441219E-02  0.9118800E+02  0.7818609E-02  0.1379984E+01
      -11   -1    0    0    0    0  0.00000000000E+00  0.00000000000E+00  0.35740347158E-01  0.35744000000E-01  0.51099999109E-03 0. -1.
       11   -1    0    0    0    0 -0.00000000000E+00 -0.00000000000E+00 -0.35740347158E-01  0.35744000000E-01  0.51099999109E-03 0.  1.
       22    1    1    2    0    0  0.14374140722E-01  0.20848641086E-01 -0.25216102559E-01  0.35737005818E-01  0.00000000000E+00 0.  1.
  9000001    1    1    2    0    0 -0.14374140722E-01 -0.20848641086E-01  0.25216102559E-01  0.35750994182E-01  0.10000000475E-02 0. -1.
</event>
<event>
 4   0  0.2441219E-02  0.9118800E+02  0.7818609E-02  0.1379984E+01
      -11   -1    0    0    0    0  0.00000000000E+00  0.00000000000E+00  0.35740347158E-01  0.35744000000E-01  0.51099999109E-03 0.  1.
       11   -1    0    0    0    0 -0.00000000000E+00 -0.00000000000E+00 -0.35740347158E-01  0.35744000000E-01  0.51099999109E-03 0. -1.
       22    1    1    2    0    0  0.51803015034E-02  0.48248729462E-02 -0.35028826162E-01  0.35737005818E-01  0.00000000000E+00 0. -1.
  9000001    1    1    2    0    0 -0.51803015034E-02 -0.48248729462E-02  0.35028826162E-01  0.35750994182E-01  0.10000000475E-02 0.  1.
</event>
<event>
 4   0  0.2441219E-02  0.9118800E+02  0.7818609E-02  0.1379984E+01
      -11   -1    0    0    0    0  0.00000000000E+00  0.00000000000E+00  0.35740347158E-01  0.35744000000E-01  0.51099999109E-03 0.  1.
       11   -1    0    0    0    0 -0.00000000000E+00 -0.00000000000E+00 -0.35740347158E-01  0.35744000000E-01  0.51099999109E-03 0. -1.
       22    1    1    2    0    0  0.17577228555E-01 -0.37293674454E-02 -0.30891203273E-01  0.35737005818E-01  0.00000000000E+00 0. -1.
  9000001    1    1    2    0    0 -0.17577228555E-01  0.37293674454E-02  0.30891203273E-01  0.35750994182E-01  0.10000000475E-02 0.  1.
</event>
<event>
 4   0  0.2441219E-02  0.9118800E+02  0.7818609E-02  0.1379984E+01
      -11   -1    0    0    0    0  0.00000000000E+00  0.00000000000E+00  0.35740347158E-01  0.35744000000E-01  0.51099999109E-03 0.  1.
       11   -1    0    0    0    0 -0.00000000000E+00 -0.00000000000E+00 -0.35740347158E-01  0.35744000000E-01  0.51099999109E-03 0. -1.
       22    1    1    2    0    0  0.16091791487E-01  0.28931624254E-01 -0.13459158578E-01  0.35737005818E-01  0.00000000000E+00 0. -1.
  9000001    1    1    2    0    0 -0.16091791487E-01 -0.28931624254E-01  0.13459158578E-01  0.35750994182E-01  0.10000000475E-02 0.  1.
</event>
<event>
 4   0  0.2441219E-02  0.9118800E+02  0.7818609E-02  0.1379984E+01
      -11   -1    0    0    0    0  0.00000000000E+00  0.00000000000E+00  0.35740347158E-01  0.35744000000E-01  0.51099999109E-03 0.  1.
       11   -1    0    0    0    0 -0.00000000000E+00 -0.00000000000E+00 -0.35740347158E-01  0.35744000000E-01  0.51099999109E-03 0. -1.
       22    1    1    2    0    0  0.26732554546E-01 -0.12959699973E-01  0.19863289983E-01  0.35737005818E-01  0.00000000000E+00 0.  1.
  9000001    1    1    2    0    0 -0.26732554546E-01  0.12959699973E-01 -0.19863289983E-01  0.35750994182E-01  0.10000000475E-02 0. -1.
</event>
<event>
 4   0  0.2441219E-02  0.9118800E+02  0.7818609E-02  0.1379984E+01
      -11   -1    0    0    0    0  0.00000000000E+00  0.00000000000E+00  0.35740347158E-01  0.35744000000E-01  0.51099999109E-03 0.  1.
       11   -1    0    0    0    0 -0.00000000000E+00 -0.00000000000E+00 -0.35740347158E-01  0.35744000000E-01  0.51099999109E-03 0. -1.
       22    1    1    2    0    0  0.44205685076E-02 -0.39612442620E-02  0.35240611556E-01  0.35737005818E-01  0.00000000000E+00 0.  1.
  9000001    1    1    2    0    0 -0.44205685076E-02  0.39612442620E-02 -0.35240611556E-01  0.35750994182E-01  0.10000000475E-02 0. -1.
</event>
<event>
 4   0  0.2441219E-02  0.9118800E+02  0.7818609E-02  0.1379984E+01
      -11   -1    0    0    0    0  0.00000000000E+00  0.00000000000E+00  0.35740347158E-01  0.35744000000E-01  0.51099999109E-03 0.  1.
       11   -1    0    0    0    0 -0.00000000000E+00 -0.00000000000E+00 -0.35740347158E-01  0.35744000000E-01  0.51099999109E-03 0. -1.
       22    1    1    2    0    0 -0.28811814129E-01 -0.14499592194E-02 -0.21092903302E-01  0.35737005818E-01  0.00000000000E+00 0. -1.
  9000001    1    1    2    0    0  0.28811814129E-01  0.14499592194E-02  0.21092903302E-01  0.35750994182E-01  0.10000000475E-02 0.  1.
</event>
<event>
 4   0  0.2441219E-02  0.9118800E+02  0.7818609E-02  0.1379984E+01
      -11   -1    0    0    0    0  0.00000000000E+00  0.00000000000E+00  0.35740347158E-01  0.35744000000E-01  0.51099999109E-03 0.  1.
       11   -1    0    0    0    0 -0.00000000000E+00 -0.00000000000E+00 -0.35740347158E-01  0.35744000000E-01  0.51099999109E-03 0. -1.
       22    1    1    2    0    0  0.14534615890E-01 -0.19197937414E-01 -0.26406774222E-01  0.35737005818E-01  0.00000000000E+00 0. -1.
  9000001    1    1    2    0    0 -0.14534615890E-01  0.19197937414E-01  0.26406774222E-01  0.35750994182E-01  0.10000000475E-02 0.  1.
</event>
<event>
 4   0  0.2441219E-02  0.9118800E+02  0.7818609E-02  0.1379984E+01
      -11   -1    0    0    0    0  0.00000000000E+00  0.00000000000E+00  0.35740347158E-01  0.35744000000E-01  0.51099999109E-03 0. -1.
       11   -1    0    0    0    0 -0.00000000000E+00 -0.00000000000E+00 -0.35740347158E-01  0.35744000000E-01  0.51099999109E-03 0.  1.
       22    1    1    2    0    0  0.16183655988E-01  0.30607027448E-02 -0.31715216576E-01  0.35737005818E-01  0.00000000000E+00 0.  1.
  9000001    1    1    2    0    0 -0.16183655988E-01 -0.30607027448E-02  0.31715216576E-01  0.35750994182E-01  0.10000000475E-02 0. -1.
</event>
<event>
 4   0  0.2441219E-02  0.9118800E+02  0.7818609E-02  0.1379984E+01
      -11   -1    0    0    0    0  0.00000000000E+00  0.00000000000E+00  0.35740347158E-01  0.35744000000E-01  0.51099999109E-03 0.  1.
       11   -1    0    0    0    0 -0.00000000000E+00 -0.00000000000E+00 -0.35740347158E-01  0.35744000000E-01  0.51099999109E-03 0. -1.
       22    1    1    2    0    0 -0.20275273412E-01  0.18886624691E-01 -0.22568612734E-01  0.35737005818E-01  0.00000000000E+00 0. -1.
  9000001    1    1    2    0    0  0.20275273412E-01 -0.18886624691E-01  0.22568612734E-01  0.35750994182E-01  0.10000000475E-02 0.  1.
</event>
<event>
 4   0  0.2441219E-02  0.9118800E+02  0.7818609E-02  0.1379984E+01
      -11   -1    0    0    0    0  0.00000000000E+00  0.00000000000E+00  0.35740347158E-01  0.35744000000E-01  0.51099999109E-03 0.  1.
       11   -1    0    0    0    0 -0.00000000000E+00 -0.00000000000E+00 -0.35740347158E-01  0.35744000000E-01  0.51099999109E-03 0. -1.
       22    1    1    2    0    0  0.14399100696E-01  0.32546658280E-01 -0.32426098763E-02  0.35737005818E-01  0.00000000000E+00 0. -1.
  9000001    1    1    2    0    0 -0.14399100696E-01 -0.32546658280E-01  0.32426098763E-02  0.35750994182E-01  0.10000000475E-02 0.  1.
</event>
<event>
 4   0  0.2441219E-02  0.9118800E+02  0.7818609E-02  0.1379984E+01
      -11   -1    0    0    0    0  0.00000000000E+00  0.00000000000E+00  0.35740347158E-01  0.35744000000E-01  0.51099999109E-03 0. -1.
       11   -1    0    0    0    0 -0.00000000000E+00 -0.00000000000E+00 -0.35740347158E-01  0.35744000000E-01  0.51099999109E-03 0.  1.
       22    1    1    2    0    0 -0.34568273946E-02  0.14276164213E-01 -0.32578751735E-01  0.35737005818E-01  0.00000000000E+00 0.  1.
  9000001    1    1    2    0    0  0.34568273946E-02 -0.14276164213E-01  0.32578751735E-01  0.35750994182E-01  0.10000000475E-02 0. -1.
</event>
<event>
 4   0  0.2441219E-02  0.9118800E+02  0.7818609E-02  0.1379984E+01
      -11   -1    0    0    0    0  0.00000000000E+00  0.00000000000E+00  0.35740347158E-01  0.35744000000E-01  0.51099999109E-03 0.  1.
       11   -1    0    0    0    0 -0.00000000000E+00 -0.00000000000E+00 -0.35740347158E-01  0.35744000000E-01  0.51099999109E-03 0. -1.
       22    1    1    2    0    0  0.16612883505E-01 -0.11189087422E-01  0.29596452645E-01  0.35737005818E-01  0.00000000000E+00 0.  1.
  9000001    1    1    2    0    0 -0.16612883505E-01  0.11189087422E-01 -0.29596452645E-01  0.35750994182E-01  0.10000000475E-02 0. -1.
</event>
<event>
 4   0  0.2441219E-02  0.9118800E+02  0.7818609E-02  0.1379984E+01
      -11   -1    0    0    0    0  0.00000000000E+00  0.00000000000E+00  0.35740347158E-01  0.35744000000E-01  0.51099999109E-03 0. -1.
       11   -1    0    0    0    0 -0.00000000000E+00 -0.00000000000E+00 -0.35740347158E-01  0.35744000000E-01  0.51099999109E-03 0.  1.
       22    1    1    2    0    0 -0.66532255146E-02 -0.20861598264E-02 -0.35050194184E-01  0.35737005818E-01  0.00000000000E+00 0.  1.
  9000001    1    1    2    0    0  0.66532255146E-02  0.20861598264E-02  0.35050194184E-01  0.35750994182E-01  0.10000000475E-02 0. -1.
</event>
<event>
 4   0  0.2441219E-02  0.9118800E+02  0.7818609E-02  0.1379984E+01
      -11   -1    0    0    0    0  0.00000000000E+00  0.00000000000E+00  0.35740347158E-01  0.35744000000E-01  0.51099999109E-03 0.  1.
       11   -1    0    0    0    0 -0.00000000000E+00 -0.00000000000E+00 -0.35740347158E-01  0.35744000000E-01  0.51099999109E-03 0. -1.
       22    1    1    2    0    0 -0.20091957824E-01  0.29483845278E-01  0.20370771436E-02  0.35737005818E-01  0.00000000000E+00 0.  1.
  9000001    1    1    2    0    0  0.20091957824E-01 -0.29483845278E-01 -0.20370771436E-02  0.35750994182E-01  0.10000000475E-02 0. -1.
</event>
<event>
 4   0  0.2441219E-02  0.9118800E+02  0.7818609E-02  0.1379984E+01
      -11   -1    0    0    0    0  0.00000000000E+00  0.00000000000E+00  0.35740347158E-01  0.35744000000E-01  0.51099999109E-03 0. -1.
       11   -1    0    0    0    0 -0.00000000000E+00 -0.00000000000E+00 -0.35740347158E-01  0.35744000000E-01  0.51099999109E-03 0.  1.
       22    1    1    2    0    0 -0.11870292443E-01 -0.13749087229E-01 -0.30776490095E-01  0.35737005818E-01  0.00000000000E+00 0.  1.
  9000001    1    1    2    0    0  0.11870292443E-01  0.13749087229E-01  0.30776490095E-01  0.35750994182E-01  0.10000000475E-02 0. -1.
</event>
<event>
 4   0  0.2441219E-02  0.9118800E+02  0.7818609E-02  0.1379984E+01
      -11   -1    0    0    0    0  0.00000000000E+00  0.00000000000E+00  0.35740347158E-01  0.35744000000E-01  0.51099999109E-03 0. -1.
       11   -1    0    0    0    0 -0.00000000000E+00 -0.00000000000E+00 -0.35740347158E-01  0.35744000000E-01  0.51099999109E-03 0.  1.
       22    1    1    2    0    0 -0.43407292651E-02  0.12319901260E-02  0.35451006398E-01  0.35737005818E-01  0.00000000000E+00 0. -1.
  9000001    1    1    2    0    0  0.43407292651E-02 -0.12319901260E-02 -0.35451006398E-01  0.35750994182E-01  0.10000000475E-02 0.  1.
</event>
<event>
 4   0  0.2441219E-02  0.9118800E+02  0.7818609E-02  0.1379984E+01
      -11   -1    0    0    0    0  0.00000000000E+00  0.00000000000E+00  0.35740347158E-01  0.35744000000E-01  0.51099999109E-03 0. -1.
       11   -1    0    0    0    0 -0.00000000000E+00 -0.00000000000E+00 -0.35740347158E-01  0.35744000000E-01  0.51099999109E-03 0.  1.
       22    1    1    2    0    0 -0.18841273123E-01  0.21952304535E-02  0.30287307164E-01  0.35737005818E-01  0.00000000000E+00 0. -1.
  9000001    1    1    2    0    0  0.18841273123E-01 -0.21952304535E-02 -0.30287307164E-01  0.35750994182E-01  0.10000000475E-02 0.  1.
</event>
<event>
 4   0  0.2441219E-02  0.9118800E+02  0.7818609E-02  0.1379984E+01
      -11   -1    0    0    0    0  0.00000000000E+00  0.00000000000E+00  0.35740347158E-01  0.35744000000E-01  0.51099999109E-03 0.  1.
       11   -1    0    0    0    0 -0.00000000000E+00 -0.00000000000E+00 -0.35740347158E-01  0.35744000000E-01  0.51099999109E-03 0. -1.
       22    1    1    2    0    0  0.62569133958E-03  0.32573786539E-02 -0.35582742721E-01  0.35737005818E-01  0.00000000000E+00 0. -1.
  9000001    1    1    2    0    0 -0.62569133958E-03 -0.32573786539E-02  0.35582742721E-01  0.35750994182E-01  0.10000000475E-02 0.  1.
</event>
<event>
 4   0  0.2441219E-02  0.9118800E+02  0.7818609E-02  0.1379984E+01
      -11   -1    0    0    0    0  0.00000000000E+00  0.00000000000E+00  0.35740347158E-01  0.35744000000E-01  0.51099999109E-03 0. -1.
       11   -1    0    0    0    0 -0.00000000000E+00 -0.00000000000E+00 -0.35740347158E-01  0.35744000000E-01  0.51099999109E-03 0.  1.
       22    1    1    2    0    0 -0.13720817054E-01 -0.89266869298E-02 -0.31767704114E-01  0.35737005818E-01  0.00000000000E+00 0.  1.
  9000001    1    1    2    0    0  0.13720817054E-01  0.89266869298E-02  0.31767704114E-01  0.35750994182E-01  0.10000000475E-02 0. -1.
</event>
<event>
 4   0  0.2441219E-02  0.9118800E+02  0.7818609E-02  0.1379984E+01
      -11   -1    0    0    0    0  0.00000000000E+00  0.00000000000E+00  0.35740347158E-01  0.35744000000E-01  0.51099999109E-03 0. -1.
       11   -1    0    0    0    0 -0.00000000000E+00 -0.00000000000E+00 -0.35740347158E-01  0.35744000000E-01  0.51099999109E-03 0.  1.
       22    1    1    2    0    0 -0.71758422246E-03 -0.25914498546E-01  0.24597915010E-01  0.35737005818E-01  0.00000000000E+00 0. -1.
  9000001    1    1    2    0    0  0.71758422246E-03  0.25914498546E-01 -0.24597915010E-01  0.35750994182E-01  0.10000000475E-02 0.  1.
</event>
<event>
 4   0  0.2441219E-02  0.9118800E+02  0.7818609E-02  0.1379984E+01
      -11   -1    0    0    0    0  0.00000000000E+00  0.00000000000E+00  0.35740347158E-01  0.35744000000E-01  0.51099999109E-03 0.  1.
       11   -1    0    0    0    0 -0.00000000000E+00 -0.00000000000E+00 -0.35740347158E-01  0.35744000000E-01  0.51099999109E-03 0. -1.
       22    1    1    2    0    0 -0.34947196632E-01 -0.61970231125E-02 -0.41741989660E-02  0.35737005818E-01  0.00000000000E+00 0. -1.
  9000001    1    1    2    0    0  0.34947196632E-01  0.61970231125E-02  0.41741989660E-02  0.35750994182E-01  0.10000000475E-02 0.  1.
</event>
<event>
 4   0  0.2441219E-02  0.9118800E+02  0.7818609E-02  0.1379984E+01
      -11   -1    0    0    0    0  0.00000000000E+00  0.00000000000E+00  0.35740347158E-01  0.35744000000E-01  0.51099999109E-03 0.  1.
       11   -1    0    0    0    0 -0.00000000000E+00 -0.00000000000E+00 -0.35740347158E-01  0.35744000000E-01  0.51099999109E-03 0. -1.
       22    1    1    2    0    0 -0.81418919195E-02  0.14831699014E-02  0.34765548865E-01  0.35737005818E-01  0.00000000000E+00 0.  1.
  9000001    1    1    2    0    0  0.81418919195E-02 -0.14831699014E-02 -0.34765548865E-01  0.35750994182E-01  0.10000000475E-02 0. -1.
</event>
<event>
 4   0  0.2441219E-02  0.9118800E+02  0.7818609E-02  0.1379984E+01
      -11   -1    0    0    0    0  0.00000000000E+00  0.00000000000E+00  0.35740347158E-01  0.35744000000E-01  0.51099999109E-03 0. -1.
       11   -1    0    0    0    0 -0.00000000000E+00 -0.00000000000E+00 -0.35740347158E-01  0.35744000000E-01  0.51099999109E-03 0.  1.
       22    1    1    2    0    0  0.66472347273E-03  0.25490605876E-01 -0.25038385324E-01  0.35737005818E-01  0.00000000000E+00 0.  1.
  9000001    1    1    2    0    0 -0.66472347273E-03 -0.25490605876E-01  0.25038385324E-01  0.35750994182E-01  0.10000000475E-02 0. -1.
</event>
<event>
 4   0  0.2441219E-02  0.9118800E+02  0.7818609E-02  0.1379984E+01
      -11   -1    0    0    0    0  0.00000000000E+00  0.00000000000E+00  0.35740347158E-01  0.35744000000E-01  0.51099999109E-03 0.  1.
       11   -1    0    0    0    0 -0.00000000000E+00 -0.00000000000E+00 -0.35740347158E-01  0.35744000000E-01  0.51099999109E-03 0. -1.
       22    1    1    2    0    0 -0.14754090987E-01  0.40774978811E-02 -0.32292791689E-01  0.35737005818E-01  0.00000000000E+00 0. -1.
  9000001    1    1    2    0    0  0.14754090987E-01 -0.40774978811E-02  0.32292791689E-01  0.35750994182E-01  0.10000000475E-02 0.  1.
</event>
<event>
 4   0  0.2441219E-02  0.9118800E+02  0.7818609E-02  0.1379984E+01
      -11   -1    0    0    0    0  0.00000000000E+00  0.00000000000E+00  0.35740347158E-01  0.35744000000E-01  0.51099999109E-03 0. -1.
       11   -1    0    0    0    0 -0.00000000000E+00 -0.00000000000E+00 -0.35740347158E-01  0.35744000000E-01  0.51099999109E-03 0.  1.
       22    1    1    2    0    0 -0.48489481811E-02 -0.31725005926E-03 -0.35405093402E-01  0.35737005818E-01  0.00000000000E+00 0.  1.
  9000001    1    1    2    0    0  0.48489481811E-02  0.31725005926E-03  0.35405093402E-01  0.35750994182E-01  0.10000000475E-02 0. -1.
</event>
<event>
 4   0  0.2441219E-02  0.9118800E+02  0.7818609E-02  0.1379984E+01
      -11   -1    0    0    0    0  0.00000000000E+00  0.00000000000E+00  0.35740347158E-01  0.35744000000E-01  0.51099999109E-03 0. -1.
       11   -1    0    0    0    0 -0.00000000000E+00 -0.00000000000E+00 -0.35740347158E-01  0.35744000000E-01  0.51099999109E-03 0.  1.
       22    1    1    2    0    0 -0.39997987766E-02  0.90663252010E-02 -0.34335651180E-01  0.35737005818E-01  0.00000000000E+00 0.  1.
  9000001    1    1    2    0    0  0.39997987766E-02 -0.90663252010E-02  0.34335651180E-01  0.35750994182E-01  0.10000000475E-02 0. -1.
</event>
<event>
 4   0  0.2441219E-02  0.9118800E+02  0.7818609E-02  0.1379984E+01
      -11   -1    0    0    0    0  0.00000000000E+00  0.00000000000E+00  0.35740347158E-01  0.35744000000E-01  0.51099999109E-03 0. -1.
       11   -1    0    0    0    0 -0.00000000000E+00 -0.00000000000E+00 -0.35740347158E-01  0.35744000000E-01  0.51099999109E-03 0.  1.
       22    1    1    2    0    0 -0.57180778066E-02  0.23791464549E-03 -0.35275778768E-01  0.35737005818E-01  0.00000000000E+00 0.  1.
  9000001    1    1    2    0    0  0.57180778066E-02 -0.23791464549E-03  0.35275778768E-01  0.35750994182E-01  0.10000000475E-02 0. -1.
</event>
<event>
 4   0  0.2441219E-02  0.9118800E+02  0.7818609E-02  0.1379984E+01
      -11   -1    0    0    0    0  0.00000000000E+00  0.00000000000E+00  0.35740347158E-01  0.35744000000E-01  0.51099999109E-03 0. -1.
       11   -1    0    0    0    0 -0.00000000000E+00 -0.00000000000E+00 -0.35740347158E-01  0.35744000000E-01  0.51099999109E-03 0.  1.
       22    1    1    2    0    0  0.31067558135E-02 -0.47529710220E-03 -0.35598535726E-01  0.35737005818E-01  0.00000000000E+00 0.  1.
  9000001    1    1    2    0    0 -0.31067558135E-02  0.47529710220E-03  0.35598535726E-01  0.35750994182E-01  0.10000000475E-02 0. -1.
</event>
<event>
 4   0  0.2441219E-02  0.9118800E+02  0.7818609E-02  0.1379984E+01
      -11   -1    0    0    0    0  0.00000000000E+00  0.00000000000E+00  0.35740347158E-01  0.35744000000E-01  0.51099999109E-03 0. -1.
       11   -1    0    0    0    0 -0.00000000000E+00 -0.00000000000E+00 -0.35740347158E-01  0.35744000000E-01  0.51099999109E-03 0.  1.
       22    1    1    2    0    0  0.33476043624E-02 -0.10443016583E-02  0.35564540823E-01  0.35737005818E-01  0.00000000000E+00 0. -1.
  9000001    1    1    2    0    0 -0.33476043624E-02  0.10443016583E-02 -0.35564540823E-01  0.35750994182E-01  0.10000000475E-02 0.  1.
</event>
<event>
 4   0  0.2441219E-02  0.9118800E+02  0.7818609E-02  0.1379984E+01
      -11   -1    0    0    0    0  0.00000000000E+00  0.00000000000E+00  0.35740347158E-01  0.35744000000E-01  0.51099999109E-03 0. -1.
       11   -1    0    0    0    0 -0.00000000000E+00 -0.00000000000E+00 -0.35740347158E-01  0.35744000000E-01  0.51099999109E-03 0.  1.
       22    1    1    2    0    0 -0.84733682831E-02 -0.22038513292E-01  0.26826098238E-01  0.35737005818E-01  0.00000000000E+00 0. -1.
  9000001    1    1    2    0    0  0.84733682831E-02  0.22038513292E-01 -0.26826098238E-01  0.35750994182E-01  0.10000000475E-02 0.  1.
</event>
<event>
 4   0  0.2441219E-02  0.9118800E+02  0.7818609E-02  0.1379984E+01
      -11   -1    0    0    0    0  0.00000000000E+00  0.00000000000E+00  0.35740347158E-01  0.35744000000E-01  0.51099999109E-03 0.  1.
       11   -1    0    0    0    0 -0.00000000000E+00 -0.00000000000E+00 -0.35740347158E-01  0.35744000000E-01  0.51099999109E-03 0. -1.
       22    1    1    2    0    0 -0.70466362157E-02 -0.26861763200E-02  0.34932262447E-01  0.35737005818E-01  0.00000000000E+00 0.  1.
  9000001    1    1    2    0    0  0.70466362157E-02  0.26861763200E-02 -0.34932262447E-01  0.35750994182E-01  0.10000000475E-02 0. -1.
</event>
<event>
 4   0  0.2441219E-02  0.9118800E+02  0.7818609E-02  0.1379984E+01
      -11   -1    0    0    0    0  0.00000000000E+00  0.00000000000E+00  0.35740347158E-01  0.35744000000E-01  0.51099999109E-03 0. -1.
       11   -1    0    0    0    0 -0.00000000000E+00 -0.00000000000E+00 -0.35740347158E-01  0.35744000000E-01  0.51099999109E-03 0.  1.
       22    1    1    2    0    0  0.35809904505E-02 -0.10862701837E-01 -0.33857226719E-01  0.35737005818E-01  0.00000000000E+00 0.  1.
  9000001    1    1    2    0    0 -0.35809904505E-02  0.10862701837E-01  0.33857226719E-01  0.35750994182E-01  0.10000000475E-02 0. -1.
</event>
<event>
 4   0  0.2441219E-02  0.9118800E+02  0.7818609E-02  0.1379984E+01
      -11   -1    0    0    0    0  0.00000000000E+00  0.00000000000E+00  0.35740347158E-01  0.35744000000E-01  0.51099999109E-03 0. -1.
       11   -1    0    0    0    0 -0.00000000000E+00 -0.00000000000E+00 -0.35740347158E-01  0.35744000000E-01  0.51099999109E-03 0.  1.
       22    1    1    2    0    0 -0.56901430007E-02  0.25789585431E-02 -0.35186713833E-01  0.35737005818E-01  0.00000000000E+00 0.  1.
  9000001    1    1    2    0    0  0.56901430007E-02 -0.25789585431E-02  0.35186713833E-01  0.35750994182E-01  0.10000000475E-02 0. -1.
</event>
<event>
 4   0  0.2441219E-02  0.9118800E+02  0.7818609E-02  0.1379984E+01
      -11   -1    0    0    0    0  0.00000000000E+00  0.00000000000E+00  0.35740347158E-01  0.35744000000E-01  0.51099999109E-03 0.  1.
       11   -1    0    0    0    0 -0.00000000000E+00 -0.00000000000E+00 -0.35740347158E-01  0.35744000000E-01  0.51099999109E-03 0. -1.
       22    1    1    2    0    0  0.26100841098E-02  0.10071627057E-01 -0.34188936430E-01  0.35737005818E-01  0.00000000000E+00 0. -1.
  9000001    1    1    2    0    0 -0.26100841098E-02 -0.10071627057E-01  0.34188936430E-01  0.35750994182E-01  0.10000000475E-02 0.  1.
</event>
<event>
 4   0  0.2441219E-02  0.9118800E+02  0.7818609E-02  0.1379984E+01
      -11   -1    0    0    0    0  0.00000000000E+00  0.00000000000E+00  0.35740347158E-01  0.35744000000E-01  0.51099999109E-03 0. -1.
       11   -1    0    0    0    0 -0.00000000000E+00 -0.00000000000E+00 -0.35740347158E-01  0.35744000000E-01  0.51099999109E-03 0.  1.
       22    1    1    2    0    0 -0.11159623125E-01 -0.37359934909E-04  0.33949889555E-01  0.35737005818E-01  0.00000000000E+00 0. -1.
  9000001    1    1    2    0    0  0.11159623125E-01  0.37359934909E-04 -0.33949889555E-01  0.35750994182E-01  0.10000000475E-02 0.  1.
</event>
<event>
 4   0  0.2441219E-02  0.9118800E+02  0.7818609E-02  0.1379984E+01
      -11   -1    0    0    0    0  0.00000000000E+00  0.00000000000E+00  0.35740347158E-01  0.35744000000E-01  0.51099999109E-03 0.  1.
       11   -1    0    0    0    0 -0.00000000000E+00 -0.00000000000E+00 -0.35740347158E-01  0.35744000000E-01  0.51099999109E-03 0. -1.
       22    1    1    2    0    0  0.29424578311E-01 -0.85504410443E-02 -0.18390696943E-01  0.35737005818E-01  0.00000000000E+00 0. -1.
  9000001    1    1    2    0    0 -0.29424578311E-01  0.85504410443E-02  0.18390696943E-01  0.35750994182E-01  0.10000000475E-02 0.  1.
</event>
<event>
 4   0  0.2441219E-02  0.9118800E+02  0.7818609E-02  0.1379984E+01
      -11   -1    0    0    0    0  0.00000000000E+00  0.00000000000E+00  0.35740347158E-01  0.35744000000E-01  0.51099999109E-03 0. -1.
       11   -1    0    0    0    0 -0.00000000000E+00 -0.00000000000E+00 -0.35740347158E-01  0.35744000000E-01  0.51099999109E-03 0.  1.
       22    1    1    2    0    0 -0.33873605497E-02 -0.52376905762E-02  0.35188435186E-01  0.35737005818E-01  0.00000000000E+00 0. -1.
  9000001    1    1    2    0    0  0.33873605497E-02  0.52376905762E-02 -0.35188435186E-01  0.35750994182E-01  0.10000000475E-02 0.  1.
</event>
<event>
 4   0  0.2441219E-02  0.9118800E+02  0.7818609E-02  0.1379984E+01
      -11   -1    0    0    0    0  0.00000000000E+00  0.00000000000E+00  0.35740347158E-01  0.35744000000E-01  0.51099999109E-03 0.  1.
       11   -1    0    0    0    0 -0.00000000000E+00 -0.00000000000E+00 -0.35740347158E-01  0.35744000000E-01  0.51099999109E-03 0. -1.
       22    1    1    2    0    0  0.30626490914E-01  0.17785816182E-01  0.47766496529E-02  0.35737005818E-01  0.00000000000E+00 0.  1.
  9000001    1    1    2    0    0 -0.30626490914E-01 -0.17785816182E-01 -0.47766496529E-02  0.35750994182E-01  0.10000000475E-02 0. -1.
</event>
<event>
 4   0  0.2441219E-02  0.9118800E+02  0.7818609E-02  0.1379984E+01
      -11   -1    0    0    0    0  0.00000000000E+00  0.00000000000E+00  0.35740347158E-01  0.35744000000E-01  0.51099999109E-03 0. -1.
       11   -1    0    0    0    0 -0.00000000000E+00 -0.00000000000E+00 -0.35740347158E-01  0.35744000000E-01  0.51099999109E-03 0.  1.
       22    1    1    2    0    0  0.12915770135E-01  0.28824594515E-01  0.16717033761E-01  0.35737005818E-01  0.00000000000E+00 0. -1.
  9000001    1    1    2    0    0 -0.12915770135E-01 -0.28824594515E-01 -0.16717033761E-01  0.35750994182E-01  0.10000000475E-02 0.  1.
</event>
<event>
 4   0  0.2441219E-02  0.9118800E+02  0.7818609E-02  0.1379984E+01
      -11   -1    0    0    0    0  0.00000000000E+00  0.00000000000E+00  0.35740347158E-01  0.35744000000E-01  0.51099999109E-03 0. -1.
       11   -1    0    0    0    0 -0.00000000000E+00 -0.00000000000E+00 -0.35740347158E-01  0.35744000000E-01  0.51099999109E-03 0.  1.
       22    1    1    2    0    0 -0.13822053374E-01 -0.93849212388E-02  0.31591259531E-01  0.35737005818E-01  0.00000000000E+00 0. -1.
  9000001    1    1    2    0    0  0.13822053374E-01  0.93849212388E-02 -0.31591259531E-01  0.35750994182E-01  0.10000000475E-02 0.  1.
</event>
<event>
 4   0  0.2441219E-02  0.9118800E+02  0.7818609E-02  0.1379984E+01
      -11   -1    0    0    0    0  0.00000000000E+00  0.00000000000E+00  0.35740347158E-01  0.35744000000E-01  0.51099999109E-03 0.  1.
       11   -1    0    0    0    0 -0.00000000000E+00 -0.00000000000E+00 -0.35740347158E-01  0.35744000000E-01  0.51099999109E-03 0. -1.
       22    1    1    2    0    0 -0.96648812459E-02 -0.86430260614E-02 -0.33301978258E-01  0.35737005818E-01  0.00000000000E+00 0. -1.
  9000001    1    1    2    0    0  0.96648812459E-02  0.86430260614E-02  0.33301978258E-01  0.35750994182E-01  0.10000000475E-02 0.  1.
</event>
<event>
 4   0  0.2441219E-02  0.9118800E+02  0.7818609E-02  0.1379984E+01
      -11   -1    0    0    0    0  0.00000000000E+00  0.00000000000E+00  0.35740347158E-01  0.35744000000E-01  0.51099999109E-03 0. -1.
       11   -1    0    0    0    0 -0.00000000000E+00 -0.00000000000E+00 -0.35740347158E-01  0.35744000000E-01  0.51099999109E-03 0.  1.
       22    1    1    2    0    0  0.18090111936E-01 -0.14180168601E-01 -0.27364287922E-01  0.35737005818E-01  0.00000000000E+00 0.  1.
  9000001    1    1    2    0    0 -0.18090111936E-01  0.14180168601E-01  0.27364287922E-01  0.35750994182E-01  0.10000000475E-02 0. -1.
</event>
<event>
 4   0  0.2441219E-02  0.9118800E+02  0.7818609E-02  0.1379984E+01
      -11   -1    0    0    0    0  0.00000000000E+00  0.00000000000E+00  0.35740347158E-01  0.35744000000E-01  0.51099999109E-03 0. -1.
       11   -1    0    0    0    0 -0.00000000000E+00 -0.00000000000E+00 -0.35740347158E-01  0.35744000000E-01  0.51099999109E-03 0.  1.
       22    1    1    2    0    0  0.29740664482E-02 -0.73588563065E-02  0.34844450742E-01  0.35737005818E-01  0.00000000000E+00 0. -1.
  9000001    1    1    2    0    0 -0.29740664482E-02  0.73588563065E-02 -0.34844450742E-01  0.35750994182E-01  0.10000000475E-02 0.  1.
</event>
<event>
 4   0  0.2441219E-02  0.9118800E+02  0.7818609E-02  0.1379984E+01
      -11   -1    0    0    0    0  0.00000000000E+00  0.00000000000E+00  0.35740347158E-01  0.35744000000E-01  0.51099999109E-03 0.  1.
       11   -1    0    0    0    0 -0.00000000000E+00 -0.00000000000E+00 -0.35740347158E-01  0.35744000000E-01  0.51099999109E-03 0. -1.
       22    1    1    2    0    0 -0.21818808361E-02 -0.84811734176E-02 -0.34647405074E-01  0.35737005818E-01  0.00000000000E+00 0. -1.
  9000001    1    1    2    0    0  0.21818808361E-02  0.84811734176E-02  0.34647405074E-01  0.35750994182E-01  0.10000000475E-02 0.  1.
</event>
<event>
 4   0  0.2441219E-02  0.9118800E+02  0.7818609E-02  0.1379984E+01
      -11   -1    0    0    0    0  0.00000000000E+00  0.00000000000E+00  0.35740347158E-01  0.35744000000E-01  0.51099999109E-03 0. -1.
       11   -1    0    0    0    0 -0.00000000000E+00 -0.00000000000E+00 -0.35740347158E-01  0.35744000000E-01  0.51099999109E-03 0.  1.
       22    1    1    2    0    0  0.57668766895E-02  0.54454665622E-02  0.34845711530E-01  0.35737005818E-01  0.00000000000E+00 0. -1.
  9000001    1    1    2    0    0 -0.57668766895E-02 -0.54454665622E-02 -0.34845711530E-01  0.35750994182E-01  0.10000000475E-02 0.  1.
</event>
<event>
 4   0  0.2441219E-02  0.9118800E+02  0.7818609E-02  0.1379984E+01
      -11   -1    0    0    0    0  0.00000000000E+00  0.00000000000E+00  0.35740347158E-01  0.35744000000E-01  0.51099999109E-03 0. -1.
       11   -1    0    0    0    0 -0.00000000000E+00 -0.00000000000E+00 -0.35740347158E-01  0.35744000000E-01  0.51099999109E-03 0.  1.
       22    1    1    2    0    0  0.69258503083E-02  0.11624329883E-01 -0.33076292675E-01  0.35737005818E-01  0.00000000000E+00 0.  1.
  9000001    1    1    2    0    0 -0.69258503083E-02 -0.11624329883E-01  0.33076292675E-01  0.35750994182E-01  0.10000000475E-02 0. -1.
</event>
<event>
 4   0  0.2441219E-02  0.9118800E+02  0.7818609E-02  0.1379984E+01
      -11   -1    0    0    0    0  0.00000000000E+00  0.00000000000E+00  0.35740347158E-01  0.35744000000E-01  0.51099999109E-03 0. -1.
       11   -1    0    0    0    0 -0.00000000000E+00 -0.00000000000E+00 -0.35740347158E-01  0.35744000000E-01  0.51099999109E-03 0.  1.
       22    1    1    2    0    0  0.35044869209E-02 -0.56748363400E-02  0.35109092680E-01  0.35737005818E-01  0.00000000000E+00 0. -1.
  9000001    1    1    2    0    0 -0.35044869209E-02  0.56748363400E-02 -0.35109092680E-01  0.35750994182E-01  0.10000000475E-02 0.  1.
</event>
<event>
 4   0  0.2441219E-02  0.9118800E+02  0.7818609E-02  0.1379984E+01
      -11   -1    0    0    0    0  0.00000000000E+00  0.00000000000E+00  0.35740347158E-01  0.35744000000E-01  0.51099999109E-03 0.  1.
       11   -1    0    0    0    0 -0.00000000000E+00 -0.00000000000E+00 -0.35740347158E-01  0.35744000000E-01  0.51099999109E-03 0. -1.
       22    1    1    2    0    0  0.33288077240E-02 -0.38204813754E-02  0.35375931734E-01  0.35737005818E-01  0.00000000000E+00 0.  1.
  9000001    1    1    2    0    0 -0.33288077240E-02  0.38204813754E-02 -0.35375931734E-01  0.35750994182E-01  0.10000000475E-02 0. -1.
</event>
<event>
 4   0  0.2441219E-02  0.9118800E+02  0.7818609E-02  0.1379984E+01
      -11   -1    0    0    0    0  0.00000000000E+00  0.00000000000E+00  0.35740347158E-01  0.35744000000E-01  0.51099999109E-03 0. -1.
       11   -1    0    0    0    0 -0.00000000000E+00 -0.00000000000E+00 -0.35740347158E-01  0.35744000000E-01  0.51099999109E-03 0.  1.
       22    1    1    2    0    0  0.49541050578E-02  0.11716548996E-01  0.33396300807E-01  0.35737005818E-01  0.00000000000E+00 0. -1.
  9000001    1    1    2    0    0 -0.49541050578E-02 -0.11716548996E-01 -0.33396300807E-01  0.35750994182E-01  0.10000000475E-02 0.  1.
</event>
<event>
 4   0  0.2441219E-02  0.9118800E+02  0.7818609E-02  0.1379984E+01
      -11   -1    0    0    0    0  0.00000000000E+00  0.00000000000E+00  0.35740347158E-01  0.35744000000E-01  0.51099999109E-03 0.  1.
       11   -1    0    0    0    0 -0.00000000000E+00 -0.00000000000E+00 -0.35740347158E-01  0.35744000000E-01  0.51099999109E-03 0. -1.
       22    1    1    2    0    0  0.15918231996E-02  0.10579390830E-01  0.34098037677E-01  0.35737005818E-01  0.00000000000E+00 0.  1.
  9000001    1    1    2    0    0 -0.15918231996E-02 -0.10579390830E-01 -0.34098037677E-01  0.35750994182E-01  0.10000000475E-02 0. -1.
</event>
<event>
 4   0  0.2441219E-02  0.9118800E+02  0.7818609E-02  0.1379984E+01
      -11   -1    0    0    0    0  0.00000000000E+00  0.00000000000E+00  0.35740347158E-01  0.35744000000E-01  0.51099999109E-03 0.  1.
       11   -1    0    0    0    0 -0.00000000000E+00 -0.00000000000E+00 -0.35740347158E-01  0.35744000000E-01  0.51099999109E-03 0. -1.
       22    1    1    2    0    0 -0.68489554620E-02 -0.28565309960E-02 -0.34958055218E-01  0.35737005818E-01  0.00000000000E+00 0. -1.
  9000001    1    1    2    0    0  0.68489554620E-02  0.28565309960E-02  0.34958055218E-01  0.35750994182E-01  0.10000000475E-02 0.  1.
</event>
<event>
 4   0  0.2441219E-02  0.9118800E+02  0.7818609E-02  0.1379984E+01
      -11   -1    0    0    0    0  0.00000000000E+00  0.00000000000E+00  0.35740347158E-01  0.35744000000E-01  0.51099999109E-03 0. -1.
       11   -1    0    0    0    0 -0.00000000000E+00 -0.00000000000E+00 -0.35740347158E-01  0.35744000000E-01  0.51099999109E-03 0.  1.
       22    1    1    2    0    0  0.46810178910E-02  0.68469591685E-02 -0.34761196851E-01  0.35737005818E-01  0.00000000000E+00 0.  1.
  9000001    1    1    2    0    0 -0.46810178910E-02 -0.68469591685E-02  0.34761196851E-01  0.35750994182E-01  0.10000000475E-02 0. -1.
</event>
<event>
 4   0  0.2441219E-02  0.9118800E+02  0.7818609E-02  0.1379984E+01
      -11   -1    0    0    0    0  0.00000000000E+00  0.00000000000E+00  0.35740347158E-01  0.35744000000E-01  0.51099999109E-03 0. -1.
       11   -1    0    0    0    0 -0.00000000000E+00 -0.00000000000E+00 -0.35740347158E-01  0.35744000000E-01  0.51099999109E-03 0.  1.
       22    1    1    2    0    0  0.16232999686E-01 -0.97758242222E-02  0.30299448292E-01  0.35737005818E-01  0.00000000000E+00 0. -1.
  9000001    1    1    2    0    0 -0.16232999686E-01  0.97758242222E-02 -0.30299448292E-01  0.35750994182E-01  0.10000000475E-02 0.  1.
</event>
<event>
 4   0  0.2441219E-02  0.9118800E+02  0.7818609E-02  0.1379984E+01
      -11   -1    0    0    0    0  0.00000000000E+00  0.00000000000E+00  0.35740347158E-01  0.35744000000E-01  0.51099999109E-03 0.  1.
       11   -1    0    0    0    0 -0.00000000000E+00 -0.00000000000E+00 -0.35740347158E-01  0.35744000000E-01  0.51099999109E-03 0. -1.
       22    1    1    2    0    0 -0.98376169392E-03  0.18034424120E-01  0.30837077431E-01  0.35737005818E-01  0.00000000000E+00 0.  1.
  9000001    1    1    2    0    0  0.98376169392E-03 -0.18034424120E-01 -0.30837077431E-01  0.35750994182E-01  0.10000000475E-02 0. -1.
</event>
<event>
 4   0  0.2441219E-02  0.9118800E+02  0.7818609E-02  0.1379984E+01
      -11   -1    0    0    0    0  0.00000000000E+00  0.00000000000E+00  0.35740347158E-01  0.35744000000E-01  0.51099999109E-03 0.  1.
       11   -1    0    0    0    0 -0.00000000000E+00 -0.00000000000E+00 -0.35740347158E-01  0.35744000000E-01  0.51099999109E-03 0. -1.
       22    1    1    2    0    0 -0.14423163972E-01 -0.61540688569E-03  0.32691393367E-01  0.35737005818E-01  0.00000000000E+00 0.  1.
  9000001    1    1    2    0    0  0.14423163972E-01  0.61540688569E-03 -0.32691393367E-01  0.35750994182E-01  0.10000000475E-02 0. -1.
</event>
<event>
 4   0  0.2441219E-02  0.9118800E+02  0.7818609E-02  0.1379984E+01
      -11   -1    0    0    0    0  0.00000000000E+00  0.00000000000E+00  0.35740347158E-01  0.35744000000E-01  0.51099999109E-03 0. -1.
       11   -1    0    0    0    0 -0.00000000000E+00 -0.00000000000E+00 -0.35740347158E-01  0.35744000000E-01  0.51099999109E-03 0.  1.
       22    1    1    2    0    0  0.31930313031E-02  0.14080902721E-03  0.35593795931E-01  0.35737005818E-01  0.00000000000E+00 0. -1.
  9000001    1    1    2    0    0 -0.31930313031E-02 -0.14080902721E-03 -0.35593795931E-01  0.35750994182E-01  0.10000000475E-02 0.  1.
</event>
<event>
 4   0  0.2441219E-02  0.9118800E+02  0.7818609E-02  0.1379984E+01
      -11   -1    0    0    0    0  0.00000000000E+00  0.00000000000E+00  0.35740347158E-01  0.35744000000E-01  0.51099999109E-03 0.  1.
       11   -1    0    0    0    0 -0.00000000000E+00 -0.00000000000E+00 -0.35740347158E-01  0.35744000000E-01  0.51099999109E-03 0. -1.
       22    1    1    2    0    0  0.14018059742E-01 -0.17918566770E-01  0.27559980966E-01  0.35737005818E-01  0.00000000000E+00 0.  1.
  9000001    1    1    2    0    0 -0.14018059742E-01  0.17918566770E-01 -0.27559980966E-01  0.35750994182E-01  0.10000000475E-02 0. -1.
</event>
<event>
 4   0  0.2441219E-02  0.9118800E+02  0.7818609E-02  0.1379984E+01
      -11   -1    0    0    0    0  0.00000000000E+00  0.00000000000E+00  0.35740347158E-01  0.35744000000E-01  0.51099999109E-03 0. -1.
       11   -1    0    0    0    0 -0.00000000000E+00 -0.00000000000E+00 -0.35740347158E-01  0.35744000000E-01  0.51099999109E-03 0.  1.
       22    1    1    2    0    0 -0.53634697446E-02  0.79551946095E-02  0.34425014973E-01  0.35737005818E-01  0.00000000000E+00 0. -1.
  9000001    1    1    2    0    0  0.53634697446E-02 -0.79551946095E-02 -0.34425014973E-01  0.35750994182E-01  0.10000000475E-02 0.  1.
</event>
<event>
 4   0  0.2441219E-02  0.9118800E+02  0.7818609E-02  0.1379984E+01
      -11   -1    0    0    0    0  0.00000000000E+00  0.00000000000E+00  0.35740347158E-01  0.35744000000E-01  0.51099999109E-03 0.  1.
       11   -1    0    0    0    0 -0.00000000000E+00 -0.00000000000E+00 -0.35740347158E-01  0.35744000000E-01  0.51099999109E-03 0. -1.
       22    1    1    2    0    0 -0.98062344636E-02  0.14684146526E-02 -0.34333876986E-01  0.35737005818E-01  0.00000000000E+00 0. -1.
  9000001    1    1    2    0    0  0.98062344636E-02 -0.14684146526E-02  0.34333876986E-01  0.35750994182E-01  0.10000000475E-02 0.  1.
</event>
<event>
 4   0  0.2441219E-02  0.9118800E+02  0.7818609E-02  0.1379984E+01
      -11   -1    0    0    0    0  0.00000000000E+00  0.00000000000E+00  0.35740347158E-01  0.35744000000E-01  0.51099999109E-03 0. -1.
       11   -1    0    0    0    0 -0.00000000000E+00 -0.00000000000E+00 -0.35740347158E-01  0.35744000000E-01  0.51099999109E-03 0.  1.
       22    1    1    2    0    0  0.35266798991E-01  0.24018155765E-02  0.52552598170E-02  0.35737005818E-01  0.00000000000E+00 0. -1.
  9000001    1    1    2    0    0 -0.35266798991E-01 -0.24018155765E-02 -0.52552598170E-02  0.35750994182E-01  0.10000000475E-02 0.  1.
</event>
<event>
 4   0  0.2441219E-02  0.9118800E+02  0.7818609E-02  0.1379984E+01
      -11   -1    0    0    0    0  0.00000000000E+00  0.00000000000E+00  0.35740347158E-01  0.35744000000E-01  0.51099999109E-03 0.  1.
       11   -1    0    0    0    0 -0.00000000000E+00 -0.00000000000E+00 -0.35740347158E-01  0.35744000000E-01  0.51099999109E-03 0. -1.
       22    1    1    2    0    0  0.74998248011E-03 -0.16456340601E-01  0.31713718880E-01  0.35737005818E-01  0.00000000000E+00 0.  1.
  9000001    1    1    2    0    0 -0.74998248011E-03  0.16456340601E-01 -0.31713718880E-01  0.35750994182E-01  0.10000000475E-02 0. -1.
</event>
<event>
 4   0  0.2441219E-02  0.9118800E+02  0.7818609E-02  0.1379984E+01
      -11   -1    0    0    0    0  0.00000000000E+00  0.00000000000E+00  0.35740347158E-01  0.35744000000E-01  0.51099999109E-03 0.  1.
       11   -1    0    0    0    0 -0.00000000000E+00 -0.00000000000E+00 -0.35740347158E-01  0.35744000000E-01  0.51099999109E-03 0. -1.
       22    1    1    2    0    0  0.32709522075E-03  0.56079870192E-02 -0.35292734028E-01  0.35737005818E-01  0.00000000000E+00 0. -1.
  9000001    1    1    2    0    0 -0.32709522075E-03 -0.56079870192E-02  0.35292734028E-01  0.35750994182E-01  0.10000000475E-02 0.  1.
</event>
<event>
 4   0  0.2441219E-02  0.9118800E+02  0.7818609E-02  0.1379984E+01
      -11   -1    0    0    0    0  0.00000000000E+00  0.00000000000E+00  0.35740347158E-01  0.35744000000E-01  0.51099999109E-03 0. -1.
       11   -1    0    0    0    0 -0.00000000000E+00 -0.00000000000E+00 -0.35740347158E-01  0.35744000000E-01  0.51099999109E-03 0.  1.
       22    1    1    2    0    0  0.26207979028E-01 -0.19361877763E-01  0.14676277104E-01  0.35737005818E-01  0.00000000000E+00 0. -1.
  9000001    1    1    2    0    0 -0.26207979028E-01  0.19361877763E-01 -0.14676277104E-01  0.35750994182E-01  0.10000000475E-02 0.  1.
</event>
<event>
 4   0  0.2441219E-02  0.9118800E+02  0.7818609E-02  0.1379984E+01
      -11   -1    0    0    0    0  0.00000000000E+00  0.00000000000E+00  0.35740347158E-01  0.35744000000E-01  0.51099999109E-03 0. -1.
       11   -1    0    0    0    0 -0.00000000000E+00 -0.00000000000E+00 -0.35740347158E-01  0.35744000000E-01  0.51099999109E-03 0.  1.
       22    1    1    2    0    0 -0.11377977811E-02 -0.18937696947E-01 -0.30285353480E-01  0.35737005818E-01  0.00000000000E+00 0.  1.
  9000001    1    1    2    0    0  0.11377977811E-02  0.18937696947E-01  0.30285353480E-01  0.35750994182E-01  0.10000000475E-02 0. -1.
</event>
<event>
 4   0  0.2441219E-02  0.9118800E+02  0.7818609E-02  0.1379984E+01
      -11   -1    0    0    0    0  0.00000000000E+00  0.00000000000E+00  0.35740347158E-01  0.35744000000E-01  0.51099999109E-03 0. -1.
       11   -1    0    0    0    0 -0.00000000000E+00 -0.00000000000E+00 -0.35740347158E-01  0.35744000000E-01  0.51099999109E-03 0.  1.
       22    1    1    2    0    0 -0.20650745324E-01  0.11726904087E-01  0.26705056131E-01  0.35737005818E-01  0.00000000000E+00 0. -1.
  9000001    1    1    2    0    0  0.20650745324E-01 -0.11726904087E-01 -0.26705056131E-01  0.35750994182E-01  0.10000000475E-02 0.  1.
</event>
<event>
 4   0  0.2441219E-02  0.9118800E+02  0.7818609E-02  0.1379984E+01
      -11   -1    0    0    0    0  0.00000000000E+00  0.00000000000E+00  0.35740347158E-01  0.35744000000E-01  0.51099999109E-03 0. -1.
       11   -1    0    0    0    0 -0.00000000000E+00 -0.00000000000E+00 -0.35740347158E-01  0.35744000000E-01  0.51099999109E-03 0.  1.
       22    1    1    2    0    0  0.17374522304E-03  0.88769382123E-02 -0.34616518679E-01  0.35737005818E-01  0.00000000000E+00 0.  1.
  9000001    1    1    2    0    0 -0.17374522304E-03 -0.88769382123E-02  0.34616518679E-01  0.35750994182E-01  0.10000000475E-02 0. -1.
</event>
<event>
 4   0  0.2441219E-02  0.9118800E+02  0.7818609E-02  0.1379984E+01
      -11   -1    0    0    0    0  0.00000000000E+00  0.00000000000E+00  0.35740347158E-01  0.35744000000E-01  0.51099999109E-03 0.  1.
       11   -1    0    0    0    0 -0.00000000000E+00 -0.00000000000E+00 -0.35740347158E-01  0.35744000000E-01  0.51099999109E-03 0. -1.
       22    1    1    2    0    0 -0.75018024338E-02 -0.31941142052E-01 -0.14164038603E-01  0.35737005818E-01  0.00000000000E+00 0. -1.
  9000001    1    1    2    0    0  0.75018024338E-02  0.31941142052E-01  0.14164038603E-01  0.35750994182E-01  0.10000000475E-02 0.  1.
</event>
<event>
 4   0  0.2441219E-02  0.9118800E+02  0.7818609E-02  0.1379984E+01
      -11   -1    0    0    0    0  0.00000000000E+00  0.00000000000E+00  0.35740347158E-01  0.35744000000E-01  0.51099999109E-03 0. -1.
       11   -1    0    0    0    0 -0.00000000000E+00 -0.00000000000E+00 -0.35740347158E-01  0.35744000000E-01  0.51099999109E-03 0.  1.
       22    1    1    2    0    0  0.11052638230E-02 -0.34799411928E-02 -0.35549992771E-01  0.35737005818E-01  0.00000000000E+00 0.  1.
  9000001    1    1    2    0    0 -0.11052638230E-02  0.34799411928E-02  0.35549992771E-01  0.35750994182E-01  0.10000000475E-02 0. -1.
</event>
<event>
 4   0  0.2441219E-02  0.9118800E+02  0.7818609E-02  0.1379984E+01
      -11   -1    0    0    0    0  0.00000000000E+00  0.00000000000E+00  0.35740347158E-01  0.35744000000E-01  0.51099999109E-03 0.  1.
       11   -1    0    0    0    0 -0.00000000000E+00 -0.00000000000E+00 -0.35740347158E-01  0.35744000000E-01  0.51099999109E-03 0. -1.
       22    1    1    2    0    0 -0.22249865546E-01  0.43792845027E-02  0.27620625179E-01  0.35737005818E-01  0.00000000000E+00 0.  1.
  9000001    1    1    2    0    0  0.22249865546E-01 -0.43792845027E-02 -0.27620625179E-01  0.35750994182E-01  0.10000000475E-02 0. -1.
</event>
<event>
 4   0  0.2441219E-02  0.9118800E+02  0.7818609E-02  0.1379984E+01
      -11   -1    0    0    0    0  0.00000000000E+00  0.00000000000E+00  0.35740347158E-01  0.35744000000E-01  0.51099999109E-03 0. -1.
       11   -1    0    0    0    0 -0.00000000000E+00 -0.00000000000E+00 -0.35740347158E-01  0.35744000000E-01  0.51099999109E-03 0.  1.
       22    1    1    2    0    0 -0.21635021919E-04 -0.46111675596E-02 -0.35438259700E-01  0.35737005818E-01  0.00000000000E+00 0.  1.
  9000001    1    1    2    0    0  0.21635021919E-04  0.46111675596E-02  0.35438259700E-01  0.35750994182E-01  0.10000000475E-02 0. -1.
</event>
<event>
 4   0  0.2441219E-02  0.9118800E+02  0.7818609E-02  0.1379984E+01
      -11   -1    0    0    0    0  0.00000000000E+00  0.00000000000E+00  0.35740347158E-01  0.35744000000E-01  0.51099999109E-03 0. -1.
       11   -1    0    0    0    0 -0.00000000000E+00 -0.00000000000E+00 -0.35740347158E-01  0.35744000000E-01  0.51099999109E-03 0.  1.
       22    1    1    2    0    0 -0.11970763118E-02 -0.88815149602E-02 -0.34595076025E-01  0.35737005818E-01  0.00000000000E+00 0.  1.
  9000001    1    1    2    0    0  0.11970763118E-02  0.88815149602E-02  0.34595076025E-01  0.35750994182E-01  0.10000000475E-02 0. -1.
</event>
<event>
 4   0  0.2441219E-02  0.9118800E+02  0.7818609E-02  0.1379984E+01
      -11   -1    0    0    0    0  0.00000000000E+00  0.00000000000E+00  0.35740347158E-01  0.35744000000E-01  0.51099999109E-03 0. -1.
       11   -1    0    0    0    0 -0.00000000000E+00 -0.00000000000E+00 -0.35740347158E-01  0.35744000000E-01  0.51099999109E-03 0.  1.
       22    1    1    2    0    0 -0.59646641046E-02 -0.12356569321E-02 -0.35214052862E-01  0.35737005818E-01  0.00000000000E+00 0.  1.
  9000001    1    1    2    0    0  0.59646641046E-02  0.12356569321E-02  0.35214052862E-01  0.35750994182E-01  0.10000000475E-02 0. -1.
</event>
<event>
 4   0  0.2441219E-02  0.9118800E+02  0.7818609E-02  0.1379984E+01
      -11   -1    0    0    0    0  0.00000000000E+00  0.00000000000E+00  0.35740347158E-01  0.35744000000E-01  0.51099999109E-03 0. -1.
       11   -1    0    0    0    0 -0.00000000000E+00 -0.00000000000E+00 -0.35740347158E-01  0.35744000000E-01  0.51099999109E-03 0.  1.
       22    1    1    2    0    0  0.30688572566E-01 -0.12892868482E-03  0.18311976303E-01  0.35737005818E-01  0.00000000000E+00 0. -1.
  9000001    1    1    2    0    0 -0.30688572566E-01  0.12892868482E-03 -0.18311976303E-01  0.35750994182E-01  0.10000000475E-02 0.  1.
</event>
<event>
 4   0  0.2441219E-02  0.9118800E+02  0.7818609E-02  0.1379984E+01
      -11   -1    0    0    0    0  0.00000000000E+00  0.00000000000E+00  0.35740347158E-01  0.35744000000E-01  0.51099999109E-03 0.  1.
       11   -1    0    0    0    0 -0.00000000000E+00 -0.00000000000E+00 -0.35740347158E-01  0.35744000000E-01  0.51099999109E-03 0. -1.
       22    1    1    2    0    0  0.32304438532E-02  0.47452310906E-03 -0.35587534969E-01  0.35737005818E-01  0.00000000000E+00 0. -1.
  9000001    1    1    2    0    0 -0.32304438532E-02 -0.47452310906E-03  0.35587534969E-01  0.35750994182E-01  0.10000000475E-02 0.  1.
</event>
<event>
 4   0  0.2441219E-02  0.9118800E+02  0.7818609E-02  0.1379984E+01
      -11   -1    0    0    0    0  0.00000000000E+00  0.00000000000E+00  0.35740347158E-01  0.35744000000E-01  0.51099999109E-03 0. -1.
       11   -1    0    0    0    0 -0.00000000000E+00 -0.00000000000E+00 -0.35740347158E-01  0.35744000000E-01  0.51099999109E-03 0.  1.
       22    1    1    2    0    0 -0.97253967163E-02  0.55373296803E-02  0.33939478835E-01  0.35737005818E-01  0.00000000000E+00 0. -1.
  9000001    1    1    2    0    0  0.97253967163E-02 -0.55373296803E-02 -0.33939478835E-01  0.35750994182E-01  0.10000000475E-02 0.  1.
</event>
<event>
 4   0  0.2441219E-02  0.9118800E+02  0.7818609E-02  0.1379984E+01
      -11   -1    0    0    0    0  0.00000000000E+00  0.00000000000E+00  0.35740347158E-01  0.35744000000E-01  0.51099999109E-03 0.  1.
       11   -1    0    0    0    0 -0.00000000000E+00 -0.00000000000E+00 -0.35740347158E-01  0.35744000000E-01  0.51099999109E-03 0. -1.
       22    1    1    2    0    0  0.76735527106E-02 -0.28219057335E-02  0.34789179664E-01  0.35737005818E-01  0.00000000000E+00 0.  1.
  9000001    1    1    2    0    0 -0.76735527106E-02  0.28219057335E-02 -0.34789179664E-01  0.35750994182E-01  0.10000000475E-02 0. -1.
</event>
<event>
 4   0  0.2441219E-02  0.9118800E+02  0.7818609E-02  0.1379984E+01
      -11   -1    0    0    0    0  0.00000000000E+00  0.00000000000E+00  0.35740347158E-01  0.35744000000E-01  0.51099999109E-03 0. -1.
       11   -1    0    0    0    0 -0.00000000000E+00 -0.00000000000E+00 -0.35740347158E-01  0.35744000000E-01  0.51099999109E-03 0.  1.
       22    1    1    2    0    0  0.55492352821E-02 -0.10169040323E-01  0.33807250577E-01  0.35737005818E-01  0.00000000000E+00 0. -1.
  9000001    1    1    2    0    0 -0.55492352821E-02  0.10169040323E-01 -0.33807250577E-01  0.35750994182E-01  0.10000000475E-02 0.  1.
</event>
<event>
 4   0  0.2441219E-02  0.9118800E+02  0.7818609E-02  0.1379984E+01
      -11   -1    0    0    0    0  0.00000000000E+00  0.00000000000E+00  0.35740347158E-01  0.35744000000E-01  0.51099999109E-03 0. -1.
       11   -1    0    0    0    0 -0.00000000000E+00 -0.00000000000E+00 -0.35740347158E-01  0.35744000000E-01  0.51099999109E-03 0.  1.
       22    1    1    2    0    0  0.20931095496E-01  0.25158349894E-01 -0.14355495701E-01  0.35737005818E-01  0.00000000000E+00 0.  1.
  9000001    1    1    2    0    0 -0.20931095496E-01 -0.25158349894E-01  0.14355495701E-01  0.35750994182E-01  0.10000000475E-02 0. -1.
</event>
<event>
 4   0  0.2441219E-02  0.9118800E+02  0.7818609E-02  0.1379984E+01
      -11   -1    0    0    0    0  0.00000000000E+00  0.00000000000E+00  0.35740347158E-01  0.35744000000E-01  0.51099999109E-03 0. -1.
       11   -1    0    0    0    0 -0.00000000000E+00 -0.00000000000E+00 -0.35740347158E-01  0.35744000000E-01  0.51099999109E-03 0.  1.
       22    1    1    2    0    0  0.95258846876E-02 -0.60675466211E-02  0.33905397561E-01  0.35737005818E-01  0.00000000000E+00 0. -1.
  9000001    1    1    2    0    0 -0.95258846876E-02  0.60675466211E-02 -0.33905397561E-01  0.35750994182E-01  0.10000000475E-02 0.  1.
</event>
<event>
 4   0  0.2441219E-02  0.9118800E+02  0.7818609E-02  0.1379984E+01
      -11   -1    0    0    0    0  0.00000000000E+00  0.00000000000E+00  0.35740347158E-01  0.35744000000E-01  0.51099999109E-03 0.  1.
       11   -1    0    0    0    0 -0.00000000000E+00 -0.00000000000E+00 -0.35740347158E-01  0.35744000000E-01  0.51099999109E-03 0. -1.
       22    1    1    2    0    0 -0.27764785480E-01 -0.69360926123E-02  0.21404226017E-01  0.35737005818E-01  0.00000000000E+00 0.  1.
  9000001    1    1    2    0    0  0.27764785480E-01  0.69360926123E-02 -0.21404226017E-01  0.35750994182E-01  0.10000000475E-02 0. -1.
</event>
<event>
 4   0  0.2441219E-02  0.9118800E+02  0.7818609E-02  0.1379984E+01
      -11   -1    0    0    0    0  0.00000000000E+00  0.00000000000E+00  0.35740347158E-01  0.35744000000E-01  0.51099999109E-03 0. -1.
       11   -1    0    0    0    0 -0.00000000000E+00 -0.00000000000E+00 -0.35740347158E-01  0.35744000000E-01  0.51099999109E-03 0.  1.
       22    1    1    2    0    0  0.16494164592E-01  0.23376906913E-02 -0.31616630458E-01  0.35737005818E-01  0.00000000000E+00 0.  1.
  9000001    1    1    2    0    0 -0.16494164592E-01 -0.23376906913E-02  0.31616630458E-01  0.35750994182E-01  0.10000000475E-02 0. -1.
</event>
<event>
 4   0  0.2441219E-02  0.9118800E+02  0.7818609E-02  0.1379984E+01
      -11   -1    0    0    0    0  0.00000000000E+00  0.00000000000E+00  0.35740347158E-01  0.35744000000E-01  0.51099999109E-03 0.  1.
       11   -1    0    0    0    0 -0.00000000000E+00 -0.00000000000E+00 -0.35740347158E-01  0.35744000000E-01  0.51099999109E-03 0. -1.
       22    1    1    2    0    0 -0.65851293301E-02  0.91260002767E-02 -0.33918811529E-01  0.35737005818E-01  0.00000000000E+00 0. -1.
  9000001    1    1    2    0    0  0.65851293301E-02 -0.91260002767E-02  0.33918811529E-01  0.35750994182E-01  0.10000000475E-02 0.  1.
</event>
<event>
 4   0  0.2441219E-02  0.9118800E+02  0.7818609E-02  0.1379984E+01
      -11   -1    0    0    0    0  0.00000000000E+00  0.00000000000E+00  0.35740347158E-01  0.35744000000E-01  0.51099999109E-03 0. -1.
       11   -1    0    0    0    0 -0.00000000000E+00 -0.00000000000E+00 -0.35740347158E-01  0.35744000000E-01  0.51099999109E-03 0.  1.
       22    1    1    2    0    0 -0.28322424813E-01  0.13457488575E-01 -0.17142632203E-01  0.35737005818E-01  0.00000000000E+00 0.  1.
  9000001    1    1    2    0    0  0.28322424813E-01 -0.13457488575E-01  0.17142632203E-01  0.35750994182E-01  0.10000000475E-02 0. -1.
</event>
<event>
 4   0  0.2441219E-02  0.9118800E+02  0.7818609E-02  0.1379984E+01
      -11   -1    0    0    0    0  0.00000000000E+00  0.00000000000E+00  0.35740347158E-01  0.35744000000E-01  0.51099999109E-03 0. -1.
       11   -1    0    0    0    0 -0.00000000000E+00 -0.00000000000E+00 -0.35740347158E-01  0.35744000000E-01  0.51099999109E-03 0.  1.
       22    1    1    2    0    0 -0.23738321047E-02 -0.27916211556E-02 -0.35548633692E-01  0.35737005818E-01  0.00000000000E+00 0.  1.
  9000001    1    1    2    0    0  0.23738321047E-02  0.27916211556E-02  0.35548633692E-01  0.35750994182E-01  0.10000000475E-02 0. -1.
</event>
<event>
 4   0  0.2441219E-02  0.9118800E+02  0.7818609E-02  0.1379984E+01
      -11   -1    0    0    0    0  0.00000000000E+00  0.00000000000E+00  0.35740347158E-01  0.35744000000E-01  0.51099999109E-03 0. -1.
       11   -1    0    0    0    0 -0.00000000000E+00 -0.00000000000E+00 -0.35740347158E-01  0.35744000000E-01  0.51099999109E-03 0.  1.
       22    1    1    2    0    0  0.14924138316E-01  0.64120864739E-02 -0.31832197968E-01  0.35737005818E-01  0.00000000000E+00 0.  1.
  9000001    1    1    2    0    0 -0.14924138316E-01 -0.64120864739E-02  0.31832197968E-01  0.35750994182E-01  0.10000000475E-02 0. -1.
</event>
<event>
 4   0  0.2441219E-02  0.9118800E+02  0.7818609E-02  0.1379984E+01
      -11   -1    0    0    0    0  0.00000000000E+00  0.00000000000E+00  0.35740347158E-01  0.35744000000E-01  0.51099999109E-03 0. -1.
       11   -1    0    0    0    0 -0.00000000000E+00 -0.00000000000E+00 -0.35740347158E-01  0.35744000000E-01  0.51099999109E-03 0.  1.
       22    1    1    2    0    0  0.11145604271E-02  0.61898688629E-02 -0.35179210670E-01  0.35737005818E-01  0.00000000000E+00 0.  1.
  9000001    1    1    2    0    0 -0.11145604271E-02 -0.61898688629E-02  0.35179210670E-01  0.35750994182E-01  0.10000000475E-02 0. -1.
</event>
<event>
 4   0  0.2441219E-02  0.9118800E+02  0.7818609E-02  0.1379984E+01
      -11   -1    0    0    0    0  0.00000000000E+00  0.00000000000E+00  0.35740347158E-01  0.35744000000E-01  0.51099999109E-03 0. -1.
       11   -1    0    0    0    0 -0.00000000000E+00 -0.00000000000E+00 -0.35740347158E-01  0.35744000000E-01  0.51099999109E-03 0.  1.
       22    1    1    2    0    0  0.10233451271E-01  0.41111225790E-02  0.33992774690E-01  0.35737005818E-01  0.00000000000E+00 0. -1.
  9000001    1    1    2    0    0 -0.10233451271E-01 -0.41111225790E-02 -0.33992774690E-01  0.35750994182E-01  0.10000000475E-02 0.  1.
</event>
<event>
 4   0  0.2441219E-02  0.9118800E+02  0.7818609E-02  0.1379984E+01
      -11   -1    0    0    0    0  0.00000000000E+00  0.00000000000E+00  0.35740347158E-01  0.35744000000E-01  0.51099999109E-03 0. -1.
       11   -1    0    0    0    0 -0.00000000000E+00 -0.00000000000E+00 -0.35740347158E-01  0.35744000000E-01  0.51099999109E-03 0.  1.
       22    1    1    2    0    0  0.22503983392E-01 -0.19131769250E-01  0.20116652846E-01  0.35737005818E-01  0.00000000000E+00 0. -1.
  9000001    1    1    2    0    0 -0.22503983392E-01  0.19131769250E-01 -0.20116652846E-01  0.35750994182E-01  0.10000000475E-02 0.  1.
</event>
<event>
 4   0  0.2441219E-02  0.9118800E+02  0.7818609E-02  0.1379984E+01
      -11   -1    0    0    0    0  0.00000000000E+00  0.00000000000E+00  0.35740347158E-01  0.35744000000E-01  0.51099999109E-03 0. -1.
       11   -1    0    0    0    0 -0.00000000000E+00 -0.00000000000E+00 -0.35740347158E-01  0.35744000000E-01  0.51099999109E-03 0.  1.
       22    1    1    2    0    0 -0.19879699794E-01  0.51894113128E-02  0.29240402377E-01  0.35737005818E-01  0.00000000000E+00 0. -1.
  9000001    1    1    2    0    0  0.19879699794E-01 -0.51894113128E-02 -0.29240402377E-01  0.35750994182E-01  0.10000000475E-02 0.  1.
</event>
<event>
 4   0  0.2441219E-02  0.9118800E+02  0.7818609E-02  0.1379984E+01
      -11   -1    0    0    0    0  0.00000000000E+00  0.00000000000E+00  0.35740347158E-01  0.35744000000E-01  0.51099999109E-03 0. -1.
       11   -1    0    0    0    0 -0.00000000000E+00 -0.00000000000E+00 -0.35740347158E-01  0.35744000000E-01  0.51099999109E-03 0.  1.
       22    1    1    2    0    0 -0.86717669571E-03  0.37717686412E-02  0.35526825791E-01  0.35737005818E-01  0.00000000000E+00 0. -1.
  9000001    1    1    2    0    0  0.86717669571E-03 -0.37717686412E-02 -0.35526825791E-01  0.35750994182E-01  0.10000000475E-02 0.  1.
</event>
<event>
 4   0  0.2441219E-02  0.9118800E+02  0.7818609E-02  0.1379984E+01
      -11   -1    0    0    0    0  0.00000000000E+00  0.00000000000E+00  0.35740347158E-01  0.35744000000E-01  0.51099999109E-03 0. -1.
       11   -1    0    0    0    0 -0.00000000000E+00 -0.00000000000E+00 -0.35740347158E-01  0.35744000000E-01  0.51099999109E-03 0.  1.
       22    1    1    2    0    0 -0.16960080616E-01 -0.27325002259E-02 -0.31337241309E-01  0.35737005818E-01  0.00000000000E+00 0.  1.
  9000001    1    1    2    0    0  0.16960080616E-01  0.27325002259E-02  0.31337241309E-01  0.35750994182E-01  0.10000000475E-02 0. -1.
</event>
<event>
 4   0  0.2441219E-02  0.9118800E+02  0.7818609E-02  0.1379984E+01
      -11   -1    0    0    0    0  0.00000000000E+00  0.00000000000E+00  0.35740347158E-01  0.35744000000E-01  0.51099999109E-03 0. -1.
       11   -1    0    0    0    0 -0.00000000000E+00 -0.00000000000E+00 -0.35740347158E-01  0.35744000000E-01  0.51099999109E-03 0.  1.
       22    1    1    2    0    0  0.13432087610E-01 -0.81498685397E-02 -0.32098165837E-01  0.35737005818E-01  0.00000000000E+00 0.  1.
  9000001    1    1    2    0    0 -0.13432087610E-01  0.81498685397E-02  0.32098165837E-01  0.35750994182E-01  0.10000000475E-02 0. -1.
</event>
<event>
 4   0  0.2441219E-02  0.9118800E+02  0.7818609E-02  0.1379984E+01
      -11   -1    0    0    0    0  0.00000000000E+00  0.00000000000E+00  0.35740347158E-01  0.35744000000E-01  0.51099999109E-03 0.  1.
       11   -1    0    0    0    0 -0.00000000000E+00 -0.00000000000E+00 -0.35740347158E-01  0.35744000000E-01  0.51099999109E-03 0. -1.
       22    1    1    2    0    0 -0.24553354026E-01 -0.20352930519E-01  0.16125278609E-01  0.35737005818E-01  0.00000000000E+00 0.  1.
  9000001    1    1    2    0    0  0.24553354026E-01  0.20352930519E-01 -0.16125278609E-01  0.35750994182E-01  0.10000000475E-02 0. -1.
</event>
<event>
 4   0  0.2441219E-02  0.9118800E+02  0.7818609E-02  0.1379984E+01
      -11   -1    0    0    0    0  0.00000000000E+00  0.00000000000E+00  0.35740347158E-01  0.35744000000E-01  0.51099999109E-03 0. -1.
       11   -1    0    0    0    0 -0.00000000000E+00 -0.00000000000E+00 -0.35740347158E-01  0.35744000000E-01  0.51099999109E-03 0.  1.
       22    1    1    2    0    0 -0.51736958468E-02 -0.39773595441E-02  0.35136121972E-01  0.35737005818E-01  0.00000000000E+00 0. -1.
  9000001    1    1    2    0    0  0.51736958468E-02  0.39773595441E-02 -0.35136121972E-01  0.35750994182E-01  0.10000000475E-02 0.  1.
</event>
<event>
 4   0  0.2441219E-02  0.9118800E+02  0.7818609E-02  0.1379984E+01
      -11   -1    0    0    0    0  0.00000000000E+00  0.00000000000E+00  0.35740347158E-01  0.35744000000E-01  0.51099999109E-03 0. -1.
       11   -1    0    0    0    0 -0.00000000000E+00 -0.00000000000E+00 -0.35740347158E-01  0.35744000000E-01  0.51099999109E-03 0.  1.
       22    1    1    2    0    0  0.22997499235E-01 -0.17903233527E-01 -0.20681461339E-01  0.35737005818E-01  0.00000000000E+00 0.  1.
  9000001    1    1    2    0    0 -0.22997499235E-01  0.17903233527E-01  0.20681461339E-01  0.35750994182E-01  0.10000000475E-02 0. -1.
</event>
<event>
 4   0  0.2441219E-02  0.9118800E+02  0.7818609E-02  0.1379984E+01
      -11   -1    0    0    0    0  0.00000000000E+00  0.00000000000E+00  0.35740347158E-01  0.35744000000E-01  0.51099999109E-03 0. -1.
       11   -1    0    0    0    0 -0.00000000000E+00 -0.00000000000E+00 -0.35740347158E-01  0.35744000000E-01  0.51099999109E-03 0.  1.
       22    1    1    2    0    0 -0.14430122378E-03 -0.15409268960E-01  0.32243870613E-01  0.35737005818E-01  0.00000000000E+00 0. -1.
  9000001    1    1    2    0    0  0.14430122378E-03  0.15409268960E-01 -0.32243870613E-01  0.35750994182E-01  0.10000000475E-02 0.  1.
</event>
<event>
 4   0  0.2441219E-02  0.9118800E+02  0.7818609E-02  0.1379984E+01
      -11   -1    0    0    0    0  0.00000000000E+00  0.00000000000E+00  0.35740347158E-01  0.35744000000E-01  0.51099999109E-03 0.  1.
       11   -1    0    0    0    0 -0.00000000000E+00 -0.00000000000E+00 -0.35740347158E-01  0.35744000000E-01  0.51099999109E-03 0. -1.
       22    1    1    2    0    0  0.53605491299E-02  0.17449621566E-01 -0.30723098885E-01  0.35737005818E-01  0.00000000000E+00 0. -1.
  9000001    1    1    2    0    0 -0.53605491299E-02 -0.17449621566E-01  0.30723098885E-01  0.35750994182E-01  0.10000000475E-02 0.  1.
</event>
<event>
 4   0  0.2441219E-02  0.9118800E+02  0.7818609E-02  0.1379984E+01
      -11   -1    0    0    0    0  0.00000000000E+00  0.00000000000E+00  0.35740347158E-01  0.35744000000E-01  0.51099999109E-03 0. -1.
       11   -1    0    0    0    0 -0.00000000000E+00 -0.00000000000E+00 -0.35740347158E-01  0.35744000000E-01  0.51099999109E-03 0.  1.
       22    1    1    2    0    0  0.32338232524E-02  0.12645767453E-02 -0.35567918377E-01  0.35737005818E-01  0.00000000000E+00 0.  1.
  9000001    1    1    2    0    0 -0.32338232524E-02 -0.12645767453E-02  0.35567918377E-01  0.35750994182E-01  0.10000000475E-02 0. -1.
</event>
<event>
 4   0  0.2441219E-02  0.9118800E+02  0.7818609E-02  0.1379984E+01
      -11   -1    0    0    0    0  0.00000000000E+00  0.00000000000E+00  0.35740347158E-01  0.35744000000E-01  0.51099999109E-03 0.  1.
       11   -1    0    0    0    0 -0.00000000000E+00 -0.00000000000E+00 -0.35740347158E-01  0.35744000000E-01  0.51099999109E-03 0. -1.
       22    1    1    2    0    0 -0.86433140704E-02  0.25763643643E-01 -0.23209079537E-01  0.35737005818E-01  0.00000000000E+00 0.  1.
  9000001    1    1    2    0    0  0.86433140704E-02 -0.25763643643E-01  0.23209079537E-01  0.35750994182E-01  0.10000000475E-02 0. -1.
</event>
<event>
 4   0  0.2441219E-02  0.9118800E+02  0.7818609E-02  0.1379984E+01
      -11   -1    0    0    0    0  0.00000000000E+00  0.00000000000E+00  0.35740347158E-01  0.35744000000E-01  0.51099999109E-03 0. -1.
       11   -1    0    0    0    0 -0.00000000000E+00 -0.00000000000E+00 -0.35740347158E-01  0.35744000000E-01  0.51099999109E-03 0.  1.
       22    1    1    2    0    0  0.35881281293E-02 -0.75025449630E-03  0.35548502635E-01  0.35737005818E-01  0.00000000000E+00 0. -1.
  9000001    1    1    2    0    0 -0.35881281293E-02  0.75025449630E-03 -0.35548502635E-01  0.35750994182E-01  0.10000000475E-02 0.  1.
</event>
<event>
 4   0  0.2441219E-02  0.9118800E+02  0.7818609E-02  0.1379984E+01
      -11   -1    0    0    0    0  0.00000000000E+00  0.00000000000E+00  0.35740347158E-01  0.35744000000E-01  0.51099999109E-03 0. -1.
       11   -1    0    0    0    0 -0.00000000000E+00 -0.00000000000E+00 -0.35740347158E-01  0.35744000000E-01  0.51099999109E-03 0.  1.
       22    1    1    2    0    0  0.69524393926E-02 -0.81690002379E-02 -0.34089068724E-01  0.35737005818E-01  0.00000000000E+00 0.  1.
  9000001    1    1    2    0    0 -0.69524393926E-02  0.81690002379E-02  0.34089068724E-01  0.35750994182E-01  0.10000000475E-02 0. -1.
</event>
<event>
 4   0  0.2441219E-02  0.9118800E+02  0.7818609E-02  0.1379984E+01
      -11   -1    0    0    0    0  0.00000000000E+00  0.00000000000E+00  0.35740347158E-01  0.35744000000E-01  0.51099999109E-03 0.  1.
       11   -1    0    0    0    0 -0.00000000000E+00 -0.00000000000E+00 -0.35740347158E-01  0.35744000000E-01  0.51099999109E-03 0. -1.
       22    1    1    2    0    0 -0.14505721083E-01 -0.35742772089E-02 -0.32464475710E-01  0.35737005818E-01  0.00000000000E+00 0. -1.
  9000001    1    1    2    0    0  0.14505721083E-01  0.35742772089E-02  0.32464475710E-01  0.35750994182E-01  0.10000000475E-02 0.  1.
</event>
<event>
 4   0  0.2441219E-02  0.9118800E+02  0.7818609E-02  0.1379984E+01
      -11   -1    0    0    0    0  0.00000000000E+00  0.00000000000E+00  0.35740347158E-01  0.35744000000E-01  0.51099999109E-03 0. -1.
       11   -1    0    0    0    0 -0.00000000000E+00 -0.00000000000E+00 -0.35740347158E-01  0.35744000000E-01  0.51099999109E-03 0.  1.
       22    1    1    2    0    0 -0.19723009653E-01 -0.83409004023E-02 -0.28610589920E-01  0.35737005818E-01  0.00000000000E+00 0.  1.
  9000001    1    1    2    0    0  0.19723009653E-01  0.83409004023E-02  0.28610589920E-01  0.35750994182E-01  0.10000000475E-02 0. -1.
</event>
<event>
 4   0  0.2441219E-02  0.9118800E+02  0.7818609E-02  0.1379984E+01
      -11   -1    0    0    0    0  0.00000000000E+00  0.00000000000E+00  0.35740347158E-01  0.35744000000E-01  0.51099999109E-03 0. -1.
       11   -1    0    0    0    0 -0.00000000000E+00 -0.00000000000E+00 -0.35740347158E-01  0.35744000000E-01  0.51099999109E-03 0.  1.
       22    1    1    2    0    0 -0.98188874755E-02  0.12025159347E-01 -0.32188795819E-01  0.35737005818E-01  0.00000000000E+00 0.  1.
  9000001    1    1    2    0    0  0.98188874755E-02 -0.12025159347E-01  0.32188795819E-01  0.35750994182E-01  0.10000000475E-02 0. -1.
</event>
<event>
 4   0  0.2441219E-02  0.9118800E+02  0.7818609E-02  0.1379984E+01
      -11   -1    0    0    0    0  0.00000000000E+00  0.00000000000E+00  0.35740347158E-01  0.35744000000E-01  0.51099999109E-03 0. -1.
       11   -1    0    0    0    0 -0.00000000000E+00 -0.00000000000E+00 -0.35740347158E-01  0.35744000000E-01  0.51099999109E-03 0.  1.
       22    1    1    2    0    0  0.22540906656E-01 -0.25296644340E-01 -0.11363137644E-01  0.35737005818E-01  0.00000000000E+00 0.  1.
  9000001    1    1    2    0    0 -0.22540906656E-01  0.25296644340E-01  0.11363137644E-01  0.35750994182E-01  0.10000000475E-02 0. -1.
</event>
<event>
 4   0  0.2441219E-02  0.9118800E+02  0.7818609E-02  0.1379984E+01
      -11   -1    0    0    0    0  0.00000000000E+00  0.00000000000E+00  0.35740347158E-01  0.35744000000E-01  0.51099999109E-03 0.  1.
       11   -1    0    0    0    0 -0.00000000000E+00 -0.00000000000E+00 -0.35740347158E-01  0.35744000000E-01  0.51099999109E-03 0. -1.
       22    1    1    2    0    0 -0.11674222209E-01  0.14637422552E-02  0.33744682237E-01  0.35737005818E-01  0.00000000000E+00 0.  1.
  9000001    1    1    2    0    0  0.11674222209E-01 -0.14637422552E-02 -0.33744682237E-01  0.35750994182E-01  0.10000000475E-02 0. -1.
</event>
<event>
 4   0  0.2441219E-02  0.9118800E+02  0.7818609E-02  0.1379984E+01
      -11   -1    0    0    0    0  0.00000000000E+00  0.00000000000E+00  0.35740347158E-01  0.35744000000E-01  0.51099999109E-03 0. -1.
       11   -1    0    0    0    0 -0.00000000000E+00 -0.00000000000E+00 -0.35740347158E-01  0.35744000000E-01  0.51099999109E-03 0.  1.
       22    1    1    2    0    0 -0.27376191477E-01  0.20221255280E-01 -0.10898557701E-01  0.35737005818E-01  0.00000000000E+00 0. -1.
  9000001    1    1    2    0    0  0.27376191477E-01 -0.20221255280E-01  0.10898557701E-01  0.35750994182E-01  0.10000000475E-02 0.  1.
</event>
<event>
 4   0  0.2441219E-02  0.9118800E+02  0.7818609E-02  0.1379984E+01
      -11   -1    0    0    0    0  0.00000000000E+00  0.00000000000E+00  0.35740347158E-01  0.35744000000E-01  0.51099999109E-03 0.  1.
       11   -1    0    0    0    0 -0.00000000000E+00 -0.00000000000E+00 -0.35740347158E-01  0.35744000000E-01  0.51099999109E-03 0. -1.
       22    1    1    2    0    0  0.83286662615E-02 -0.41811123198E-02 -0.34500510184E-01  0.35737005818E-01  0.00000000000E+00 0. -1.
  9000001    1    1    2    0    0 -0.83286662615E-02  0.41811123198E-02  0.34500510184E-01  0.35750994182E-01  0.10000000475E-02 0.  1.
</event>
<event>
 4   0  0.2441219E-02  0.9118800E+02  0.7818609E-02  0.1379984E+01
      -11   -1    0    0    0    0  0.00000000000E+00  0.00000000000E+00  0.35740347158E-01  0.35744000000E-01  0.51099999109E-03 0.  1.
       11   -1    0    0    0    0 -0.00000000000E+00 -0.00000000000E+00 -0.35740347158E-01  0.35744000000E-01  0.51099999109E-03 0. -1.
       22    1    1    2    0    0  0.12048734258E-02 -0.37256278822E-02 -0.35521846261E-01  0.35737005818E-01  0.00000000000E+00 0. -1.
  9000001    1    1    2    0    0 -0.12048734258E-02  0.37256278822E-02  0.35521846261E-01  0.35750994182E-01  0.10000000475E-02 0.  1.
</event>
<event>
 4   0  0.2441219E-02  0.9118800E+02  0.7818609E-02  0.1379984E+01
      -11   -1    0    0    0    0  0.00000000000E+00  0.00000000000E+00  0.35740347158E-01  0.35744000000E-01  0.51099999109E-03 0.  1.
       11   -1    0    0    0    0 -0.00000000000E+00 -0.00000000000E+00 -0.35740347158E-01  0.35744000000E-01  0.51099999109E-03 0. -1.
       22    1    1    2    0    0 -0.73115780084E-02 -0.70397093961E-02  0.34265389295E-01  0.35737005818E-01  0.00000000000E+00 0.  1.
  9000001    1    1    2    0    0  0.73115780084E-02  0.70397093961E-02 -0.34265389295E-01  0.35750994182E-01  0.10000000475E-02 0. -1.
</event>
<event>
 4   0  0.2441219E-02  0.9118800E+02  0.7818609E-02  0.1379984E+01
      -11   -1    0    0    0    0  0.00000000000E+00  0.00000000000E+00  0.35740347158E-01  0.35744000000E-01  0.51099999109E-03 0. -1.
       11   -1    0    0    0    0 -0.00000000000E+00 -0.00000000000E+00 -0.35740347158E-01  0.35744000000E-01  0.51099999109E-03 0.  1.
       22    1    1    2    0    0 -0.95115740765E-02  0.67198594797E-02  0.33786195880E-01  0.35737005818E-01  0.00000000000E+00 0. -1.
  9000001    1    1    2    0    0  0.95115740765E-02 -0.67198594797E-02 -0.33786195880E-01  0.35750994182E-01  0.10000000475E-02 0.  1.
</event>
<event>
 4   0  0.2441219E-02  0.9118800E+02  0.7818609E-02  0.1379984E+01
      -11   -1    0    0    0    0  0.00000000000E+00  0.00000000000E+00  0.35740347158E-01  0.35744000000E-01  0.51099999109E-03 0.  1.
       11   -1    0    0    0    0 -0.00000000000E+00 -0.00000000000E+00 -0.35740347158E-01  0.35744000000E-01  0.51099999109E-03 0. -1.
       22    1    1    2    0    0  0.30733873514E-01 -0.17276616565E-01  0.58379040540E-02  0.35737005818E-01  0.00000000000E+00 0.  1.
  9000001    1    1    2    0    0 -0.30733873514E-01  0.17276616565E-01 -0.58379040540E-02  0.35750994182E-01  0.10000000475E-02 0. -1.
</event>
<event>
 4   0  0.2441219E-02  0.9118800E+02  0.7818609E-02  0.1379984E+01
      -11   -1    0    0    0    0  0.00000000000E+00  0.00000000000E+00  0.35740347158E-01  0.35744000000E-01  0.51099999109E-03 0. -1.
       11   -1    0    0    0    0 -0.00000000000E+00 -0.00000000000E+00 -0.35740347158E-01  0.35744000000E-01  0.51099999109E-03 0.  1.
       22    1    1    2    0    0 -0.16645674932E-02 -0.36054036528E-02  0.35515684766E-01  0.35737005818E-01  0.00000000000E+00 0. -1.
  9000001    1    1    2    0    0  0.16645674932E-02  0.36054036528E-02 -0.35515684766E-01  0.35750994182E-01  0.10000000475E-02 0.  1.
</event>
<event>
 4   0  0.2441219E-02  0.9118800E+02  0.7818609E-02  0.1379984E+01
      -11   -1    0    0    0    0  0.00000000000E+00  0.00000000000E+00  0.35740347158E-01  0.35744000000E-01  0.51099999109E-03 0.  1.
       11   -1    0    0    0    0 -0.00000000000E+00 -0.00000000000E+00 -0.35740347158E-01  0.35744000000E-01  0.51099999109E-03 0. -1.
       22    1    1    2    0    0 -0.57453280957E-02 -0.81682372762E-02 -0.34313331079E-01  0.35737005818E-01  0.00000000000E+00 0. -1.
  9000001    1    1    2    0    0  0.57453280957E-02  0.81682372762E-02  0.34313331079E-01  0.35750994182E-01  0.10000000475E-02 0.  1.
</event>
<event>
 4   0  0.2441219E-02  0.9118800E+02  0.7818609E-02  0.1379984E+01
      -11   -1    0    0    0    0  0.00000000000E+00  0.00000000000E+00  0.35740347158E-01  0.35744000000E-01  0.51099999109E-03 0. -1.
       11   -1    0    0    0    0 -0.00000000000E+00 -0.00000000000E+00 -0.35740347158E-01  0.35744000000E-01  0.51099999109E-03 0.  1.
       22    1    1    2    0    0  0.32517482446E-02  0.21715175489E-02  0.35522446844E-01  0.35737005818E-01  0.00000000000E+00 0. -1.
  9000001    1    1    2    0    0 -0.32517482446E-02 -0.21715175489E-02 -0.35522446844E-01  0.35750994182E-01  0.10000000475E-02 0.  1.
</event>
<event>
 4   0  0.2441219E-02  0.9118800E+02  0.7818609E-02  0.1379984E+01
      -11   -1    0    0    0    0  0.00000000000E+00  0.00000000000E+00  0.35740347158E-01  0.35744000000E-01  0.51099999109E-03 0.  1.
       11   -1    0    0    0    0 -0.00000000000E+00 -0.00000000000E+00 -0.35740347158E-01  0.35744000000E-01  0.51099999109E-03 0. -1.
       22    1    1    2    0    0 -0.16104504996E-02  0.57850702173E-02 -0.35228865957E-01  0.35737005818E-01  0.00000000000E+00 0. -1.
  9000001    1    1    2    0    0  0.16104504996E-02 -0.57850702173E-02  0.35228865957E-01  0.35750994182E-01  0.10000000475E-02 0.  1.
</event>
<event>
 4   0  0.2441219E-02  0.9118800E+02  0.7818609E-02  0.1379984E+01
      -11   -1    0    0    0    0  0.00000000000E+00  0.00000000000E+00  0.35740347158E-01  0.35744000000E-01  0.51099999109E-03 0.  1.
       11   -1    0    0    0    0 -0.00000000000E+00 -0.00000000000E+00 -0.35740347158E-01  0.35744000000E-01  0.51099999109E-03 0. -1.
       22    1    1    2    0    0  0.21473813839E-01 -0.10823507860E-01  0.26435971359E-01  0.35737005818E-01  0.00000000000E+00 0.  1.
  9000001    1    1    2    0    0 -0.21473813839E-01  0.10823507860E-01 -0.26435971359E-01  0.35750994182E-01  0.10000000475E-02 0. -1.
</event>
<event>
 4   0  0.2441219E-02  0.9118800E+02  0.7818609E-02  0.1379984E+01
      -11   -1    0    0    0    0  0.00000000000E+00  0.00000000000E+00  0.35740347158E-01  0.35744000000E-01  0.51099999109E-03 0. -1.
       11   -1    0    0    0    0 -0.00000000000E+00 -0.00000000000E+00 -0.35740347158E-01  0.35744000000E-01  0.51099999109E-03 0.  1.
       22    1    1    2    0    0 -0.21861925850E-02  0.44430253060E-02  0.35392282676E-01  0.35737005818E-01  0.00000000000E+00 0. -1.
  9000001    1    1    2    0    0  0.21861925850E-02 -0.44430253060E-02 -0.35392282676E-01  0.35750994182E-01  0.10000000475E-02 0.  1.
</event>
<event>
 4   0  0.2441219E-02  0.9118800E+02  0.7818609E-02  0.1379984E+01
      -11   -1    0    0    0    0  0.00000000000E+00  0.00000000000E+00  0.35740347158E-01  0.35744000000E-01  0.51099999109E-03 0. -1.
       11   -1    0    0    0    0 -0.00000000000E+00 -0.00000000000E+00 -0.35740347158E-01  0.35744000000E-01  0.51099999109E-03 0.  1.
       22    1    1    2    0    0 -0.20965033656E-02  0.68343228649E-02 -0.35014715328E-01  0.35737005818E-01  0.00000000000E+00 0.  1.
  9000001    1    1    2    0    0  0.20965033656E-02 -0.68343228649E-02  0.35014715328E-01  0.35750994182E-01  0.10000000475E-02 0. -1.
</event>
<event>
 4   0  0.2441219E-02  0.9118800E+02  0.7818609E-02  0.1379984E+01
      -11   -1    0    0    0    0  0.00000000000E+00  0.00000000000E+00  0.35740347158E-01  0.35744000000E-01  0.51099999109E-03 0. -1.
       11   -1    0    0    0    0 -0.00000000000E+00 -0.00000000000E+00 -0.35740347158E-01  0.35744000000E-01  0.51099999109E-03 0.  1.
       22    1    1    2    0    0  0.30131887986E-01 -0.86899945899E-02  0.17137295741E-01  0.35737005818E-01  0.00000000000E+00 0. -1.
  9000001    1    1    2    0    0 -0.30131887986E-01  0.86899945899E-02 -0.17137295741E-01  0.35750994182E-01  0.10000000475E-02 0.  1.
</event>
<event>
 4   0  0.2441219E-02  0.9118800E+02  0.7818609E-02  0.1379984E+01
      -11   -1    0    0    0    0  0.00000000000E+00  0.00000000000E+00  0.35740347158E-01  0.35744000000E-01  0.51099999109E-03 0. -1.
       11   -1    0    0    0    0 -0.00000000000E+00 -0.00000000000E+00 -0.35740347158E-01  0.35744000000E-01  0.51099999109E-03 0.  1.
       22    1    1    2    0    0 -0.26790022334E-03  0.44240785142E-02  0.35461096199E-01  0.35737005818E-01  0.00000000000E+00 0. -1.
  9000001    1    1    2    0    0  0.26790022334E-03 -0.44240785142E-02 -0.35461096199E-01  0.35750994182E-01  0.10000000475E-02 0.  1.
</event>
<event>
 4   0  0.2441219E-02  0.9118800E+02  0.7818609E-02  0.1379984E+01
      -11   -1    0    0    0    0  0.00000000000E+00  0.00000000000E+00  0.35740347158E-01  0.35744000000E-01  0.51099999109E-03 0.  1.
       11   -1    0    0    0    0 -0.00000000000E+00 -0.00000000000E+00 -0.35740347158E-01  0.35744000000E-01  0.51099999109E-03 0. -1.
       22    1    1    2    0    0 -0.48457980099E-02 -0.15878026664E-01  0.31647118286E-01  0.35737005818E-01  0.00000000000E+00 0.  1.
  9000001    1    1    2    0    0  0.48457980099E-02  0.15878026664E-01 -0.31647118286E-01  0.35750994182E-01  0.10000000475E-02 0. -1.
</event>
<event>
 4   0  0.2441219E-02  0.9118800E+02  0.7818609E-02  0.1379984E+01
      -11   -1    0    0    0    0  0.00000000000E+00  0.00000000000E+00  0.35740347158E-01  0.35744000000E-01  0.51099999109E-03 0.  1.
       11   -1    0    0    0    0 -0.00000000000E+00 -0.00000000000E+00 -0.35740347158E-01  0.35744000000E-01  0.51099999109E-03 0. -1.
       22    1    1    2    0    0  0.20222880970E-02 -0.43522440212E-02 -0.35413301282E-01  0.35737005818E-01  0.00000000000E+00 0. -1.
  9000001    1    1    2    0    0 -0.20222880970E-02  0.43522440212E-02  0.35413301282E-01  0.35750994182E-01  0.10000000475E-02 0.  1.
</event>
<event>
 4   0  0.2441219E-02  0.9118800E+02  0.7818609E-02  0.1379984E+01
      -11   -1    0    0    0    0  0.00000000000E+00  0.00000000000E+00  0.35740347158E-01  0.35744000000E-01  0.51099999109E-03 0. -1.
       11   -1    0    0    0    0 -0.00000000000E+00 -0.00000000000E+00 -0.35740347158E-01  0.35744000000E-01  0.51099999109E-03 0.  1.
       22    1    1    2    0    0 -0.52227084712E-03 -0.31994498240E-02 -0.35589666181E-01  0.35737005818E-01  0.00000000000E+00 0.  1.
  9000001    1    1    2    0    0  0.52227084712E-03  0.31994498240E-02  0.35589666181E-01  0.35750994182E-01  0.10000000475E-02 0. -1.
</event>
<event>
 4   0  0.2441219E-02  0.9118800E+02  0.7818609E-02  0.1379984E+01
      -11   -1    0    0    0    0  0.00000000000E+00  0.00000000000E+00  0.35740347158E-01  0.35744000000E-01  0.51099999109E-03 0.  1.
       11   -1    0    0    0    0 -0.00000000000E+00 -0.00000000000E+00 -0.35740347158E-01  0.35744000000E-01  0.51099999109E-03 0. -1.
       22    1    1    2    0    0  0.19490318307E-01 -0.88188379380E-03 -0.29941331937E-01  0.35737005818E-01  0.00000000000E+00 0. -1.
  9000001    1    1    2    0    0 -0.19490318307E-01  0.88188379380E-03  0.29941331937E-01  0.35750994182E-01  0.10000000475E-02 0.  1.
</event>
<event>
 4   0  0.2441219E-02  0.9118800E+02  0.7818609E-02  0.1379984E+01
      -11   -1    0    0    0    0  0.00000000000E+00  0.00000000000E+00  0.35740347158E-01  0.35744000000E-01  0.51099999109E-03 0. -1.
       11   -1    0    0    0    0 -0.00000000000E+00 -0.00000000000E+00 -0.35740347158E-01  0.35744000000E-01  0.51099999109E-03 0.  1.
       22    1    1    2    0    0 -0.15693324980E-02  0.66601879709E-02 -0.35075813270E-01  0.35737005818E-01  0.00000000000E+00 0.  1.
  9000001    1    1    2    0    0  0.15693324980E-02 -0.66601879709E-02  0.35075813270E-01  0.35750994182E-01  0.10000000475E-02 0. -1.
</event>
<event>
 4   0  0.2441219E-02  0.9118800E+02  0.7818609E-02  0.1379984E+01
      -11   -1    0    0    0    0  0.00000000000E+00  0.00000000000E+00  0.35740347158E-01  0.35744000000E-01  0.51099999109E-03 0. -1.
       11   -1    0    0    0    0 -0.00000000000E+00 -0.00000000000E+00 -0.35740347158E-01  0.35744000000E-01  0.51099999109E-03 0.  1.
       22    1    1    2    0    0 -0.52001982522E-02 -0.16782175044E-02 -0.35316782257E-01  0.35737005818E-01  0.00000000000E+00 0.  1.
  9000001    1    1    2    0    0  0.52001982522E-02  0.16782175044E-02  0.35316782257E-01  0.35750994182E-01  0.10000000475E-02 0. -1.
</event>
<event>
 4   0  0.2441219E-02  0.9118800E+02  0.7818609E-02  0.1379984E+01
      -11   -1    0    0    0    0  0.00000000000E+00  0.00000000000E+00  0.35740347158E-01  0.35744000000E-01  0.51099999109E-03 0.  1.
       11   -1    0    0    0    0 -0.00000000000E+00 -0.00000000000E+00 -0.35740347158E-01  0.35744000000E-01  0.51099999109E-03 0. -1.
       22    1    1    2    0    0  0.18164011654E-01 -0.23974123883E-01  0.19298799173E-01  0.35737005818E-01  0.00000000000E+00 0.  1.
  9000001    1    1    2    0    0 -0.18164011654E-01  0.23974123883E-01 -0.19298799173E-01  0.35750994182E-01  0.10000000475E-02 0. -1.
</event>
<event>
 4   0  0.2441219E-02  0.9118800E+02  0.7818609E-02  0.1379984E+01
      -11   -1    0    0    0    0  0.00000000000E+00  0.00000000000E+00  0.35740347158E-01  0.35744000000E-01  0.51099999109E-03 0. -1.
       11   -1    0    0    0    0 -0.00000000000E+00 -0.00000000000E+00 -0.35740347158E-01  0.35744000000E-01  0.51099999109E-03 0.  1.
       22    1    1    2    0    0  0.62360232417E-02  0.35814369684E-02  0.35005983892E-01  0.35737005818E-01  0.00000000000E+00 0. -1.
  9000001    1    1    2    0    0 -0.62360232417E-02 -0.35814369684E-02 -0.35005983892E-01  0.35750994182E-01  0.10000000475E-02 0.  1.
</event>
<event>
 4   0  0.2441219E-02  0.9118800E+02  0.7818609E-02  0.1379984E+01
      -11   -1    0    0    0    0  0.00000000000E+00  0.00000000000E+00  0.35740347158E-01  0.35744000000E-01  0.51099999109E-03 0.  1.
       11   -1    0    0    0    0 -0.00000000000E+00 -0.00000000000E+00 -0.35740347158E-01  0.35744000000E-01  0.51099999109E-03 0. -1.
       22    1    1    2    0    0  0.13248494293E-01  0.10240688235E-01  0.31571178127E-01  0.35737005818E-01  0.00000000000E+00 0.  1.
  9000001    1    1    2    0    0 -0.13248494293E-01 -0.10240688235E-01 -0.31571178127E-01  0.35750994182E-01  0.10000000475E-02 0. -1.
</event>
<event>
 4   0  0.2441219E-02  0.9118800E+02  0.7818609E-02  0.1379984E+01
      -11   -1    0    0    0    0  0.00000000000E+00  0.00000000000E+00  0.35740347158E-01  0.35744000000E-01  0.51099999109E-03 0.  1.
       11   -1    0    0    0    0 -0.00000000000E+00 -0.00000000000E+00 -0.35740347158E-01  0.35744000000E-01  0.51099999109E-03 0. -1.
       22    1    1    2    0    0  0.27767198845E-01 -0.19587863598E-01 -0.11064892809E-01  0.35737005818E-01  0.00000000000E+00 0. -1.
  9000001    1    1    2    0    0 -0.27767198845E-01  0.19587863598E-01  0.11064892809E-01  0.35750994182E-01  0.10000000475E-02 0.  1.
</event>
<event>
 4   0  0.2441219E-02  0.9118800E+02  0.7818609E-02  0.1379984E+01
      -11   -1    0    0    0    0  0.00000000000E+00  0.00000000000E+00  0.35740347158E-01  0.35744000000E-01  0.51099999109E-03 0.  1.
       11   -1    0    0    0    0 -0.00000000000E+00 -0.00000000000E+00 -0.35740347158E-01  0.35744000000E-01  0.51099999109E-03 0. -1.
       22    1    1    2    0    0  0.19820363115E-02 -0.16499165947E-01 -0.31638309689E-01  0.35737005818E-01  0.00000000000E+00 0. -1.
  9000001    1    1    2    0    0 -0.19820363115E-02  0.16499165947E-01  0.31638309689E-01  0.35750994182E-01  0.10000000475E-02 0.  1.
</event>
<event>
 4   0  0.2441219E-02  0.9118800E+02  0.7818609E-02  0.1379984E+01
      -11   -1    0    0    0    0  0.00000000000E+00  0.00000000000E+00  0.35740347158E-01  0.35744000000E-01  0.51099999109E-03 0. -1.
       11   -1    0    0    0    0 -0.00000000000E+00 -0.00000000000E+00 -0.35740347158E-01  0.35744000000E-01  0.51099999109E-03 0.  1.
       22    1    1    2    0    0  0.58675886457E-02 -0.25686930720E-01 -0.24143044102E-01  0.35737005818E-01  0.00000000000E+00 0.  1.
  9000001    1    1    2    0    0 -0.58675886457E-02  0.25686930720E-01  0.24143044102E-01  0.35750994182E-01  0.10000000475E-02 0. -1.
</event>
<event>
 4   0  0.2441219E-02  0.9118800E+02  0.7818609E-02  0.1379984E+01
      -11   -1    0    0    0    0  0.00000000000E+00  0.00000000000E+00  0.35740347158E-01  0.35744000000E-01  0.51099999109E-03 0. -1.
       11   -1    0    0    0    0 -0.00000000000E+00 -0.00000000000E+00 -0.35740347158E-01  0.35744000000E-01  0.51099999109E-03 0.  1.
       22    1    1    2    0    0 -0.11042393714E-01  0.22895171211E-02  0.33911019408E-01  0.35737005818E-01  0.00000000000E+00 0. -1.
  9000001    1    1    2    0    0  0.11042393714E-01 -0.22895171211E-02 -0.33911019408E-01  0.35750994182E-01  0.10000000475E-02 0.  1.
</event>
<event>
 4   0  0.2441219E-02  0.9118800E+02  0.7818609E-02  0.1379984E+01
      -11   -1    0    0    0    0  0.00000000000E+00  0.00000000000E+00  0.35740347158E-01  0.35744000000E-01  0.51099999109E-03 0.  1.
       11   -1    0    0    0    0 -0.00000000000E+00 -0.00000000000E+00 -0.35740347158E-01  0.35744000000E-01  0.51099999109E-03 0. -1.
       22    1    1    2    0    0 -0.15705904271E-01 -0.10666226988E-01  0.30276884875E-01  0.35737005818E-01  0.00000000000E+00 0.  1.
  9000001    1    1    2    0    0  0.15705904271E-01  0.10666226988E-01 -0.30276884875E-01  0.35750994182E-01  0.10000000475E-02 0. -1.
</event>
<event>
 4   0  0.2441219E-02  0.9118800E+02  0.7818609E-02  0.1379984E+01
      -11   -1    0    0    0    0  0.00000000000E+00  0.00000000000E+00  0.35740347158E-01  0.35744000000E-01  0.51099999109E-03 0.  1.
       11   -1    0    0    0    0 -0.00000000000E+00 -0.00000000000E+00 -0.35740347158E-01  0.35744000000E-01  0.51099999109E-03 0. -1.
       22    1    1    2    0    0 -0.10355260569E-01 -0.47597695538E-02  0.33871031239E-01  0.35737005818E-01  0.00000000000E+00 0.  1.
  9000001    1    1    2    0    0  0.10355260569E-01  0.47597695538E-02 -0.33871031239E-01  0.35750994182E-01  0.10000000475E-02 0. -1.
</event>
<event>
 4   0  0.2441219E-02  0.9118800E+02  0.7818609E-02  0.1379984E+01
      -11   -1    0    0    0    0  0.00000000000E+00  0.00000000000E+00  0.35740347158E-01  0.35744000000E-01  0.51099999109E-03 0.  1.
       11   -1    0    0    0    0 -0.00000000000E+00 -0.00000000000E+00 -0.35740347158E-01  0.35744000000E-01  0.51099999109E-03 0. -1.
       22    1    1    2    0    0  0.38262489759E-02  0.55114776523E-02  0.35101524436E-01  0.35737005818E-01  0.00000000000E+00 0.  1.
  9000001    1    1    2    0    0 -0.38262489759E-02 -0.55114776523E-02 -0.35101524436E-01  0.35750994182E-01  0.10000000475E-02 0. -1.
</event>
<event>
 4   0  0.2441219E-02  0.9118800E+02  0.7818609E-02  0.1379984E+01
      -11   -1    0    0    0    0  0.00000000000E+00  0.00000000000E+00  0.35740347158E-01  0.35744000000E-01  0.51099999109E-03 0.  1.
       11   -1    0    0    0    0 -0.00000000000E+00 -0.00000000000E+00 -0.35740347158E-01  0.35744000000E-01  0.51099999109E-03 0. -1.
       22    1    1    2    0    0 -0.17474935343E-01  0.29209152483E-02 -0.31035922311E-01  0.35737005818E-01  0.00000000000E+00 0. -1.
  9000001    1    1    2    0    0  0.17474935343E-01 -0.29209152483E-02  0.31035922311E-01  0.35750994182E-01  0.10000000475E-02 0.  1.
</event>
<event>
 4   0  0.2441219E-02  0.9118800E+02  0.7818609E-02  0.1379984E+01
      -11   -1    0    0    0    0  0.00000000000E+00  0.00000000000E+00  0.35740347158E-01  0.35744000000E-01  0.51099999109E-03 0.  1.
       11   -1    0    0    0    0 -0.00000000000E+00 -0.00000000000E+00 -0.35740347158E-01  0.35744000000E-01  0.51099999109E-03 0. -1.
       22    1    1    2    0    0 -0.81784469619E-02 -0.28791909010E-02 -0.34669249342E-01  0.35737005818E-01  0.00000000000E+00 0. -1.
  9000001    1    1    2    0    0  0.81784469619E-02  0.28791909010E-02  0.34669249342E-01  0.35750994182E-01  0.10000000475E-02 0.  1.
</event>
<event>
 4   0  0.2441219E-02  0.9118800E+02  0.7818609E-02  0.1379984E+01
      -11   -1    0    0    0    0  0.00000000000E+00  0.00000000000E+00  0.35740347158E-01  0.35744000000E-01  0.51099999109E-03 0.  1.
       11   -1    0    0    0    0 -0.00000000000E+00 -0.00000000000E+00 -0.35740347158E-01  0.35744000000E-01  0.51099999109E-03 0. -1.
       22    1    1    2    0    0  0.26352785615E-02  0.40643040048E-02  0.35407207243E-01  0.35737005818E-01  0.00000000000E+00 0.  1.
  9000001    1    1    2    0    0 -0.26352785615E-02 -0.40643040048E-02 -0.35407207243E-01  0.35750994182E-01  0.10000000475E-02 0. -1.
</event>
<event>
 4   0  0.2441219E-02  0.9118800E+02  0.7818609E-02  0.1379984E+01
      -11   -1    0    0    0    0  0.00000000000E+00  0.00000000000E+00  0.35740347158E-01  0.35744000000E-01  0.51099999109E-03 0. -1.
       11   -1    0    0    0    0 -0.00000000000E+00 -0.00000000000E+00 -0.35740347158E-01  0.35744000000E-01  0.51099999109E-03 0.  1.
       22    1    1    2    0    0 -0.71679176179E-02  0.22532341583E-01 -0.26796419998E-01  0.35737005818E-01  0.00000000000E+00 0.  1.
  9000001    1    1    2    0    0  0.71679176179E-02 -0.22532341583E-01  0.26796419998E-01  0.35750994182E-01  0.10000000475E-02 0. -1.
</event>
<event>
 4   0  0.2441219E-02  0.9118800E+02  0.7818609E-02  0.1379984E+01
      -11   -1    0    0    0    0  0.00000000000E+00  0.00000000000E+00  0.35740347158E-01  0.35744000000E-01  0.51099999109E-03 0.  1.
       11   -1    0    0    0    0 -0.00000000000E+00 -0.00000000000E+00 -0.35740347158E-01  0.35744000000E-01  0.51099999109E-03 0. -1.
       22    1    1    2    0    0 -0.49608247788E-02  0.10449635547E-01 -0.33813147137E-01  0.35737005818E-01  0.00000000000E+00 0. -1.
  9000001    1    1    2    0    0  0.49608247788E-02 -0.10449635547E-01  0.33813147137E-01  0.35750994182E-01  0.10000000475E-02 0.  1.
</event>
<event>
 4   0  0.2441219E-02  0.9118800E+02  0.7818609E-02  0.1379984E+01
      -11   -1    0    0    0    0  0.00000000000E+00  0.00000000000E+00  0.35740347158E-01  0.35744000000E-01  0.51099999109E-03 0. -1.
       11   -1    0    0    0    0 -0.00000000000E+00 -0.00000000000E+00 -0.35740347158E-01  0.35744000000E-01  0.51099999109E-03 0.  1.
       22    1    1    2    0    0  0.80131675358E-02 -0.30062439856E-01 -0.17583300056E-01  0.35737005818E-01  0.00000000000E+00 0.  1.
  9000001    1    1    2    0    0 -0.80131675358E-02  0.30062439856E-01  0.17583300056E-01  0.35750994182E-01  0.10000000475E-02 0. -1.
</event>
<event>
 4   0  0.2441219E-02  0.9118800E+02  0.7818609E-02  0.1379984E+01
      -11   -1    0    0    0    0  0.00000000000E+00  0.00000000000E+00  0.35740347158E-01  0.35744000000E-01  0.51099999109E-03 0. -1.
       11   -1    0    0    0    0 -0.00000000000E+00 -0.00000000000E+00 -0.35740347158E-01  0.35744000000E-01  0.51099999109E-03 0.  1.
       22    1    1    2    0    0  0.34712220221E-02 -0.77141738866E-02 -0.34721401524E-01  0.35737005818E-01  0.00000000000E+00 0.  1.
  9000001    1    1    2    0    0 -0.34712220221E-02  0.77141738866E-02  0.34721401524E-01  0.35750994182E-01  0.10000000475E-02 0. -1.
</event>
<event>
 4   0  0.2441219E-02  0.9118800E+02  0.7818609E-02  0.1379984E+01
      -11   -1    0    0    0    0  0.00000000000E+00  0.00000000000E+00  0.35740347158E-01  0.35744000000E-01  0.51099999109E-03 0.  1.
       11   -1    0    0    0    0 -0.00000000000E+00 -0.00000000000E+00 -0.35740347158E-01  0.35744000000E-01  0.51099999109E-03 0. -1.
       22    1    1    2    0    0  0.64981955643E-02 -0.53188661551E-03 -0.35137218671E-01  0.35737005818E-01  0.00000000000E+00 0. -1.
  9000001    1    1    2    0    0 -0.64981955643E-02  0.53188661551E-03  0.35137218671E-01  0.35750994182E-01  0.10000000475E-02 0.  1.
</event>
<event>
 4   0  0.2441219E-02  0.9118800E+02  0.7818609E-02  0.1379984E+01
      -11   -1    0    0    0    0  0.00000000000E+00  0.00000000000E+00  0.35740347158E-01  0.35744000000E-01  0.51099999109E-03 0. -1.
       11   -1    0    0    0    0 -0.00000000000E+00 -0.00000000000E+00 -0.35740347158E-01  0.35744000000E-01  0.51099999109E-03 0.  1.
       22    1    1    2    0    0  0.31798288109E-02 -0.28420829198E-02  0.35481612679E-01  0.35737005818E-01  0.00000000000E+00 0. -1.
  9000001    1    1    2    0    0 -0.31798288109E-02  0.28420829198E-02 -0.35481612679E-01  0.35750994182E-01  0.10000000475E-02 0.  1.
</event>
<event>
 4   0  0.2441219E-02  0.9118800E+02  0.7818609E-02  0.1379984E+01
      -11   -1    0    0    0    0  0.00000000000E+00  0.00000000000E+00  0.35740347158E-01  0.35744000000E-01  0.51099999109E-03 0.  1.
       11   -1    0    0    0    0 -0.00000000000E+00 -0.00000000000E+00 -0.35740347158E-01  0.35744000000E-01  0.51099999109E-03 0. -1.
       22    1    1    2    0    0 -0.34077121841E-01 -0.66804692275E-02 -0.84412488903E-02  0.35737005818E-01  0.00000000000E+00 0.  1.
  9000001    1    1    2    0    0  0.34077121841E-01  0.66804692275E-02  0.84412488903E-02  0.35750994182E-01  0.10000000475E-02 0. -1.
</event>
<event>
 4   0  0.2441219E-02  0.9118800E+02  0.7818609E-02  0.1379984E+01
      -11   -1    0    0    0    0  0.00000000000E+00  0.00000000000E+00  0.35740347158E-01  0.35744000000E-01  0.51099999109E-03 0.  1.
       11   -1    0    0    0    0 -0.00000000000E+00 -0.00000000000E+00 -0.35740347158E-01  0.35744000000E-01  0.51099999109E-03 0. -1.
       22    1    1    2    0    0 -0.28333064514E-02  0.21901313406E-02  0.35557127051E-01  0.35737005818E-01  0.00000000000E+00 0.  1.
  9000001    1    1    2    0    0  0.28333064514E-02 -0.21901313406E-02 -0.35557127051E-01  0.35750994182E-01  0.10000000475E-02 0. -1.
</event>
<event>
 4   0  0.2441219E-02  0.9118800E+02  0.7818609E-02  0.1379984E+01
      -11   -1    0    0    0    0  0.00000000000E+00  0.00000000000E+00  0.35740347158E-01  0.35744000000E-01  0.51099999109E-03 0. -1.
       11   -1    0    0    0    0 -0.00000000000E+00 -0.00000000000E+00 -0.35740347158E-01  0.35744000000E-01  0.51099999109E-03 0.  1.
       22    1    1    2    0    0  0.78732252817E-02 -0.21352285974E-02 -0.34793486565E-01  0.35737005818E-01  0.00000000000E+00 0.  1.
  9000001    1    1    2    0    0 -0.78732252817E-02  0.21352285974E-02  0.34793486565E-01  0.35750994182E-01  0.10000000475E-02 0. -1.
</event>
<event>
 4   0  0.2441219E-02  0.9118800E+02  0.7818609E-02  0.1379984E+01
      -11   -1    0    0    0    0  0.00000000000E+00  0.00000000000E+00  0.35740347158E-01  0.35744000000E-01  0.51099999109E-03 0.  1.
       11   -1    0    0    0    0 -0.00000000000E+00 -0.00000000000E+00 -0.35740347158E-01  0.35744000000E-01  0.51099999109E-03 0. -1.
       22    1    1    2    0    0  0.24398487565E-01 -0.65848695240E-02 -0.25268297979E-01  0.35737005818E-01  0.00000000000E+00 0. -1.
  9000001    1    1    2    0    0 -0.24398487565E-01  0.65848695240E-02  0.25268297979E-01  0.35750994182E-01  0.10000000475E-02 0.  1.
</event>
<event>
 4   0  0.2441219E-02  0.9118800E+02  0.7818609E-02  0.1379984E+01
      -11   -1    0    0    0    0  0.00000000000E+00  0.00000000000E+00  0.35740347158E-01  0.35744000000E-01  0.51099999109E-03 0. -1.
       11   -1    0    0    0    0 -0.00000000000E+00 -0.00000000000E+00 -0.35740347158E-01  0.35744000000E-01  0.51099999109E-03 0. -1.
       22    1    1    2    0    0  0.29527130032E-02  0.12578549972E-02  0.35592595741E-01  0.35737005818E-01  0.00000000000E+00 0. -1.
  9000001    1    1    2    0    0 -0.29527130032E-02 -0.12578549972E-02 -0.35592595741E-01  0.35750994182E-01  0.10000000475E-02 0. -1.
</event>
<event>
 4   0  0.2441219E-02  0.9118800E+02  0.7818609E-02  0.1379984E+01
      -11   -1    0    0    0    0  0.00000000000E+00  0.00000000000E+00  0.35740347158E-01  0.35744000000E-01  0.51099999109E-03 0.  1.
       11   -1    0    0    0    0 -0.00000000000E+00 -0.00000000000E+00 -0.35740347158E-01  0.35744000000E-01  0.51099999109E-03 0. -1.
       22    1    1    2    0    0 -0.32382436021E-02 -0.64949587577E-02  0.34992325930E-01  0.35737005818E-01  0.00000000000E+00 0.  1.
  9000001    1    1    2    0    0  0.32382436021E-02  0.64949587577E-02 -0.34992325930E-01  0.35750994182E-01  0.10000000475E-02 0. -1.
</event>
<event>
 4   0  0.2441219E-02  0.9118800E+02  0.7818609E-02  0.1379984E+01
      -11   -1    0    0    0    0  0.00000000000E+00  0.00000000000E+00  0.35740347158E-01  0.35744000000E-01  0.51099999109E-03 0. -1.
       11   -1    0    0    0    0 -0.00000000000E+00 -0.00000000000E+00 -0.35740347158E-01  0.35744000000E-01  0.51099999109E-03 0.  1.
       22    1    1    2    0    0  0.12877476120E-01  0.33105248190E-01  0.39174910195E-02  0.35737005818E-01  0.00000000000E+00 0. -1.
  9000001    1    1    2    0    0 -0.12877476120E-01 -0.33105248190E-01 -0.39174910195E-02  0.35750994182E-01  0.10000000475E-02 0.  1.
</event>
<event>
 4   0  0.2441219E-02  0.9118800E+02  0.7818609E-02  0.1379984E+01
      -11   -1    0    0    0    0  0.00000000000E+00  0.00000000000E+00  0.35740347158E-01  0.35744000000E-01  0.51099999109E-03 0.  1.
       11   -1    0    0    0    0 -0.00000000000E+00 -0.00000000000E+00 -0.35740347158E-01  0.35744000000E-01  0.51099999109E-03 0. -1.
       22    1    1    2    0    0  0.23254058693E-01  0.60825900884E-02  0.26445877504E-01  0.35737005818E-01  0.00000000000E+00 0.  1.
  9000001    1    1    2    0    0 -0.23254058693E-01 -0.60825900884E-02 -0.26445877504E-01  0.35750994182E-01  0.10000000475E-02 0. -1.
</event>
<event>
 4   0  0.2441219E-02  0.9118800E+02  0.7818609E-02  0.1379984E+01
      -11   -1    0    0    0    0  0.00000000000E+00  0.00000000000E+00  0.35740347158E-01  0.35744000000E-01  0.51099999109E-03 0.  1.
       11   -1    0    0    0    0 -0.00000000000E+00 -0.00000000000E+00 -0.35740347158E-01  0.35744000000E-01  0.51099999109E-03 0. -1.
       22    1    1    2    0    0  0.36336892133E-02 -0.22716168806E-03 -0.35551065879E-01  0.35737005818E-01  0.00000000000E+00 0. -1.
  9000001    1    1    2    0    0 -0.36336892133E-02  0.22716168806E-03  0.35551065879E-01  0.35750994182E-01  0.10000000475E-02 0.  1.
</event>
<event>
 4   0  0.2441219E-02  0.9118800E+02  0.7818609E-02  0.1379984E+01
      -11   -1    0    0    0    0  0.00000000000E+00  0.00000000000E+00  0.35740347158E-01  0.35744000000E-01  0.51099999109E-03 0.  1.
       11   -1    0    0    0    0 -0.00000000000E+00 -0.00000000000E+00 -0.35740347158E-01  0.35744000000E-01  0.51099999109E-03 0. -1.
       22    1    1    2    0    0  0.16208053797E-01  0.36248198980E-02 -0.31643218194E-01  0.35737005818E-01  0.00000000000E+00 0. -1.
  9000001    1    1    2    0    0 -0.16208053797E-01 -0.36248198980E-02  0.31643218194E-01  0.35750994182E-01  0.10000000475E-02 0.  1.
</event>
<event>
 4   0  0.2441219E-02  0.9118800E+02  0.7818609E-02  0.1379984E+01
      -11   -1    0    0    0    0  0.00000000000E+00  0.00000000000E+00  0.35740347158E-01  0.35744000000E-01  0.51099999109E-03 0.  1.
       11   -1    0    0    0    0 -0.00000000000E+00 -0.00000000000E+00 -0.35740347158E-01  0.35744000000E-01  0.51099999109E-03 0. -1.
       22    1    1    2    0    0 -0.47744278569E-02  0.44536502617E-02  0.35135500891E-01  0.35737005818E-01  0.00000000000E+00 0.  1.
  9000001    1    1    2    0    0  0.47744278569E-02 -0.44536502617E-02 -0.35135500891E-01  0.35750994182E-01  0.10000000475E-02 0. -1.
</event>
<event>
 4   0  0.2441219E-02  0.9118800E+02  0.7818609E-02  0.1379984E+01
      -11   -1    0    0    0    0  0.00000000000E+00  0.00000000000E+00  0.35740347158E-01  0.35744000000E-01  0.51099999109E-03 0. -1.
       11   -1    0    0    0    0 -0.00000000000E+00 -0.00000000000E+00 -0.35740347158E-01  0.35744000000E-01  0.51099999109E-03 0.  1.
       22    1    1    2    0    0  0.18396993422E-01  0.25824827735E-02  0.30528920725E-01  0.35737005818E-01  0.00000000000E+00 0. -1.
  9000001    1    1    2    0    0 -0.18396993422E-01 -0.25824827735E-02 -0.30528920725E-01  0.35750994182E-01  0.10000000475E-02 0.  1.
</event>
<event>
 4   0  0.2441219E-02  0.9118800E+02  0.7818609E-02  0.1379984E+01
      -11   -1    0    0    0    0  0.00000000000E+00  0.00000000000E+00  0.35740347158E-01  0.35744000000E-01  0.51099999109E-03 0. -1.
       11   -1    0    0    0    0 -0.00000000000E+00 -0.00000000000E+00 -0.35740347158E-01  0.35744000000E-01  0.51099999109E-03 0.  1.
       22    1    1    2    0    0  0.12816985178E-01  0.30834912116E-01 -0.12730540861E-01  0.35737005818E-01  0.00000000000E+00 0.  1.
  9000001    1    1    2    0    0 -0.12816985178E-01 -0.30834912116E-01  0.12730540861E-01  0.35750994182E-01  0.10000000475E-02 0. -1.
</event>
<event>
 4   0  0.2441219E-02  0.9118800E+02  0.7818609E-02  0.1379984E+01
      -11   -1    0    0    0    0  0.00000000000E+00  0.00000000000E+00  0.35740347158E-01  0.35744000000E-01  0.51099999109E-03 0.  1.
       11   -1    0    0    0    0 -0.00000000000E+00 -0.00000000000E+00 -0.35740347158E-01  0.35744000000E-01  0.51099999109E-03 0. -1.
       22    1    1    2    0    0 -0.15401729638E-01 -0.98885004943E-02  0.30694264399E-01  0.35737005818E-01  0.00000000000E+00 0.  1.
  9000001    1    1    2    0    0  0.15401729638E-01  0.98885004943E-02 -0.30694264399E-01  0.35750994182E-01  0.10000000475E-02 0. -1.
</event>
<event>
 4   0  0.2441219E-02  0.9118800E+02  0.7818609E-02  0.1379984E+01
      -11   -1    0    0    0    0  0.00000000000E+00  0.00000000000E+00  0.35740347158E-01  0.35744000000E-01  0.51099999109E-03 0.  1.
       11   -1    0    0    0    0 -0.00000000000E+00 -0.00000000000E+00 -0.35740347158E-01  0.35744000000E-01  0.51099999109E-03 0. -1.
       22    1    1    2    0    0 -0.15825380610E-01  0.17426119345E-01  0.26889054985E-01  0.35737005818E-01  0.00000000000E+00 0.  1.
  9000001    1    1    2    0    0  0.15825380610E-01 -0.17426119345E-01 -0.26889054985E-01  0.35750994182E-01  0.10000000475E-02 0. -1.
</event>
<event>
 4   0  0.2441219E-02  0.9118800E+02  0.7818609E-02  0.1379984E+01
      -11   -1    0    0    0    0  0.00000000000E+00  0.00000000000E+00  0.35740347158E-01  0.35744000000E-01  0.51099999109E-03 0. -1.
       11   -1    0    0    0    0 -0.00000000000E+00 -0.00000000000E+00 -0.35740347158E-01  0.35744000000E-01  0.51099999109E-03 0.  1.
       22    1    1    2    0    0 -0.25749627329E-01 -0.22512396780E-01  0.10357715409E-01  0.35737005818E-01  0.00000000000E+00 0. -1.
  9000001    1    1    2    0    0  0.25749627329E-01  0.22512396780E-01 -0.10357715409E-01  0.35750994182E-01  0.10000000475E-02 0.  1.
</event>
<event>
 4   0  0.2441219E-02  0.9118800E+02  0.7818609E-02  0.1379984E+01
      -11   -1    0    0    0    0  0.00000000000E+00  0.00000000000E+00  0.35740347158E-01  0.35744000000E-01  0.51099999109E-03 0. -1.
       11   -1    0    0    0    0 -0.00000000000E+00 -0.00000000000E+00 -0.35740347158E-01  0.35744000000E-01  0.51099999109E-03 0.  1.
       22    1    1    2    0    0 -0.31035767995E-01  0.32596011731E-02  0.17415214326E-01  0.35737005818E-01  0.00000000000E+00 0.  1.
  9000001    1    1    2    0    0  0.31035767995E-01 -0.32596011731E-02 -0.17415214326E-01  0.35750994182E-01  0.10000000475E-02 0. -1.
</event>
<event>
 4   0  0.2441219E-02  0.9118800E+02  0.7818609E-02  0.1379984E+01
      -11   -1    0    0    0    0  0.00000000000E+00  0.00000000000E+00  0.35740347158E-01  0.35744000000E-01  0.51099999109E-03 0. -1.
       11   -1    0    0    0    0 -0.00000000000E+00 -0.00000000000E+00 -0.35740347158E-01  0.35744000000E-01  0.51099999109E-03 0.  1.
       22    1    1    2    0    0 -0.45631028293E-02 -0.18847305538E-01 -0.30018173685E-01  0.35737005818E-01  0.00000000000E+00 0.  1.
  9000001    1    1    2    0    0  0.45631028293E-02  0.18847305538E-01  0.30018173685E-01  0.35750994182E-01  0.10000000475E-02 0. -1.
</event>
<event>
 4   0  0.2441219E-02  0.9118800E+02  0.7818609E-02  0.1379984E+01
      -11   -1    0    0    0    0  0.00000000000E+00  0.00000000000E+00  0.35740347158E-01  0.35744000000E-01  0.51099999109E-03 0. -1.
       11   -1    0    0    0    0 -0.00000000000E+00 -0.00000000000E+00 -0.35740347158E-01  0.35744000000E-01  0.51099999109E-03 0.  1.
       22    1    1    2    0    0 -0.43487162825E-02 -0.20994346308E-02  0.35409244920E-01  0.35737005818E-01  0.00000000000E+00 0. -1.
  9000001    1    1    2    0    0  0.43487162825E-02  0.20994346308E-02 -0.35409244920E-01  0.35750994182E-01  0.10000000475E-02 0.  1.
</event>
<event>
 4   0  0.2441219E-02  0.9118800E+02  0.7818609E-02  0.1379984E+01
      -11   -1    0    0    0    0  0.00000000000E+00  0.00000000000E+00  0.35740347158E-01  0.35744000000E-01  0.51099999109E-03 0. -1.
       11   -1    0    0    0    0 -0.00000000000E+00 -0.00000000000E+00 -0.35740347158E-01  0.35744000000E-01  0.51099999109E-03 0.  1.
       22    1    1    2    0    0  0.48908984375E-02  0.36391161672E-02  0.35213201088E-01  0.35737005818E-01  0.00000000000E+00 0. -1.
  9000001    1    1    2    0    0 -0.48908984375E-02 -0.36391161672E-02 -0.35213201088E-01  0.35750994182E-01  0.10000000475E-02 0.  1.
</event>
<event>
 4   0  0.2441219E-02  0.9118800E+02  0.7818609E-02  0.1379984E+01
      -11   -1    0    0    0    0  0.00000000000E+00  0.00000000000E+00  0.35740347158E-01  0.35744000000E-01  0.51099999109E-03 0.  1.
       11   -1    0    0    0    0 -0.00000000000E+00 -0.00000000000E+00 -0.35740347158E-01  0.35744000000E-01  0.51099999109E-03 0. -1.
       22    1    1    2    0    0 -0.13484779689E-01  0.29252215553E-01  0.15479088696E-01  0.35737005818E-01  0.00000000000E+00 0.  1.
  9000001    1    1    2    0    0  0.13484779689E-01 -0.29252215553E-01 -0.15479088696E-01  0.35750994182E-01  0.10000000475E-02 0. -1.
</event>
<event>
 4   0  0.2441219E-02  0.9118800E+02  0.7818609E-02  0.1379984E+01
      -11   -1    0    0    0    0  0.00000000000E+00  0.00000000000E+00  0.35740347158E-01  0.35744000000E-01  0.51099999109E-03 0. -1.
       11   -1    0    0    0    0 -0.00000000000E+00 -0.00000000000E+00 -0.35740347158E-01  0.35744000000E-01  0.51099999109E-03 0.  1.
       22    1    1    2    0    0 -0.60411042501E-03  0.30436859667E-02 -0.35602030998E-01  0.35737005818E-01  0.00000000000E+00 0.  1.
  9000001    1    1    2    0    0  0.60411042501E-03 -0.30436859667E-02  0.35602030998E-01  0.35750994182E-01  0.10000000475E-02 0. -1.
</event>
<event>
 4   0  0.2441219E-02  0.9118800E+02  0.7818609E-02  0.1379984E+01
      -11   -1    0    0    0    0  0.00000000000E+00  0.00000000000E+00  0.35740347158E-01  0.35744000000E-01  0.51099999109E-03 0.  1.
       11   -1    0    0    0    0 -0.00000000000E+00 -0.00000000000E+00 -0.35740347158E-01  0.35744000000E-01  0.51099999109E-03 0. -1.
       22    1    1    2    0    0 -0.57004948371E-02 -0.11161583011E-02  0.35261765896E-01  0.35737005818E-01  0.00000000000E+00 0.  1.
  9000001    1    1    2    0    0  0.57004948371E-02  0.11161583011E-02 -0.35261765896E-01  0.35750994182E-01  0.10000000475E-02 0. -1.
</event>
<event>
 4   0  0.2441219E-02  0.9118800E+02  0.7818609E-02  0.1379984E+01
      -11   -1    0    0    0    0  0.00000000000E+00  0.00000000000E+00  0.35740347158E-01  0.35744000000E-01  0.51099999109E-03 0. -1.
       11   -1    0    0    0    0 -0.00000000000E+00 -0.00000000000E+00 -0.35740347158E-01  0.35744000000E-01  0.51099999109E-03 0.  1.
       22    1    1    2    0    0 -0.64085964359E-02 -0.23904052174E-02  0.35076337316E-01  0.35737005818E-01  0.00000000000E+00 0. -1.
  9000001    1    1    2    0    0  0.64085964359E-02  0.23904052174E-02 -0.35076337316E-01  0.35750994182E-01  0.10000000475E-02 0.  1.
</event>
<event>
 4   0  0.2441219E-02  0.9118800E+02  0.7818609E-02  0.1379984E+01
      -11   -1    0    0    0    0  0.00000000000E+00  0.00000000000E+00  0.35740347158E-01  0.35744000000E-01  0.51099999109E-03 0. -1.
       11   -1    0    0    0    0 -0.00000000000E+00 -0.00000000000E+00 -0.35740347158E-01  0.35744000000E-01  0.51099999109E-03 0.  1.
       22    1    1    2    0    0 -0.61660726661E-02 -0.30060889430E-02 -0.35072447334E-01  0.35737005818E-01  0.00000000000E+00 0.  1.
  9000001    1    1    2    0    0  0.61660726661E-02  0.30060889430E-02  0.35072447334E-01  0.35750994182E-01  0.10000000475E-02 0. -1.
</event>
<event>
 4   0  0.2441219E-02  0.9118800E+02  0.7818609E-02  0.1379984E+01
      -11   -1    0    0    0    0  0.00000000000E+00  0.00000000000E+00  0.35740347158E-01  0.35744000000E-01  0.51099999109E-03 0.  1.
       11   -1    0    0    0    0 -0.00000000000E+00 -0.00000000000E+00 -0.35740347158E-01  0.35744000000E-01  0.51099999109E-03 0. -1.
       22    1    1    2    0    0 -0.57351717740E-02  0.43505618676E-02 -0.35004485442E-01  0.35737005818E-01  0.00000000000E+00 0. -1.
  9000001    1    1    2    0    0  0.57351717740E-02 -0.43505618676E-02  0.35004485442E-01  0.35750994182E-01  0.10000000475E-02 0.  1.
</event>
<event>
 4   0  0.2441219E-02  0.9118800E+02  0.7818609E-02  0.1379984E+01
      -11   -1    0    0    0    0  0.00000000000E+00  0.00000000000E+00  0.35740347158E-01  0.35744000000E-01  0.51099999109E-03 0.  1.
       11   -1    0    0    0    0 -0.00000000000E+00 -0.00000000000E+00 -0.35740347158E-01  0.35744000000E-01  0.51099999109E-03 0. -1.
       22    1    1    2    0    0  0.24170922758E-02 -0.48886903732E-02  0.35318436492E-01  0.35737005818E-01  0.00000000000E+00 0.  1.
  9000001    1    1    2    0    0 -0.24170922758E-02  0.48886903732E-02 -0.35318436492E-01  0.35750994182E-01  0.10000000475E-02 0. -1.
</event>
<event>
 4   0  0.2441219E-02  0.9118800E+02  0.7818609E-02  0.1379984E+01
      -11   -1    0    0    0    0  0.00000000000E+00  0.00000000000E+00  0.35740347158E-01  0.35744000000E-01  0.51099999109E-03 0.  1.
       11   -1    0    0    0    0 -0.00000000000E+00 -0.00000000000E+00 -0.35740347158E-01  0.35744000000E-01  0.51099999109E-03 0. -1.
       22    1    1    2    0    0  0.62425083130E-04 -0.12762677599E-01  0.33380289820E-01  0.35737005818E-01  0.00000000000E+00 0.  1.
  9000001    1    1    2    0    0 -0.62425083130E-04  0.12762677599E-01 -0.33380289820E-01  0.35750994182E-01  0.10000000475E-02 0. -1.
</event>
<event>
 4   0  0.2441219E-02  0.9118800E+02  0.7818609E-02  0.1379984E+01
      -11   -1    0    0    0    0  0.00000000000E+00  0.00000000000E+00  0.35740347158E-01  0.35744000000E-01  0.51099999109E-03 0. -1.
       11   -1    0    0    0    0 -0.00000000000E+00 -0.00000000000E+00 -0.35740347158E-01  0.35744000000E-01  0.51099999109E-03 0.  1.
       22    1    1    2    0    0 -0.72114850585E-02  0.34529900624E-01 -0.57283532561E-02  0.35737005818E-01  0.00000000000E+00 0. -1.
  9000001    1    1    2    0    0  0.72114850585E-02 -0.34529900624E-01  0.57283532561E-02  0.35750994182E-01  0.10000000475E-02 0.  1.
</event>
<event>
 4   0  0.2441219E-02  0.9118800E+02  0.7818609E-02  0.1379984E+01
      -11   -1    0    0    0    0  0.00000000000E+00  0.00000000000E+00  0.35740347158E-01  0.35744000000E-01  0.51099999109E-03 0. -1.
       11   -1    0    0    0    0 -0.00000000000E+00 -0.00000000000E+00 -0.35740347158E-01  0.35744000000E-01  0.51099999109E-03 0.  1.
       22    1    1    2    0    0 -0.13701064106E-02 -0.46047000936E-02 -0.35412612588E-01  0.35737005818E-01  0.00000000000E+00 0.  1.
  9000001    1    1    2    0    0  0.13701064106E-02  0.46047000936E-02  0.35412612588E-01  0.35750994182E-01  0.10000000475E-02 0. -1.
</event>
<event>
 4   0  0.2441219E-02  0.9118800E+02  0.7818609E-02  0.1379984E+01
      -11   -1    0    0    0    0  0.00000000000E+00  0.00000000000E+00  0.35740347158E-01  0.35744000000E-01  0.51099999109E-03 0.  1.
       11   -1    0    0    0    0 -0.00000000000E+00 -0.00000000000E+00 -0.35740347158E-01  0.35744000000E-01  0.51099999109E-03 0. -1.
       22    1    1    2    0    0  0.47952667844E-02  0.12013525618E-02 -0.35393442237E-01  0.35737005818E-01  0.00000000000E+00 0. -1.
  9000001    1    1    2    0    0 -0.47952667844E-02 -0.12013525618E-02  0.35393442237E-01  0.35750994182E-01  0.10000000475E-02 0.  1.
</event>
<event>
 4   0  0.2441219E-02  0.9118800E+02  0.7818609E-02  0.1379984E+01
      -11   -1    0    0    0    0  0.00000000000E+00  0.00000000000E+00  0.35740347158E-01  0.35744000000E-01  0.51099999109E-03 0.  1.
       11   -1    0    0    0    0 -0.00000000000E+00 -0.00000000000E+00 -0.35740347158E-01  0.35744000000E-01  0.51099999109E-03 0. -1.
       22    1    1    2    0    0 -0.41258234191E-03  0.30047144006E-02 -0.35608075658E-01  0.35737005818E-01  0.00000000000E+00 0. -1.
  9000001    1    1    2    0    0  0.41258234191E-03 -0.30047144006E-02  0.35608075658E-01  0.35750994182E-01  0.10000000475E-02 0.  1.
</event>
<event>
 4   0  0.2441219E-02  0.9118800E+02  0.7818609E-02  0.1379984E+01
      -11   -1    0    0    0    0  0.00000000000E+00  0.00000000000E+00  0.35740347158E-01  0.35744000000E-01  0.51099999109E-03 0.  1.
       11   -1    0    0    0    0 -0.00000000000E+00 -0.00000000000E+00 -0.35740347158E-01  0.35744000000E-01  0.51099999109E-03 0. -1.
       22    1    1    2    0    0  0.54739300096E-02 -0.58339659332E-02  0.34830080629E-01  0.35737005818E-01  0.00000000000E+00 0.  1.
  9000001    1    1    2    0    0 -0.54739300096E-02  0.58339659332E-02 -0.34830080629E-01  0.35750994182E-01  0.10000000475E-02 0. -1.
</event>
<event>
 4   0  0.2441219E-02  0.9118800E+02  0.7818609E-02  0.1379984E+01
      -11   -1    0    0    0    0  0.00000000000E+00  0.00000000000E+00  0.35740347158E-01  0.35744000000E-01  0.51099999109E-03 0.  1.
       11   -1    0    0    0    0 -0.00000000000E+00 -0.00000000000E+00 -0.35740347158E-01  0.35744000000E-01  0.51099999109E-03 0. -1.
       22    1    1    2    0    0 -0.48863536365E-02  0.15790000000E-01  0.31684902288E-01  0.35737005818E-01  0.00000000000E+00 0.  1.
  9000001    1    1    2    0    0  0.48863536365E-02 -0.15790000000E-01 -0.31684902288E-01  0.35750994182E-01  0.10000000475E-02 0. -1.
</event>
<event>
 4   0  0.2441219E-02  0.9118800E+02  0.7818609E-02  0.1379984E+01
      -11   -1    0    0    0    0  0.00000000000E+00  0.00000000000E+00  0.35740347158E-01  0.35744000000E-01  0.51099999109E-03 0. -1.
       11   -1    0    0    0    0 -0.00000000000E+00 -0.00000000000E+00 -0.35740347158E-01  0.35744000000E-01  0.51099999109E-03 0.  1.
       22    1    1    2    0    0 -0.32482963683E-02 -0.18205527559E-01 -0.30580073935E-01  0.35737005818E-01  0.00000000000E+00 0.  1.
  9000001    1    1    2    0    0  0.32482963683E-02  0.18205527559E-01  0.30580073935E-01  0.35750994182E-01  0.10000000475E-02 0. -1.
</event>
<event>
 4   0  0.2441219E-02  0.9118800E+02  0.7818609E-02  0.1379984E+01
      -11   -1    0    0    0    0  0.00000000000E+00  0.00000000000E+00  0.35740347158E-01  0.35744000000E-01  0.51099999109E-03 0. -1.
       11   -1    0    0    0    0 -0.00000000000E+00 -0.00000000000E+00 -0.35740347158E-01  0.35744000000E-01  0.51099999109E-03 0.  1.
       22    1    1    2    0    0 -0.16884126335E-01 -0.11663814581E-01  0.29257739014E-01  0.35737005818E-01  0.00000000000E+00 0. -1.
  9000001    1    1    2    0    0  0.16884126335E-01  0.11663814581E-01 -0.29257739014E-01  0.35750994182E-01  0.10000000475E-02 0.  1.
</event>
<event>
 4   0  0.2441219E-02  0.9118800E+02  0.7818609E-02  0.1379984E+01
      -11   -1    0    0    0    0  0.00000000000E+00  0.00000000000E+00  0.35740347158E-01  0.35744000000E-01  0.51099999109E-03 0. -1.
       11   -1    0    0    0    0 -0.00000000000E+00 -0.00000000000E+00 -0.35740347158E-01  0.35744000000E-01  0.51099999109E-03 0.  1.
       22    1    1    2    0    0  0.83137074912E-02  0.34753026326E-01  0.49296428786E-03  0.35737005818E-01  0.00000000000E+00 0.  1.
  9000001    1    1    2    0    0 -0.83137074912E-02 -0.34753026326E-01 -0.49296428786E-03  0.35750994182E-01  0.10000000475E-02 0. -1.
</event>
<event>
 4   0  0.2441219E-02  0.9118800E+02  0.7818609E-02  0.1379984E+01
      -11   -1    0    0    0    0  0.00000000000E+00  0.00000000000E+00  0.35740347158E-01  0.35744000000E-01  0.51099999109E-03 0. -1.
       11   -1    0    0    0    0 -0.00000000000E+00 -0.00000000000E+00 -0.35740347158E-01  0.35744000000E-01  0.51099999109E-03 0.  1.
       22    1    1    2    0    0  0.11093649722E-01  0.52547632023E-02 -0.33562657588E-01  0.35737005818E-01  0.00000000000E+00 0.  1.
  9000001    1    1    2    0    0 -0.11093649722E-01 -0.52547632023E-02  0.33562657588E-01  0.35750994182E-01  0.10000000475E-02 0. -1.
</event>
<event>
 4   0  0.2441219E-02  0.9118800E+02  0.7818609E-02  0.1379984E+01
      -11   -1    0    0    0    0  0.00000000000E+00  0.00000000000E+00  0.35740347158E-01  0.35744000000E-01  0.51099999109E-03 0. -1.
       11   -1    0    0    0    0 -0.00000000000E+00 -0.00000000000E+00 -0.35740347158E-01  0.35744000000E-01  0.51099999109E-03 0.  1.
       22    1    1    2    0    0 -0.12908904358E-01 -0.26216944173E-02 -0.33220784029E-01  0.35737005818E-01  0.00000000000E+00 0.  1.
  9000001    1    1    2    0    0  0.12908904358E-01  0.26216944173E-02  0.33220784029E-01  0.35750994182E-01  0.10000000475E-02 0. -1.
</event>
<event>
 4   0  0.2441219E-02  0.9118800E+02  0.7818609E-02  0.1379984E+01
      -11   -1    0    0    0    0  0.00000000000E+00  0.00000000000E+00  0.35740347158E-01  0.35744000000E-01  0.51099999109E-03 0.  1.
       11   -1    0    0    0    0 -0.00000000000E+00 -0.00000000000E+00 -0.35740347158E-01  0.35744000000E-01  0.51099999109E-03 0. -1.
       22    1    1    2    0    0  0.10562579395E-01  0.99671336864E-02  0.32653051120E-01  0.35737005818E-01  0.00000000000E+00 0.  1.
  9000001    1    1    2    0    0 -0.10562579395E-01 -0.99671336864E-02 -0.32653051120E-01  0.35750994182E-01  0.10000000475E-02 0. -1.
</event>
<event>
 4   0  0.2441219E-02  0.9118800E+02  0.7818609E-02  0.1379984E+01
      -11   -1    0    0    0    0  0.00000000000E+00  0.00000000000E+00  0.35740347158E-01  0.35744000000E-01  0.51099999109E-03 0. -1.
       11   -1    0    0    0    0 -0.00000000000E+00 -0.00000000000E+00 -0.35740347158E-01  0.35744000000E-01  0.51099999109E-03 0.  1.
       22    1    1    2    0    0  0.33610783050E-01  0.67323430105E-02  0.10105662037E-01  0.35737005818E-01  0.00000000000E+00 0. -1.
  9000001    1    1    2    0    0 -0.33610783050E-01 -0.67323430105E-02 -0.10105662037E-01  0.35750994182E-01  0.10000000475E-02 0.  1.
</event>
<event>
 4   0  0.2441219E-02  0.9118800E+02  0.7818609E-02  0.1379984E+01
      -11   -1    0    0    0    0  0.00000000000E+00  0.00000000000E+00  0.35740347158E-01  0.35744000000E-01  0.51099999109E-03 0.  1.
       11   -1    0    0    0    0 -0.00000000000E+00 -0.00000000000E+00 -0.35740347158E-01  0.35744000000E-01  0.51099999109E-03 0. -1.
       22    1    1    2    0    0 -0.23300951841E-02 -0.74828629972E-02  0.34867047519E-01  0.35737005818E-01  0.00000000000E+00 0.  1.
  9000001    1    1    2    0    0  0.23300951841E-02  0.74828629972E-02 -0.34867047519E-01  0.35750994182E-01  0.10000000475E-02 0. -1.
</event>
<event>
 4   0  0.2441219E-02  0.9118800E+02  0.7818609E-02  0.1379984E+01
      -11   -1    0    0    0    0  0.00000000000E+00  0.00000000000E+00  0.35740347158E-01  0.35744000000E-01  0.51099999109E-03 0. -1.
       11   -1    0    0    0    0 -0.00000000000E+00 -0.00000000000E+00 -0.35740347158E-01  0.35744000000E-01  0.51099999109E-03 0.  1.
       22    1    1    2    0    0  0.57838206730E-03 -0.15742131245E-01 -0.32077786129E-01  0.35737005818E-01  0.00000000000E+00 0.  1.
  9000001    1    1    2    0    0 -0.57838206730E-03  0.15742131245E-01  0.32077786129E-01  0.35750994182E-01  0.10000000475E-02 0. -1.
</event>
<event>
 4   0  0.2441219E-02  0.9118800E+02  0.7818609E-02  0.1379984E+01
      -11   -1    0    0    0    0  0.00000000000E+00  0.00000000000E+00  0.35740347158E-01  0.35744000000E-01  0.51099999109E-03 0.  1.
       11   -1    0    0    0    0 -0.00000000000E+00 -0.00000000000E+00 -0.35740347158E-01  0.35744000000E-01  0.51099999109E-03 0. -1.
       22    1    1    2    0    0 -0.11555361104E-01 -0.16351715508E-01 -0.29601159007E-01  0.35737005818E-01  0.00000000000E+00 0. -1.
  9000001    1    1    2    0    0  0.11555361104E-01  0.16351715508E-01  0.29601159007E-01  0.35750994182E-01  0.10000000475E-02 0.  1.
</event>
<event>
 4   0  0.2441219E-02  0.9118800E+02  0.7818609E-02  0.1379984E+01
      -11   -1    0    0    0    0  0.00000000000E+00  0.00000000000E+00  0.35740347158E-01  0.35744000000E-01  0.51099999109E-03 0.  1.
       11   -1    0    0    0    0 -0.00000000000E+00 -0.00000000000E+00 -0.35740347158E-01  0.35744000000E-01  0.51099999109E-03 0. -1.
       22    1    1    2    0    0  0.28597387872E-01  0.16490681634E-01 -0.13688696470E-01  0.35737005818E-01  0.00000000000E+00 0. -1.
  9000001    1    1    2    0    0 -0.28597387872E-01 -0.16490681634E-01  0.13688696470E-01  0.35750994182E-01  0.10000000475E-02 0.  1.
</event>
<event>
 4   0  0.2441219E-02  0.9118800E+02  0.7818609E-02  0.1379984E+01
      -11   -1    0    0    0    0  0.00000000000E+00  0.00000000000E+00  0.35740347158E-01  0.35744000000E-01  0.51099999109E-03 0. -1.
       11   -1    0    0    0    0 -0.00000000000E+00 -0.00000000000E+00 -0.35740347158E-01  0.35744000000E-01  0.51099999109E-03 0.  1.
       22    1    1    2    0    0 -0.41441671127E-02 -0.14033289622E-01 -0.32604083275E-01  0.35737005818E-01  0.00000000000E+00 0.  1.
  9000001    1    1    2    0    0  0.41441671127E-02  0.14033289622E-01  0.32604083275E-01  0.35750994182E-01  0.10000000475E-02 0. -1.
</event>
<event>
 4   0  0.2441219E-02  0.9118800E+02  0.7818609E-02  0.1379984E+01
      -11   -1    0    0    0    0  0.00000000000E+00  0.00000000000E+00  0.35740347158E-01  0.35744000000E-01  0.51099999109E-03 0.  1.
       11   -1    0    0    0    0 -0.00000000000E+00 -0.00000000000E+00 -0.35740347158E-01  0.35744000000E-01  0.51099999109E-03 0. -1.
       22    1    1    2    0    0  0.69320397753E-02  0.98489241191E-02  0.33646383210E-01  0.35737005818E-01  0.00000000000E+00 0.  1.
  9000001    1    1    2    0    0 -0.69320397753E-02 -0.98489241191E-02 -0.33646383210E-01  0.35750994182E-01  0.10000000475E-02 0. -1.
</event>
<event>
 4   0  0.2441219E-02  0.9118800E+02  0.7818609E-02  0.1379984E+01
      -11   -1    0    0    0    0  0.00000000000E+00  0.00000000000E+00  0.35740347158E-01  0.35744000000E-01  0.51099999109E-03 0.  1.
       11   -1    0    0    0    0 -0.00000000000E+00 -0.00000000000E+00 -0.35740347158E-01  0.35744000000E-01  0.51099999109E-03 0. -1.
       22    1    1    2    0    0 -0.25542699215E-02 -0.31103013318E-01 -0.17412979428E-01  0.35737005818E-01  0.00000000000E+00 0. -1.
  9000001    1    1    2    0    0  0.25542699215E-02  0.31103013318E-01  0.17412979428E-01  0.35750994182E-01  0.10000000475E-02 0.  1.
</event>
<event>
 4   0  0.2441219E-02  0.9118800E+02  0.7818609E-02  0.1379984E+01
      -11   -1    0    0    0    0  0.00000000000E+00  0.00000000000E+00  0.35740347158E-01  0.35744000000E-01  0.51099999109E-03 0. -1.
       11   -1    0    0    0    0 -0.00000000000E+00 -0.00000000000E+00 -0.35740347158E-01  0.35744000000E-01  0.51099999109E-03 0.  1.
       22    1    1    2    0    0 -0.33204393633E-02  0.15366212099E-02  0.35549220281E-01  0.35737005818E-01  0.00000000000E+00 0. -1.
  9000001    1    1    2    0    0  0.33204393633E-02 -0.15366212099E-02 -0.35549220281E-01  0.35750994182E-01  0.10000000475E-02 0.  1.
</event>
<event>
 4   0  0.2441219E-02  0.9118800E+02  0.7818609E-02  0.1379984E+01
      -11   -1    0    0    0    0  0.00000000000E+00  0.00000000000E+00  0.35740347158E-01  0.35744000000E-01  0.51099999109E-03 0. -1.
       11   -1    0    0    0    0 -0.00000000000E+00 -0.00000000000E+00 -0.35740347158E-01  0.35744000000E-01  0.51099999109E-03 0.  1.
       22    1    1    2    0    0  0.18274425022E-02  0.50436596370E-02 -0.35332075176E-01  0.35737005818E-01  0.00000000000E+00 0.  1.
  9000001    1    1    2    0    0 -0.18274425022E-02 -0.50436596370E-02  0.35332075176E-01  0.35750994182E-01  0.10000000475E-02 0. -1.
</event>
<event>
 4   0  0.2441219E-02  0.9118800E+02  0.7818609E-02  0.1379984E+01
      -11   -1    0    0    0    0  0.00000000000E+00  0.00000000000E+00  0.35740347158E-01  0.35744000000E-01  0.51099999109E-03 0.  1.
       11   -1    0    0    0    0 -0.00000000000E+00 -0.00000000000E+00 -0.35740347158E-01  0.35744000000E-01  0.51099999109E-03 0. -1.
       22    1    1    2    0    0  0.15396729285E-01  0.94568982472E-02 -0.30832472942E-01  0.35737005818E-01  0.00000000000E+00 0. -1.
  9000001    1    1    2    0    0 -0.15396729285E-01 -0.94568982472E-02  0.30832472942E-01  0.35750994182E-01  0.10000000475E-02 0.  1.
</event>
<event>
 4   0  0.2441219E-02  0.9118800E+02  0.7818609E-02  0.1379984E+01
      -11   -1    0    0    0    0  0.00000000000E+00  0.00000000000E+00  0.35740347158E-01  0.35744000000E-01  0.51099999109E-03 0. -1.
       11   -1    0    0    0    0 -0.00000000000E+00 -0.00000000000E+00 -0.35740347158E-01  0.35744000000E-01  0.51099999109E-03 0.  1.
       22    1    1    2    0    0 -0.14172881350E-01  0.16570408394E-01 -0.28314035120E-01  0.35737005818E-01  0.00000000000E+00 0.  1.
  9000001    1    1    2    0    0  0.14172881350E-01 -0.16570408394E-01  0.28314035120E-01  0.35750994182E-01  0.10000000475E-02 0. -1.
</event>
<event>
 4   0  0.2441219E-02  0.9118800E+02  0.7818609E-02  0.1379984E+01
      -11   -1    0    0    0    0  0.00000000000E+00  0.00000000000E+00  0.35740347158E-01  0.35744000000E-01  0.51099999109E-03 0. -1.
       11   -1    0    0    0    0 -0.00000000000E+00 -0.00000000000E+00 -0.35740347158E-01  0.35744000000E-01  0.51099999109E-03 0.  1.
       22    1    1    2    0    0  0.17511010714E-01  0.30235686548E-01  0.75034223921E-02  0.35737005818E-01  0.00000000000E+00 0. -1.
  9000001    1    1    2    0    0 -0.17511010714E-01 -0.30235686548E-01 -0.75034223921E-02  0.35750994182E-01  0.10000000475E-02 0.  1.
</event>
<event>
 4   0  0.2441219E-02  0.9118800E+02  0.7818609E-02  0.1379984E+01
      -11   -1    0    0    0    0  0.00000000000E+00  0.00000000000E+00  0.35740347158E-01  0.35744000000E-01  0.51099999109E-03 0. -1.
       11   -1    0    0    0    0 -0.00000000000E+00 -0.00000000000E+00 -0.35740347158E-01  0.35744000000E-01  0.51099999109E-03 0.  1.
       22    1    1    2    0    0 -0.23948253738E-02 -0.52941558880E-02  0.35261456432E-01  0.35737005818E-01  0.00000000000E+00 0. -1.
  9000001    1    1    2    0    0  0.23948253738E-02  0.52941558880E-02 -0.35261456432E-01  0.35750994182E-01  0.10000000475E-02 0.  1.
</event>
<event>
 4   0  0.2441219E-02  0.9118800E+02  0.7818609E-02  0.1379984E+01
      -11   -1    0    0    0    0  0.00000000000E+00  0.00000000000E+00  0.35740347158E-01  0.35744000000E-01  0.51099999109E-03 0.  1.
       11   -1    0    0    0    0 -0.00000000000E+00 -0.00000000000E+00 -0.35740347158E-01  0.35744000000E-01  0.51099999109E-03 0. -1.
       22    1    1    2    0    0  0.25410578133E-02  0.42425677716E-02 -0.35393180540E-01  0.35737005818E-01  0.00000000000E+00 0. -1.
  9000001    1    1    2    0    0 -0.25410578133E-02 -0.42425677716E-02  0.35393180540E-01  0.35750994182E-01  0.10000000475E-02 0.  1.
</event>
<event>
 4   0  0.2441219E-02  0.9118800E+02  0.7818609E-02  0.1379984E+01
      -11   -1    0    0    0    0  0.00000000000E+00  0.00000000000E+00  0.35740347158E-01  0.35744000000E-01  0.51099999109E-03 0. -1.
       11   -1    0    0    0    0 -0.00000000000E+00 -0.00000000000E+00 -0.35740347158E-01  0.35744000000E-01  0.51099999109E-03 0.  1.
       22    1    1    2    0    0 -0.37700759873E-03  0.40024910913E-02  0.35510160732E-01  0.35737005818E-01  0.00000000000E+00 0. -1.
  9000001    1    1    2    0    0  0.37700759873E-03 -0.40024910913E-02 -0.35510160732E-01  0.35750994182E-01  0.10000000475E-02 0.  1.
</event>
<event>
 4   0  0.2441219E-02  0.9118800E+02  0.7818609E-02  0.1379984E+01
      -11   -1    0    0    0    0  0.00000000000E+00  0.00000000000E+00  0.35740347158E-01  0.35744000000E-01  0.51099999109E-03 0.  1.
       11   -1    0    0    0    0 -0.00000000000E+00 -0.00000000000E+00 -0.35740347158E-01  0.35744000000E-01  0.51099999109E-03 0. -1.
       22    1    1    2    0    0  0.31441556119E-02 -0.38962807742E-02  0.35384556893E-01  0.35737005818E-01  0.00000000000E+00 0.  1.
  9000001    1    1    2    0    0 -0.31441556119E-02  0.38962807742E-02 -0.35384556893E-01  0.35750994182E-01  0.10000000475E-02 0. -1.
</event>
<event>
 4   0  0.2441219E-02  0.9118800E+02  0.7818609E-02  0.1379984E+01
      -11   -1    0    0    0    0  0.00000000000E+00  0.00000000000E+00  0.35740347158E-01  0.35744000000E-01  0.51099999109E-03 0.  1.
       11   -1    0    0    0    0 -0.00000000000E+00 -0.00000000000E+00 -0.35740347158E-01  0.35744000000E-01  0.51099999109E-03 0. -1.
       22    1    1    2    0    0 -0.53860385695E-02 -0.33907996268E-01 -0.99182640864E-02  0.35737005818E-01  0.00000000000E+00 0. -1.
  9000001    1    1    2    0    0  0.53860385695E-02  0.33907996268E-01  0.99182640864E-02  0.35750994182E-01  0.10000000475E-02 0.  1.
</event>
<event>
 4   0  0.2441219E-02  0.9118800E+02  0.7818609E-02  0.1379984E+01
      -11   -1    0    0    0    0  0.00000000000E+00  0.00000000000E+00  0.35740347158E-01  0.35744000000E-01  0.51099999109E-03 0. -1.
       11   -1    0    0    0    0 -0.00000000000E+00 -0.00000000000E+00 -0.35740347158E-01  0.35744000000E-01  0.51099999109E-03 0.  1.
       22    1    1    2    0    0  0.48528551853E-02  0.40562492940E-02 -0.35172862026E-01  0.35737005818E-01  0.00000000000E+00 0.  1.
  9000001    1    1    2    0    0 -0.48528551853E-02 -0.40562492940E-02  0.35172862026E-01  0.35750994182E-01  0.10000000475E-02 0. -1.
</event>
<event>
 4   0  0.2441219E-02  0.9118800E+02  0.7818609E-02  0.1379984E+01
      -11   -1    0    0    0    0  0.00000000000E+00  0.00000000000E+00  0.35740347158E-01  0.35744000000E-01  0.51099999109E-03 0.  1.
       11   -1    0    0    0    0 -0.00000000000E+00 -0.00000000000E+00 -0.35740347158E-01  0.35744000000E-01  0.51099999109E-03 0. -1.
       22    1    1    2    0    0  0.11688405878E-01  0.15554294523E-01  0.29976301886E-01  0.35737005818E-01  0.00000000000E+00 0.  1.
  9000001    1    1    2    0    0 -0.11688405878E-01 -0.15554294523E-01 -0.29976301886E-01  0.35750994182E-01  0.10000000475E-02 0. -1.
</event>
<event>
 4   0  0.2441219E-02  0.9118800E+02  0.7818609E-02  0.1379984E+01
      -11   -1    0    0    0    0  0.00000000000E+00  0.00000000000E+00  0.35740347158E-01  0.35744000000E-01  0.51099999109E-03 0. -1.
       11   -1    0    0    0    0 -0.00000000000E+00 -0.00000000000E+00 -0.35740347158E-01  0.35744000000E-01  0.51099999109E-03 0.  1.
       22    1    1    2    0    0 -0.53264914650E-02  0.19923791190E-01  0.29185692011E-01  0.35737005818E-01  0.00000000000E+00 0. -1.
  9000001    1    1    2    0    0  0.53264914650E-02 -0.19923791190E-01 -0.29185692011E-01  0.35750994182E-01  0.10000000475E-02 0.  1.
</event>
<event>
 4   0  0.2441219E-02  0.9118800E+02  0.7818609E-02  0.1379984E+01
      -11   -1    0    0    0    0  0.00000000000E+00  0.00000000000E+00  0.35740347158E-01  0.35744000000E-01  0.51099999109E-03 0.  1.
       11   -1    0    0    0    0 -0.00000000000E+00 -0.00000000000E+00 -0.35740347158E-01  0.35744000000E-01  0.51099999109E-03 0. -1.
       22    1    1    2    0    0  0.59475876473E-02 -0.85129793351E-02  0.34194867581E-01  0.35737005818E-01  0.00000000000E+00 0.  1.
  9000001    1    1    2    0    0 -0.59475876473E-02  0.85129793351E-02 -0.34194867581E-01  0.35750994182E-01  0.10000000475E-02 0. -1.
</event>
<event>
 4   0  0.2441219E-02  0.9118800E+02  0.7818609E-02  0.1379984E+01
      -11   -1    0    0    0    0  0.00000000000E+00  0.00000000000E+00  0.35740347158E-01  0.35744000000E-01  0.51099999109E-03 0.  1.
       11   -1    0    0    0    0 -0.00000000000E+00 -0.00000000000E+00 -0.35740347158E-01  0.35744000000E-01  0.51099999109E-03 0. -1.
       22    1    1    2    0    0  0.11061942068E-01  0.15777761078E-01 -0.30096997822E-01  0.35737005818E-01  0.00000000000E+00 0. -1.
  9000001    1    1    2    0    0 -0.11061942068E-01 -0.15777761078E-01  0.30096997822E-01  0.35750994182E-01  0.10000000475E-02 0.  1.
</event>
<event>
 4   0  0.2441219E-02  0.9118800E+02  0.7818609E-02  0.1379984E+01
      -11   -1    0    0    0    0  0.00000000000E+00  0.00000000000E+00  0.35740347158E-01  0.35744000000E-01  0.51099999109E-03 0.  1.
       11   -1    0    0    0    0 -0.00000000000E+00 -0.00000000000E+00 -0.35740347158E-01  0.35744000000E-01  0.51099999109E-03 0. -1.
       22    1    1    2    0    0 -0.30384330518E-01  0.14752827973E-01  0.11673907258E-01  0.35737005818E-01  0.00000000000E+00 0.  1.
  9000001    1    1    2    0    0  0.30384330518E-01 -0.14752827973E-01 -0.11673907258E-01  0.35750994182E-01  0.10000000475E-02 0. -1.
</event>
<event>
 4   0  0.2441219E-02  0.9118800E+02  0.7818609E-02  0.1379984E+01
      -11   -1    0    0    0    0  0.00000000000E+00  0.00000000000E+00  0.35740347158E-01  0.35744000000E-01  0.51099999109E-03 0. -1.
       11   -1    0    0    0    0 -0.00000000000E+00 -0.00000000000E+00 -0.35740347158E-01  0.35744000000E-01  0.51099999109E-03 0.  1.
       22    1    1    2    0    0  0.35515843878E-02 -0.43249144654E-02  0.35296103865E-01  0.35737005818E-01  0.00000000000E+00 0. -1.
  9000001    1    1    2    0    0 -0.35515843878E-02  0.43249144654E-02 -0.35296103865E-01  0.35750994182E-01  0.10000000475E-02 0.  1.
</event>
<event>
 4   0  0.2441219E-02  0.9118800E+02  0.7818609E-02  0.1379984E+01
      -11   -1    0    0    0    0  0.00000000000E+00  0.00000000000E+00  0.35740347158E-01  0.35744000000E-01  0.51099999109E-03 0. -1.
       11   -1    0    0    0    0 -0.00000000000E+00 -0.00000000000E+00 -0.35740347158E-01  0.35744000000E-01  0.51099999109E-03 0. -1.
       22    1    1    2    0    0 -0.31738640538E-03 -0.30449317683E-02 -0.35605634965E-01  0.35737005818E-01  0.00000000000E+00 0. -1.
  9000001    1    1    2    0    0  0.31738640538E-03  0.30449317683E-02  0.35605634965E-01  0.35750994182E-01  0.10000000475E-02 0. -1.
</event>
<event>
 4   0  0.2441219E-02  0.9118800E+02  0.7818609E-02  0.1379984E+01
      -11   -1    0    0    0    0  0.00000000000E+00  0.00000000000E+00  0.35740347158E-01  0.35744000000E-01  0.51099999109E-03 0. -1.
       11   -1    0    0    0    0 -0.00000000000E+00 -0.00000000000E+00 -0.35740347158E-01  0.35744000000E-01  0.51099999109E-03 0.  1.
       22    1    1    2    0    0 -0.22094576916E-01 -0.54433087777E-02  0.27556009241E-01  0.35737005818E-01  0.00000000000E+00 0. -1.
  9000001    1    1    2    0    0  0.22094576916E-01  0.54433087777E-02 -0.27556009241E-01  0.35750994182E-01  0.10000000475E-02 0.  1.
</event>
<event>
 4   0  0.2441219E-02  0.9118800E+02  0.7818609E-02  0.1379984E+01
      -11   -1    0    0    0    0  0.00000000000E+00  0.00000000000E+00  0.35740347158E-01  0.35744000000E-01  0.51099999109E-03 0. -1.
       11   -1    0    0    0    0 -0.00000000000E+00 -0.00000000000E+00 -0.35740347158E-01  0.35744000000E-01  0.51099999109E-03 0.  1.
       22    1    1    2    0    0  0.62223051399E-02 -0.22900493589E-02 -0.35116551333E-01  0.35737005818E-01  0.00000000000E+00 0.  1.
  9000001    1    1    2    0    0 -0.62223051399E-02  0.22900493589E-02  0.35116551333E-01  0.35750994182E-01  0.10000000475E-02 0. -1.
</event>
<event>
 4   0  0.2441219E-02  0.9118800E+02  0.7818609E-02  0.1379984E+01
      -11   -1    0    0    0    0  0.00000000000E+00  0.00000000000E+00  0.35740347158E-01  0.35744000000E-01  0.51099999109E-03 0.  1.
       11   -1    0    0    0    0 -0.00000000000E+00 -0.00000000000E+00 -0.35740347158E-01  0.35744000000E-01  0.51099999109E-03 0. -1.
       22    1    1    2    0    0 -0.45774053558E-02 -0.18241779934E-02  0.35395668093E-01  0.35737005818E-01  0.00000000000E+00 0.  1.
  9000001    1    1    2    0    0  0.45774053558E-02  0.18241779934E-02 -0.35395668093E-01  0.35750994182E-01  0.10000000475E-02 0. -1.
</event>
<event>
 4   0  0.2441219E-02  0.9118800E+02  0.7818609E-02  0.1379984E+01
      -11   -1    0    0    0    0  0.00000000000E+00  0.00000000000E+00  0.35740347158E-01  0.35744000000E-01  0.51099999109E-03 0.  1.
       11   -1    0    0    0    0 -0.00000000000E+00 -0.00000000000E+00 -0.35740347158E-01  0.35744000000E-01  0.51099999109E-03 0. -1.
       22    1    1    2    0    0  0.54596601647E-02 -0.47740533044E-03  0.35314271618E-01  0.35737005818E-01  0.00000000000E+00 0.  1.
  9000001    1    1    2    0    0 -0.54596601647E-02  0.47740533044E-03 -0.35314271618E-01  0.35750994182E-01  0.10000000475E-02 0. -1.
</event>
<event>
 4   0  0.2441219E-02  0.9118800E+02  0.7818609E-02  0.1379984E+01
      -11   -1    0    0    0    0  0.00000000000E+00  0.00000000000E+00  0.35740347158E-01  0.35744000000E-01  0.51099999109E-03 0. -1.
       11   -1    0    0    0    0 -0.00000000000E+00 -0.00000000000E+00 -0.35740347158E-01  0.35744000000E-01  0.51099999109E-03 0.  1.
       22    1    1    2    0    0 -0.19141684335E-02  0.15503316277E-01 -0.32142133229E-01  0.35737005818E-01  0.00000000000E+00 0.  1.
  9000001    1    1    2    0    0  0.19141684335E-02 -0.15503316277E-01  0.32142133229E-01  0.35750994182E-01  0.10000000475E-02 0. -1.
</event>
<event>
 4   0  0.2441219E-02  0.9118800E+02  0.7818609E-02  0.1379984E+01
      -11   -1    0    0    0    0  0.00000000000E+00  0.00000000000E+00  0.35740347158E-01  0.35744000000E-01  0.51099999109E-03 0.  1.
       11   -1    0    0    0    0 -0.00000000000E+00 -0.00000000000E+00 -0.35740347158E-01  0.35744000000E-01  0.51099999109E-03 0. -1.
       22    1    1    2    0    0 -0.78647176929E-02  0.89986618946E-02  0.33679428211E-01  0.35737005818E-01  0.00000000000E+00 0.  1.
  9000001    1    1    2    0    0  0.78647176929E-02 -0.89986618946E-02 -0.33679428211E-01  0.35750994182E-01  0.10000000475E-02 0. -1.
</event>
<event>
 4   0  0.2441219E-02  0.9118800E+02  0.7818609E-02  0.1379984E+01
      -11   -1    0    0    0    0  0.00000000000E+00  0.00000000000E+00  0.35740347158E-01  0.35744000000E-01  0.51099999109E-03 0. -1.
       11   -1    0    0    0    0 -0.00000000000E+00 -0.00000000000E+00 -0.35740347158E-01  0.35744000000E-01  0.51099999109E-03 0.  1.
       22    1    1    2    0    0 -0.18984265147E-01 -0.27053313079E-01  0.13595937377E-01  0.35737005818E-01  0.00000000000E+00 0. -1.
  9000001    1    1    2    0    0  0.18984265147E-01  0.27053313079E-01 -0.13595937377E-01  0.35750994182E-01  0.10000000475E-02 0.  1.
</event>
<event>
 4   0  0.2441219E-02  0.9118800E+02  0.7818609E-02  0.1379984E+01
      -11   -1    0    0    0    0  0.00000000000E+00  0.00000000000E+00  0.35740347158E-01  0.35744000000E-01  0.51099999109E-03 0. -1.
       11   -1    0    0    0    0 -0.00000000000E+00 -0.00000000000E+00 -0.35740347158E-01  0.35744000000E-01  0.51099999109E-03 0.  1.
       22    1    1    2    0    0  0.41866366606E-02 -0.36234406649E-02  0.35305471759E-01  0.35737005818E-01  0.00000000000E+00 0. -1.
  9000001    1    1    2    0    0 -0.41866366606E-02  0.36234406649E-02 -0.35305471759E-01  0.35750994182E-01  0.10000000475E-02 0.  1.
</event>
<event>
 4   0  0.2441219E-02  0.9118800E+02  0.7818609E-02  0.1379984E+01
      -11   -1    0    0    0    0  0.00000000000E+00  0.00000000000E+00  0.35740347158E-01  0.35744000000E-01  0.51099999109E-03 0.  1.
       11   -1    0    0    0    0 -0.00000000000E+00 -0.00000000000E+00 -0.35740347158E-01  0.35744000000E-01  0.51099999109E-03 0. -1.
       22    1    1    2    0    0 -0.34549062043E-03 -0.56209851627E-02  0.35290490885E-01  0.35737005818E-01  0.00000000000E+00 0.  1.
  9000001    1    1    2    0    0  0.34549062043E-03  0.56209851627E-02 -0.35290490885E-01  0.35750994182E-01  0.10000000475E-02 0. -1.
</event>
<event>
 4   0  0.2441219E-02  0.9118800E+02  0.7818609E-02  0.1379984E+01
      -11   -1    0    0    0    0  0.00000000000E+00  0.00000000000E+00  0.35740347158E-01  0.35744000000E-01  0.51099999109E-03 0. -1.
       11   -1    0    0    0    0 -0.00000000000E+00 -0.00000000000E+00 -0.35740347158E-01  0.35744000000E-01  0.51099999109E-03 0.  1.
       22    1    1    2    0    0  0.12911237155E-01 -0.15087552249E-01  0.29711938798E-01  0.35737005818E-01  0.00000000000E+00 0. -1.
  9000001    1    1    2    0    0 -0.12911237155E-01  0.15087552249E-01 -0.29711938798E-01  0.35750994182E-01  0.10000000475E-02 0.  1.
</event>
<event>
 4   0  0.2441219E-02  0.9118800E+02  0.7818609E-02  0.1379984E+01
      -11   -1    0    0    0    0  0.00000000000E+00  0.00000000000E+00  0.35740347158E-01  0.35744000000E-01  0.51099999109E-03 0.  1.
       11   -1    0    0    0    0 -0.00000000000E+00 -0.00000000000E+00 -0.35740347158E-01  0.35744000000E-01  0.51099999109E-03 0. -1.
       22    1    1    2    0    0 -0.18366968240E-03  0.32289484265E-02  0.35590360245E-01  0.35737005818E-01  0.00000000000E+00 0.  1.
  9000001    1    1    2    0    0  0.18366968240E-03 -0.32289484265E-02 -0.35590360245E-01  0.35750994182E-01  0.10000000475E-02 0. -1.
</event>
<event>
 4   0  0.2441219E-02  0.9118800E+02  0.7818609E-02  0.1379984E+01
      -11   -1    0    0    0    0  0.00000000000E+00  0.00000000000E+00  0.35740347158E-01  0.35744000000E-01  0.51099999109E-03 0.  1.
       11   -1    0    0    0    0 -0.00000000000E+00 -0.00000000000E+00 -0.35740347158E-01  0.35744000000E-01  0.51099999109E-03 0. -1.
       22    1    1    2    0    0 -0.58951930759E-02  0.23648967864E-02 -0.35167990370E-01  0.35737005818E-01  0.00000000000E+00 0. -1.
  9000001    1    1    2    0    0  0.58951930759E-02 -0.23648967864E-02  0.35167990370E-01  0.35750994182E-01  0.10000000475E-02 0.  1.
</event>
<event>
 4   0  0.2441219E-02  0.9118800E+02  0.7818609E-02  0.1379984E+01
      -11   -1    0    0    0    0  0.00000000000E+00  0.00000000000E+00  0.35740347158E-01  0.35744000000E-01  0.51099999109E-03 0.  1.
       11   -1    0    0    0    0 -0.00000000000E+00 -0.00000000000E+00 -0.35740347158E-01  0.35744000000E-01  0.51099999109E-03 0. -1.
       22    1    1    2    0    0  0.10350108100E-01 -0.13029233976E-01 -0.31626696147E-01  0.35737005818E-01  0.00000000000E+00 0. -1.
  9000001    1    1    2    0    0 -0.10350108100E-01  0.13029233976E-01  0.31626696147E-01  0.35750994182E-01  0.10000000475E-02 0.  1.
</event>
<event>
 4   0  0.2441219E-02  0.9118800E+02  0.7818609E-02  0.1379984E+01
      -11   -1    0    0    0    0  0.00000000000E+00  0.00000000000E+00  0.35740347158E-01  0.35744000000E-01  0.51099999109E-03 0.  1.
       11   -1    0    0    0    0 -0.00000000000E+00 -0.00000000000E+00 -0.35740347158E-01  0.35744000000E-01  0.51099999109E-03 0. -1.
       22    1    1    2    0    0 -0.90337957443E-02 -0.34350342651E-01  0.39469075353E-02  0.35737005818E-01  0.00000000000E+00 0. -1.
  9000001    1    1    2    0    0  0.90337957443E-02  0.34350342651E-01 -0.39469075353E-02  0.35750994182E-01  0.10000000475E-02 0.  1.
</event>
<event>
 4   0  0.2441219E-02  0.9118800E+02  0.7818609E-02  0.1379984E+01
      -11   -1    0    0    0    0  0.00000000000E+00  0.00000000000E+00  0.35740347158E-01  0.35744000000E-01  0.51099999109E-03 0. -1.
       11   -1    0    0    0    0 -0.00000000000E+00 -0.00000000000E+00 -0.35740347158E-01  0.35744000000E-01  0.51099999109E-03 0.  1.
       22    1    1    2    0    0 -0.45279163847E-02  0.65412120568E-03 -0.35442963809E-01  0.35737005818E-01  0.00000000000E+00 0.  1.
  9000001    1    1    2    0    0  0.45279163847E-02 -0.65412120568E-03  0.35442963809E-01  0.35750994182E-01  0.10000000475E-02 0. -1.
</event>
<event>
 4   0  0.2441219E-02  0.9118800E+02  0.7818609E-02  0.1379984E+01
      -11   -1    0    0    0    0  0.00000000000E+00  0.00000000000E+00  0.35740347158E-01  0.35744000000E-01  0.51099999109E-03 0. -1.
       11   -1    0    0    0    0 -0.00000000000E+00 -0.00000000000E+00 -0.35740347158E-01  0.35744000000E-01  0.51099999109E-03 0.  1.
       22    1    1    2    0    0  0.10671680370E-02 -0.28648795087E-02  0.35605999532E-01  0.35737005818E-01  0.00000000000E+00 0. -1.
  9000001    1    1    2    0    0 -0.10671680370E-02  0.28648795087E-02 -0.35605999532E-01  0.35750994182E-01  0.10000000475E-02 0.  1.
</event>
<event>
 4   0  0.2441219E-02  0.9118800E+02  0.7818609E-02  0.1379984E+01
      -11   -1    0    0    0    0  0.00000000000E+00  0.00000000000E+00  0.35740347158E-01  0.35744000000E-01  0.51099999109E-03 0. -1.
       11   -1    0    0    0    0 -0.00000000000E+00 -0.00000000000E+00 -0.35740347158E-01  0.35744000000E-01  0.51099999109E-03 0.  1.
       22    1    1    2    0    0 -0.20590577638E-01  0.45762357953E-02  0.28848219414E-01  0.35737005818E-01  0.00000000000E+00 0. -1.
  9000001    1    1    2    0    0  0.20590577638E-01 -0.45762357953E-02 -0.28848219414E-01  0.35750994182E-01  0.10000000475E-02 0.  1.
</event>
<event>
 4   0  0.2441219E-02  0.9118800E+02  0.7818609E-02  0.1379984E+01
      -11   -1    0    0    0    0  0.00000000000E+00  0.00000000000E+00  0.35740347158E-01  0.35744000000E-01  0.51099999109E-03 0.  1.
       11   -1    0    0    0    0 -0.00000000000E+00 -0.00000000000E+00 -0.35740347158E-01  0.35744000000E-01  0.51099999109E-03 0. -1.
       22    1    1    2    0    0 -0.88675022513E-02  0.23939147486E-01  0.25008362728E-01  0.35737005818E-01  0.00000000000E+00 0.  1.
  9000001    1    1    2    0    0  0.88675022513E-02 -0.23939147486E-01 -0.25008362728E-01  0.35750994182E-01  0.10000000475E-02 0. -1.
</event>
<event>
 4   0  0.2441219E-02  0.9118800E+02  0.7818609E-02  0.1379984E+01
      -11   -1    0    0    0    0  0.00000000000E+00  0.00000000000E+00  0.35740347158E-01  0.35744000000E-01  0.51099999109E-03 0. -1.
       11   -1    0    0    0    0 -0.00000000000E+00 -0.00000000000E+00 -0.35740347158E-01  0.35744000000E-01  0.51099999109E-03 0.  1.
       22    1    1    2    0    0 -0.35601797979E-02 -0.15102819486E-02  0.35527141077E-01  0.35737005818E-01  0.00000000000E+00 0. -1.
  9000001    1    1    2    0    0  0.35601797979E-02  0.15102819486E-02 -0.35527141077E-01  0.35750994182E-01  0.10000000475E-02 0.  1.
</event>
<event>
 4   0  0.2441219E-02  0.9118800E+02  0.7818609E-02  0.1379984E+01
      -11   -1    0    0    0    0  0.00000000000E+00  0.00000000000E+00  0.35740347158E-01  0.35744000000E-01  0.51099999109E-03 0. -1.
       11   -1    0    0    0    0 -0.00000000000E+00 -0.00000000000E+00 -0.35740347158E-01  0.35744000000E-01  0.51099999109E-03 0.  1.
       22    1    1    2    0    0  0.10990073448E-02  0.12166167646E-01  0.33584373338E-01  0.35737005818E-01  0.00000000000E+00 0. -1.
  9000001    1    1    2    0    0 -0.10990073448E-02 -0.12166167646E-01 -0.33584373338E-01  0.35750994182E-01  0.10000000475E-02 0.  1.
</event>
<event>
 4   0  0.2441219E-02  0.9118800E+02  0.7818609E-02  0.1379984E+01
      -11   -1    0    0    0    0  0.00000000000E+00  0.00000000000E+00  0.35740347158E-01  0.35744000000E-01  0.51099999109E-03 0.  1.
       11   -1    0    0    0    0 -0.00000000000E+00 -0.00000000000E+00 -0.35740347158E-01  0.35744000000E-01  0.51099999109E-03 0. -1.
       22    1    1    2    0    0  0.11147572827E-02 -0.41416723690E-02 -0.35478690098E-01  0.35737005818E-01  0.00000000000E+00 0. -1.
  9000001    1    1    2    0    0 -0.11147572827E-02  0.41416723690E-02  0.35478690098E-01  0.35750994182E-01  0.10000000475E-02 0.  1.
</event>
<event>
 4   0  0.2441219E-02  0.9118800E+02  0.7818609E-02  0.1379984E+01
      -11   -1    0    0    0    0  0.00000000000E+00  0.00000000000E+00  0.35740347158E-01  0.35744000000E-01  0.51099999109E-03 0.  1.
       11   -1    0    0    0    0 -0.00000000000E+00 -0.00000000000E+00 -0.35740347158E-01  0.35744000000E-01  0.51099999109E-03 0. -1.
       22    1    1    2    0    0 -0.17893139856E-01 -0.30460190291E-01  0.53986978445E-02  0.35737005818E-01  0.00000000000E+00 0.  1.
  9000001    1    1    2    0    0  0.17893139856E-01  0.30460190291E-01 -0.53986978445E-02  0.35750994182E-01  0.10000000475E-02 0. -1.
</event>
<event>
 4   0  0.2441219E-02  0.9118800E+02  0.7818609E-02  0.1379984E+01
      -11   -1    0    0    0    0  0.00000000000E+00  0.00000000000E+00  0.35740347158E-01  0.35744000000E-01  0.51099999109E-03 0. -1.
       11   -1    0    0    0    0 -0.00000000000E+00 -0.00000000000E+00 -0.35740347158E-01  0.35744000000E-01  0.51099999109E-03 0.  1.
       22    1    1    2    0    0  0.65931011844E-02 -0.15321953703E-01  0.31605416251E-01  0.35737005818E-01  0.00000000000E+00 0. -1.
  9000001    1    1    2    0    0 -0.65931011844E-02  0.15321953703E-01 -0.31605416251E-01  0.35750994182E-01  0.10000000475E-02 0.  1.
</event>
<event>
 4   0  0.2441219E-02  0.9118800E+02  0.7818609E-02  0.1379984E+01
      -11   -1    0    0    0    0  0.00000000000E+00  0.00000000000E+00  0.35740347158E-01  0.35744000000E-01  0.51099999109E-03 0. -1.
       11   -1    0    0    0    0 -0.00000000000E+00 -0.00000000000E+00 -0.35740347158E-01  0.35744000000E-01  0.51099999109E-03 0.  1.
       22    1    1    2    0    0 -0.17430390027E-02  0.27446628282E-02 -0.35588793543E-01  0.35737005818E-01  0.00000000000E+00 0.  1.
  9000001    1    1    2    0    0  0.17430390027E-02 -0.27446628282E-02  0.35588793543E-01  0.35750994182E-01  0.10000000475E-02 0. -1.
</event>
<event>
 4   0  0.2441219E-02  0.9118800E+02  0.7818609E-02  0.1379984E+01
      -11   -1    0    0    0    0  0.00000000000E+00  0.00000000000E+00  0.35740347158E-01  0.35744000000E-01  0.51099999109E-03 0.  1.
       11   -1    0    0    0    0 -0.00000000000E+00 -0.00000000000E+00 -0.35740347158E-01  0.35744000000E-01  0.51099999109E-03 0. -1.
       22    1    1    2    0    0 -0.85636964119E-02  0.31302637307E-01  0.14964677953E-01  0.35737005818E-01  0.00000000000E+00 0.  1.
  9000001    1    1    2    0    0  0.85636964119E-02 -0.31302637307E-01 -0.14964677953E-01  0.35750994182E-01  0.10000000475E-02 0. -1.
</event>
<event>
 4   0  0.2441219E-02  0.9118800E+02  0.7818609E-02  0.1379984E+01
      -11   -1    0    0    0    0  0.00000000000E+00  0.00000000000E+00  0.35740347158E-01  0.35744000000E-01  0.51099999109E-03 0. -1.
       11   -1    0    0    0    0 -0.00000000000E+00 -0.00000000000E+00 -0.35740347158E-01  0.35744000000E-01  0.51099999109E-03 0.  1.
       22    1    1    2    0    0  0.17873426284E-02 -0.24786862973E-02  0.35606110507E-01  0.35737005818E-01  0.00000000000E+00 0. -1.
  9000001    1    1    2    0    0 -0.17873426284E-02  0.24786862973E-02 -0.35606110507E-01  0.35750994182E-01  0.10000000475E-02 0.  1.
</event>
<event>
 4   0  0.2441219E-02  0.9118800E+02  0.7818609E-02  0.1379984E+01
      -11   -1    0    0    0    0  0.00000000000E+00  0.00000000000E+00  0.35740347158E-01  0.35744000000E-01  0.51099999109E-03 0. -1.
       11   -1    0    0    0    0 -0.00000000000E+00 -0.00000000000E+00 -0.35740347158E-01  0.35744000000E-01  0.51099999109E-03 0.  1.
       22    1    1    2    0    0 -0.12824744786E-01  0.16957166489E-01 -0.28724797836E-01  0.35737005818E-01  0.00000000000E+00 0.  1.
  9000001    1    1    2    0    0  0.12824744786E-01 -0.16957166489E-01  0.28724797836E-01  0.35750994182E-01  0.10000000475E-02 0. -1.
</event>
<event>
 4   0  0.2441219E-02  0.9118800E+02  0.7818609E-02  0.1379984E+01
      -11   -1    0    0    0    0  0.00000000000E+00  0.00000000000E+00  0.35740347158E-01  0.35744000000E-01  0.51099999109E-03 0.  1.
       11   -1    0    0    0    0 -0.00000000000E+00 -0.00000000000E+00 -0.35740347158E-01  0.35744000000E-01  0.51099999109E-03 0. -1.
       22    1    1    2    0    0 -0.57271275482E-02  0.18939260285E-02 -0.35224233691E-01  0.35737005818E-01  0.00000000000E+00 0. -1.
  9000001    1    1    2    0    0  0.57271275482E-02 -0.18939260285E-02  0.35224233691E-01  0.35750994182E-01  0.10000000475E-02 0.  1.
</event>
<event>
 4   0  0.2441219E-02  0.9118800E+02  0.7818609E-02  0.1379984E+01
      -11   -1    0    0    0    0  0.00000000000E+00  0.00000000000E+00  0.35740347158E-01  0.35744000000E-01  0.51099999109E-03 0. -1.
       11   -1    0    0    0    0 -0.00000000000E+00 -0.00000000000E+00 -0.35740347158E-01  0.35744000000E-01  0.51099999109E-03 0.  1.
       22    1    1    2    0    0  0.21837177291E-02 -0.61426483171E-02 -0.35137342435E-01  0.35737005818E-01  0.00000000000E+00 0.  1.
  9000001    1    1    2    0    0 -0.21837177291E-02  0.61426483171E-02  0.35137342435E-01  0.35750994182E-01  0.10000000475E-02 0. -1.
</event>
<event>
 4   0  0.2441219E-02  0.9118800E+02  0.7818609E-02  0.1379984E+01
      -11   -1    0    0    0    0  0.00000000000E+00  0.00000000000E+00  0.35740347158E-01  0.35744000000E-01  0.51099999109E-03 0.  1.
       11   -1    0    0    0    0 -0.00000000000E+00 -0.00000000000E+00 -0.35740347158E-01  0.35744000000E-01  0.51099999109E-03 0. -1.
       22    1    1    2    0    0 -0.40964142218E-02 -0.16006748067E-01  0.31688120672E-01  0.35737005818E-01  0.00000000000E+00 0.  1.
  9000001    1    1    2    0    0  0.40964142218E-02  0.16006748067E-01 -0.31688120672E-01  0.35750994182E-01  0.10000000475E-02 0. -1.
</event>
<event>
 4   0  0.2441219E-02  0.9118800E+02  0.7818609E-02  0.1379984E+01
      -11   -1    0    0    0    0  0.00000000000E+00  0.00000000000E+00  0.35740347158E-01  0.35744000000E-01  0.51099999109E-03 0. -1.
       11   -1    0    0    0    0 -0.00000000000E+00 -0.00000000000E+00 -0.35740347158E-01  0.35744000000E-01  0.51099999109E-03 0.  1.
       22    1    1    2    0    0  0.27421141129E-01  0.19336140136E-01 -0.12301556351E-01  0.35737005818E-01  0.00000000000E+00 0.  1.
  9000001    1    1    2    0    0 -0.27421141129E-01 -0.19336140136E-01  0.12301556351E-01  0.35750994182E-01  0.10000000475E-02 0. -1.
</event>
<event>
 4   0  0.2441219E-02  0.9118800E+02  0.7818609E-02  0.1379984E+01
      -11   -1    0    0    0    0  0.00000000000E+00  0.00000000000E+00  0.35740347158E-01  0.35744000000E-01  0.51099999109E-03 0. -1.
       11   -1    0    0    0    0 -0.00000000000E+00 -0.00000000000E+00 -0.35740347158E-01  0.35744000000E-01  0.51099999109E-03 0.  1.
       22    1    1    2    0    0 -0.23191017378E-01  0.27182932485E-01  0.63125221623E-03  0.35737005818E-01  0.00000000000E+00 0.  1.
  9000001    1    1    2    0    0  0.23191017378E-01 -0.27182932485E-01 -0.63125221623E-03  0.35750994182E-01  0.10000000475E-02 0. -1.
</event>
<event>
 4   0  0.2441219E-02  0.9118800E+02  0.7818609E-02  0.1379984E+01
      -11   -1    0    0    0    0  0.00000000000E+00  0.00000000000E+00  0.35740347158E-01  0.35744000000E-01  0.51099999109E-03 0. -1.
       11   -1    0    0    0    0 -0.00000000000E+00 -0.00000000000E+00 -0.35740347158E-01  0.35744000000E-01  0.51099999109E-03 0.  1.
       22    1    1    2    0    0 -0.69849383413E-02 -0.35261731934E-02 -0.34869905705E-01  0.35737005818E-01  0.00000000000E+00 0.  1.
  9000001    1    1    2    0    0  0.69849383413E-02  0.35261731934E-02  0.34869905705E-01  0.35750994182E-01  0.10000000475E-02 0. -1.
</event>
<event>
 4   0  0.2441219E-02  0.9118800E+02  0.7818609E-02  0.1379984E+01
      -11   -1    0    0    0    0  0.00000000000E+00  0.00000000000E+00  0.35740347158E-01  0.35744000000E-01  0.51099999109E-03 0.  1.
       11   -1    0    0    0    0 -0.00000000000E+00 -0.00000000000E+00 -0.35740347158E-01  0.35744000000E-01  0.51099999109E-03 0. -1.
       22    1    1    2    0    0  0.12944686841E-03  0.12074809590E-01  0.33635038304E-01  0.35737005818E-01  0.00000000000E+00 0.  1.
  9000001    1    1    2    0    0 -0.12944686841E-03 -0.12074809590E-01 -0.33635038304E-01  0.35750994182E-01  0.10000000475E-02 0. -1.
</event>
<event>
 4   0  0.2441219E-02  0.9118800E+02  0.7818609E-02  0.1379984E+01
      -11   -1    0    0    0    0  0.00000000000E+00  0.00000000000E+00  0.35740347158E-01  0.35744000000E-01  0.51099999109E-03 0.  1.
       11   -1    0    0    0    0 -0.00000000000E+00 -0.00000000000E+00 -0.35740347158E-01  0.35744000000E-01  0.51099999109E-03 0. -1.
       22    1    1    2    0    0 -0.19705146209E-01  0.26066010520E-01  0.14470794495E-01  0.35737005818E-01  0.00000000000E+00 0.  1.
  9000001    1    1    2    0    0  0.19705146209E-01 -0.26066010520E-01 -0.14470794495E-01  0.35750994182E-01  0.10000000475E-02 0. -1.
</event>
<event>
 4   0  0.2441219E-02  0.9118800E+02  0.7818609E-02  0.1379984E+01
      -11   -1    0    0    0    0  0.00000000000E+00  0.00000000000E+00  0.35740347158E-01  0.35744000000E-01  0.51099999109E-03 0. -1.
       11   -1    0    0    0    0 -0.00000000000E+00 -0.00000000000E+00 -0.35740347158E-01  0.35744000000E-01  0.51099999109E-03 0.  1.
       22    1    1    2    0    0 -0.86473196720E-03  0.29540975974E-02 -0.35604201029E-01  0.35737005818E-01  0.00000000000E+00 0.  1.
  9000001    1    1    2    0    0  0.86473196720E-03 -0.29540975974E-02  0.35604201029E-01  0.35750994182E-01  0.10000000475E-02 0. -1.
</event>
<event>
 4   0  0.2441219E-02  0.9118800E+02  0.7818609E-02  0.1379984E+01
      -11   -1    0    0    0    0  0.00000000000E+00  0.00000000000E+00  0.35740347158E-01  0.35744000000E-01  0.51099999109E-03 0.  1.
       11   -1    0    0    0    0 -0.00000000000E+00 -0.00000000000E+00 -0.35740347158E-01  0.35744000000E-01  0.51099999109E-03 0. -1.
       22    1    1    2    0    0  0.63905888823E-02 -0.24509390252E-01  0.25210786344E-01  0.35737005818E-01  0.00000000000E+00 0.  1.
  9000001    1    1    2    0    0 -0.63905888823E-02  0.24509390252E-01 -0.25210786344E-01  0.35750994182E-01  0.10000000475E-02 0. -1.
</event>
<event>
 4   0  0.2441219E-02  0.9118800E+02  0.7818609E-02  0.1379984E+01
      -11   -1    0    0    0    0  0.00000000000E+00  0.00000000000E+00  0.35740347158E-01  0.35744000000E-01  0.51099999109E-03 0.  1.
       11   -1    0    0    0    0 -0.00000000000E+00 -0.00000000000E+00 -0.35740347158E-01  0.35744000000E-01  0.51099999109E-03 0. -1.
       22    1    1    2    0    0 -0.23727683310E-01 -0.23019888220E-01 -0.13572596507E-01  0.35737005818E-01  0.00000000000E+00 0. -1.
  9000001    1    1    2    0    0  0.23727683310E-01  0.23019888220E-01  0.13572596507E-01  0.35750994182E-01  0.10000000475E-02 0.  1.
</event>
<event>
 4   0  0.2441219E-02  0.9118800E+02  0.7818609E-02  0.1379984E+01
      -11   -1    0    0    0    0  0.00000000000E+00  0.00000000000E+00  0.35740347158E-01  0.35744000000E-01  0.51099999109E-03 0.  1.
       11   -1    0    0    0    0 -0.00000000000E+00 -0.00000000000E+00 -0.35740347158E-01  0.35744000000E-01  0.51099999109E-03 0. -1.
       22    1    1    2    0    0 -0.43765470623E-02  0.21889545290E-02 -0.35400394048E-01  0.35737005818E-01  0.00000000000E+00 0. -1.
  9000001    1    1    2    0    0  0.43765470623E-02 -0.21889545290E-02  0.35400394048E-01  0.35750994182E-01  0.10000000475E-02 0.  1.
</event>
<event>
 4   0  0.2441219E-02  0.9118800E+02  0.7818609E-02  0.1379984E+01
      -11   -1    0    0    0    0  0.00000000000E+00  0.00000000000E+00  0.35740347158E-01  0.35744000000E-01  0.51099999109E-03 0. -1.
       11   -1    0    0    0    0 -0.00000000000E+00 -0.00000000000E+00 -0.35740347158E-01  0.35744000000E-01  0.51099999109E-03 0.  1.
       22    1    1    2    0    0 -0.17355729269E-02  0.51598896798E-02  0.35319922282E-01  0.35737005818E-01  0.00000000000E+00 0. -1.
  9000001    1    1    2    0    0  0.17355729269E-02 -0.51598896798E-02 -0.35319922282E-01  0.35750994182E-01  0.10000000475E-02 0.  1.
</event>
<event>
 4   0  0.2441219E-02  0.9118800E+02  0.7818609E-02  0.1379984E+01
      -11   -1    0    0    0    0  0.00000000000E+00  0.00000000000E+00  0.35740347158E-01  0.35744000000E-01  0.51099999109E-03 0.  1.
       11   -1    0    0    0    0 -0.00000000000E+00 -0.00000000000E+00 -0.35740347158E-01  0.35744000000E-01  0.51099999109E-03 0. -1.
       22    1    1    2    0    0 -0.41949996838E-02  0.11583825085E-01  0.33546245079E-01  0.35737005818E-01  0.00000000000E+00 0.  1.
  9000001    1    1    2    0    0  0.41949996838E-02 -0.11583825085E-01 -0.33546245079E-01  0.35750994182E-01  0.10000000475E-02 0. -1.
</event>
<event>
 4   0  0.2441219E-02  0.9118800E+02  0.7818609E-02  0.1379984E+01
      -11   -1    0    0    0    0  0.00000000000E+00  0.00000000000E+00  0.35740347158E-01  0.35744000000E-01  0.51099999109E-03 0. -1.
       11   -1    0    0    0    0 -0.00000000000E+00 -0.00000000000E+00 -0.35740347158E-01  0.35744000000E-01  0.51099999109E-03 0.  1.
       22    1    1    2    0    0  0.13502746266E-02  0.41929330162E-02  0.35464484432E-01  0.35737005818E-01  0.00000000000E+00 0. -1.
  9000001    1    1    2    0    0 -0.13502746266E-02 -0.41929330162E-02 -0.35464484432E-01  0.35750994182E-01  0.10000000475E-02 0.  1.
</event>
<event>
 4   0  0.2441219E-02  0.9118800E+02  0.7818609E-02  0.1379984E+01
      -11   -1    0    0    0    0  0.00000000000E+00  0.00000000000E+00  0.35740347158E-01  0.35744000000E-01  0.51099999109E-03 0. -1.
       11   -1    0    0    0    0 -0.00000000000E+00 -0.00000000000E+00 -0.35740347158E-01  0.35744000000E-01  0.51099999109E-03 0.  1.
       22    1    1    2    0    0  0.24500000055E-02  0.39651935375E-02 -0.35431741773E-01  0.35737005818E-01  0.00000000000E+00 0.  1.
  9000001    1    1    2    0    0 -0.24500000055E-02 -0.39651935375E-02  0.35431741773E-01  0.35750994182E-01  0.10000000475E-02 0. -1.
</event>
<event>
 4   0  0.2441219E-02  0.9118800E+02  0.7818609E-02  0.1379984E+01
      -11   -1    0    0    0    0  0.00000000000E+00  0.00000000000E+00  0.35740347158E-01  0.35744000000E-01  0.51099999109E-03 0. -1.
       11   -1    0    0    0    0 -0.00000000000E+00 -0.00000000000E+00 -0.35740347158E-01  0.35744000000E-01  0.51099999109E-03 0.  1.
       22    1    1    2    0    0 -0.15685847997E-02 -0.27987680187E-02  0.35592696220E-01  0.35737005818E-01  0.00000000000E+00 0. -1.
  9000001    1    1    2    0    0  0.15685847997E-02  0.27987680187E-02 -0.35592696220E-01  0.35750994182E-01  0.10000000475E-02 0.  1.
</event>
<event>
 4   0  0.2441219E-02  0.9118800E+02  0.7818609E-02  0.1379984E+01
      -11   -1    0    0    0    0  0.00000000000E+00  0.00000000000E+00  0.35740347158E-01  0.35744000000E-01  0.51099999109E-03 0. -1.
       11   -1    0    0    0    0 -0.00000000000E+00 -0.00000000000E+00 -0.35740347158E-01  0.35744000000E-01  0.51099999109E-03 0.  1.
       22    1    1    2    0    0  0.14780225073E-02  0.64721918077E-02  0.35114950769E-01  0.35737005818E-01  0.00000000000E+00 0. -1.
  9000001    1    1    2    0    0 -0.14780225073E-02 -0.64721918077E-02 -0.35114950769E-01  0.35750994182E-01  0.10000000475E-02 0.  1.
</event>
<event>
 4   0  0.2441219E-02  0.9118800E+02  0.7818609E-02  0.1379984E+01
      -11   -1    0    0    0    0  0.00000000000E+00  0.00000000000E+00  0.35740347158E-01  0.35744000000E-01  0.51099999109E-03 0. -1.
       11   -1    0    0    0    0 -0.00000000000E+00 -0.00000000000E+00 -0.35740347158E-01  0.35744000000E-01  0.51099999109E-03 0.  1.
       22    1    1    2    0    0 -0.29579526951E-01  0.20081341900E-02  0.19953760730E-01  0.35737005818E-01  0.00000000000E+00 0. -1.
  9000001    1    1    2    0    0  0.29579526951E-01 -0.20081341900E-02 -0.19953760730E-01  0.35750994182E-01  0.10000000475E-02 0.  1.
</event>
<event>
 4   0  0.2441219E-02  0.9118800E+02  0.7818609E-02  0.1379984E+01
      -11   -1    0    0    0    0  0.00000000000E+00  0.00000000000E+00  0.35740347158E-01  0.35744000000E-01  0.51099999109E-03 0.  1.
       11   -1    0    0    0    0 -0.00000000000E+00 -0.00000000000E+00 -0.35740347158E-01  0.35744000000E-01  0.51099999109E-03 0. -1.
       22    1    1    2    0    0  0.92206039903E-03 -0.45130431771E-02  0.35438902787E-01  0.35737005818E-01  0.00000000000E+00 0.  1.
  9000001    1    1    2    0    0 -0.92206039903E-03  0.45130431771E-02 -0.35438902787E-01  0.35750994182E-01  0.10000000475E-02 0. -1.
</event>
<event>
 4   0  0.2441219E-02  0.9118800E+02  0.7818609E-02  0.1379984E+01
      -11   -1    0    0    0    0  0.00000000000E+00  0.00000000000E+00  0.35740347158E-01  0.35744000000E-01  0.51099999109E-03 0.  1.
       11   -1    0    0    0    0 -0.00000000000E+00 -0.00000000000E+00 -0.35740347158E-01  0.35744000000E-01  0.51099999109E-03 0. -1.
       22    1    1    2    0    0 -0.13927243664E-02  0.76918063538E-02  0.34871621969E-01  0.35737005818E-01  0.00000000000E+00 0.  1.
  9000001    1    1    2    0    0  0.13927243664E-02 -0.76918063538E-02 -0.34871621969E-01  0.35750994182E-01  0.10000000475E-02 0. -1.
</event>
<event>
 4   0  0.2441219E-02  0.9118800E+02  0.7818609E-02  0.1379984E+01
      -11   -1    0    0    0    0  0.00000000000E+00  0.00000000000E+00  0.35740347158E-01  0.35744000000E-01  0.51099999109E-03 0. -1.
       11   -1    0    0    0    0 -0.00000000000E+00 -0.00000000000E+00 -0.35740347158E-01  0.35744000000E-01  0.51099999109E-03 0.  1.
       22    1    1    2    0    0 -0.32851609892E-02  0.32339773696E-02  0.35438435244E-01  0.35737005818E-01  0.00000000000E+00 0. -1.
  9000001    1    1    2    0    0  0.32851609892E-02 -0.32339773696E-02 -0.35438435244E-01  0.35750994182E-01  0.10000000475E-02 0.  1.
</event>
<event>
 4   0  0.2441219E-02  0.9118800E+02  0.7818609E-02  0.1379984E+01
      -11   -1    0    0    0    0  0.00000000000E+00  0.00000000000E+00  0.35740347158E-01  0.35744000000E-01  0.51099999109E-03 0.  1.
       11   -1    0    0    0    0 -0.00000000000E+00 -0.00000000000E+00 -0.35740347158E-01  0.35744000000E-01  0.51099999109E-03 0. -1.
       22    1    1    2    0    0 -0.44741549061E-02  0.57728987536E-02  0.34982698048E-01  0.35737005818E-01  0.00000000000E+00 0.  1.
  9000001    1    1    2    0    0  0.44741549061E-02 -0.57728987536E-02 -0.34982698048E-01  0.35750994182E-01  0.10000000475E-02 0. -1.
</event>
<event>
 4   0  0.2441219E-02  0.9118800E+02  0.7818609E-02  0.1379984E+01
      -11   -1    0    0    0    0  0.00000000000E+00  0.00000000000E+00  0.35740347158E-01  0.35744000000E-01  0.51099999109E-03 0. -1.
       11   -1    0    0    0    0 -0.00000000000E+00 -0.00000000000E+00 -0.35740347158E-01  0.35744000000E-01  0.51099999109E-03 0.  1.
       22    1    1    2    0    0  0.27068472212E-02 -0.24158222468E-02  0.35552360904E-01  0.35737005818E-01  0.00000000000E+00 0. -1.
  9000001    1    1    2    0    0 -0.27068472212E-02  0.24158222468E-02 -0.35552360904E-01  0.35750994182E-01  0.10000000475E-02 0.  1.
</event>
<event>
 4   0  0.2441219E-02  0.9118800E+02  0.7818609E-02  0.1379984E+01
      -11   -1    0    0    0    0  0.00000000000E+00  0.00000000000E+00  0.35740347158E-01  0.35744000000E-01  0.51099999109E-03 0. -1.
       11   -1    0    0    0    0 -0.00000000000E+00 -0.00000000000E+00 -0.35740347158E-01  0.35744000000E-01  0.51099999109E-03 0.  1.
       22    1    1    2    0    0 -0.19179819244E-01  0.13973215334E-01  0.26721103493E-01  0.35737005818E-01  0.00000000000E+00 0. -1.
  9000001    1    1    2    0    0  0.19179819244E-01 -0.13973215334E-01 -0.26721103493E-01  0.35750994182E-01  0.10000000475E-02 0.  1.
</event>
<event>
 4   0  0.2441219E-02  0.9118800E+02  0.7818609E-02  0.1379984E+01
      -11   -1    0    0    0    0  0.00000000000E+00  0.00000000000E+00  0.35740347158E-01  0.35744000000E-01  0.51099999109E-03 0. -1.
       11   -1    0    0    0    0 -0.00000000000E+00 -0.00000000000E+00 -0.35740347158E-01  0.35744000000E-01  0.51099999109E-03 0.  1.
       22    1    1    2    0    0 -0.59990121505E-02 -0.74119617676E-02 -0.34441374259E-01  0.35737005818E-01  0.00000000000E+00 0.  1.
  9000001    1    1    2    0    0  0.59990121505E-02  0.74119617676E-02  0.34441374259E-01  0.35750994182E-01  0.10000000475E-02 0. -1.
</event>
<event>
 4   0  0.2441219E-02  0.9118800E+02  0.7818609E-02  0.1379984E+01
      -11   -1    0    0    0    0  0.00000000000E+00  0.00000000000E+00  0.35740347158E-01  0.35744000000E-01  0.51099999109E-03 0.  1.
       11   -1    0    0    0    0 -0.00000000000E+00 -0.00000000000E+00 -0.35740347158E-01  0.35744000000E-01  0.51099999109E-03 0. -1.
       22    1    1    2    0    0  0.11682812518E-01 -0.26189226078E-01  0.21325335026E-01  0.35737005818E-01  0.00000000000E+00 0.  1.
  9000001    1    1    2    0    0 -0.11682812518E-01  0.26189226078E-01 -0.21325335026E-01  0.35750994182E-01  0.10000000475E-02 0. -1.
</event>
<event>
 4   0  0.2441219E-02  0.9118800E+02  0.7818609E-02  0.1379984E+01
      -11   -1    0    0    0    0  0.00000000000E+00  0.00000000000E+00  0.35740347158E-01  0.35744000000E-01  0.51099999109E-03 0.  1.
       11   -1    0    0    0    0 -0.00000000000E+00 -0.00000000000E+00 -0.35740347158E-01  0.35744000000E-01  0.51099999109E-03 0. -1.
       22    1    1    2    0    0 -0.34404890176E-02  0.66194253751E-02  0.34949675648E-01  0.35737005818E-01  0.00000000000E+00 0.  1.
  9000001    1    1    2    0    0  0.34404890176E-02 -0.66194253751E-02 -0.34949675648E-01  0.35750994182E-01  0.10000000475E-02 0. -1.
</event>
<event>
 4   0  0.2441219E-02  0.9118800E+02  0.7818609E-02  0.1379984E+01
      -11   -1    0    0    0    0  0.00000000000E+00  0.00000000000E+00  0.35740347158E-01  0.35744000000E-01  0.51099999109E-03 0.  1.
       11   -1    0    0    0    0 -0.00000000000E+00 -0.00000000000E+00 -0.35740347158E-01  0.35744000000E-01  0.51099999109E-03 0. -1.
       22    1    1    2    0    0  0.39751500981E-02 -0.56613533850E-02 -0.35061101586E-01  0.35737005818E-01  0.00000000000E+00 0. -1.
  9000001    1    1    2    0    0 -0.39751500981E-02  0.56613533850E-02  0.35061101586E-01  0.35750994182E-01  0.10000000475E-02 0.  1.
</event>
<event>
 4   0  0.2441219E-02  0.9118800E+02  0.7818609E-02  0.1379984E+01
      -11   -1    0    0    0    0  0.00000000000E+00  0.00000000000E+00  0.35740347158E-01  0.35744000000E-01  0.51099999109E-03 0.  1.
       11   -1    0    0    0    0 -0.00000000000E+00 -0.00000000000E+00 -0.35740347158E-01  0.35744000000E-01  0.51099999109E-03 0. -1.
       22    1    1    2    0    0 -0.79363774045E-02  0.36092693290E-02  0.34657187905E-01  0.35737005818E-01  0.00000000000E+00 0.  1.
  9000001    1    1    2    0    0  0.79363774045E-02 -0.36092693290E-02 -0.34657187905E-01  0.35750994182E-01  0.10000000475E-02 0. -1.
</event>
<event>
 4   0  0.2441219E-02  0.9118800E+02  0.7818609E-02  0.1379984E+01
      -11   -1    0    0    0    0  0.00000000000E+00  0.00000000000E+00  0.35740347158E-01  0.35744000000E-01  0.51099999109E-03 0. -1.
       11   -1    0    0    0    0 -0.00000000000E+00 -0.00000000000E+00 -0.35740347158E-01  0.35744000000E-01  0.51099999109E-03 0.  1.
       22    1    1    2    0    0  0.68282565552E-02 -0.30619640342E-01  0.17115668922E-01  0.35737005818E-01  0.00000000000E+00 0. -1.
  9000001    1    1    2    0    0 -0.68282565552E-02  0.30619640342E-01 -0.17115668922E-01  0.35750994182E-01  0.10000000475E-02 0.  1.
</event>
<event>
 4   0  0.2441219E-02  0.9118800E+02  0.7818609E-02  0.1379984E+01
      -11   -1    0    0    0    0  0.00000000000E+00  0.00000000000E+00  0.35740347158E-01  0.35744000000E-01  0.51099999109E-03 0. -1.
       11   -1    0    0    0    0 -0.00000000000E+00 -0.00000000000E+00 -0.35740347158E-01  0.35744000000E-01  0.51099999109E-03 0.  1.
       22    1    1    2    0    0  0.84415816802E-02  0.19543038932E-01 -0.28704405810E-01  0.35737005818E-01  0.00000000000E+00 0.  1.
  9000001    1    1    2    0    0 -0.84415816802E-02 -0.19543038932E-01  0.28704405810E-01  0.35750994182E-01  0.10000000475E-02 0. -1.
</event>
<event>
 4   0  0.2441219E-02  0.9118800E+02  0.7818609E-02  0.1379984E+01
      -11   -1    0    0    0    0  0.00000000000E+00  0.00000000000E+00  0.35740347158E-01  0.35744000000E-01  0.51099999109E-03 0.  1.
       11   -1    0    0    0    0 -0.00000000000E+00 -0.00000000000E+00 -0.35740347158E-01  0.35744000000E-01  0.51099999109E-03 0. -1.
       22    1    1    2    0    0 -0.73465069220E-02  0.11450249996E-01  0.33046243296E-01  0.35737005818E-01  0.00000000000E+00 0.  1.
  9000001    1    1    2    0    0  0.73465069220E-02 -0.11450249996E-01 -0.33046243296E-01  0.35750994182E-01  0.10000000475E-02 0. -1.
</event>
<event>
 4   0  0.2441219E-02  0.9118800E+02  0.7818609E-02  0.1379984E+01
      -11   -1    0    0    0    0  0.00000000000E+00  0.00000000000E+00  0.35740347158E-01  0.35744000000E-01  0.51099999109E-03 0. -1.
       11   -1    0    0    0    0 -0.00000000000E+00 -0.00000000000E+00 -0.35740347158E-01  0.35744000000E-01  0.51099999109E-03 0.  1.
       22    1    1    2    0    0  0.10656249606E-01 -0.74112880856E-02  0.33296407286E-01  0.35737005818E-01  0.00000000000E+00 0. -1.
  9000001    1    1    2    0    0 -0.10656249606E-01  0.74112880856E-02 -0.33296407286E-01  0.35750994182E-01  0.10000000475E-02 0.  1.
</event>
<event>
 4   0  0.2441219E-02  0.9118800E+02  0.7818609E-02  0.1379984E+01
      -11   -1    0    0    0    0  0.00000000000E+00  0.00000000000E+00  0.35740347158E-01  0.35744000000E-01  0.51099999109E-03 0.  1.
       11   -1    0    0    0    0 -0.00000000000E+00 -0.00000000000E+00 -0.35740347158E-01  0.35744000000E-01  0.51099999109E-03 0. -1.
       22    1    1    2    0    0 -0.19296568064E-02 -0.28536072034E-02  0.35570590878E-01  0.35737005818E-01  0.00000000000E+00 0.  1.
  9000001    1    1    2    0    0  0.19296568064E-02  0.28536072034E-02 -0.35570590878E-01  0.35750994182E-01  0.10000000475E-02 0. -1.
</event>
<event>
 4   0  0.2441219E-02  0.9118800E+02  0.7818609E-02  0.1379984E+01
      -11   -1    0    0    0    0  0.00000000000E+00  0.00000000000E+00  0.35740347158E-01  0.35744000000E-01  0.51099999109E-03 0. -1.
       11   -1    0    0    0    0 -0.00000000000E+00 -0.00000000000E+00 -0.35740347158E-01  0.35744000000E-01  0.51099999109E-03 0.  1.
       22    1    1    2    0    0  0.16753382911E-02 -0.27258668897E-02  0.35593489239E-01  0.35737005818E-01  0.00000000000E+00 0. -1.
  9000001    1    1    2    0    0 -0.16753382911E-02  0.27258668897E-02 -0.35593489239E-01  0.35750994182E-01  0.10000000475E-02 0.  1.
</event>
<event>
 4   0  0.2441219E-02  0.9118800E+02  0.7818609E-02  0.1379984E+01
      -11   -1    0    0    0    0  0.00000000000E+00  0.00000000000E+00  0.35740347158E-01  0.35744000000E-01  0.51099999109E-03 0.  1.
       11   -1    0    0    0    0 -0.00000000000E+00 -0.00000000000E+00 -0.35740347158E-01  0.35744000000E-01  0.51099999109E-03 0. -1.
       22    1    1    2    0    0  0.10658799104E-01 -0.66468711620E-02  0.33456579178E-01  0.35737005818E-01  0.00000000000E+00 0.  1.
  9000001    1    1    2    0    0 -0.10658799104E-01  0.66468711620E-02 -0.33456579178E-01  0.35750994182E-01  0.10000000475E-02 0. -1.
</event>
<event>
 4   0  0.2441219E-02  0.9118800E+02  0.7818609E-02  0.1379984E+01
      -11   -1    0    0    0    0  0.00000000000E+00  0.00000000000E+00  0.35740347158E-01  0.35744000000E-01  0.51099999109E-03 0. -1.
       11   -1    0    0    0    0 -0.00000000000E+00 -0.00000000000E+00 -0.35740347158E-01  0.35744000000E-01  0.51099999109E-03 0.  1.
       22    1    1    2    0    0 -0.10068205564E-01 -0.50669946092E-02 -0.33912982576E-01  0.35737005818E-01  0.00000000000E+00 0.  1.
  9000001    1    1    2    0    0  0.10068205564E-01  0.50669946092E-02  0.33912982576E-01  0.35750994182E-01  0.10000000475E-02 0. -1.
</event>
<event>
 4   0  0.2441219E-02  0.9118800E+02  0.7818609E-02  0.1379984E+01
      -11   -1    0    0    0    0  0.00000000000E+00  0.00000000000E+00  0.35740347158E-01  0.35744000000E-01  0.51099999109E-03 0. -1.
       11   -1    0    0    0    0 -0.00000000000E+00 -0.00000000000E+00 -0.35740347158E-01  0.35744000000E-01  0.51099999109E-03 0.  1.
       22    1    1    2    0    0 -0.41547680780E-02  0.30790342807E-02 -0.35360868697E-01  0.35737005818E-01  0.00000000000E+00 0.  1.
  9000001    1    1    2    0    0  0.41547680780E-02 -0.30790342807E-02  0.35360868697E-01  0.35750994182E-01  0.10000000475E-02 0. -1.
</event>
<event>
 4   0  0.2441219E-02  0.9118800E+02  0.7818609E-02  0.1379984E+01
      -11   -1    0    0    0    0  0.00000000000E+00  0.00000000000E+00  0.35740347158E-01  0.35744000000E-01  0.51099999109E-03 0.  1.
       11   -1    0    0    0    0 -0.00000000000E+00 -0.00000000000E+00 -0.35740347158E-01  0.35744000000E-01  0.51099999109E-03 0. -1.
       22    1    1    2    0    0 -0.28037840398E-01 -0.23313813121E-02 -0.22035828822E-01  0.35737005818E-01  0.00000000000E+00 0. -1.
  9000001    1    1    2    0    0  0.28037840398E-01  0.23313813121E-02  0.22035828822E-01  0.35750994182E-01  0.10000000475E-02 0.  1.
</event>
<event>
 4   0  0.2441219E-02  0.9118800E+02  0.7818609E-02  0.1379984E+01
      -11   -1    0    0    0    0  0.00000000000E+00  0.00000000000E+00  0.35740347158E-01  0.35744000000E-01  0.51099999109E-03 0.  1.
       11   -1    0    0    0    0 -0.00000000000E+00 -0.00000000000E+00 -0.35740347158E-01  0.35744000000E-01  0.51099999109E-03 0. -1.
       22    1    1    2    0    0  0.77782285061E-03  0.22815998191E-01 -0.27494705000E-01  0.35737005818E-01  0.00000000000E+00 0. -1.
  9000001    1    1    2    0    0 -0.77782285061E-03 -0.22815998191E-01  0.27494705000E-01  0.35750994182E-01  0.10000000475E-02 0.  1.
</event>
<event>
 4   0  0.2441219E-02  0.9118800E+02  0.7818609E-02  0.1379984E+01
      -11   -1    0    0    0    0  0.00000000000E+00  0.00000000000E+00  0.35740347158E-01  0.35744000000E-01  0.51099999109E-03 0. -1.
       11   -1    0    0    0    0 -0.00000000000E+00 -0.00000000000E+00 -0.35740347158E-01  0.35744000000E-01  0.51099999109E-03 0.  1.
       22    1    1    2    0    0 -0.12197086535E-01 -0.32340190881E-01  0.90816693775E-02  0.35737005818E-01  0.00000000000E+00 0.  1.
  9000001    1    1    2    0    0  0.12197086535E-01  0.32340190881E-01 -0.90816693775E-02  0.35750994182E-01  0.10000000475E-02 0. -1.
</event>
<event>
 4   0  0.2441219E-02  0.9118800E+02  0.7818609E-02  0.1379984E+01
      -11   -1    0    0    0    0  0.00000000000E+00  0.00000000000E+00  0.35740347158E-01  0.35744000000E-01  0.51099999109E-03 0.  1.
       11   -1    0    0    0    0 -0.00000000000E+00 -0.00000000000E+00 -0.35740347158E-01  0.35744000000E-01  0.51099999109E-03 0. -1.
       22    1    1    2    0    0 -0.12813538662E-02  0.73655038026E-02  0.34946259755E-01  0.35737005818E-01  0.00000000000E+00 0.  1.
  9000001    1    1    2    0    0  0.12813538662E-02 -0.73655038026E-02 -0.34946259755E-01  0.35750994182E-01  0.10000000475E-02 0. -1.
</event>
<event>
 4   0  0.2441219E-02  0.9118800E+02  0.7818609E-02  0.1379984E+01
      -11   -1    0    0    0    0  0.00000000000E+00  0.00000000000E+00  0.35740347158E-01  0.35744000000E-01  0.51099999109E-03 0. -1.
       11   -1    0    0    0    0 -0.00000000000E+00 -0.00000000000E+00 -0.35740347158E-01  0.35744000000E-01  0.51099999109E-03 0.  1.
       22    1    1    2    0    0  0.90046349290E-02  0.38311934488E-03  0.34581835611E-01  0.35737005818E-01  0.00000000000E+00 0. -1.
  9000001    1    1    2    0    0 -0.90046349290E-02 -0.38311934488E-03 -0.34581835611E-01  0.35750994182E-01  0.10000000475E-02 0.  1.
</event>
<event>
 4   0  0.2441219E-02  0.9118800E+02  0.7818609E-02  0.1379984E+01
      -11   -1    0    0    0    0  0.00000000000E+00  0.00000000000E+00  0.35740347158E-01  0.35744000000E-01  0.51099999109E-03 0.  1.
       11   -1    0    0    0    0 -0.00000000000E+00 -0.00000000000E+00 -0.35740347158E-01  0.35744000000E-01  0.51099999109E-03 0. -1.
       22    1    1    2    0    0  0.81483043037E-03 -0.81418536280E-02  0.34787639410E-01  0.35737005818E-01  0.00000000000E+00 0.  1.
  9000001    1    1    2    0    0 -0.81483043037E-03  0.81418536280E-02 -0.34787639410E-01  0.35750994182E-01  0.10000000475E-02 0. -1.
</event>
<event>
 4   0  0.2441219E-02  0.9118800E+02  0.7818609E-02  0.1379984E+01
      -11   -1    0    0    0    0  0.00000000000E+00  0.00000000000E+00  0.35740347158E-01  0.35744000000E-01  0.51099999109E-03 0. -1.
       11   -1    0    0    0    0 -0.00000000000E+00 -0.00000000000E+00 -0.35740347158E-01  0.35744000000E-01  0.51099999109E-03 0.  1.
       22    1    1    2    0    0  0.12055125074E-01  0.12989100511E-01  0.31033704456E-01  0.35737005818E-01  0.00000000000E+00 0. -1.
  9000001    1    1    2    0    0 -0.12055125074E-01 -0.12989100511E-01 -0.31033704456E-01  0.35750994182E-01  0.10000000475E-02 0.  1.
</event>
<event>
 4   0  0.2441219E-02  0.9118800E+02  0.7818609E-02  0.1379984E+01
      -11   -1    0    0    0    0  0.00000000000E+00  0.00000000000E+00  0.35740347158E-01  0.35744000000E-01  0.51099999109E-03 0. -1.
       11   -1    0    0    0    0 -0.00000000000E+00 -0.00000000000E+00 -0.35740347158E-01  0.35744000000E-01  0.51099999109E-03 0.  1.
       22    1    1    2    0    0 -0.15505300237E-01 -0.17808801413E-01  0.26824724447E-01  0.35737005818E-01  0.00000000000E+00 0. -1.
  9000001    1    1    2    0    0  0.15505300237E-01  0.17808801413E-01 -0.26824724447E-01  0.35750994182E-01  0.10000000475E-02 0.  1.
</event>
<event>
 4   0  0.2441219E-02  0.9118800E+02  0.7818609E-02  0.1379984E+01
      -11   -1    0    0    0    0  0.00000000000E+00  0.00000000000E+00  0.35740347158E-01  0.35744000000E-01  0.51099999109E-03 0.  1.
       11   -1    0    0    0    0 -0.00000000000E+00 -0.00000000000E+00 -0.35740347158E-01  0.35744000000E-01  0.51099999109E-03 0. -1.
       22    1    1    2    0    0 -0.82688172366E-02  0.18676033258E-02  0.34717031904E-01  0.35737005818E-01  0.00000000000E+00 0.  1.
  9000001    1    1    2    0    0  0.82688172366E-02 -0.18676033258E-02 -0.34717031904E-01  0.35750994182E-01  0.10000000475E-02 0. -1.
</event>
<event>
 4   0  0.2441219E-02  0.9118800E+02  0.7818609E-02  0.1379984E+01
      -11   -1    0    0    0    0  0.00000000000E+00  0.00000000000E+00  0.35740347158E-01  0.35744000000E-01  0.51099999109E-03 0.  1.
       11   -1    0    0    0    0 -0.00000000000E+00 -0.00000000000E+00 -0.35740347158E-01  0.35744000000E-01  0.51099999109E-03 0. -1.
       22    1    1    2    0    0  0.21147699327E-02 -0.45837837502E-02  0.35378669556E-01  0.35737005818E-01  0.00000000000E+00 0.  1.
  9000001    1    1    2    0    0 -0.21147699327E-02  0.45837837502E-02 -0.35378669556E-01  0.35750994182E-01  0.10000000475E-02 0. -1.
</event>
<event>
 4   0  0.2441219E-02  0.9118800E+02  0.7818609E-02  0.1379984E+01
      -11   -1    0    0    0    0  0.00000000000E+00  0.00000000000E+00  0.35740347158E-01  0.35744000000E-01  0.51099999109E-03 0.  1.
       11   -1    0    0    0    0 -0.00000000000E+00 -0.00000000000E+00 -0.35740347158E-01  0.35744000000E-01  0.51099999109E-03 0. -1.
       22    1    1    2    0    0  0.35935349322E-02 -0.26630466055E-02  0.35456004771E-01  0.35737005818E-01  0.00000000000E+00 0.  1.
  9000001    1    1    2    0    0 -0.35935349322E-02  0.26630466055E-02 -0.35456004771E-01  0.35750994182E-01  0.10000000475E-02 0. -1.
</event>
<event>
 4   0  0.2441219E-02  0.9118800E+02  0.7818609E-02  0.1379984E+01
      -11   -1    0    0    0    0  0.00000000000E+00  0.00000000000E+00  0.35740347158E-01  0.35744000000E-01  0.51099999109E-03 0. -1.
       11   -1    0    0    0    0 -0.00000000000E+00 -0.00000000000E+00 -0.35740347158E-01  0.35744000000E-01  0.51099999109E-03 0.  1.
       22    1    1    2    0    0 -0.23341470786E-01  0.18356283021E-01  0.19883566081E-01  0.35737005818E-01  0.00000000000E+00 0. -1.
  9000001    1    1    2    0    0  0.23341470786E-01 -0.18356283021E-01 -0.19883566081E-01  0.35750994182E-01  0.10000000475E-02 0.  1.
</event>
<event>
 4   0  0.2441219E-02  0.9118800E+02  0.7818609E-02  0.1379984E+01
      -11   -1    0    0    0    0  0.00000000000E+00  0.00000000000E+00  0.35740347158E-01  0.35744000000E-01  0.51099999109E-03 0.  1.
       11   -1    0    0    0    0 -0.00000000000E+00 -0.00000000000E+00 -0.35740347158E-01  0.35744000000E-01  0.51099999109E-03 0. -1.
       22    1    1    2    0    0 -0.22407818749E-02 -0.15577926860E-01  0.32084897946E-01  0.35737005818E-01  0.00000000000E+00 0.  1.
  9000001    1    1    2    0    0  0.22407818749E-02  0.15577926860E-01 -0.32084897946E-01  0.35750994182E-01  0.10000000475E-02 0. -1.
</event>
<event>
 4   0  0.2441219E-02  0.9118800E+02  0.7818609E-02  0.1379984E+01
      -11   -1    0    0    0    0  0.00000000000E+00  0.00000000000E+00  0.35740347158E-01  0.35744000000E-01  0.51099999109E-03 0. -1.
       11   -1    0    0    0    0 -0.00000000000E+00 -0.00000000000E+00 -0.35740347158E-01  0.35744000000E-01  0.51099999109E-03 0.  1.
       22    1    1    2    0    0 -0.19231265086E-01  0.21416667608E-01 -0.21180613226E-01  0.35737005818E-01  0.00000000000E+00 0.  1.
  9000001    1    1    2    0    0  0.19231265086E-01 -0.21416667608E-01  0.21180613226E-01  0.35750994182E-01  0.10000000475E-02 0. -1.
</event>
<event>
 4   0  0.2441219E-02  0.9118800E+02  0.7818609E-02  0.1379984E+01
      -11   -1    0    0    0    0  0.00000000000E+00  0.00000000000E+00  0.35740347158E-01  0.35744000000E-01  0.51099999109E-03 0.  1.
       11   -1    0    0    0    0 -0.00000000000E+00 -0.00000000000E+00 -0.35740347158E-01  0.35744000000E-01  0.51099999109E-03 0. -1.
       22    1    1    2    0    0  0.33928366485E-02 -0.22997261136E-02 -0.35501176095E-01  0.35737005818E-01  0.00000000000E+00 0. -1.
  9000001    1    1    2    0    0 -0.33928366485E-02  0.22997261136E-02  0.35501176095E-01  0.35750994182E-01  0.10000000475E-02 0.  1.
</event>
<event>
 4   0  0.2441219E-02  0.9118800E+02  0.7818609E-02  0.1379984E+01
      -11   -1    0    0    0    0  0.00000000000E+00  0.00000000000E+00  0.35740347158E-01  0.35744000000E-01  0.51099999109E-03 0.  1.
       11   -1    0    0    0    0 -0.00000000000E+00 -0.00000000000E+00 -0.35740347158E-01  0.35744000000E-01  0.51099999109E-03 0. -1.
       22    1    1    2    0    0 -0.18797576190E-02  0.17076244836E-01  0.31336910481E-01  0.35737005818E-01  0.00000000000E+00 0.  1.
  9000001    1    1    2    0    0  0.18797576190E-02 -0.17076244836E-01 -0.31336910481E-01  0.35750994182E-01  0.10000000475E-02 0. -1.
</event>
<event>
 4   0  0.2441219E-02  0.9118800E+02  0.7818609E-02  0.1379984E+01
      -11   -1    0    0    0    0  0.00000000000E+00  0.00000000000E+00  0.35740347158E-01  0.35744000000E-01  0.51099999109E-03 0.  1.
       11   -1    0    0    0    0 -0.00000000000E+00 -0.00000000000E+00 -0.35740347158E-01  0.35744000000E-01  0.51099999109E-03 0. -1.
       22    1    1    2    0    0  0.50155400367E-02  0.12069359423E-01  0.33261216245E-01  0.35737005818E-01  0.00000000000E+00 0.  1.
  9000001    1    1    2    0    0 -0.50155400367E-02 -0.12069359423E-01 -0.33261216245E-01  0.35750994182E-01  0.10000000475E-02 0. -1.
</event>
<event>
 4   0  0.2441219E-02  0.9118800E+02  0.7818609E-02  0.1379984E+01
      -11   -1    0    0    0    0  0.00000000000E+00  0.00000000000E+00  0.35740347158E-01  0.35744000000E-01  0.51099999109E-03 0. -1.
       11   -1    0    0    0    0 -0.00000000000E+00 -0.00000000000E+00 -0.35740347158E-01  0.35744000000E-01  0.51099999109E-03 0.  1.
       22    1    1    2    0    0  0.19253821345E-02  0.80188119190E-02 -0.34772476816E-01  0.35737005818E-01  0.00000000000E+00 0.  1.
  9000001    1    1    2    0    0 -0.19253821345E-02 -0.80188119190E-02  0.34772476816E-01  0.35750994182E-01  0.10000000475E-02 0. -1.
</event>
<event>
 4   0  0.2441219E-02  0.9118800E+02  0.7818609E-02  0.1379984E+01
      -11   -1    0    0    0    0  0.00000000000E+00  0.00000000000E+00  0.35740347158E-01  0.35744000000E-01  0.51099999109E-03 0.  1.
       11   -1    0    0    0    0 -0.00000000000E+00 -0.00000000000E+00 -0.35740347158E-01  0.35744000000E-01  0.51099999109E-03 0. -1.
       22    1    1    2    0    0  0.66892464064E-02  0.86806049151E-02 -0.34015212269E-01  0.35737005818E-01  0.00000000000E+00 0. -1.
  9000001    1    1    2    0    0 -0.66892464064E-02 -0.86806049151E-02  0.34015212269E-01  0.35750994182E-01  0.10000000475E-02 0.  1.
</event>
<event>
 4   0  0.2441219E-02  0.9118800E+02  0.7818609E-02  0.1379984E+01
      -11   -1    0    0    0    0  0.00000000000E+00  0.00000000000E+00  0.35740347158E-01  0.35744000000E-01  0.51099999109E-03 0.  1.
       11   -1    0    0    0    0 -0.00000000000E+00 -0.00000000000E+00 -0.35740347158E-01  0.35744000000E-01  0.51099999109E-03 0. -1.
       22    1    1    2    0    0 -0.34260328903E-01 -0.52373559204E-02  0.87139859590E-02  0.35737005818E-01  0.00000000000E+00 0.  1.
  9000001    1    1    2    0    0  0.34260328903E-01  0.52373559204E-02 -0.87139859590E-02  0.35750994182E-01  0.10000000475E-02 0. -1.
</event>
<event>
 4   0  0.2441219E-02  0.9118800E+02  0.7818609E-02  0.1379984E+01
      -11   -1    0    0    0    0  0.00000000000E+00  0.00000000000E+00  0.35740347158E-01  0.35744000000E-01  0.51099999109E-03 0. -1.
       11   -1    0    0    0    0 -0.00000000000E+00 -0.00000000000E+00 -0.35740347158E-01  0.35744000000E-01  0.51099999109E-03 0.  1.
       22    1    1    2    0    0  0.12237100147E-01  0.64367367439E-03 -0.33570413299E-01  0.35737005818E-01  0.00000000000E+00 0.  1.
  9000001    1    1    2    0    0 -0.12237100147E-01 -0.64367367439E-03  0.33570413299E-01  0.35750994182E-01  0.10000000475E-02 0. -1.
</event>
<event>
 4   0  0.2441219E-02  0.9118800E+02  0.7818609E-02  0.1379984E+01
      -11   -1    0    0    0    0  0.00000000000E+00  0.00000000000E+00  0.35740347158E-01  0.35744000000E-01  0.51099999109E-03 0. -1.
       11   -1    0    0    0    0 -0.00000000000E+00 -0.00000000000E+00 -0.35740347158E-01  0.35744000000E-01  0.51099999109E-03 0.  1.
       22    1    1    2    0    0  0.36204729242E-02  0.29230144836E-02 -0.35432777862E-01  0.35737005818E-01  0.00000000000E+00 0.  1.
  9000001    1    1    2    0    0 -0.36204729242E-02 -0.29230144836E-02  0.35432777862E-01  0.35750994182E-01  0.10000000475E-02 0. -1.
</event>
<event>
 4   0  0.2441219E-02  0.9118800E+02  0.7818609E-02  0.1379984E+01
      -11   -1    0    0    0    0  0.00000000000E+00  0.00000000000E+00  0.35740347158E-01  0.35744000000E-01  0.51099999109E-03 0.  1.
       11   -1    0    0    0    0 -0.00000000000E+00 -0.00000000000E+00 -0.35740347158E-01  0.35744000000E-01  0.51099999109E-03 0. -1.
       22    1    1    2    0    0  0.36218801117E-02  0.32849330743E-02  0.35400915017E-01  0.35737005818E-01  0.00000000000E+00 0.  1.
  9000001    1    1    2    0    0 -0.36218801117E-02 -0.32849330743E-02 -0.35400915017E-01  0.35750994182E-01  0.10000000475E-02 0. -1.
</event>
<event>
 4   0  0.2441219E-02  0.9118800E+02  0.7818609E-02  0.1379984E+01
      -11   -1    0    0    0    0  0.00000000000E+00  0.00000000000E+00  0.35740347158E-01  0.35744000000E-01  0.51099999109E-03 0. -1.
       11   -1    0    0    0    0 -0.00000000000E+00 -0.00000000000E+00 -0.35740347158E-01  0.35744000000E-01  0.51099999109E-03 0.  1.
       22    1    1    2    0    0  0.54938271514E-02 -0.32460454507E-02 -0.35162688137E-01  0.35737005818E-01  0.00000000000E+00 0.  1.
  9000001    1    1    2    0    0 -0.54938271514E-02  0.32460454507E-02  0.35162688137E-01  0.35750994182E-01  0.10000000475E-02 0. -1.
</event>
<event>
 4   0  0.2441219E-02  0.9118800E+02  0.7818609E-02  0.1379984E+01
      -11   -1    0    0    0    0  0.00000000000E+00  0.00000000000E+00  0.35740347158E-01  0.35744000000E-01  0.51099999109E-03 0.  1.
       11   -1    0    0    0    0 -0.00000000000E+00 -0.00000000000E+00 -0.35740347158E-01  0.35744000000E-01  0.51099999109E-03 0. -1.
       22    1    1    2    0    0  0.80938544639E-02  0.24073851735E-01  0.25141057405E-01  0.35737005818E-01  0.00000000000E+00 0. -1.
  9000001    1    1    2    0    0 -0.80938544639E-02 -0.24073851735E-01 -0.25141057405E-01  0.35750994182E-01  0.10000000475E-02 0.  1.
</event>
<event>
 4   0  0.2441219E-02  0.9118800E+02  0.7818609E-02  0.1379984E+01
      -11   -1    0    0    0    0  0.00000000000E+00  0.00000000000E+00  0.35740347158E-01  0.35744000000E-01  0.51099999109E-03 0.  1.
       11   -1    0    0    0    0 -0.00000000000E+00 -0.00000000000E+00 -0.35740347158E-01  0.35744000000E-01  0.51099999109E-03 0. -1.
       22    1    1    2    0    0 -0.24099600621E-02 -0.26115175154E-02 -0.35559888268E-01  0.35737005818E-01  0.00000000000E+00 0. -1.
  9000001    1    1    2    0    0  0.24099600621E-02  0.26115175154E-02  0.35559888268E-01  0.35750994182E-01  0.10000000475E-02 0.  1.
</event>
<event>
 4   0  0.2441219E-02  0.9118800E+02  0.7818609E-02  0.1379984E+01
      -11   -1    0    0    0    0  0.00000000000E+00  0.00000000000E+00  0.35740347158E-01  0.35744000000E-01  0.51099999109E-03 0. -1.
       11   -1    0    0    0    0 -0.00000000000E+00 -0.00000000000E+00 -0.35740347158E-01  0.35744000000E-01  0.51099999109E-03 0.  1.
       22    1    1    2    0    0 -0.18030992274E-02 -0.51676441306E-02 -0.35315405593E-01  0.35737005818E-01  0.00000000000E+00 0.  1.
  9000001    1    1    2    0    0  0.18030992274E-02  0.51676441306E-02  0.35315405593E-01  0.35750994182E-01  0.10000000475E-02 0. -1.
</event>
<event>
 4   0  0.2441219E-02  0.9118800E+02  0.7818609E-02  0.1379984E+01
      -11   -1    0    0    0    0  0.00000000000E+00  0.00000000000E+00  0.35740347158E-01  0.35744000000E-01  0.51099999109E-03 0.  1.
       11   -1    0    0    0    0 -0.00000000000E+00 -0.00000000000E+00 -0.35740347158E-01  0.35744000000E-01  0.51099999109E-03 0. -1.
       22    1    1    2    0    0  0.36641124966E-02 -0.39686614423E-02  0.35326443224E-01  0.35737005818E-01  0.00000000000E+00 0.  1.
  9000001    1    1    2    0    0 -0.36641124966E-02  0.39686614423E-02 -0.35326443224E-01  0.35750994182E-01  0.10000000475E-02 0. -1.
</event>
<event>
 4   0  0.2441219E-02  0.9118800E+02  0.7818609E-02  0.1379984E+01
      -11   -1    0    0    0    0  0.00000000000E+00  0.00000000000E+00  0.35740347158E-01  0.35744000000E-01  0.51099999109E-03 0. -1.
       11   -1    0    0    0    0 -0.00000000000E+00 -0.00000000000E+00 -0.35740347158E-01  0.35744000000E-01  0.51099999109E-03 0.  1.
       22    1    1    2    0    0  0.35715920008E-02 -0.67101614120E-02  0.34919207455E-01  0.35737005818E-01  0.00000000000E+00 0. -1.
  9000001    1    1    2    0    0 -0.35715920008E-02  0.67101614120E-02 -0.34919207455E-01  0.35750994182E-01  0.10000000475E-02 0.  1.
</event>
<event>
 4   0  0.2441219E-02  0.9118800E+02  0.7818609E-02  0.1379984E+01
      -11   -1    0    0    0    0  0.00000000000E+00  0.00000000000E+00  0.35740347158E-01  0.35744000000E-01  0.51099999109E-03 0. -1.
       11   -1    0    0    0    0 -0.00000000000E+00 -0.00000000000E+00 -0.35740347158E-01  0.35744000000E-01  0.51099999109E-03 0.  1.
       22    1    1    2    0    0 -0.68688689319E-02 -0.19453091282E-02  0.35016681694E-01  0.35737005818E-01  0.00000000000E+00 0. -1.
  9000001    1    1    2    0    0  0.68688689319E-02  0.19453091282E-02 -0.35016681694E-01  0.35750994182E-01  0.10000000475E-02 0.  1.
</event>
<event>
 4   0  0.2441219E-02  0.9118800E+02  0.7818609E-02  0.1379984E+01
      -11   -1    0    0    0    0  0.00000000000E+00  0.00000000000E+00  0.35740347158E-01  0.35744000000E-01  0.51099999109E-03 0. -1.
       11   -1    0    0    0    0 -0.00000000000E+00 -0.00000000000E+00 -0.35740347158E-01  0.35744000000E-01  0.51099999109E-03 0.  1.
       22    1    1    2    0    0 -0.93302461199E-02  0.23046998844E-01  0.25669357929E-01  0.35737005818E-01  0.00000000000E+00 0. -1.
  9000001    1    1    2    0    0  0.93302461199E-02 -0.23046998844E-01 -0.25669357929E-01  0.35750994182E-01  0.10000000475E-02 0.  1.
</event>
<event>
 4   0  0.2441219E-02  0.9118800E+02  0.7818609E-02  0.1379984E+01
      -11   -1    0    0    0    0  0.00000000000E+00  0.00000000000E+00  0.35740347158E-01  0.35744000000E-01  0.51099999109E-03 0. -1.
       11   -1    0    0    0    0 -0.00000000000E+00 -0.00000000000E+00 -0.35740347158E-01  0.35744000000E-01  0.51099999109E-03 0.  1.
       22    1    1    2    0    0 -0.11728886613E-01  0.23029219370E-02 -0.33678826498E-01  0.35737005818E-01  0.00000000000E+00 0.  1.
  9000001    1    1    2    0    0  0.11728886613E-01 -0.23029219370E-02  0.33678826498E-01  0.35750994182E-01  0.10000000475E-02 0. -1.
</event>
<event>
 4   0  0.2441219E-02  0.9118800E+02  0.7818609E-02  0.1379984E+01
      -11   -1    0    0    0    0  0.00000000000E+00  0.00000000000E+00  0.35740347158E-01  0.35744000000E-01  0.51099999109E-03 0.  1.
       11   -1    0    0    0    0 -0.00000000000E+00 -0.00000000000E+00 -0.35740347158E-01  0.35744000000E-01  0.51099999109E-03 0. -1.
       22    1    1    2    0    0  0.29693339541E-01  0.10403503907E-01 -0.16947161361E-01  0.35737005818E-01  0.00000000000E+00 0. -1.
  9000001    1    1    2    0    0 -0.29693339541E-01 -0.10403503907E-01  0.16947161361E-01  0.35750994182E-01  0.10000000475E-02 0.  1.
</event>
<event>
 4   0  0.2441219E-02  0.9118800E+02  0.7818609E-02  0.1379984E+01
      -11   -1    0    0    0    0  0.00000000000E+00  0.00000000000E+00  0.35740347158E-01  0.35744000000E-01  0.51099999109E-03 0. -1.
       11   -1    0    0    0    0 -0.00000000000E+00 -0.00000000000E+00 -0.35740347158E-01  0.35744000000E-01  0.51099999109E-03 0.  1.
       22    1    1    2    0    0 -0.20639487746E-02 -0.10264238379E-01 -0.34168978779E-01  0.35737005818E-01  0.00000000000E+00 0.  1.
  9000001    1    1    2    0    0  0.20639487746E-02  0.10264238379E-01  0.34168978779E-01  0.35750994182E-01  0.10000000475E-02 0. -1.
</event>
<event>
 4   0  0.2441219E-02  0.9118800E+02  0.7818609E-02  0.1379984E+01
      -11   -1    0    0    0    0  0.00000000000E+00  0.00000000000E+00  0.35740347158E-01  0.35744000000E-01  0.51099999109E-03 0.  1.
       11   -1    0    0    0    0 -0.00000000000E+00 -0.00000000000E+00 -0.35740347158E-01  0.35744000000E-01  0.51099999109E-03 0. -1.
       22    1    1    2    0    0 -0.17558344473E-01 -0.93709143273E-02  0.29682049945E-01  0.35737005818E-01  0.00000000000E+00 0.  1.
  9000001    1    1    2    0    0  0.17558344473E-01  0.93709143273E-02 -0.29682049945E-01  0.35750994182E-01  0.10000000475E-02 0. -1.
</event>
<event>
 4   0  0.2441219E-02  0.9118800E+02  0.7818609E-02  0.1379984E+01
      -11   -1    0    0    0    0  0.00000000000E+00  0.00000000000E+00  0.35740347158E-01  0.35744000000E-01  0.51099999109E-03 0.  1.
       11   -1    0    0    0    0 -0.00000000000E+00 -0.00000000000E+00 -0.35740347158E-01  0.35744000000E-01  0.51099999109E-03 0. -1.
       22    1    1    2    0    0 -0.11697750304E-01 -0.17525571680E-01  0.28864347558E-01  0.35737005818E-01  0.00000000000E+00 0.  1.
  9000001    1    1    2    0    0  0.11697750304E-01  0.17525571680E-01 -0.28864347558E-01  0.35750994182E-01  0.10000000475E-02 0. -1.
</event>
<event>
 4   0  0.2441219E-02  0.9118800E+02  0.7818609E-02  0.1379984E+01
      -11   -1    0    0    0    0  0.00000000000E+00  0.00000000000E+00  0.35740347158E-01  0.35744000000E-01  0.51099999109E-03 0. -1.
       11   -1    0    0    0    0 -0.00000000000E+00 -0.00000000000E+00 -0.35740347158E-01  0.35744000000E-01  0.51099999109E-03 0.  1.
       22    1    1    2    0    0  0.60860296779E-02 -0.18044323740E-02  0.35168705570E-01  0.35737005818E-01  0.00000000000E+00 0. -1.
  9000001    1    1    2    0    0 -0.60860296779E-02  0.18044323740E-02 -0.35168705570E-01  0.35750994182E-01  0.10000000475E-02 0.  1.
</event>
<event>
 4   0  0.2441219E-02  0.9118800E+02  0.7818609E-02  0.1379984E+01
      -11   -1    0    0    0    0  0.00000000000E+00  0.00000000000E+00  0.35740347158E-01  0.35744000000E-01  0.51099999109E-03 0.  1.
       11   -1    0    0    0    0 -0.00000000000E+00 -0.00000000000E+00 -0.35740347158E-01  0.35744000000E-01  0.51099999109E-03 0. -1.
       22    1    1    2    0    0 -0.31806905325E-01  0.26005486651E-02 -0.16083889614E-01  0.35737005818E-01  0.00000000000E+00 0. -1.
  9000001    1    1    2    0    0  0.31806905325E-01 -0.26005486651E-02  0.16083889614E-01  0.35750994182E-01  0.10000000475E-02 0.  1.
</event>
<event>
 4   0  0.2441219E-02  0.9118800E+02  0.7818609E-02  0.1379984E+01
      -11   -1    0    0    0    0  0.00000000000E+00  0.00000000000E+00  0.35740347158E-01  0.35744000000E-01  0.51099999109E-03 0. -1.
       11   -1    0    0    0    0 -0.00000000000E+00 -0.00000000000E+00 -0.35740347158E-01  0.35744000000E-01  0.51099999109E-03 0.  1.
       22    1    1    2    0    0 -0.35212462783E-02  0.33884116463E-03  0.35561490354E-01  0.35737005818E-01  0.00000000000E+00 0. -1.
  9000001    1    1    2    0    0  0.35212462783E-02 -0.33884116463E-03 -0.35561490354E-01  0.35750994182E-01  0.10000000475E-02 0.  1.
</event>
<event>
 4   0  0.2441219E-02  0.9118800E+02  0.7818609E-02  0.1379984E+01
      -11   -1    0    0    0    0  0.00000000000E+00  0.00000000000E+00  0.35740347158E-01  0.35744000000E-01  0.51099999109E-03 0.  1.
       11   -1    0    0    0    0 -0.00000000000E+00 -0.00000000000E+00 -0.35740347158E-01  0.35744000000E-01  0.51099999109E-03 0. -1.
       22    1    1    2    0    0 -0.48860061090E-02 -0.18004257713E-02 -0.35355607705E-01  0.35737005818E-01  0.00000000000E+00 0. -1.
  9000001    1    1    2    0    0  0.48860061090E-02  0.18004257713E-02  0.35355607705E-01  0.35750994182E-01  0.10000000475E-02 0.  1.
</event>
<event>
 4   0  0.2441219E-02  0.9118800E+02  0.7818609E-02  0.1379984E+01
      -11   -1    0    0    0    0  0.00000000000E+00  0.00000000000E+00  0.35740347158E-01  0.35744000000E-01  0.51099999109E-03 0. -1.
       11   -1    0    0    0    0 -0.00000000000E+00 -0.00000000000E+00 -0.35740347158E-01  0.35744000000E-01  0.51099999109E-03 0.  1.
       22    1    1    2    0    0  0.32756895235E-02  0.73674577312E-03 -0.35578935463E-01  0.35737005818E-01  0.00000000000E+00 0.  1.
  9000001    1    1    2    0    0 -0.32756895235E-02 -0.73674577312E-03  0.35578935463E-01  0.35750994182E-01  0.10000000475E-02 0. -1.
</event>
<event>
 4   0  0.2441219E-02  0.9118800E+02  0.7818609E-02  0.1379984E+01
      -11   -1    0    0    0    0  0.00000000000E+00  0.00000000000E+00  0.35740347158E-01  0.35744000000E-01  0.51099999109E-03 0. -1.
       11   -1    0    0    0    0 -0.00000000000E+00 -0.00000000000E+00 -0.35740347158E-01  0.35744000000E-01  0.51099999109E-03 0.  1.
       22    1    1    2    0    0  0.28307263349E-02 -0.34520102945E-02 -0.35457075432E-01  0.35737005818E-01  0.00000000000E+00 0.  1.
  9000001    1    1    2    0    0 -0.28307263349E-02  0.34520102945E-02  0.35457075432E-01  0.35750994182E-01  0.10000000475E-02 0. -1.
</event>
<event>
 4   0  0.2441219E-02  0.9118800E+02  0.7818609E-02  0.1379984E+01
      -11   -1    0    0    0    0  0.00000000000E+00  0.00000000000E+00  0.35740347158E-01  0.35744000000E-01  0.51099999109E-03 0. -1.
       11   -1    0    0    0    0 -0.00000000000E+00 -0.00000000000E+00 -0.35740347158E-01  0.35744000000E-01  0.51099999109E-03 0.  1.
       22    1    1    2    0    0 -0.42132865594E-02 -0.10615008002E-01  0.33863009411E-01  0.35737005818E-01  0.00000000000E+00 0. -1.
  9000001    1    1    2    0    0  0.42132865594E-02  0.10615008002E-01 -0.33863009411E-01  0.35750994182E-01  0.10000000475E-02 0.  1.
</event>
<event>
 4   0  0.2441219E-02  0.9118800E+02  0.7818609E-02  0.1379984E+01
      -11   -1    0    0    0    0  0.00000000000E+00  0.00000000000E+00  0.35740347158E-01  0.35744000000E-01  0.51099999109E-03 0. -1.
       11   -1    0    0    0    0 -0.00000000000E+00 -0.00000000000E+00 -0.35740347158E-01  0.35744000000E-01  0.51099999109E-03 0.  1.
       22    1    1    2    0    0  0.55031941670E-02 -0.15822343908E-01  0.31567417888E-01  0.35737005818E-01  0.00000000000E+00 0. -1.
  9000001    1    1    2    0    0 -0.55031941670E-02  0.15822343908E-01 -0.31567417888E-01  0.35750994182E-01  0.10000000475E-02 0.  1.
</event>
<event>
 4   0  0.2441219E-02  0.9118800E+02  0.7818609E-02  0.1379984E+01
      -11   -1    0    0    0    0  0.00000000000E+00  0.00000000000E+00  0.35740347158E-01  0.35744000000E-01  0.51099999109E-03 0.  1.
       11   -1    0    0    0    0 -0.00000000000E+00 -0.00000000000E+00 -0.35740347158E-01  0.35744000000E-01  0.51099999109E-03 0. -1.
       22    1    1    2    0    0  0.20421355454E-02  0.63404880500E-02  0.35110703191E-01  0.35737005818E-01  0.00000000000E+00 0.  1.
  9000001    1    1    2    0    0 -0.20421355454E-02 -0.63404880500E-02 -0.35110703191E-01  0.35750994182E-01  0.10000000475E-02 0. -1.
</event>
<event>
 4   0  0.2441219E-02  0.9118800E+02  0.7818609E-02  0.1379984E+01
      -11   -1    0    0    0    0  0.00000000000E+00  0.00000000000E+00  0.35740347158E-01  0.35744000000E-01  0.51099999109E-03 0. -1.
       11   -1    0    0    0    0 -0.00000000000E+00 -0.00000000000E+00 -0.35740347158E-01  0.35744000000E-01  0.51099999109E-03 0.  1.
       22    1    1    2    0    0  0.81358296917E-02 -0.24982489636E-02 -0.34708797332E-01  0.35737005818E-01  0.00000000000E+00 0.  1.
  9000001    1    1    2    0    0 -0.81358296917E-02  0.24982489636E-02  0.34708797332E-01  0.35750994182E-01  0.10000000475E-02 0. -1.
</event>
<event>
 4   0  0.2441219E-02  0.9118800E+02  0.7818609E-02  0.1379984E+01
      -11   -1    0    0    0    0  0.00000000000E+00  0.00000000000E+00  0.35740347158E-01  0.35744000000E-01  0.51099999109E-03 0.  1.
       11   -1    0    0    0    0 -0.00000000000E+00 -0.00000000000E+00 -0.35740347158E-01  0.35744000000E-01  0.51099999109E-03 0. -1.
       22    1    1    2    0    0  0.12149162623E-01  0.25041011827E-01 -0.22416046911E-01  0.35737005818E-01  0.00000000000E+00 0. -1.
  9000001    1    1    2    0    0 -0.12149162623E-01 -0.25041011827E-01  0.22416046911E-01  0.35750994182E-01  0.10000000475E-02 0.  1.
</event>
<event>
 4   0  0.2441219E-02  0.9118800E+02  0.7818609E-02  0.1379984E+01
      -11   -1    0    0    0    0  0.00000000000E+00  0.00000000000E+00  0.35740347158E-01  0.35744000000E-01  0.51099999109E-03 0.  1.
       11   -1    0    0    0    0 -0.00000000000E+00 -0.00000000000E+00 -0.35740347158E-01  0.35744000000E-01  0.51099999109E-03 0. -1.
       22    1    1    2    0    0 -0.61682560785E-02  0.10555766450E-01  0.33580678916E-01  0.35737005818E-01  0.00000000000E+00 0.  1.
  9000001    1    1    2    0    0  0.61682560785E-02 -0.10555766450E-01 -0.33580678916E-01  0.35750994182E-01  0.10000000475E-02 0. -1.
</event>
<event>
 4   0  0.2441219E-02  0.9118800E+02  0.7818609E-02  0.1379984E+01
      -11   -1    0    0    0    0  0.00000000000E+00  0.00000000000E+00  0.35740347158E-01  0.35744000000E-01  0.51099999109E-03 0. -1.
       11   -1    0    0    0    0 -0.00000000000E+00 -0.00000000000E+00 -0.35740347158E-01  0.35744000000E-01  0.51099999109E-03 0.  1.
       22    1    1    2    0    0 -0.81498683981E-02 -0.91869123867E-02 -0.33560599976E-01  0.35737005818E-01  0.00000000000E+00 0.  1.
  9000001    1    1    2    0    0  0.81498683981E-02  0.91869123867E-02  0.33560599976E-01  0.35750994182E-01  0.10000000475E-02 0. -1.
</event>
<event>
 4   0  0.2441219E-02  0.9118800E+02  0.7818609E-02  0.1379984E+01
      -11   -1    0    0    0    0  0.00000000000E+00  0.00000000000E+00  0.35740347158E-01  0.35744000000E-01  0.51099999109E-03 0. -1.
       11   -1    0    0    0    0 -0.00000000000E+00 -0.00000000000E+00 -0.35740347158E-01  0.35744000000E-01  0.51099999109E-03 0.  1.
       22    1    1    2    0    0 -0.53062381528E-02 -0.28912292387E-02 -0.35222410693E-01  0.35737005818E-01  0.00000000000E+00 0.  1.
  9000001    1    1    2    0    0  0.53062381528E-02  0.28912292387E-02  0.35222410693E-01  0.35750994182E-01  0.10000000475E-02 0. -1.
</event>
<event>
 4   0  0.2441219E-02  0.9118800E+02  0.7818609E-02  0.1379984E+01
      -11   -1    0    0    0    0  0.00000000000E+00  0.00000000000E+00  0.35740347158E-01  0.35744000000E-01  0.51099999109E-03 0. -1.
       11   -1    0    0    0    0 -0.00000000000E+00 -0.00000000000E+00 -0.35740347158E-01  0.35744000000E-01  0.51099999109E-03 0.  1.
       22    1    1    2    0    0 -0.80987599639E-02  0.39669701388E-02  0.34580439844E-01  0.35737005818E-01  0.00000000000E+00 0. -1.
  9000001    1    1    2    0    0  0.80987599639E-02 -0.39669701388E-02 -0.34580439844E-01  0.35750994182E-01  0.10000000475E-02 0.  1.
</event>
<event>
 4   0  0.2441219E-02  0.9118800E+02  0.7818609E-02  0.1379984E+01
      -11   -1    0    0    0    0  0.00000000000E+00  0.00000000000E+00  0.35740347158E-01  0.35744000000E-01  0.51099999109E-03 0.  1.
       11   -1    0    0    0    0 -0.00000000000E+00 -0.00000000000E+00 -0.35740347158E-01  0.35744000000E-01  0.51099999109E-03 0. -1.
       22    1    1    2    0    0  0.31534109110E-01  0.15547071431E-01 -0.64048510871E-02  0.35737005818E-01  0.00000000000E+00 0. -1.
  9000001    1    1    2    0    0 -0.31534109110E-01 -0.15547071431E-01  0.64048510871E-02  0.35750994182E-01  0.10000000475E-02 0.  1.
</event>
<event>
 4   0  0.2441219E-02  0.9118800E+02  0.7818609E-02  0.1379984E+01
      -11   -1    0    0    0    0  0.00000000000E+00  0.00000000000E+00  0.35740347158E-01  0.35744000000E-01  0.51099999109E-03 0. -1.
       11   -1    0    0    0    0 -0.00000000000E+00 -0.00000000000E+00 -0.35740347158E-01  0.35744000000E-01  0.51099999109E-03 0.  1.
       22    1    1    2    0    0 -0.30708124997E-01 -0.18261069224E-01 -0.82340443476E-03  0.35737005818E-01  0.00000000000E+00 0. -1.
  9000001    1    1    2    0    0  0.30708124997E-01  0.18261069224E-01  0.82340443476E-03  0.35750994182E-01  0.10000000475E-02 0.  1.
</event>
<event>
 4   0  0.2441219E-02  0.9118800E+02  0.7818609E-02  0.1379984E+01
      -11   -1    0    0    0    0  0.00000000000E+00  0.00000000000E+00  0.35740347158E-01  0.35744000000E-01  0.51099999109E-03 0.  1.
       11   -1    0    0    0    0 -0.00000000000E+00 -0.00000000000E+00 -0.35740347158E-01  0.35744000000E-01  0.51099999109E-03 0. -1.
       22    1    1    2    0    0  0.10473484123E-01  0.54726510410E-02  0.33726692779E-01  0.35737005818E-01  0.00000000000E+00 0.  1.
  9000001    1    1    2    0    0 -0.10473484123E-01 -0.54726510410E-02 -0.33726692779E-01  0.35750994182E-01  0.10000000475E-02 0. -1.
</event>
<event>
 4   0  0.2441219E-02  0.9118800E+02  0.7818609E-02  0.1379984E+01
      -11   -1    0    0    0    0  0.00000000000E+00  0.00000000000E+00  0.35740347158E-01  0.35744000000E-01  0.51099999109E-03 0. -1.
       11   -1    0    0    0    0 -0.00000000000E+00 -0.00000000000E+00 -0.35740347158E-01  0.35744000000E-01  0.51099999109E-03 0.  1.
       22    1    1    2    0    0  0.29754677901E-01  0.81530645654E-02 -0.18036636772E-01  0.35737005818E-01  0.00000000000E+00 0.  1.
  9000001    1    1    2    0    0 -0.29754677901E-01 -0.81530645654E-02  0.18036636772E-01  0.35750994182E-01  0.10000000475E-02 0. -1.
</event>
<event>
 4   0  0.2441219E-02  0.9118800E+02  0.7818609E-02  0.1379984E+01
      -11   -1    0    0    0    0  0.00000000000E+00  0.00000000000E+00  0.35740347158E-01  0.35744000000E-01  0.51099999109E-03 0. -1.
       11   -1    0    0    0    0 -0.00000000000E+00 -0.00000000000E+00 -0.35740347158E-01  0.35744000000E-01  0.51099999109E-03 0.  1.
       22    1    1    2    0    0 -0.67210699851E-02 -0.62859584114E-02  0.34531833574E-01  0.35737005818E-01  0.00000000000E+00 0. -1.
  9000001    1    1    2    0    0  0.67210699851E-02  0.62859584114E-02 -0.34531833574E-01  0.35750994182E-01  0.10000000475E-02 0.  1.
</event>
<event>
 4   0  0.2441219E-02  0.9118800E+02  0.7818609E-02  0.1379984E+01
      -11   -1    0    0    0    0  0.00000000000E+00  0.00000000000E+00  0.35740347158E-01  0.35744000000E-01  0.51099999109E-03 0. -1.
       11   -1    0    0    0    0 -0.00000000000E+00 -0.00000000000E+00 -0.35740347158E-01  0.35744000000E-01  0.51099999109E-03 0.  1.
       22    1    1    2    0    0  0.34899318697E-02  0.16551904579E-02 -0.35527655495E-01  0.35737005818E-01  0.00000000000E+00 0.  1.
  9000001    1    1    2    0    0 -0.34899318697E-02 -0.16551904579E-02  0.35527655495E-01  0.35750994182E-01  0.10000000475E-02 0. -1.
</event>
<event>
 4   0  0.2441219E-02  0.9118800E+02  0.7818609E-02  0.1379984E+01
      -11   -1    0    0    0    0  0.00000000000E+00  0.00000000000E+00  0.35740347158E-01  0.35744000000E-01  0.51099999109E-03 0. -1.
       11   -1    0    0    0    0 -0.00000000000E+00 -0.00000000000E+00 -0.35740347158E-01  0.35744000000E-01  0.51099999109E-03 0.  1.
       22    1    1    2    0    0 -0.33214526950E-02 -0.18926847900E-02 -0.35531947331E-01  0.35737005818E-01  0.00000000000E+00 0.  1.
  9000001    1    1    2    0    0  0.33214526950E-02  0.18926847900E-02  0.35531947331E-01  0.35750994182E-01  0.10000000475E-02 0. -1.
</event>
<event>
 4   0  0.2441219E-02  0.9118800E+02  0.7818609E-02  0.1379984E+01
      -11   -1    0    0    0    0  0.00000000000E+00  0.00000000000E+00  0.35740347158E-01  0.35744000000E-01  0.51099999109E-03 0. -1.
       11   -1    0    0    0    0 -0.00000000000E+00 -0.00000000000E+00 -0.35740347158E-01  0.35744000000E-01  0.51099999109E-03 0.  1.
       22    1    1    2    0    0 -0.38015764468E-02 -0.71976191306E-02  0.34797641878E-01  0.35737005818E-01  0.00000000000E+00 0. -1.
  9000001    1    1    2    0    0  0.38015764468E-02  0.71976191306E-02 -0.34797641878E-01  0.35750994182E-01  0.10000000475E-02 0.  1.
</event>
<event>
 4   0  0.2441219E-02  0.9118800E+02  0.7818609E-02  0.1379984E+01
      -11   -1    0    0    0    0  0.00000000000E+00  0.00000000000E+00  0.35740347158E-01  0.35744000000E-01  0.51099999109E-03 0. -1.
       11   -1    0    0    0    0 -0.00000000000E+00 -0.00000000000E+00 -0.35740347158E-01  0.35744000000E-01  0.51099999109E-03 0.  1.
       22    1    1    2    0    0  0.64980088003E-04 -0.30004491212E-02  0.35610766174E-01  0.35737005818E-01  0.00000000000E+00 0. -1.
  9000001    1    1    2    0    0 -0.64980088003E-04  0.30004491212E-02 -0.35610766174E-01  0.35750994182E-01  0.10000000475E-02 0.  1.
</event>
<event>
 4   0  0.2441219E-02  0.9118800E+02  0.7818609E-02  0.1379984E+01
      -11   -1    0    0    0    0  0.00000000000E+00  0.00000000000E+00  0.35740347158E-01  0.35744000000E-01  0.51099999109E-03 0.  1.
       11   -1    0    0    0    0 -0.00000000000E+00 -0.00000000000E+00 -0.35740347158E-01  0.35744000000E-01  0.51099999109E-03 0. -1.
       22    1    1    2    0    0 -0.58648715692E-03 -0.33780475720E-02 -0.35572157824E-01  0.35737005818E-01  0.00000000000E+00 0. -1.
  9000001    1    1    2    0    0  0.58648715692E-03  0.33780475720E-02  0.35572157824E-01  0.35750994182E-01  0.10000000475E-02 0.  1.
</event>
<event>
 4   0  0.2441219E-02  0.9118800E+02  0.7818609E-02  0.1379984E+01
      -11   -1    0    0    0    0  0.00000000000E+00  0.00000000000E+00  0.35740347158E-01  0.35744000000E-01  0.51099999109E-03 0. -1.
       11   -1    0    0    0    0 -0.00000000000E+00 -0.00000000000E+00 -0.35740347158E-01  0.35744000000E-01  0.51099999109E-03 0.  1.
       22    1    1    2    0    0 -0.31563969560E-02 -0.32808768716E-02  0.35445826131E-01  0.35737005818E-01  0.00000000000E+00 0. -1.
  9000001    1    1    2    0    0  0.31563969560E-02  0.32808768716E-02 -0.35445826131E-01  0.35750994182E-01  0.10000000475E-02 0.  1.
</event>
<event>
 4   0  0.2441219E-02  0.9118800E+02  0.7818609E-02  0.1379984E+01
      -11   -1    0    0    0    0  0.00000000000E+00  0.00000000000E+00  0.35740347158E-01  0.35744000000E-01  0.51099999109E-03 0. -1.
       11   -1    0    0    0    0 -0.00000000000E+00 -0.00000000000E+00 -0.35740347158E-01  0.35744000000E-01  0.51099999109E-03 0.  1.
       22    1    1    2    0    0  0.35069331717E-01 -0.14340035924E-02  0.67245216549E-02  0.35737005818E-01  0.00000000000E+00 0. -1.
  9000001    1    1    2    0    0 -0.35069331717E-01  0.14340035924E-02 -0.67245216549E-02  0.35750994182E-01  0.10000000475E-02 0.  1.
</event>
<event>
 4   0  0.2441219E-02  0.9118800E+02  0.7818609E-02  0.1379984E+01
      -11   -1    0    0    0    0  0.00000000000E+00  0.00000000000E+00  0.35740347158E-01  0.35744000000E-01  0.51099999109E-03 0. -1.
       11   -1    0    0    0    0 -0.00000000000E+00 -0.00000000000E+00 -0.35740347158E-01  0.35744000000E-01  0.51099999109E-03 0.  1.
       22    1    1    2    0    0  0.87634487311E-02 -0.46630942506E-02  0.34330614664E-01  0.35737005818E-01  0.00000000000E+00 0. -1.
  9000001    1    1    2    0    0 -0.87634487311E-02  0.46630942506E-02 -0.34330614664E-01  0.35750994182E-01  0.10000000475E-02 0.  1.
</event>
<event>
 4   0  0.2441219E-02  0.9118800E+02  0.7818609E-02  0.1379984E+01
      -11   -1    0    0    0    0  0.00000000000E+00  0.00000000000E+00  0.35740347158E-01  0.35744000000E-01  0.51099999109E-03 0.  1.
       11   -1    0    0    0    0 -0.00000000000E+00 -0.00000000000E+00 -0.35740347158E-01  0.35744000000E-01  0.51099999109E-03 0. -1.
       22    1    1    2    0    0 -0.20141030473E-02  0.43312975494E-02 -0.35416335713E-01  0.35737005818E-01  0.00000000000E+00 0. -1.
  9000001    1    1    2    0    0  0.20141030473E-02 -0.43312975494E-02  0.35416335713E-01  0.35750994182E-01  0.10000000475E-02 0.  1.
</event>
<event>
 4   0  0.2441219E-02  0.9118800E+02  0.7818609E-02  0.1379984E+01
      -11   -1    0    0    0    0  0.00000000000E+00  0.00000000000E+00  0.35740347158E-01  0.35744000000E-01  0.51099999109E-03 0.  1.
       11   -1    0    0    0    0 -0.00000000000E+00 -0.00000000000E+00 -0.35740347158E-01  0.35744000000E-01  0.51099999109E-03 0. -1.
       22    1    1    2    0    0  0.24920073457E-01 -0.61229084876E-02 -0.24872344389E-01  0.35737005818E-01  0.00000000000E+00 0. -1.
  9000001    1    1    2    0    0 -0.24920073457E-01  0.61229084876E-02  0.24872344389E-01  0.35750994182E-01  0.10000000475E-02 0.  1.
</event>
<event>
 4   0  0.2441219E-02  0.9118800E+02  0.7818609E-02  0.1379984E+01
      -11   -1    0    0    0    0  0.00000000000E+00  0.00000000000E+00  0.35740347158E-01  0.35744000000E-01  0.51099999109E-03 0. -1.
       11   -1    0    0    0    0 -0.00000000000E+00 -0.00000000000E+00 -0.35740347158E-01  0.35744000000E-01  0.51099999109E-03 0.  1.
       22    1    1    2    0    0  0.80073446693E-02  0.49814727632E-02 -0.34470290764E-01  0.35737005818E-01  0.00000000000E+00 0.  1.
  9000001    1    1    2    0    0 -0.80073446693E-02 -0.49814727632E-02  0.34470290764E-01  0.35750994182E-01  0.10000000475E-02 0. -1.
</event>
<event>
 4   0  0.2441219E-02  0.9118800E+02  0.7818609E-02  0.1379984E+01
      -11   -1    0    0    0    0  0.00000000000E+00  0.00000000000E+00  0.35740347158E-01  0.35744000000E-01  0.51099999109E-03 0.  1.
       11   -1    0    0    0    0 -0.00000000000E+00 -0.00000000000E+00 -0.35740347158E-01  0.35744000000E-01  0.51099999109E-03 0. -1.
       22    1    1    2    0    0 -0.19476822821E-01 -0.45907901051E-03 -0.29959576167E-01  0.35737005818E-01  0.00000000000E+00 0. -1.
  9000001    1    1    2    0    0  0.19476822821E-01  0.45907901051E-03  0.29959576167E-01  0.35750994182E-01  0.10000000475E-02 0.  1.
</event>
<event>
 4   0  0.2441219E-02  0.9118800E+02  0.7818609E-02  0.1379984E+01
      -11   -1    0    0    0    0  0.00000000000E+00  0.00000000000E+00  0.35740347158E-01  0.35744000000E-01  0.51099999109E-03 0.  1.
       11   -1    0    0    0    0 -0.00000000000E+00 -0.00000000000E+00 -0.35740347158E-01  0.35744000000E-01  0.51099999109E-03 0. -1.
       22    1    1    2    0    0 -0.17320948208E-02  0.10145078712E-01  0.34222957358E-01  0.35737005818E-01  0.00000000000E+00 0.  1.
  9000001    1    1    2    0    0  0.17320948208E-02 -0.10145078712E-01 -0.34222957358E-01  0.35750994182E-01  0.10000000475E-02 0. -1.
</event>
<event>
 4   0  0.2441219E-02  0.9118800E+02  0.7818609E-02  0.1379984E+01
      -11   -1    0    0    0    0  0.00000000000E+00  0.00000000000E+00  0.35740347158E-01  0.35744000000E-01  0.51099999109E-03 0. -1.
       11   -1    0    0    0    0 -0.00000000000E+00 -0.00000000000E+00 -0.35740347158E-01  0.35744000000E-01  0.51099999109E-03 0.  1.
       22    1    1    2    0    0  0.10318437307E-01  0.81225597742E-02 -0.33236838886E-01  0.35737005818E-01  0.00000000000E+00 0.  1.
  9000001    1    1    2    0    0 -0.10318437307E-01 -0.81225597742E-02  0.33236838886E-01  0.35750994182E-01  0.10000000475E-02 0. -1.
</event>
<event>
 4   0  0.2441219E-02  0.9118800E+02  0.7818609E-02  0.1379984E+01
      -11   -1    0    0    0    0  0.00000000000E+00  0.00000000000E+00  0.35740347158E-01  0.35744000000E-01  0.51099999109E-03 0. -1.
       11   -1    0    0    0    0 -0.00000000000E+00 -0.00000000000E+00 -0.35740347158E-01  0.35744000000E-01  0.51099999109E-03 0.  1.
       22    1    1    2    0    0 -0.26922390678E-02 -0.60680836235E-02 -0.35115008113E-01  0.35737005818E-01  0.00000000000E+00 0.  1.
  9000001    1    1    2    0    0  0.26922390678E-02  0.60680836235E-02  0.35115008113E-01  0.35750994182E-01  0.10000000475E-02 0. -1.
</event>
<event>
 4   0  0.2441219E-02  0.9118800E+02  0.7818609E-02  0.1379984E+01
      -11   -1    0    0    0    0  0.00000000000E+00  0.00000000000E+00  0.35740347158E-01  0.35744000000E-01  0.51099999109E-03 0.  1.
       11   -1    0    0    0    0 -0.00000000000E+00 -0.00000000000E+00 -0.35740347158E-01  0.35744000000E-01  0.51099999109E-03 0. -1.
       22    1    1    2    0    0 -0.25941561662E-02 -0.32056053616E-02 -0.35498282112E-01  0.35737005818E-01  0.00000000000E+00 0. -1.
  9000001    1    1    2    0    0  0.25941561662E-02  0.32056053616E-02  0.35498282112E-01  0.35750994182E-01  0.10000000475E-02 0.  1.
</event>
<event>
 4   0  0.2441219E-02  0.9118800E+02  0.7818609E-02  0.1379984E+01
      -11   -1    0    0    0    0  0.00000000000E+00  0.00000000000E+00  0.35740347158E-01  0.35744000000E-01  0.51099999109E-03 0. -1.
       11   -1    0    0    0    0 -0.00000000000E+00 -0.00000000000E+00 -0.35740347158E-01  0.35744000000E-01  0.51099999109E-03 0.  1.
       22    1    1    2    0    0 -0.47920924390E-02 -0.13771270935E-01 -0.32627006172E-01  0.35737005818E-01  0.00000000000E+00 0.  1.
  9000001    1    1    2    0    0  0.47920924390E-02  0.13771270935E-01  0.32627006172E-01  0.35750994182E-01  0.10000000475E-02 0. -1.
</event>
<event>
 4   0  0.2441219E-02  0.9118800E+02  0.7818609E-02  0.1379984E+01
      -11   -1    0    0    0    0  0.00000000000E+00  0.00000000000E+00  0.35740347158E-01  0.35744000000E-01  0.51099999109E-03 0.  1.
       11   -1    0    0    0    0 -0.00000000000E+00 -0.00000000000E+00 -0.35740347158E-01  0.35744000000E-01  0.51099999109E-03 0. -1.
       22    1    1    2    0    0  0.84433379054E-02 -0.38575345798E-02 -0.34510332610E-01  0.35737005818E-01  0.00000000000E+00 0. -1.
  9000001    1    1    2    0    0 -0.84433379054E-02  0.38575345798E-02  0.34510332610E-01  0.35750994182E-01  0.10000000475E-02 0.  1.
</event>
<event>
 4   0  0.2441219E-02  0.9118800E+02  0.7818609E-02  0.1379984E+01
      -11   -1    0    0    0    0  0.00000000000E+00  0.00000000000E+00  0.35740347158E-01  0.35744000000E-01  0.51099999109E-03 0. -1.
       11   -1    0    0    0    0 -0.00000000000E+00 -0.00000000000E+00 -0.35740347158E-01  0.35744000000E-01  0.51099999109E-03 0.  1.
       22    1    1    2    0    0 -0.96949768253E-02  0.78449214333E-02  0.33490270482E-01  0.35737005818E-01  0.00000000000E+00 0. -1.
  9000001    1    1    2    0    0  0.96949768253E-02 -0.78449214333E-02 -0.33490270482E-01  0.35750994182E-01  0.10000000475E-02 0.  1.
</event>
<event>
 4   0  0.2441219E-02  0.9118800E+02  0.7818609E-02  0.1379984E+01
      -11   -1    0    0    0    0  0.00000000000E+00  0.00000000000E+00  0.35740347158E-01  0.35744000000E-01  0.51099999109E-03 0. -1.
       11   -1    0    0    0    0 -0.00000000000E+00 -0.00000000000E+00 -0.35740347158E-01  0.35744000000E-01  0.51099999109E-03 0.  1.
       22    1    1    2    0    0  0.74325657655E-03 -0.79874964226E-02 -0.34825006180E-01  0.35737005818E-01  0.00000000000E+00 0.  1.
  9000001    1    1    2    0    0 -0.74325657655E-03  0.79874964226E-02  0.34825006180E-01  0.35750994182E-01  0.10000000475E-02 0. -1.
</event>
<event>
 4   0  0.2441219E-02  0.9118800E+02  0.7818609E-02  0.1379984E+01
      -11   -1    0    0    0    0  0.00000000000E+00  0.00000000000E+00  0.35740347158E-01  0.35744000000E-01  0.51099999109E-03 0. -1.
       11   -1    0    0    0    0 -0.00000000000E+00 -0.00000000000E+00 -0.35740347158E-01  0.35744000000E-01  0.51099999109E-03 0.  1.
       22    1    1    2    0    0 -0.54407540106E-02 -0.18248981326E-01 -0.30240807880E-01  0.35737005818E-01  0.00000000000E+00 0.  1.
  9000001    1    1    2    0    0  0.54407540106E-02  0.18248981326E-01  0.30240807880E-01  0.35750994182E-01  0.10000000475E-02 0. -1.
</event>
<event>
 4   0  0.2441219E-02  0.9118800E+02  0.7818609E-02  0.1379984E+01
      -11   -1    0    0    0    0  0.00000000000E+00  0.00000000000E+00  0.35740347158E-01  0.35744000000E-01  0.51099999109E-03 0.  1.
       11   -1    0    0    0    0 -0.00000000000E+00 -0.00000000000E+00 -0.35740347158E-01  0.35744000000E-01  0.51099999109E-03 0. -1.
       22    1    1    2    0    0  0.19473951109E-02  0.35160927037E-02  0.35510256677E-01  0.35737005818E-01  0.00000000000E+00 0.  1.
  9000001    1    1    2    0    0 -0.19473951109E-02 -0.35160927037E-02 -0.35510256677E-01  0.35750994182E-01  0.10000000475E-02 0. -1.
</event>
<event>
 4   0  0.2441219E-02  0.9118800E+02  0.7818609E-02  0.1379984E+01
      -11   -1    0    0    0    0  0.00000000000E+00  0.00000000000E+00  0.35740347158E-01  0.35744000000E-01  0.51099999109E-03 0. -1.
       11   -1    0    0    0    0 -0.00000000000E+00 -0.00000000000E+00 -0.35740347158E-01  0.35744000000E-01  0.51099999109E-03 0.  1.
       22    1    1    2    0    0  0.54605968950E-02  0.24881725737E-02 -0.35229596416E-01  0.35737005818E-01  0.00000000000E+00 0.  1.
  9000001    1    1    2    0    0 -0.54605968950E-02 -0.24881725737E-02  0.35229596416E-01  0.35750994182E-01  0.10000000475E-02 0. -1.
</event>
<event>
 4   0  0.2441219E-02  0.9118800E+02  0.7818609E-02  0.1379984E+01
      -11   -1    0    0    0    0  0.00000000000E+00  0.00000000000E+00  0.35740347158E-01  0.35744000000E-01  0.51099999109E-03 0. -1.
       11   -1    0    0    0    0 -0.00000000000E+00 -0.00000000000E+00 -0.35740347158E-01  0.35744000000E-01  0.51099999109E-03 0.  1.
       22    1    1    2    0    0  0.15823018716E-01  0.14291099011E-01  0.28679786482E-01  0.35737005818E-01  0.00000000000E+00 0. -1.
  9000001    1    1    2    0    0 -0.15823018716E-01 -0.14291099011E-01 -0.28679786482E-01  0.35750994182E-01  0.10000000475E-02 0.  1.
</event>
<event>
 4   0  0.2441219E-02  0.9118800E+02  0.7818609E-02  0.1379984E+01
      -11   -1    0    0    0    0  0.00000000000E+00  0.00000000000E+00  0.35740347158E-01  0.35744000000E-01  0.51099999109E-03 0.  1.
       11   -1    0    0    0    0 -0.00000000000E+00 -0.00000000000E+00 -0.35740347158E-01  0.35744000000E-01  0.51099999109E-03 0. -1.
       22    1    1    2    0    0 -0.81829815007E-02  0.74604180347E-03 -0.34779531628E-01  0.35737005818E-01  0.00000000000E+00 0. -1.
  9000001    1    1    2    0    0  0.81829815007E-02 -0.74604180347E-03  0.34779531628E-01  0.35750994182E-01  0.10000000475E-02 0.  1.
</event>
<event>
 4   0  0.2441219E-02  0.9118800E+02  0.7818609E-02  0.1379984E+01
      -11   -1    0    0    0    0  0.00000000000E+00  0.00000000000E+00  0.35740347158E-01  0.35744000000E-01  0.51099999109E-03 0.  1.
       11   -1    0    0    0    0 -0.00000000000E+00 -0.00000000000E+00 -0.35740347158E-01  0.35744000000E-01  0.51099999109E-03 0. -1.
       22    1    1    2    0    0 -0.43350541228E-02  0.13052939833E-02  0.35449077537E-01  0.35737005818E-01  0.00000000000E+00 0.  1.
  9000001    1    1    2    0    0  0.43350541228E-02 -0.13052939833E-02 -0.35449077537E-01  0.35750994182E-01  0.10000000475E-02 0. -1.
</event>
<event>
 4   0  0.2441219E-02  0.9118800E+02  0.7818609E-02  0.1379984E+01
      -11   -1    0    0    0    0  0.00000000000E+00  0.00000000000E+00  0.35740347158E-01  0.35744000000E-01  0.51099999109E-03 0. -1.
       11   -1    0    0    0    0 -0.00000000000E+00 -0.00000000000E+00 -0.35740347158E-01  0.35744000000E-01  0.51099999109E-03 0.  1.
       22    1    1    2    0    0 -0.66563805456E-02  0.10946502168E-01 -0.33361658730E-01  0.35737005818E-01  0.00000000000E+00 0.  1.
  9000001    1    1    2    0    0  0.66563805456E-02 -0.10946502168E-01  0.33361658730E-01  0.35750994182E-01  0.10000000475E-02 0. -1.
</event>
<event>
 4   0  0.2441219E-02  0.9118800E+02  0.7818609E-02  0.1379984E+01
      -11   -1    0    0    0    0  0.00000000000E+00  0.00000000000E+00  0.35740347158E-01  0.35744000000E-01  0.51099999109E-03 0.  1.
       11   -1    0    0    0    0 -0.00000000000E+00 -0.00000000000E+00 -0.35740347158E-01  0.35744000000E-01  0.51099999109E-03 0. -1.
       22    1    1    2    0    0 -0.69171266648E-02  0.18047961279E-01  0.30059242127E-01  0.35737005818E-01  0.00000000000E+00 0.  1.
  9000001    1    1    2    0    0  0.69171266648E-02 -0.18047961279E-01 -0.30059242127E-01  0.35750994182E-01  0.10000000475E-02 0. -1.
</event>
<event>
 4   0  0.2441219E-02  0.9118800E+02  0.7818609E-02  0.1379984E+01
      -11   -1    0    0    0    0  0.00000000000E+00  0.00000000000E+00  0.35740347158E-01  0.35744000000E-01  0.51099999109E-03 0.  1.
       11   -1    0    0    0    0 -0.00000000000E+00 -0.00000000000E+00 -0.35740347158E-01  0.35744000000E-01  0.51099999109E-03 0. -1.
       22    1    1    2    0    0 -0.90729777107E-02 -0.31899231171E-02 -0.34418585834E-01  0.35737005818E-01  0.00000000000E+00 0. -1.
  9000001    1    1    2    0    0  0.90729777107E-02  0.31899231171E-02  0.34418585834E-01  0.35750994182E-01  0.10000000475E-02 0.  1.
</event>
<event>
 4   0  0.2441219E-02  0.9118800E+02  0.7818609E-02  0.1379984E+01
      -11   -1    0    0    0    0  0.00000000000E+00  0.00000000000E+00  0.35740347158E-01  0.35744000000E-01  0.51099999109E-03 0.  1.
       11   -1    0    0    0    0 -0.00000000000E+00 -0.00000000000E+00 -0.35740347158E-01  0.35744000000E-01  0.51099999109E-03 0. -1.
       22    1    1    2    0    0 -0.90309623129E-02 -0.35602302824E-02  0.34393314247E-01  0.35737005818E-01  0.00000000000E+00 0.  1.
  9000001    1    1    2    0    0  0.90309623129E-02  0.35602302824E-02 -0.34393314247E-01  0.35750994182E-01  0.10000000475E-02 0. -1.
</event>
<event>
 4   0  0.2441219E-02  0.9118800E+02  0.7818609E-02  0.1379984E+01
      -11   -1    0    0    0    0  0.00000000000E+00  0.00000000000E+00  0.35740347158E-01  0.35744000000E-01  0.51099999109E-03 0.  1.
       11   -1    0    0    0    0 -0.00000000000E+00 -0.00000000000E+00 -0.35740347158E-01  0.35744000000E-01  0.51099999109E-03 0. -1.
       22    1    1    2    0    0  0.22659771175E-02 -0.97819360988E-02  0.34297414753E-01  0.35737005818E-01  0.00000000000E+00 0.  1.
  9000001    1    1    2    0    0 -0.22659771175E-02  0.97819360988E-02 -0.34297414753E-01  0.35750994182E-01  0.10000000475E-02 0. -1.
</event>
<event>
 4   0  0.2441219E-02  0.9118800E+02  0.7818609E-02  0.1379984E+01
      -11   -1    0    0    0    0  0.00000000000E+00  0.00000000000E+00  0.35740347158E-01  0.35744000000E-01  0.51099999109E-03 0. -1.
       11   -1    0    0    0    0 -0.00000000000E+00 -0.00000000000E+00 -0.35740347158E-01  0.35744000000E-01  0.51099999109E-03 0.  1.
       22    1    1    2    0    0  0.10824461300E-01  0.92980501488E-03 -0.34045558962E-01  0.35737005818E-01  0.00000000000E+00 0.  1.
  9000001    1    1    2    0    0 -0.10824461300E-01 -0.92980501488E-03  0.34045558962E-01  0.35750994182E-01  0.10000000475E-02 0. -1.
</event>
<event>
 4   0  0.2441219E-02  0.9118800E+02  0.7818609E-02  0.1379984E+01
      -11   -1    0    0    0    0  0.00000000000E+00  0.00000000000E+00  0.35740347158E-01  0.35744000000E-01  0.51099999109E-03 0. -1.
       11   -1    0    0    0    0 -0.00000000000E+00 -0.00000000000E+00 -0.35740347158E-01  0.35744000000E-01  0.51099999109E-03 0.  1.
       22    1    1    2    0    0  0.33435102771E-02 -0.21941955677E-02 -0.35512533417E-01  0.35737005818E-01  0.00000000000E+00 0.  1.
  9000001    1    1    2    0    0 -0.33435102771E-02  0.21941955677E-02  0.35512533417E-01  0.35750994182E-01  0.10000000475E-02 0. -1.
</event>
<event>
 4   0  0.2441219E-02  0.9118800E+02  0.7818609E-02  0.1379984E+01
      -11   -1    0    0    0    0  0.00000000000E+00  0.00000000000E+00  0.35740347158E-01  0.35744000000E-01  0.51099999109E-03 0. -1.
       11   -1    0    0    0    0 -0.00000000000E+00 -0.00000000000E+00 -0.35740347158E-01  0.35744000000E-01  0.51099999109E-03 0.  1.
       22    1    1    2    0    0 -0.25298549149E-01 -0.10065659580E-01 -0.23147343110E-01  0.35737005818E-01  0.00000000000E+00 0.  1.
  9000001    1    1    2    0    0  0.25298549149E-01  0.10065659580E-01  0.23147343110E-01  0.35750994182E-01  0.10000000475E-02 0. -1.
</event>
<event>
 4   0  0.2441219E-02  0.9118800E+02  0.7818609E-02  0.1379984E+01
      -11   -1    0    0    0    0  0.00000000000E+00  0.00000000000E+00  0.35740347158E-01  0.35744000000E-01  0.51099999109E-03 0. -1.
       11   -1    0    0    0    0 -0.00000000000E+00 -0.00000000000E+00 -0.35740347158E-01  0.35744000000E-01  0.51099999109E-03 0.  1.
       22    1    1    2    0    0 -0.48871470655E-03 -0.87825330523E-02 -0.34637578668E-01  0.35737005818E-01  0.00000000000E+00 0.  1.
  9000001    1    1    2    0    0  0.48871470655E-03  0.87825330523E-02  0.34637578668E-01  0.35750994182E-01  0.10000000475E-02 0. -1.
</event>
<event>
 4   0  0.2441219E-02  0.9118800E+02  0.7818609E-02  0.1379984E+01
      -11   -1    0    0    0    0  0.00000000000E+00  0.00000000000E+00  0.35740347158E-01  0.35744000000E-01  0.51099999109E-03 0. -1.
       11   -1    0    0    0    0 -0.00000000000E+00 -0.00000000000E+00 -0.35740347158E-01  0.35744000000E-01  0.51099999109E-03 0.  1.
       22    1    1    2    0    0 -0.63785338192E-02  0.23599259426E-02  0.35083880070E-01  0.35737005818E-01  0.00000000000E+00 0. -1.
  9000001    1    1    2    0    0  0.63785338192E-02 -0.23599259426E-02 -0.35083880070E-01  0.35750994182E-01  0.10000000475E-02 0.  1.
</event>
<event>
 4   0  0.2441219E-02  0.9118800E+02  0.7818609E-02  0.1379984E+01
      -11   -1    0    0    0    0  0.00000000000E+00  0.00000000000E+00  0.35740347158E-01  0.35744000000E-01  0.51099999109E-03 0.  1.
       11   -1    0    0    0    0 -0.00000000000E+00 -0.00000000000E+00 -0.35740347158E-01  0.35744000000E-01  0.51099999109E-03 0. -1.
       22    1    1    2    0    0 -0.95249518167E-02  0.83622657967E-02 -0.33413790394E-01  0.35737005818E-01  0.00000000000E+00 0. -1.
  9000001    1    1    2    0    0  0.95249518167E-02 -0.83622657967E-02  0.33413790394E-01  0.35750994182E-01  0.10000000475E-02 0.  1.
</event>
<event>
 4   0  0.2441219E-02  0.9118800E+02  0.7818609E-02  0.1379984E+01
      -11   -1    0    0    0    0  0.00000000000E+00  0.00000000000E+00  0.35740347158E-01  0.35744000000E-01  0.51099999109E-03 0.  1.
       11   -1    0    0    0    0 -0.00000000000E+00 -0.00000000000E+00 -0.35740347158E-01  0.35744000000E-01  0.51099999109E-03 0. -1.
       22    1    1    2    0    0  0.10142164968E-01  0.50871292498E-02 -0.33887921014E-01  0.35737005818E-01  0.00000000000E+00 0. -1.
  9000001    1    1    2    0    0 -0.10142164968E-01 -0.50871292498E-02  0.33887921014E-01  0.35750994182E-01  0.10000000475E-02 0.  1.
</event>
<event>
 4   0  0.2441219E-02  0.9118800E+02  0.7818609E-02  0.1379984E+01
      -11   -1    0    0    0    0  0.00000000000E+00  0.00000000000E+00  0.35740347158E-01  0.35744000000E-01  0.51099999109E-03 0.  1.
       11   -1    0    0    0    0 -0.00000000000E+00 -0.00000000000E+00 -0.35740347158E-01  0.35744000000E-01  0.51099999109E-03 0. -1.
       22    1    1    2    0    0 -0.10286091343E-01 -0.52180939092E-02 -0.33824568079E-01  0.35737005818E-01  0.00000000000E+00 0. -1.
  9000001    1    1    2    0    0  0.10286091343E-01  0.52180939092E-02  0.33824568079E-01  0.35750994182E-01  0.10000000475E-02 0.  1.
</event>
<event>
 4   0  0.2441219E-02  0.9118800E+02  0.7818609E-02  0.1379984E+01
      -11   -1    0    0    0    0  0.00000000000E+00  0.00000000000E+00  0.35740347158E-01  0.35744000000E-01  0.51099999109E-03 0. -1.
       11   -1    0    0    0    0 -0.00000000000E+00 -0.00000000000E+00 -0.35740347158E-01  0.35744000000E-01  0.51099999109E-03 0.  1.
       22    1    1    2    0    0 -0.48234544665E-02 -0.21128506193E-01  0.28415736801E-01  0.35737005818E-01  0.00000000000E+00 0. -1.
  9000001    1    1    2    0    0  0.48234544665E-02  0.21128506193E-01 -0.28415736801E-01  0.35750994182E-01  0.10000000475E-02 0.  1.
</event>
<event>
 4   0  0.2441219E-02  0.9118800E+02  0.7818609E-02  0.1379984E+01
      -11   -1    0    0    0    0  0.00000000000E+00  0.00000000000E+00  0.35740347158E-01  0.35744000000E-01  0.51099999109E-03 0. -1.
       11   -1    0    0    0    0 -0.00000000000E+00 -0.00000000000E+00 -0.35740347158E-01  0.35744000000E-01  0.51099999109E-03 0.  1.
       22    1    1    2    0    0  0.57117187941E-02 -0.11426083844E-02 -0.35259102362E-01  0.35737005818E-01  0.00000000000E+00 0.  1.
  9000001    1    1    2    0    0 -0.57117187941E-02  0.11426083844E-02  0.35259102362E-01  0.35750994182E-01  0.10000000475E-02 0. -1.
</event>
<event>
 4   0  0.2441219E-02  0.9118800E+02  0.7818609E-02  0.1379984E+01
      -11   -1    0    0    0    0  0.00000000000E+00  0.00000000000E+00  0.35740347158E-01  0.35744000000E-01  0.51099999109E-03 0. -1.
       11   -1    0    0    0    0 -0.00000000000E+00 -0.00000000000E+00 -0.35740347158E-01  0.35744000000E-01  0.51099999109E-03 0.  1.
       22    1    1    2    0    0 -0.23526065620E-02 -0.34385456775E-02  0.35493312481E-01  0.35737005818E-01  0.00000000000E+00 0. -1.
  9000001    1    1    2    0    0  0.23526065620E-02  0.34385456775E-02 -0.35493312481E-01  0.35750994182E-01  0.10000000475E-02 0.  1.
</event>
<event>
 4   0  0.2441219E-02  0.9118800E+02  0.7818609E-02  0.1379984E+01
      -11   -1    0    0    0    0  0.00000000000E+00  0.00000000000E+00  0.35740347158E-01  0.35744000000E-01  0.51099999109E-03 0.  1.
       11   -1    0    0    0    0 -0.00000000000E+00 -0.00000000000E+00 -0.35740347158E-01  0.35744000000E-01  0.51099999109E-03 0. -1.
       22    1    1    2    0    0 -0.27917148185E-02  0.14304376279E-01  0.32630120020E-01  0.35737005818E-01  0.00000000000E+00 0.  1.
  9000001    1    1    2    0    0  0.27917148185E-02 -0.14304376279E-01 -0.32630120020E-01  0.35750994182E-01  0.10000000475E-02 0. -1.
</event>
<event>
 4   0  0.2441219E-02  0.9118800E+02  0.7818609E-02  0.1379984E+01
      -11   -1    0    0    0    0  0.00000000000E+00  0.00000000000E+00  0.35740347158E-01  0.35744000000E-01  0.51099999109E-03 0. -1.
       11   -1    0    0    0    0 -0.00000000000E+00 -0.00000000000E+00 -0.35740347158E-01  0.35744000000E-01  0.51099999109E-03 0.  1.
       22    1    1    2    0    0 -0.96522923063E-02  0.54281837300E-02  0.33977958436E-01  0.35737005818E-01  0.00000000000E+00 0. -1.
  9000001    1    1    2    0    0  0.96522923063E-02 -0.54281837300E-02 -0.33977958436E-01  0.35750994182E-01  0.10000000475E-02 0.  1.
</event>
<event>
 4   0  0.2441219E-02  0.9118800E+02  0.7818609E-02  0.1379984E+01
      -11   -1    0    0    0    0  0.00000000000E+00  0.00000000000E+00  0.35740347158E-01  0.35744000000E-01  0.51099999109E-03 0.  1.
       11   -1    0    0    0    0 -0.00000000000E+00 -0.00000000000E+00 -0.35740347158E-01  0.35744000000E-01  0.51099999109E-03 0. -1.
       22    1    1    2    0    0  0.21229050174E-01  0.12664601727E-01  0.25808310225E-01  0.35737005818E-01  0.00000000000E+00 0.  1.
  9000001    1    1    2    0    0 -0.21229050174E-01 -0.12664601727E-01 -0.25808310225E-01  0.35750994182E-01  0.10000000475E-02 0. -1.
</event>
<event>
 4   0  0.2441219E-02  0.9118800E+02  0.7818609E-02  0.1379984E+01
      -11   -1    0    0    0    0  0.00000000000E+00  0.00000000000E+00  0.35740347158E-01  0.35744000000E-01  0.51099999109E-03 0.  1.
       11   -1    0    0    0    0 -0.00000000000E+00 -0.00000000000E+00 -0.35740347158E-01  0.35744000000E-01  0.51099999109E-03 0. -1.
       22    1    1    2    0    0  0.55318354269E-02  0.42272818539E-02 -0.35052281949E-01  0.35737005818E-01  0.00000000000E+00 0. -1.
  9000001    1    1    2    0    0 -0.55318354269E-02 -0.42272818539E-02  0.35052281949E-01  0.35750994182E-01  0.10000000475E-02 0.  1.
</event>
<event>
 4   0  0.2441219E-02  0.9118800E+02  0.7818609E-02  0.1379984E+01
      -11   -1    0    0    0    0  0.00000000000E+00  0.00000000000E+00  0.35740347158E-01  0.35744000000E-01  0.51099999109E-03 0.  1.
       11   -1    0    0    0    0 -0.00000000000E+00 -0.00000000000E+00 -0.35740347158E-01  0.35744000000E-01  0.51099999109E-03 0. -1.
       22    1    1    2    0    0  0.13074675403E-01  0.24668999364E-01  0.22307552944E-01  0.35737005818E-01  0.00000000000E+00 0.  1.
  9000001    1    1    2    0    0 -0.13074675403E-01 -0.24668999364E-01 -0.22307552944E-01  0.35750994182E-01  0.10000000475E-02 0. -1.
</event>
<event>
 4   0  0.2441219E-02  0.9118800E+02  0.7818609E-02  0.1379984E+01
      -11   -1    0    0    0    0  0.00000000000E+00  0.00000000000E+00  0.35740347158E-01  0.35744000000E-01  0.51099999109E-03 0.  1.
       11   -1    0    0    0    0 -0.00000000000E+00 -0.00000000000E+00 -0.35740347158E-01  0.35744000000E-01  0.51099999109E-03 0. -1.
       22    1    1    2    0    0  0.11159444121E-01  0.73656293820E-02 -0.33141332134E-01  0.35737005818E-01  0.00000000000E+00 0. -1.
  9000001    1    1    2    0    0 -0.11159444121E-01 -0.73656293820E-02  0.33141332134E-01  0.35750994182E-01  0.10000000475E-02 0.  1.
</event>
<event>
 4   0  0.2441219E-02  0.9118800E+02  0.7818609E-02  0.1379984E+01
      -11   -1    0    0    0    0  0.00000000000E+00  0.00000000000E+00  0.35740347158E-01  0.35744000000E-01  0.51099999109E-03 0.  1.
       11   -1    0    0    0    0 -0.00000000000E+00 -0.00000000000E+00 -0.35740347158E-01  0.35744000000E-01  0.51099999109E-03 0. -1.
       22    1    1    2    0    0  0.37490600927E-04  0.31458709830E-02 -0.35598253821E-01  0.35737005818E-01  0.00000000000E+00 0. -1.
  9000001    1    1    2    0    0 -0.37490600927E-04 -0.31458709830E-02  0.35598253821E-01  0.35750994182E-01  0.10000000475E-02 0.  1.
</event>
<event>
 4   0  0.2441219E-02  0.9118800E+02  0.7818609E-02  0.1379984E+01
      -11   -1    0    0    0    0  0.00000000000E+00  0.00000000000E+00  0.35740347158E-01  0.35744000000E-01  0.51099999109E-03 0. -1.
       11   -1    0    0    0    0 -0.00000000000E+00 -0.00000000000E+00 -0.35740347158E-01  0.35744000000E-01  0.51099999109E-03 0.  1.
       22    1    1    2    0    0  0.21826901685E-02  0.34275765682E-02 -0.35505227325E-01  0.35737005818E-01  0.00000000000E+00 0.  1.
  9000001    1    1    2    0    0 -0.21826901685E-02 -0.34275765682E-02  0.35505227325E-01  0.35750994182E-01  0.10000000475E-02 0. -1.
</event>
<event>
 4   0  0.2441219E-02  0.9118800E+02  0.7818609E-02  0.1379984E+01
      -11   -1    0    0    0    0  0.00000000000E+00  0.00000000000E+00  0.35740347158E-01  0.35744000000E-01  0.51099999109E-03 0. -1.
       11   -1    0    0    0    0 -0.00000000000E+00 -0.00000000000E+00 -0.35740347158E-01  0.35744000000E-01  0.51099999109E-03 0.  1.
       22    1    1    2    0    0  0.12744440505E-01 -0.86468484068E-02 -0.32248175665E-01  0.35737005818E-01  0.00000000000E+00 0.  1.
  9000001    1    1    2    0    0 -0.12744440505E-01  0.86468484068E-02  0.32248175665E-01  0.35750994182E-01  0.10000000475E-02 0. -1.
</event>
<event>
 4   0  0.2441219E-02  0.9118800E+02  0.7818609E-02  0.1379984E+01
      -11   -1    0    0    0    0  0.00000000000E+00  0.00000000000E+00  0.35740347158E-01  0.35744000000E-01  0.51099999109E-03 0. -1.
       11   -1    0    0    0    0 -0.00000000000E+00 -0.00000000000E+00 -0.35740347158E-01  0.35744000000E-01  0.51099999109E-03 0.  1.
       22    1    1    2    0    0 -0.10164592830E-01  0.18598326319E-01 -0.28773545065E-01  0.35737005818E-01  0.00000000000E+00 0.  1.
  9000001    1    1    2    0    0  0.10164592830E-01 -0.18598326319E-01  0.28773545065E-01  0.35750994182E-01  0.10000000475E-02 0. -1.
</event>
<event>
 4   0  0.2441219E-02  0.9118800E+02  0.7818609E-02  0.1379984E+01
      -11   -1    0    0    0    0  0.00000000000E+00  0.00000000000E+00  0.35740347158E-01  0.35744000000E-01  0.51099999109E-03 0.  1.
       11   -1    0    0    0    0 -0.00000000000E+00 -0.00000000000E+00 -0.35740347158E-01  0.35744000000E-01  0.51099999109E-03 0. -1.
       22    1    1    2    0    0  0.30694662770E-02 -0.63951934060E-02  0.35025897033E-01  0.35737005818E-01  0.00000000000E+00 0.  1.
  9000001    1    1    2    0    0 -0.30694662770E-02  0.63951934060E-02 -0.35025897033E-01  0.35750994182E-01  0.10000000475E-02 0. -1.
</event>
<event>
 4   0  0.2441219E-02  0.9118800E+02  0.7818609E-02  0.1379984E+01
      -11   -1    0    0    0    0  0.00000000000E+00  0.00000000000E+00  0.35740347158E-01  0.35744000000E-01  0.51099999109E-03 0. -1.
       11   -1    0    0    0    0 -0.00000000000E+00 -0.00000000000E+00 -0.35740347158E-01  0.35744000000E-01  0.51099999109E-03 0.  1.
       22    1    1    2    0    0  0.12425581530E-01  0.14657401894E-01 -0.30131363697E-01  0.35737005818E-01  0.00000000000E+00 0.  1.
  9000001    1    1    2    0    0 -0.12425581530E-01 -0.14657401894E-01  0.30131363697E-01  0.35750994182E-01  0.10000000475E-02 0. -1.
</event>
<event>
 4   0  0.2441219E-02  0.9118800E+02  0.7818609E-02  0.1379984E+01
      -11   -1    0    0    0    0  0.00000000000E+00  0.00000000000E+00  0.35740347158E-01  0.35744000000E-01  0.51099999109E-03 0.  1.
       11   -1    0    0    0    0 -0.00000000000E+00 -0.00000000000E+00 -0.35740347158E-01  0.35744000000E-01  0.51099999109E-03 0. -1.
       22    1    1    2    0    0 -0.31512491809E-02 -0.10788904697E-01  0.33923483738E-01  0.35737005818E-01  0.00000000000E+00 0.  1.
  9000001    1    1    2    0    0  0.31512491809E-02  0.10788904697E-01 -0.33923483738E-01  0.35750994182E-01  0.10000000475E-02 0. -1.
</event>
<event>
 4   0  0.2441219E-02  0.9118800E+02  0.7818609E-02  0.1379984E+01
      -11   -1    0    0    0    0  0.00000000000E+00  0.00000000000E+00  0.35740347158E-01  0.35744000000E-01  0.51099999109E-03 0.  1.
       11   -1    0    0    0    0 -0.00000000000E+00 -0.00000000000E+00 -0.35740347158E-01  0.35744000000E-01  0.51099999109E-03 0. -1.
       22    1    1    2    0    0 -0.84828144024E-02  0.18731315491E-02 -0.34665066319E-01  0.35737005818E-01  0.00000000000E+00 0. -1.
  9000001    1    1    2    0    0  0.84828144024E-02 -0.18731315491E-02  0.34665066319E-01  0.35750994182E-01  0.10000000475E-02 0.  1.
</event>
<event>
 4   0  0.2441219E-02  0.9118800E+02  0.7818609E-02  0.1379984E+01
      -11   -1    0    0    0    0  0.00000000000E+00  0.00000000000E+00  0.35740347158E-01  0.35744000000E-01  0.51099999109E-03 0. -1.
       11   -1    0    0    0    0 -0.00000000000E+00 -0.00000000000E+00 -0.35740347158E-01  0.35744000000E-01  0.51099999109E-03 0.  1.
       22    1    1    2    0    0 -0.30589345227E-01 -0.53954089179E-02 -0.17672439166E-01  0.35737005818E-01  0.00000000000E+00 0.  1.
  9000001    1    1    2    0    0  0.30589345227E-01  0.53954089179E-02  0.17672439166E-01  0.35750994182E-01  0.10000000475E-02 0. -1.
</event>
<event>
 4   0  0.2441219E-02  0.9118800E+02  0.7818609E-02  0.1379984E+01
      -11   -1    0    0    0    0  0.00000000000E+00  0.00000000000E+00  0.35740347158E-01  0.35744000000E-01  0.51099999109E-03 0.  1.
       11   -1    0    0    0    0 -0.00000000000E+00 -0.00000000000E+00 -0.35740347158E-01  0.35744000000E-01  0.51099999109E-03 0. -1.
       22    1    1    2    0    0  0.16696277036E-02  0.28243423982E-02 -0.35586078995E-01  0.35737005818E-01  0.00000000000E+00 0. -1.
  9000001    1    1    2    0    0 -0.16696277036E-02 -0.28243423982E-02  0.35586078995E-01  0.35750994182E-01  0.10000000475E-02 0.  1.
</event>
<event>
 4   0  0.2441219E-02  0.9118800E+02  0.7818609E-02  0.1379984E+01
      -11   -1    0    0    0    0  0.00000000000E+00  0.00000000000E+00  0.35740347158E-01  0.35744000000E-01  0.51099999109E-03 0. -1.
       11   -1    0    0    0    0 -0.00000000000E+00 -0.00000000000E+00 -0.35740347158E-01  0.35744000000E-01  0.51099999109E-03 0.  1.
       22    1    1    2    0    0 -0.85729410313E-02 -0.94890741650E-02 -0.33370581931E-01  0.35737005818E-01  0.00000000000E+00 0.  1.
  9000001    1    1    2    0    0  0.85729410313E-02  0.94890741650E-02  0.33370581931E-01  0.35750994182E-01  0.10000000475E-02 0. -1.
</event>
<event>
 4   0  0.2441219E-02  0.9118800E+02  0.7818609E-02  0.1379984E+01
      -11   -1    0    0    0    0  0.00000000000E+00  0.00000000000E+00  0.35740347158E-01  0.35744000000E-01  0.51099999109E-03 0.  1.
       11   -1    0    0    0    0 -0.00000000000E+00 -0.00000000000E+00 -0.35740347158E-01  0.35744000000E-01  0.51099999109E-03 0. -1.
       22    1    1    2    0    0  0.11062782381E-01  0.20219207213E-02 -0.33921383631E-01  0.35737005818E-01  0.00000000000E+00 0. -1.
  9000001    1    1    2    0    0 -0.11062782381E-01 -0.20219207213E-02  0.33921383631E-01  0.35750994182E-01  0.10000000475E-02 0.  1.
</event>
<event>
 4   0  0.2441219E-02  0.9118800E+02  0.7818609E-02  0.1379984E+01
      -11   -1    0    0    0    0  0.00000000000E+00  0.00000000000E+00  0.35740347158E-01  0.35744000000E-01  0.51099999109E-03 0.  1.
       11   -1    0    0    0    0 -0.00000000000E+00 -0.00000000000E+00 -0.35740347158E-01  0.35744000000E-01  0.51099999109E-03 0. -1.
       22    1    1    2    0    0 -0.68879118209E-04 -0.36131337003E-02  0.35553819843E-01  0.35737005818E-01  0.00000000000E+00 0.  1.
  9000001    1    1    2    0    0  0.68879118209E-04  0.36131337003E-02 -0.35553819843E-01  0.35750994182E-01  0.10000000475E-02 0. -1.
</event>
<event>
 4   0  0.2441219E-02  0.9118800E+02  0.7818609E-02  0.1379984E+01
      -11   -1    0    0    0    0  0.00000000000E+00  0.00000000000E+00  0.35740347158E-01  0.35744000000E-01  0.51099999109E-03 0. -1.
       11   -1    0    0    0    0 -0.00000000000E+00 -0.00000000000E+00 -0.35740347158E-01  0.35744000000E-01  0.51099999109E-03 0.  1.
       22    1    1    2    0    0  0.18232308377E-01 -0.11133481570E-01 -0.28648945954E-01  0.35737005818E-01  0.00000000000E+00 0.  1.
  9000001    1    1    2    0    0 -0.18232308377E-01  0.11133481570E-01  0.28648945954E-01  0.35750994182E-01  0.10000000475E-02 0. -1.
</event>
<event>
 4   0  0.2441219E-02  0.9118800E+02  0.7818609E-02  0.1379984E+01
      -11   -1    0    0    0    0  0.00000000000E+00  0.00000000000E+00  0.35740347158E-01  0.35744000000E-01  0.51099999109E-03 0. -1.
       11   -1    0    0    0    0 -0.00000000000E+00 -0.00000000000E+00 -0.35740347158E-01  0.35744000000E-01  0.51099999109E-03 0.  1.
       22    1    1    2    0    0  0.98109571957E-02 -0.95973119359E-03  0.34350511202E-01  0.35737005818E-01  0.00000000000E+00 0. -1.
  9000001    1    1    2    0    0 -0.98109571957E-02  0.95973119359E-03 -0.34350511202E-01  0.35750994182E-01  0.10000000475E-02 0.  1.
</event>
<event>
 4   0  0.2441219E-02  0.9118800E+02  0.7818609E-02  0.1379984E+01
      -11   -1    0    0    0    0  0.00000000000E+00  0.00000000000E+00  0.35740347158E-01  0.35744000000E-01  0.51099999109E-03 0. -1.
       11   -1    0    0    0    0 -0.00000000000E+00 -0.00000000000E+00 -0.35740347158E-01  0.35744000000E-01  0.51099999109E-03 0.  1.
       22    1    1    2    0    0  0.96027160279E-02  0.12307151010E-01  0.32147402131E-01  0.35737005818E-01  0.00000000000E+00 0. -1.
  9000001    1    1    2    0    0 -0.96027160279E-02 -0.12307151010E-01 -0.32147402131E-01  0.35750994182E-01  0.10000000475E-02 0.  1.
</event>
<event>
 4   0  0.2441219E-02  0.9118800E+02  0.7818609E-02  0.1379984E+01
      -11   -1    0    0    0    0  0.00000000000E+00  0.00000000000E+00  0.35740347158E-01  0.35744000000E-01  0.51099999109E-03 0. -1.
       11   -1    0    0    0    0 -0.00000000000E+00 -0.00000000000E+00 -0.35740347158E-01  0.35744000000E-01  0.51099999109E-03 0.  1.
       22    1    1    2    0    0  0.10826026198E-01 -0.11515804772E-01  0.32051785942E-01  0.35737005818E-01  0.00000000000E+00 0. -1.
  9000001    1    1    2    0    0 -0.10826026198E-01  0.11515804772E-01 -0.32051785942E-01  0.35750994182E-01  0.10000000475E-02 0.  1.
</event>
<event>
 4   0  0.2441219E-02  0.9118800E+02  0.7818609E-02  0.1379984E+01
      -11   -1    0    0    0    0  0.00000000000E+00  0.00000000000E+00  0.35740347158E-01  0.35744000000E-01  0.51099999109E-03 0.  1.
       11   -1    0    0    0    0 -0.00000000000E+00 -0.00000000000E+00 -0.35740347158E-01  0.35744000000E-01  0.51099999109E-03 0. -1.
       22    1    1    2    0    0  0.17660903592E-01 -0.23035192906E-01  0.20847205016E-01  0.35737005818E-01  0.00000000000E+00 0.  1.
  9000001    1    1    2    0    0 -0.17660903592E-01  0.23035192906E-01 -0.20847205016E-01  0.35750994182E-01  0.10000000475E-02 0. -1.
</event>
<event>
 4   0  0.2441219E-02  0.9118800E+02  0.7818609E-02  0.1379984E+01
      -11   -1    0    0    0    0  0.00000000000E+00  0.00000000000E+00  0.35740347158E-01  0.35744000000E-01  0.51099999109E-03 0.  1.
       11   -1    0    0    0    0 -0.00000000000E+00 -0.00000000000E+00 -0.35740347158E-01  0.35744000000E-01  0.51099999109E-03 0. -1.
       22    1    1    2    0    0  0.76961777506E-02  0.60894432214E-02  0.34363077775E-01  0.35737005818E-01  0.00000000000E+00 0.  1.
  9000001    1    1    2    0    0 -0.76961777506E-02 -0.60894432214E-02 -0.34363077775E-01  0.35750994182E-01  0.10000000475E-02 0. -1.
</event>
<event>
 4   0  0.2441219E-02  0.9118800E+02  0.7818609E-02  0.1379984E+01
      -11   -1    0    0    0    0  0.00000000000E+00  0.00000000000E+00  0.35740347158E-01  0.35744000000E-01  0.51099999109E-03 0.  1.
       11   -1    0    0    0    0 -0.00000000000E+00 -0.00000000000E+00 -0.35740347158E-01  0.35744000000E-01  0.51099999109E-03 0. -1.
       22    1    1    2    0    0  0.20675065830E-01 -0.87984091585E-02  0.27789624576E-01  0.35737005818E-01  0.00000000000E+00 0.  1.
  9000001    1    1    2    0    0 -0.20675065830E-01  0.87984091585E-02 -0.27789624576E-01  0.35750994182E-01  0.10000000475E-02 0. -1.
</event>
<event>
 4   0  0.2441219E-02  0.9118800E+02  0.7818609E-02  0.1379984E+01
      -11   -1    0    0    0    0  0.00000000000E+00  0.00000000000E+00  0.35740347158E-01  0.35744000000E-01  0.51099999109E-03 0.  1.
       11   -1    0    0    0    0 -0.00000000000E+00 -0.00000000000E+00 -0.35740347158E-01  0.35744000000E-01  0.51099999109E-03 0. -1.
       22    1    1    2    0    0 -0.26305809714E-02 -0.16399201231E-02  0.35602307378E-01  0.35737005818E-01  0.00000000000E+00 0.  1.
  9000001    1    1    2    0    0  0.26305809714E-02  0.16399201231E-02 -0.35602307378E-01  0.35750994182E-01  0.10000000475E-02 0. -1.
</event>
<event>
 4   0  0.2441219E-02  0.9118800E+02  0.7818609E-02  0.1379984E+01
      -11   -1    0    0    0    0  0.00000000000E+00  0.00000000000E+00  0.35740347158E-01  0.35744000000E-01  0.51099999109E-03 0. -1.
       11   -1    0    0    0    0 -0.00000000000E+00 -0.00000000000E+00 -0.35740347158E-01  0.35744000000E-01  0.51099999109E-03 0.  1.
       22    1    1    2    0    0  0.82691098105E-02 -0.25646134502E-03  0.34766213993E-01  0.35737005818E-01  0.00000000000E+00 0. -1.
  9000001    1    1    2    0    0 -0.82691098105E-02  0.25646134502E-03 -0.34766213993E-01  0.35750994182E-01  0.10000000475E-02 0.  1.
</event>
<event>
 4   0  0.2441219E-02  0.9118800E+02  0.7818609E-02  0.1379984E+01
      -11   -1    0    0    0    0  0.00000000000E+00  0.00000000000E+00  0.35740347158E-01  0.35744000000E-01  0.51099999109E-03 0. -1.
       11   -1    0    0    0    0 -0.00000000000E+00 -0.00000000000E+00 -0.35740347158E-01  0.35744000000E-01  0.51099999109E-03 0.  1.
       22    1    1    2    0    0 -0.67318508265E-02  0.83061171687E-02  0.34100208018E-01  0.35737005818E-01  0.00000000000E+00 0. -1.
  9000001    1    1    2    0    0  0.67318508265E-02 -0.83061171687E-02 -0.34100208018E-01  0.35750994182E-01  0.10000000475E-02 0.  1.
</event>
<event>
 4   0  0.2441219E-02  0.9118800E+02  0.7818609E-02  0.1379984E+01
      -11   -1    0    0    0    0  0.00000000000E+00  0.00000000000E+00  0.35740347158E-01  0.35744000000E-01  0.51099999109E-03 0.  1.
       11   -1    0    0    0    0 -0.00000000000E+00 -0.00000000000E+00 -0.35740347158E-01  0.35744000000E-01  0.51099999109E-03 0. -1.
       22    1    1    2    0    0 -0.84175569246E-02 -0.86369902879E-02  0.33640462527E-01  0.35737005818E-01  0.00000000000E+00 0.  1.
  9000001    1    1    2    0    0  0.84175569246E-02  0.86369902879E-02 -0.33640462527E-01  0.35750994182E-01  0.10000000475E-02 0. -1.
</event>
<event>
 4   0  0.2441219E-02  0.9118800E+02  0.7818609E-02  0.1379984E+01
      -11   -1    0    0    0    0  0.00000000000E+00  0.00000000000E+00  0.35740347158E-01  0.35744000000E-01  0.51099999109E-03 0.  1.
       11   -1    0    0    0    0 -0.00000000000E+00 -0.00000000000E+00 -0.35740347158E-01  0.35744000000E-01  0.51099999109E-03 0. -1.
       22    1    1    2    0    0 -0.66853446544E-02 -0.12542072803E-03 -0.35105897245E-01  0.35737005818E-01  0.00000000000E+00 0. -1.
  9000001    1    1    2    0    0  0.66853446544E-02  0.12542072803E-03  0.35105897245E-01  0.35750994182E-01  0.10000000475E-02 0.  1.
</event>
<event>
 4   0  0.2441219E-02  0.9118800E+02  0.7818609E-02  0.1379984E+01
      -11   -1    0    0    0    0  0.00000000000E+00  0.00000000000E+00  0.35740347158E-01  0.35744000000E-01  0.51099999109E-03 0.  1.
       11   -1    0    0    0    0 -0.00000000000E+00 -0.00000000000E+00 -0.35740347158E-01  0.35744000000E-01  0.51099999109E-03 0. -1.
       22    1    1    2    0    0 -0.34387075508E-02 -0.27467281919E-02  0.35464973699E-01  0.35737005818E-01  0.00000000000E+00 0.  1.
  9000001    1    1    2    0    0  0.34387075508E-02  0.27467281919E-02 -0.35464973699E-01  0.35750994182E-01  0.10000000475E-02 0. -1.
</event>
<event>
 4   0  0.2441219E-02  0.9118800E+02  0.7818609E-02  0.1379984E+01
      -11   -1    0    0    0    0  0.00000000000E+00  0.00000000000E+00  0.35740347158E-01  0.35744000000E-01  0.51099999109E-03 0. -1.
       11   -1    0    0    0    0 -0.00000000000E+00 -0.00000000000E+00 -0.35740347158E-01  0.35744000000E-01  0.51099999109E-03 0.  1.
       22    1    1    2    0    0  0.24643910573E-01  0.23107757686E-01  0.11655161571E-01  0.35737005818E-01  0.00000000000E+00 0. -1.
  9000001    1    1    2    0    0 -0.24643910573E-01 -0.23107757686E-01 -0.11655161571E-01  0.35750994182E-01  0.10000000475E-02 0.  1.
</event>
<event>
 4   0  0.2441219E-02  0.9118800E+02  0.7818609E-02  0.1379984E+01
      -11   -1    0    0    0    0  0.00000000000E+00  0.00000000000E+00  0.35740347158E-01  0.35744000000E-01  0.51099999109E-03 0. -1.
       11   -1    0    0    0    0 -0.00000000000E+00 -0.00000000000E+00 -0.35740347158E-01  0.35744000000E-01  0.51099999109E-03 0.  1.
       22    1    1    2    0    0 -0.29844004806E-02  0.29430356392E-02  0.35490357562E-01  0.35737005818E-01  0.00000000000E+00 0. -1.
  9000001    1    1    2    0    0  0.29844004806E-02 -0.29430356392E-02 -0.35490357562E-01  0.35750994182E-01  0.10000000475E-02 0.  1.
</event>
<event>
 4   0  0.2441219E-02  0.9118800E+02  0.7818609E-02  0.1379984E+01
      -11   -1    0    0    0    0  0.00000000000E+00  0.00000000000E+00  0.35740347158E-01  0.35744000000E-01  0.51099999109E-03 0.  1.
       11   -1    0    0    0    0 -0.00000000000E+00 -0.00000000000E+00 -0.35740347158E-01  0.35744000000E-01  0.51099999109E-03 0. -1.
       22    1    1    2    0    0  0.27477180926E-03  0.72094842162E-02 -0.35001163162E-01  0.35737005818E-01  0.00000000000E+00 0. -1.
  9000001    1    1    2    0    0 -0.27477180926E-03 -0.72094842162E-02  0.35001163162E-01  0.35750994182E-01  0.10000000475E-02 0.  1.
</event>
<event>
 4   0  0.2441219E-02  0.9118800E+02  0.7818609E-02  0.1379984E+01
      -11   -1    0    0    0    0  0.00000000000E+00  0.00000000000E+00  0.35740347158E-01  0.35744000000E-01  0.51099999109E-03 0. -1.
       11   -1    0    0    0    0 -0.00000000000E+00 -0.00000000000E+00 -0.35740347158E-01  0.35744000000E-01  0.51099999109E-03 0.  1.
       22    1    1    2    0    0 -0.91885399033E-02  0.56153992979E-02  0.34075968219E-01  0.35737005818E-01  0.00000000000E+00 0. -1.
  9000001    1    1    2    0    0  0.91885399033E-02 -0.56153992979E-02 -0.34075968219E-01  0.35750994182E-01  0.10000000475E-02 0.  1.
</event>
<event>
 4   0  0.2441219E-02  0.9118800E+02  0.7818609E-02  0.1379984E+01
      -11   -1    0    0    0    0  0.00000000000E+00  0.00000000000E+00  0.35740347158E-01  0.35744000000E-01  0.51099999109E-03 0. -1.
       11   -1    0    0    0    0 -0.00000000000E+00 -0.00000000000E+00 -0.35740347158E-01  0.35744000000E-01  0.51099999109E-03 0.  1.
       22    1    1    2    0    0 -0.26181722293E-01  0.67096854576E-03  0.24314621195E-01  0.35737005818E-01  0.00000000000E+00 0. -1.
  9000001    1    1    2    0    0  0.26181722293E-01 -0.67096854576E-03 -0.24314621195E-01  0.35750994182E-01  0.10000000475E-02 0.  1.
</event>
<event>
 4   0  0.2441219E-02  0.9118800E+02  0.7818609E-02  0.1379984E+01
      -11   -1    0    0    0    0  0.00000000000E+00  0.00000000000E+00  0.35740347158E-01  0.35744000000E-01  0.51099999109E-03 0. -1.
       11   -1    0    0    0    0 -0.00000000000E+00 -0.00000000000E+00 -0.35740347158E-01  0.35744000000E-01  0.51099999109E-03 0.  1.
       22    1    1    2    0    0 -0.64179529846E-02 -0.75589876912E-02 -0.34333732239E-01  0.35737005818E-01  0.00000000000E+00 0.  1.
  9000001    1    1    2    0    0  0.64179529846E-02  0.75589876912E-02  0.34333732239E-01  0.35750994182E-01  0.10000000475E-02 0. -1.
</event>
<event>
 4   0  0.2441219E-02  0.9118800E+02  0.7818609E-02  0.1379984E+01
      -11   -1    0    0    0    0  0.00000000000E+00  0.00000000000E+00  0.35740347158E-01  0.35744000000E-01  0.51099999109E-03 0. -1.
       11   -1    0    0    0    0 -0.00000000000E+00 -0.00000000000E+00 -0.35740347158E-01  0.35744000000E-01  0.51099999109E-03 0.  1.
       22    1    1    2    0    0 -0.83582442876E-02  0.27928128764E-02 -0.34633416429E-01  0.35737005818E-01  0.00000000000E+00 0.  1.
  9000001    1    1    2    0    0  0.83582442876E-02 -0.27928128764E-02  0.34633416429E-01  0.35750994182E-01  0.10000000475E-02 0. -1.
</event>
<event>
 4   0  0.2441219E-02  0.9118800E+02  0.7818609E-02  0.1379984E+01
      -11   -1    0    0    0    0  0.00000000000E+00  0.00000000000E+00  0.35740347158E-01  0.35744000000E-01  0.51099999109E-03 0.  1.
       11   -1    0    0    0    0 -0.00000000000E+00 -0.00000000000E+00 -0.35740347158E-01  0.35744000000E-01  0.51099999109E-03 0. -1.
       22    1    1    2    0    0  0.29966628762E-01 -0.13926534140E-01 -0.13608320704E-01  0.35737005818E-01  0.00000000000E+00 0.  1.
  9000001    1    1    2    0    0 -0.29966628762E-01  0.13926534140E-01  0.13608320704E-01  0.35750994182E-01  0.10000000475E-02 0. -1.
</event>
<event>
 4   0  0.2441219E-02  0.9118800E+02  0.7818609E-02  0.1379984E+01
      -11   -1    0    0    0    0  0.00000000000E+00  0.00000000000E+00  0.35740347158E-01  0.35744000000E-01  0.51099999109E-03 0.  1.
       11   -1    0    0    0    0 -0.00000000000E+00 -0.00000000000E+00 -0.35740347158E-01  0.35744000000E-01  0.51099999109E-03 0. -1.
       22    1    1    2    0    0  0.50267637727E-02  0.59018598468E-02 -0.34886004087E-01  0.35737005818E-01  0.00000000000E+00 0. -1.
  9000001    1    1    2    0    0 -0.50267637727E-02 -0.59018598468E-02  0.34886004087E-01  0.35750994182E-01  0.10000000475E-02 0.  1.
</event>
<event>
 4   0  0.2441219E-02  0.9118800E+02  0.7818609E-02  0.1379984E+01
      -11   -1    0    0    0    0  0.00000000000E+00  0.00000000000E+00  0.35740347158E-01  0.35744000000E-01  0.51099999109E-03 0.  1.
       11   -1    0    0    0    0 -0.00000000000E+00 -0.00000000000E+00 -0.35740347158E-01  0.35744000000E-01  0.51099999109E-03 0. -1.
       22    1    1    2    0    0  0.23236491435E-01  0.99933396287E-02  0.25245439464E-01  0.35737005818E-01  0.00000000000E+00 0.  1.
  9000001    1    1    2    0    0 -0.23236491435E-01 -0.99933396287E-02 -0.25245439464E-01  0.35750994182E-01  0.10000000475E-02 0. -1.
</event>
<event>
 4   0  0.2441219E-02  0.9118800E+02  0.7818609E-02  0.1379984E+01
      -11   -1    0    0    0    0  0.00000000000E+00  0.00000000000E+00  0.35740347158E-01  0.35744000000E-01  0.51099999109E-03 0.  1.
       11   -1    0    0    0    0 -0.00000000000E+00 -0.00000000000E+00 -0.35740347158E-01  0.35744000000E-01  0.51099999109E-03 0. -1.
       22    1    1    2    0    0  0.10125237695E-01 -0.69140995910E-02 -0.33567966476E-01  0.35737005818E-01  0.00000000000E+00 0. -1.
  9000001    1    1    2    0    0 -0.10125237695E-01  0.69140995910E-02  0.33567966476E-01  0.35750994182E-01  0.10000000475E-02 0.  1.
</event>
<event>
 4   0  0.2441219E-02  0.9118800E+02  0.7818609E-02  0.1379984E+01
      -11   -1    0    0    0    0  0.00000000000E+00  0.00000000000E+00  0.35740347158E-01  0.35744000000E-01  0.51099999109E-03 0.  1.
       11   -1    0    0    0    0 -0.00000000000E+00 -0.00000000000E+00 -0.35740347158E-01  0.35744000000E-01  0.51099999109E-03 0. -1.
       22    1    1    2    0    0 -0.14137308204E-01 -0.18716778847E-02 -0.32768382986E-01  0.35737005818E-01  0.00000000000E+00 0.  1.
  9000001    1    1    2    0    0  0.14137308204E-01  0.18716778847E-02  0.32768382986E-01  0.35750994182E-01  0.10000000475E-02 0. -1.
</event>
<event>
 4   0  0.2441219E-02  0.9118800E+02  0.7818609E-02  0.1379984E+01
      -11   -1    0    0    0    0  0.00000000000E+00  0.00000000000E+00  0.35740347158E-01  0.35744000000E-01  0.51099999109E-03 0. -1.
       11   -1    0    0    0    0 -0.00000000000E+00 -0.00000000000E+00 -0.35740347158E-01  0.35744000000E-01  0.51099999109E-03 0.  1.
       22    1    1    2    0    0  0.90892497888E-03  0.28336958121E-01  0.21756016287E-01  0.35737005818E-01  0.00000000000E+00 0. -1.
  9000001    1    1    2    0    0 -0.90892497888E-03 -0.28336958121E-01 -0.21756016287E-01  0.35750994182E-01  0.10000000475E-02 0.  1.
</event>
<event>
 4   0  0.2441219E-02  0.9118800E+02  0.7818609E-02  0.1379984E+01
      -11   -1    0    0    0    0  0.00000000000E+00  0.00000000000E+00  0.35740347158E-01  0.35744000000E-01  0.51099999109E-03 0.  1.
       11   -1    0    0    0    0 -0.00000000000E+00 -0.00000000000E+00 -0.35740347158E-01  0.35744000000E-01  0.51099999109E-03 0. -1.
       22    1    1    2    0    0 -0.12207688989E-01  0.14404851756E-01 -0.30341492388E-01  0.35737005818E-01  0.00000000000E+00 0. -1.
  9000001    1    1    2    0    0  0.12207688989E-01 -0.14404851756E-01  0.30341492388E-01  0.35750994182E-01  0.10000000475E-02 0.  1.
</event>
<event>
 4   0  0.2441219E-02  0.9118800E+02  0.7818609E-02  0.1379984E+01
      -11   -1    0    0    0    0  0.00000000000E+00  0.00000000000E+00  0.35740347158E-01  0.35744000000E-01  0.51099999109E-03 0. -1.
       11   -1    0    0    0    0 -0.00000000000E+00 -0.00000000000E+00 -0.35740347158E-01  0.35744000000E-01  0.51099999109E-03 0.  1.
       22    1    1    2    0    0  0.16528778321E-01  0.17908664890E-01  0.26138339540E-01  0.35737005818E-01  0.00000000000E+00 0. -1.
  9000001    1    1    2    0    0 -0.16528778321E-01 -0.17908664890E-01 -0.26138339540E-01  0.35750994182E-01  0.10000000475E-02 0.  1.
</event>
<event>
 4   0  0.2441219E-02  0.9118800E+02  0.7818609E-02  0.1379984E+01
      -11   -1    0    0    0    0  0.00000000000E+00  0.00000000000E+00  0.35740347158E-01  0.35744000000E-01  0.51099999109E-03 0. -1.
       11   -1    0    0    0    0 -0.00000000000E+00 -0.00000000000E+00 -0.35740347158E-01  0.35744000000E-01  0.51099999109E-03 0.  1.
       22    1    1    2    0    0 -0.30164605305E-01 -0.56464344825E-02  0.18312508001E-01  0.35737005818E-01  0.00000000000E+00 0. -1.
  9000001    1    1    2    0    0  0.30164605305E-01  0.56464344825E-02 -0.18312508001E-01  0.35750994182E-01  0.10000000475E-02 0.  1.
</event>
<event>
 4   0  0.2441219E-02  0.9118800E+02  0.7818609E-02  0.1379984E+01
      -11   -1    0    0    0    0  0.00000000000E+00  0.00000000000E+00  0.35740347158E-01  0.35744000000E-01  0.51099999109E-03 0.  1.
       11   -1    0    0    0    0 -0.00000000000E+00 -0.00000000000E+00 -0.35740347158E-01  0.35744000000E-01  0.51099999109E-03 0. -1.
       22    1    1    2    0    0 -0.38493476358E-02 -0.30382319440E-02  0.35398944254E-01  0.35737005818E-01  0.00000000000E+00 0.  1.
  9000001    1    1    2    0    0  0.38493476358E-02  0.30382319440E-02 -0.35398944254E-01  0.35750994182E-01  0.10000000475E-02 0. -1.
</event>
<event>
 4   0  0.2441219E-02  0.9118800E+02  0.7818609E-02  0.1379984E+01
      -11   -1    0    0    0    0  0.00000000000E+00  0.00000000000E+00  0.35740347158E-01  0.35744000000E-01  0.51099999109E-03 0.  1.
       11   -1    0    0    0    0 -0.00000000000E+00 -0.00000000000E+00 -0.35740347158E-01  0.35744000000E-01  0.51099999109E-03 0. -1.
       22    1    1    2    0    0 -0.35859306296E-02 -0.59055583046E-02 -0.35062787503E-01  0.35737005818E-01  0.00000000000E+00 0. -1.
  9000001    1    1    2    0    0  0.35859306296E-02  0.59055583046E-02  0.35062787503E-01  0.35750994182E-01  0.10000000475E-02 0.  1.
</event>
<event>
 4   0  0.2441219E-02  0.9118800E+02  0.7818609E-02  0.1379984E+01
      -11   -1    0    0    0    0  0.00000000000E+00  0.00000000000E+00  0.35740347158E-01  0.35744000000E-01  0.51099999109E-03 0. -1.
       11   -1    0    0    0    0 -0.00000000000E+00 -0.00000000000E+00 -0.35740347158E-01  0.35744000000E-01  0.51099999109E-03 0.  1.
       22    1    1    2    0    0  0.24835888628E-02 -0.23444805894E-02 -0.35573428033E-01  0.35737005818E-01  0.00000000000E+00 0.  1.
  9000001    1    1    2    0    0 -0.24835888628E-02  0.23444805894E-02  0.35573428033E-01  0.35750994182E-01  0.10000000475E-02 0. -1.
</event>
<event>
 4   0  0.2441219E-02  0.9118800E+02  0.7818609E-02  0.1379984E+01
      -11   -1    0    0    0    0  0.00000000000E+00  0.00000000000E+00  0.35740347158E-01  0.35744000000E-01  0.51099999109E-03 0.  1.
       11   -1    0    0    0    0 -0.00000000000E+00 -0.00000000000E+00 -0.35740347158E-01  0.35744000000E-01  0.51099999109E-03 0. -1.
       22    1    1    2    0    0  0.13167794926E-01 -0.23041953792E-02  0.33142622789E-01  0.35737005818E-01  0.00000000000E+00 0.  1.
  9000001    1    1    2    0    0 -0.13167794926E-01  0.23041953792E-02 -0.33142622789E-01  0.35750994182E-01  0.10000000475E-02 0. -1.
</event>
<event>
 4   0  0.2441219E-02  0.9118800E+02  0.7818609E-02  0.1379984E+01
      -11   -1    0    0    0    0  0.00000000000E+00  0.00000000000E+00  0.35740347158E-01  0.35744000000E-01  0.51099999109E-03 0. -1.
       11   -1    0    0    0    0 -0.00000000000E+00 -0.00000000000E+00 -0.35740347158E-01  0.35744000000E-01  0.51099999109E-03 0.  1.
       22    1    1    2    0    0 -0.84270529785E-02  0.80825363423E-02 -0.33775597245E-01  0.35737005818E-01  0.00000000000E+00 0.  1.
  9000001    1    1    2    0    0  0.84270529785E-02 -0.80825363423E-02  0.33775597245E-01  0.35750994182E-01  0.10000000475E-02 0. -1.
</event>
<event>
 4   0  0.2441219E-02  0.9118800E+02  0.7818609E-02  0.1379984E+01
      -11   -1    0    0    0    0  0.00000000000E+00  0.00000000000E+00  0.35740347158E-01  0.35744000000E-01  0.51099999109E-03 0. -1.
       11   -1    0    0    0    0 -0.00000000000E+00 -0.00000000000E+00 -0.35740347158E-01  0.35744000000E-01  0.51099999109E-03 0.  1.
       22    1    1    2    0    0  0.10519060762E-01 -0.12895456930E-01 -0.31625782775E-01  0.35737005818E-01  0.00000000000E+00 0.  1.
  9000001    1    1    2    0    0 -0.10519060762E-01  0.12895456930E-01  0.31625782775E-01  0.35750994182E-01  0.10000000475E-02 0. -1.
</event>
<event>
 4   0  0.2441219E-02  0.9118800E+02  0.7818609E-02  0.1379984E+01
      -11   -1    0    0    0    0  0.00000000000E+00  0.00000000000E+00  0.35740347158E-01  0.35744000000E-01  0.51099999109E-03 0.  1.
       11   -1    0    0    0    0 -0.00000000000E+00 -0.00000000000E+00 -0.35740347158E-01  0.35744000000E-01  0.51099999109E-03 0. -1.
       22    1    1    2    0    0  0.49263326311E-02  0.64839946674E-02  0.34796876941E-01  0.35737005818E-01  0.00000000000E+00 0.  1.
  9000001    1    1    2    0    0 -0.49263326311E-02 -0.64839946674E-02 -0.34796876941E-01  0.35750994182E-01  0.10000000475E-02 0. -1.
</event>
<event>
 4   0  0.2441219E-02  0.9118800E+02  0.7818609E-02  0.1379984E+01
      -11   -1    0    0    0    0  0.00000000000E+00  0.00000000000E+00  0.35740347158E-01  0.35744000000E-01  0.51099999109E-03 0. -1.
       11   -1    0    0    0    0 -0.00000000000E+00 -0.00000000000E+00 -0.35740347158E-01  0.35744000000E-01  0.51099999109E-03 0.  1.
       22    1    1    2    0    0  0.27880890212E-03  0.31983268449E-01  0.15941342157E-01  0.35737005818E-01  0.00000000000E+00 0. -1.
  9000001    1    1    2    0    0 -0.27880890212E-03 -0.31983268449E-01 -0.15941342157E-01  0.35750994182E-01  0.10000000475E-02 0.  1.
</event>
<event>
 4   0  0.2441219E-02  0.9118800E+02  0.7818609E-02  0.1379984E+01
      -11   -1    0    0    0    0  0.00000000000E+00  0.00000000000E+00  0.35740347158E-01  0.35744000000E-01  0.51099999109E-03 0. -1.
       11   -1    0    0    0    0 -0.00000000000E+00 -0.00000000000E+00 -0.35740347158E-01  0.35744000000E-01  0.51099999109E-03 0.  1.
       22    1    1    2    0    0 -0.66967909925E-02 -0.48922796346E-02 -0.34761360377E-01  0.35737005818E-01  0.00000000000E+00 0.  1.
  9000001    1    1    2    0    0  0.66967909925E-02  0.48922796346E-02  0.34761360377E-01  0.35750994182E-01  0.10000000475E-02 0. -1.
</event>
<event>
 4   0  0.2441219E-02  0.9118800E+02  0.7818609E-02  0.1379984E+01
      -11   -1    0    0    0    0  0.00000000000E+00  0.00000000000E+00  0.35740347158E-01  0.35744000000E-01  0.51099999109E-03 0.  1.
       11   -1    0    0    0    0 -0.00000000000E+00 -0.00000000000E+00 -0.35740347158E-01  0.35744000000E-01  0.51099999109E-03 0. -1.
       22    1    1    2    0    0 -0.21833784467E-02  0.33883065907E-02 -0.35508954108E-01  0.35737005818E-01  0.00000000000E+00 0. -1.
  9000001    1    1    2    0    0  0.21833784467E-02 -0.33883065907E-02  0.35508954108E-01  0.35750994182E-01  0.10000000475E-02 0.  1.
</event>
<event>
 4   0  0.2441219E-02  0.9118800E+02  0.7818609E-02  0.1379984E+01
      -11   -1    0    0    0    0  0.00000000000E+00  0.00000000000E+00  0.35740347158E-01  0.35744000000E-01  0.51099999109E-03 0. -1.
       11   -1    0    0    0    0 -0.00000000000E+00 -0.00000000000E+00 -0.35740347158E-01  0.35744000000E-01  0.51099999109E-03 0.  1.
       22    1    1    2    0    0  0.96312484032E-03  0.37965781142E-02 -0.35521711249E-01  0.35737005818E-01  0.00000000000E+00 0.  1.
  9000001    1    1    2    0    0 -0.96312484032E-03 -0.37965781142E-02  0.35521711249E-01  0.35750994182E-01  0.10000000475E-02 0. -1.
</event>
<event>
 4   0  0.2441219E-02  0.9118800E+02  0.7818609E-02  0.1379984E+01
      -11   -1    0    0    0    0  0.00000000000E+00  0.00000000000E+00  0.35740347158E-01  0.35744000000E-01  0.51099999109E-03 0.  1.
       11   -1    0    0    0    0 -0.00000000000E+00 -0.00000000000E+00 -0.35740347158E-01  0.35744000000E-01  0.51099999109E-03 0. -1.
       22    1    1    2    0    0 -0.52618858206E-02  0.13544740128E-01  0.32649443446E-01  0.35737005818E-01  0.00000000000E+00 0.  1.
  9000001    1    1    2    0    0  0.52618858206E-02 -0.13544740128E-01 -0.32649443446E-01  0.35750994182E-01  0.10000000475E-02 0. -1.
</event>
<event>
 4   0  0.2441219E-02  0.9118800E+02  0.7818609E-02  0.1379984E+01
      -11   -1    0    0    0    0  0.00000000000E+00  0.00000000000E+00  0.35740347158E-01  0.35744000000E-01  0.51099999109E-03 0. -1.
       11   -1    0    0    0    0 -0.00000000000E+00 -0.00000000000E+00 -0.35740347158E-01  0.35744000000E-01  0.51099999109E-03 0.  1.
       22    1    1    2    0    0 -0.56885958309E-02 -0.29252327835E-02 -0.35159870243E-01  0.35737005818E-01  0.00000000000E+00 0.  1.
  9000001    1    1    2    0    0  0.56885958309E-02  0.29252327835E-02  0.35159870243E-01  0.35750994182E-01  0.10000000475E-02 0. -1.
</event>
<event>
 4   0  0.2441219E-02  0.9118800E+02  0.7818609E-02  0.1379984E+01
      -11   -1    0    0    0    0  0.00000000000E+00  0.00000000000E+00  0.35740347158E-01  0.35744000000E-01  0.51099999109E-03 0. -1.
       11   -1    0    0    0    0 -0.00000000000E+00 -0.00000000000E+00 -0.35740347158E-01  0.35744000000E-01  0.51099999109E-03 0.  1.
       22    1    1    2    0    0 -0.36175547426E-02 -0.92608598280E-03 -0.35541373740E-01  0.35737005818E-01  0.00000000000E+00 0.  1.
  9000001    1    1    2    0    0  0.36175547426E-02  0.92608598280E-03  0.35541373740E-01  0.35750994182E-01  0.10000000475E-02 0. -1.
</event>
<event>
 4   0  0.2441219E-02  0.9118800E+02  0.7818609E-02  0.1379984E+01
      -11   -1    0    0    0    0  0.00000000000E+00  0.00000000000E+00  0.35740347158E-01  0.35744000000E-01  0.51099999109E-03 0.  1.
       11   -1    0    0    0    0 -0.00000000000E+00 -0.00000000000E+00 -0.35740347158E-01  0.35744000000E-01  0.51099999109E-03 0. -1.
       22    1    1    2    0    0 -0.31267977852E-03  0.30618034063E-02 -0.35604229751E-01  0.35737005818E-01  0.00000000000E+00 0. -1.
  9000001    1    1    2    0    0  0.31267977852E-03 -0.30618034063E-02  0.35604229751E-01  0.35750994182E-01  0.10000000475E-02 0.  1.
</event>
<event>
 4   0  0.2441219E-02  0.9118800E+02  0.7818609E-02  0.1379984E+01
      -11   -1    0    0    0    0  0.00000000000E+00  0.00000000000E+00  0.35740347158E-01  0.35744000000E-01  0.51099999109E-03 0.  1.
       11   -1    0    0    0    0 -0.00000000000E+00 -0.00000000000E+00 -0.35740347158E-01  0.35744000000E-01  0.51099999109E-03 0. -1.
       22    1    1    2    0    0 -0.87568517833E-02 -0.36651341710E-02 -0.34453126465E-01  0.35737005818E-01  0.00000000000E+00 0. -1.
  9000001    1    1    2    0    0  0.87568517833E-02  0.36651341710E-02  0.34453126465E-01  0.35750994182E-01  0.10000000475E-02 0.  1.
</event>
<event>
 4   0  0.2441219E-02  0.9118800E+02  0.7818609E-02  0.1379984E+01
      -11   -1    0    0    0    0  0.00000000000E+00  0.00000000000E+00  0.35740347158E-01  0.35744000000E-01  0.51099999109E-03 0.  1.
       11   -1    0    0    0    0 -0.00000000000E+00 -0.00000000000E+00 -0.35740347158E-01  0.35744000000E-01  0.51099999109E-03 0. -1.
       22    1    1    2    0    0  0.22008180670E-01 -0.24321826521E-01  0.14185285445E-01  0.35737005818E-01  0.00000000000E+00 0.  1.
  9000001    1    1    2    0    0 -0.22008180670E-01  0.24321826521E-01 -0.14185285445E-01  0.35750994182E-01  0.10000000475E-02 0. -1.
</event>
<event>
 4   0  0.2441219E-02  0.9118800E+02  0.7818609E-02  0.1379984E+01
      -11   -1    0    0    0    0  0.00000000000E+00  0.00000000000E+00  0.35740347158E-01  0.35744000000E-01  0.51099999109E-03 0.  1.
       11   -1    0    0    0    0 -0.00000000000E+00 -0.00000000000E+00 -0.35740347158E-01  0.35744000000E-01  0.51099999109E-03 0. -1.
       22    1    1    2    0    0 -0.10230046084E-01 -0.15570795502E-01 -0.30496394368E-01  0.35737005818E-01  0.00000000000E+00 0. -1.
  9000001    1    1    2    0    0  0.10230046084E-01  0.15570795502E-01  0.30496394368E-01  0.35750994182E-01  0.10000000475E-02 0.  1.
</event>
<event>
 4   0  0.2441219E-02  0.9118800E+02  0.7818609E-02  0.1379984E+01
      -11   -1    0    0    0    0  0.00000000000E+00  0.00000000000E+00  0.35740347158E-01  0.35744000000E-01  0.51099999109E-03 0.  1.
       11   -1    0    0    0    0 -0.00000000000E+00 -0.00000000000E+00 -0.35740347158E-01  0.35744000000E-01  0.51099999109E-03 0. -1.
       22    1    1    2    0    0  0.22521260521E-02  0.31612977980E-02 -0.35525592315E-01  0.35737005818E-01  0.00000000000E+00 0. -1.
  9000001    1    1    2    0    0 -0.22521260521E-02 -0.31612977980E-02  0.35525592315E-01  0.35750994182E-01  0.10000000475E-02 0.  1.
</event>
<event>
 4   0  0.2441219E-02  0.9118800E+02  0.7818609E-02  0.1379984E+01
      -11   -1    0    0    0    0  0.00000000000E+00  0.00000000000E+00  0.35740347158E-01  0.35744000000E-01  0.51099999109E-03 0. -1.
       11   -1    0    0    0    0 -0.00000000000E+00 -0.00000000000E+00 -0.35740347158E-01  0.35744000000E-01  0.51099999109E-03 0.  1.
       22    1    1    2    0    0 -0.78072324846E-02  0.10954833246E-01  0.33108493387E-01  0.35737005818E-01  0.00000000000E+00 0. -1.
  9000001    1    1    2    0    0  0.78072324846E-02 -0.10954833246E-01 -0.33108493387E-01  0.35750994182E-01  0.10000000475E-02 0.  1.
</event>
<event>
 4   0  0.2441219E-02  0.9118800E+02  0.7818609E-02  0.1379984E+01
      -11   -1    0    0    0    0  0.00000000000E+00  0.00000000000E+00  0.35740347158E-01  0.35744000000E-01  0.51099999109E-03 0.  1.
       11   -1    0    0    0    0 -0.00000000000E+00 -0.00000000000E+00 -0.35740347158E-01  0.35744000000E-01  0.51099999109E-03 0. -1.
       22    1    1    2    0    0 -0.20515638614E-01  0.32973754401E-02 -0.29075238130E-01  0.35737005818E-01  0.00000000000E+00 0. -1.
  9000001    1    1    2    0    0  0.20515638614E-01 -0.32973754401E-02  0.29075238130E-01  0.35750994182E-01  0.10000000475E-02 0.  1.
</event>
<event>
 4   0  0.2441219E-02  0.9118800E+02  0.7818609E-02  0.1379984E+01
      -11   -1    0    0    0    0  0.00000000000E+00  0.00000000000E+00  0.35740347158E-01  0.35744000000E-01  0.51099999109E-03 0. -1.
       11   -1    0    0    0    0 -0.00000000000E+00 -0.00000000000E+00 -0.35740347158E-01  0.35744000000E-01  0.51099999109E-03 0.  1.
       22    1    1    2    0    0 -0.28848020807E-02 -0.34499155525E-02 -0.35452920677E-01  0.35737005818E-01  0.00000000000E+00 0.  1.
  9000001    1    1    2    0    0  0.28848020807E-02  0.34499155525E-02  0.35452920677E-01  0.35750994182E-01  0.10000000475E-02 0. -1.
</event>
<event>
 4   0  0.2441219E-02  0.9118800E+02  0.7818609E-02  0.1379984E+01
      -11   -1    0    0    0    0  0.00000000000E+00  0.00000000000E+00  0.35740347158E-01  0.35744000000E-01  0.51099999109E-03 0.  1.
       11   -1    0    0    0    0 -0.00000000000E+00 -0.00000000000E+00 -0.35740347158E-01  0.35744000000E-01  0.51099999109E-03 0. -1.
       22    1    1    2    0    0  0.26566565667E-01 -0.13230499289E-01 -0.19907412240E-01  0.35737005818E-01  0.00000000000E+00 0. -1.
  9000001    1    1    2    0    0 -0.26566565667E-01  0.13230499289E-01  0.19907412240E-01  0.35750994182E-01  0.10000000475E-02 0.  1.
</event>
<event>
 4   0  0.2441219E-02  0.9118800E+02  0.7818609E-02  0.1379984E+01
      -11   -1    0    0    0    0  0.00000000000E+00  0.00000000000E+00  0.35740347158E-01  0.35744000000E-01  0.51099999109E-03 0. -1.
       11   -1    0    0    0    0 -0.00000000000E+00 -0.00000000000E+00 -0.35740347158E-01  0.35744000000E-01  0.51099999109E-03 0.  1.
       22    1    1    2    0    0  0.35105627283E-02  0.14412165394E-02  0.35534946589E-01  0.35737005818E-01  0.00000000000E+00 0. -1.
  9000001    1    1    2    0    0 -0.35105627283E-02 -0.14412165394E-02 -0.35534946589E-01  0.35750994182E-01  0.10000000475E-02 0.  1.
</event>
<event>
 4   0  0.2441219E-02  0.9118800E+02  0.7818609E-02  0.1379984E+01
      -11   -1    0    0    0    0  0.00000000000E+00  0.00000000000E+00  0.35740347158E-01  0.35744000000E-01  0.51099999109E-03 0. -1.
       11   -1    0    0    0    0 -0.00000000000E+00 -0.00000000000E+00 -0.35740347158E-01  0.35744000000E-01  0.51099999109E-03 0.  1.
       22    1    1    2    0    0 -0.21838164709E-02  0.28271567119E-02 -0.35558004941E-01  0.35737005818E-01  0.00000000000E+00 0.  1.
  9000001    1    1    2    0    0  0.21838164709E-02 -0.28271567119E-02  0.35558004941E-01  0.35750994182E-01  0.10000000475E-02 0. -1.
</event>
<event>
 4   0  0.2441219E-02  0.9118800E+02  0.7818609E-02  0.1379984E+01
      -11   -1    0    0    0    0  0.00000000000E+00  0.00000000000E+00  0.35740347158E-01  0.35744000000E-01  0.51099999109E-03 0. -1.
       11   -1    0    0    0    0 -0.00000000000E+00 -0.00000000000E+00 -0.35740347158E-01  0.35744000000E-01  0.51099999109E-03 0.  1.
       22    1    1    2    0    0  0.45515340633E-03  0.40392667381E-02  0.35505080544E-01  0.35737005818E-01  0.00000000000E+00 0. -1.
  9000001    1    1    2    0    0 -0.45515340633E-03 -0.40392667381E-02 -0.35505080544E-01  0.35750994182E-01  0.10000000475E-02 0.  1.
</event>
<event>
 4   0  0.2441219E-02  0.9118800E+02  0.7818609E-02  0.1379984E+01
      -11   -1    0    0    0    0  0.00000000000E+00  0.00000000000E+00  0.35740347158E-01  0.35744000000E-01  0.51099999109E-03 0.  1.
       11   -1    0    0    0    0 -0.00000000000E+00 -0.00000000000E+00 -0.35740347158E-01  0.35744000000E-01  0.51099999109E-03 0. -1.
       22    1    1    2    0    0  0.87186602007E-02  0.12394666266E-03 -0.34656935618E-01  0.35737005818E-01  0.00000000000E+00 0. -1.
  9000001    1    1    2    0    0 -0.87186602007E-02 -0.12394666266E-03  0.34656935618E-01  0.35750994182E-01  0.10000000475E-02 0.  1.
</event>
<event>
 4   0  0.2441219E-02  0.9118800E+02  0.7818609E-02  0.1379984E+01
      -11   -1    0    0    0    0  0.00000000000E+00  0.00000000000E+00  0.35740347158E-01  0.35744000000E-01  0.51099999109E-03 0. -1.
       11   -1    0    0    0    0 -0.00000000000E+00 -0.00000000000E+00 -0.35740347158E-01  0.35744000000E-01  0.51099999109E-03 0.  1.
       22    1    1    2    0    0 -0.56256914917E-02 -0.75972561474E-02 -0.34463993952E-01  0.35737005818E-01  0.00000000000E+00 0.  1.
  9000001    1    1    2    0    0  0.56256914917E-02  0.75972561474E-02  0.34463993952E-01  0.35750994182E-01  0.10000000475E-02 0. -1.
</event>
<event>
 4   0  0.2441219E-02  0.9118800E+02  0.7818609E-02  0.1379984E+01
      -11   -1    0    0    0    0  0.00000000000E+00  0.00000000000E+00  0.35740347158E-01  0.35744000000E-01  0.51099999109E-03 0. -1.
       11   -1    0    0    0    0 -0.00000000000E+00 -0.00000000000E+00 -0.35740347158E-01  0.35744000000E-01  0.51099999109E-03 0.  1.
       22    1    1    2    0    0 -0.28697189425E-03 -0.13534057316E-01  0.33073864675E-01  0.35737005818E-01  0.00000000000E+00 0. -1.
  9000001    1    1    2    0    0  0.28697189425E-03  0.13534057316E-01 -0.33073864675E-01  0.35750994182E-01  0.10000000475E-02 0.  1.
</event>
<event>
 4   0  0.2441219E-02  0.9118800E+02  0.7818609E-02  0.1379984E+01
      -11   -1    0    0    0    0  0.00000000000E+00  0.00000000000E+00  0.35740347158E-01  0.35744000000E-01  0.51099999109E-03 0.  1.
       11   -1    0    0    0    0 -0.00000000000E+00 -0.00000000000E+00 -0.35740347158E-01  0.35744000000E-01  0.51099999109E-03 0. -1.
       22    1    1    2    0    0 -0.18383136957E-01  0.22258684444E-02  0.30565329545E-01  0.35737005818E-01  0.00000000000E+00 0.  1.
  9000001    1    1    2    0    0  0.18383136957E-01 -0.22258684444E-02 -0.30565329545E-01  0.35750994182E-01  0.10000000475E-02 0. -1.
</event>
<event>
 4   0  0.2441219E-02  0.9118800E+02  0.7818609E-02  0.1379984E+01
      -11   -1    0    0    0    0  0.00000000000E+00  0.00000000000E+00  0.35740347158E-01  0.35744000000E-01  0.51099999109E-03 0.  1.
       11   -1    0    0    0    0 -0.00000000000E+00 -0.00000000000E+00 -0.35740347158E-01  0.35744000000E-01  0.51099999109E-03 0. -1.
       22    1    1    2    0    0 -0.47132265537E-03 -0.96699387824E-02  0.34400635514E-01  0.35737005818E-01  0.00000000000E+00 0.  1.
  9000001    1    1    2    0    0  0.47132265537E-03  0.96699387824E-02 -0.34400635514E-01  0.35750994182E-01  0.10000000475E-02 0. -1.
</event>
<event>
 4   0  0.2441219E-02  0.9118800E+02  0.7818609E-02  0.1379984E+01
      -11   -1    0    0    0    0  0.00000000000E+00  0.00000000000E+00  0.35740347158E-01  0.35744000000E-01  0.51099999109E-03 0. -1.
       11   -1    0    0    0    0 -0.00000000000E+00 -0.00000000000E+00 -0.35740347158E-01  0.35744000000E-01  0.51099999109E-03 0.  1.
       22    1    1    2    0    0 -0.14550126060E-02  0.50116424690E-02 -0.35353924294E-01  0.35737005818E-01  0.00000000000E+00 0.  1.
  9000001    1    1    2    0    0  0.14550126060E-02 -0.50116424690E-02  0.35353924294E-01  0.35750994182E-01  0.10000000475E-02 0. -1.
</event>
<event>
 4   0  0.2441219E-02  0.9118800E+02  0.7818609E-02  0.1379984E+01
      -11   -1    0    0    0    0  0.00000000000E+00  0.00000000000E+00  0.35740347158E-01  0.35744000000E-01  0.51099999109E-03 0.  1.
       11   -1    0    0    0    0 -0.00000000000E+00 -0.00000000000E+00 -0.35740347158E-01  0.35744000000E-01  0.51099999109E-03 0. -1.
       22    1    1    2    0    0  0.19678583198E-02  0.34860634057E-01 -0.76155966068E-02  0.35737005818E-01  0.00000000000E+00 0.  1.
  9000001    1    1    2    0    0 -0.19678583198E-02 -0.34860634057E-01  0.76155966068E-02  0.35750994182E-01  0.10000000475E-02 0. -1.
</event>
<event>
 4   0  0.2441219E-02  0.9118800E+02  0.7818609E-02  0.1379984E+01
      -11   -1    0    0    0    0  0.00000000000E+00  0.00000000000E+00  0.35740347158E-01  0.35744000000E-01  0.51099999109E-03 0. -1.
       11   -1    0    0    0    0 -0.00000000000E+00 -0.00000000000E+00 -0.35740347158E-01  0.35744000000E-01  0.51099999109E-03 0.  1.
       22    1    1    2    0    0 -0.35003228859E-02 -0.69534689123E-02  0.34878798641E-01  0.35737005818E-01  0.00000000000E+00 0. -1.
  9000001    1    1    2    0    0  0.35003228859E-02  0.69534689123E-02 -0.34878798641E-01  0.35750994182E-01  0.10000000475E-02 0.  1.
</event>
<event>
 4   0  0.2441219E-02  0.9118800E+02  0.7818609E-02  0.1379984E+01
      -11   -1    0    0    0    0  0.00000000000E+00  0.00000000000E+00  0.35740347158E-01  0.35744000000E-01  0.51099999109E-03 0. -1.
       11   -1    0    0    0    0 -0.00000000000E+00 -0.00000000000E+00 -0.35740347158E-01  0.35744000000E-01  0.51099999109E-03 0.  1.
       22    1    1    2    0    0  0.28114853360E-02  0.77633857564E-02  0.34770087384E-01  0.35737005818E-01  0.00000000000E+00 0. -1.
  9000001    1    1    2    0    0 -0.28114853360E-02 -0.77633857564E-02 -0.34770087384E-01  0.35750994182E-01  0.10000000475E-02 0.  1.
</event>
<event>
 4   0  0.2441219E-02  0.9118800E+02  0.7818609E-02  0.1379984E+01
      -11   -1    0    0    0    0  0.00000000000E+00  0.00000000000E+00  0.35740347158E-01  0.35744000000E-01  0.51099999109E-03 0.  1.
       11   -1    0    0    0    0 -0.00000000000E+00 -0.00000000000E+00 -0.35740347158E-01  0.35744000000E-01  0.51099999109E-03 0. -1.
       22    1    1    2    0    0 -0.14245999188E-02  0.69597601820E-02 -0.35023789603E-01  0.35737005818E-01  0.00000000000E+00 0. -1.
  9000001    1    1    2    0    0  0.14245999188E-02 -0.69597601820E-02  0.35023789603E-01  0.35750994182E-01  0.10000000475E-02 0.  1.
</event>
<event>
 4   0  0.2441219E-02  0.9118800E+02  0.7818609E-02  0.1379984E+01
      -11   -1    0    0    0    0  0.00000000000E+00  0.00000000000E+00  0.35740347158E-01  0.35744000000E-01  0.51099999109E-03 0.  1.
       11   -1    0    0    0    0 -0.00000000000E+00 -0.00000000000E+00 -0.35740347158E-01  0.35744000000E-01  0.51099999109E-03 0. -1.
       22    1    1    2    0    0  0.51217400996E-02  0.20979130047E-01 -0.28474154346E-01  0.35737005818E-01  0.00000000000E+00 0. -1.
  9000001    1    1    2    0    0 -0.51217400996E-02 -0.20979130047E-01  0.28474154346E-01  0.35750994182E-01  0.10000000475E-02 0.  1.
</event>
<event>
 4   0  0.2441219E-02  0.9118800E+02  0.7818609E-02  0.1379984E+01
      -11   -1    0    0    0    0  0.00000000000E+00  0.00000000000E+00  0.35740347158E-01  0.35744000000E-01  0.51099999109E-03 0. -1.
       11   -1    0    0    0    0 -0.00000000000E+00 -0.00000000000E+00 -0.35740347158E-01  0.35744000000E-01  0.51099999109E-03 0.  1.
       22    1    1    2    0    0  0.82852930340E-02  0.30479747636E-02 -0.34629429017E-01  0.35737005818E-01  0.00000000000E+00 0.  1.
  9000001    1    1    2    0    0 -0.82852930340E-02 -0.30479747636E-02  0.34629429017E-01  0.35750994182E-01  0.10000000475E-02 0. -1.
</event>
<event>
 4   0  0.2441219E-02  0.9118800E+02  0.7818609E-02  0.1379984E+01
      -11   -1    0    0    0    0  0.00000000000E+00  0.00000000000E+00  0.35740347158E-01  0.35744000000E-01  0.51099999109E-03 0.  1.
       11   -1    0    0    0    0 -0.00000000000E+00 -0.00000000000E+00 -0.35740347158E-01  0.35744000000E-01  0.51099999109E-03 0. -1.
       22    1    1    2    0    0  0.12600239100E-01 -0.16233298610E-01  0.29237776518E-01  0.35737005818E-01  0.00000000000E+00 0.  1.
  9000001    1    1    2    0    0 -0.12600239100E-01  0.16233298610E-01 -0.29237776518E-01  0.35750994182E-01  0.10000000475E-02 0. -1.
</event>
<event>
 4   0  0.2441219E-02  0.9118800E+02  0.7818609E-02  0.1379984E+01
      -11   -1    0    0    0    0  0.00000000000E+00  0.00000000000E+00  0.35740347158E-01  0.35744000000E-01  0.51099999109E-03 0.  1.
       11   -1    0    0    0    0 -0.00000000000E+00 -0.00000000000E+00 -0.35740347158E-01  0.35744000000E-01  0.51099999109E-03 0. -1.
       22    1    1    2    0    0  0.22160492280E-02  0.10127529538E-01 -0.34200231814E-01  0.35737005818E-01  0.00000000000E+00 0. -1.
  9000001    1    1    2    0    0 -0.22160492280E-02 -0.10127529538E-01  0.34200231814E-01  0.35750994182E-01  0.10000000475E-02 0.  1.
</event>
<event>
 4   0  0.2441219E-02  0.9118800E+02  0.7818609E-02  0.1379984E+01
      -11   -1    0    0    0    0  0.00000000000E+00  0.00000000000E+00  0.35740347158E-01  0.35744000000E-01  0.51099999109E-03 0.  1.
       11   -1    0    0    0    0 -0.00000000000E+00 -0.00000000000E+00 -0.35740347158E-01  0.35744000000E-01  0.51099999109E-03 0. -1.
       22    1    1    2    0    0 -0.46704322154E-02 -0.23624247799E-01 -0.26404839779E-01  0.35737005818E-01  0.00000000000E+00 0. -1.
  9000001    1    1    2    0    0  0.46704322154E-02  0.23624247799E-01  0.26404839779E-01  0.35750994182E-01  0.10000000475E-02 0.  1.
</event>
<event>
 4   0  0.2441219E-02  0.9118800E+02  0.7818609E-02  0.1379984E+01
      -11   -1    0    0    0    0  0.00000000000E+00  0.00000000000E+00  0.35740347158E-01  0.35744000000E-01  0.51099999109E-03 0. -1.
       11   -1    0    0    0    0 -0.00000000000E+00 -0.00000000000E+00 -0.35740347158E-01  0.35744000000E-01  0.51099999109E-03 0.  1.
       22    1    1    2    0    0 -0.41653377929E-02 -0.25984468852E-02 -0.35398186673E-01  0.35737005818E-01  0.00000000000E+00 0.  1.
  9000001    1    1    2    0    0  0.41653377929E-02  0.25984468852E-02  0.35398186673E-01  0.35750994182E-01  0.10000000475E-02 0. -1.
</event>
<event>
 4   0  0.2441219E-02  0.9118800E+02  0.7818609E-02  0.1379984E+01
      -11   -1    0    0    0    0  0.00000000000E+00  0.00000000000E+00  0.35740347158E-01  0.35744000000E-01  0.51099999109E-03 0. -1.
       11   -1    0    0    0    0 -0.00000000000E+00 -0.00000000000E+00 -0.35740347158E-01  0.35744000000E-01  0.51099999109E-03 0.  1.
       22    1    1    2    0    0 -0.28334265029E-02 -0.32388741952E-02 -0.35476963978E-01  0.35737005818E-01  0.00000000000E+00 0.  1.
  9000001    1    1    2    0    0  0.28334265029E-02  0.32388741952E-02  0.35476963978E-01  0.35750994182E-01  0.10000000475E-02 0. -1.
</event>
<event>
 4   0  0.2441219E-02  0.9118800E+02  0.7818609E-02  0.1379984E+01
      -11   -1    0    0    0    0  0.00000000000E+00  0.00000000000E+00  0.35740347158E-01  0.35744000000E-01  0.51099999109E-03 0. -1.
       11   -1    0    0    0    0 -0.00000000000E+00 -0.00000000000E+00 -0.35740347158E-01  0.35744000000E-01  0.51099999109E-03 0.  1.
       22    1    1    2    0    0  0.16170479656E-02 -0.64714470329E-02  0.35108960595E-01  0.35737005818E-01  0.00000000000E+00 0. -1.
  9000001    1    1    2    0    0 -0.16170479656E-02  0.64714470329E-02 -0.35108960595E-01  0.35750994182E-01  0.10000000475E-02 0.  1.
</event>
<event>
 4   0  0.2441219E-02  0.9118800E+02  0.7818609E-02  0.1379984E+01
      -11   -1    0    0    0    0  0.00000000000E+00  0.00000000000E+00  0.35740347158E-01  0.35744000000E-01  0.51099999109E-03 0. -1.
       11   -1    0    0    0    0 -0.00000000000E+00 -0.00000000000E+00 -0.35740347158E-01  0.35744000000E-01  0.51099999109E-03 0.  1.
       22    1    1    2    0    0  0.47359787598E-02 -0.31641681416E-02 -0.35280194586E-01  0.35737005818E-01  0.00000000000E+00 0.  1.
  9000001    1    1    2    0    0 -0.47359787598E-02  0.31641681416E-02  0.35280194586E-01  0.35750994182E-01  0.10000000475E-02 0. -1.
</event>
<event>
 4   0  0.2441219E-02  0.9118800E+02  0.7818609E-02  0.1379984E+01
      -11   -1    0    0    0    0  0.00000000000E+00  0.00000000000E+00  0.35740347158E-01  0.35744000000E-01  0.51099999109E-03 0.  1.
       11   -1    0    0    0    0 -0.00000000000E+00 -0.00000000000E+00 -0.35740347158E-01  0.35744000000E-01  0.51099999109E-03 0.  1.
       22    1    1    2    0    0 -0.35807385906E-03  0.37123239872E-02 -0.35541862903E-01  0.35737005818E-01  0.00000000000E+00 0.  1.
  9000001    1    1    2    0    0  0.35807385906E-03 -0.37123239872E-02  0.35541862903E-01  0.35750994182E-01  0.10000000475E-02 0.  1.
</event>
<event>
 4   0  0.2441219E-02  0.9118800E+02  0.7818609E-02  0.1379984E+01
      -11   -1    0    0    0    0  0.00000000000E+00  0.00000000000E+00  0.35740347158E-01  0.35744000000E-01  0.51099999109E-03 0.  1.
       11   -1    0    0    0    0 -0.00000000000E+00 -0.00000000000E+00 -0.35740347158E-01  0.35744000000E-01  0.51099999109E-03 0. -1.
       22    1    1    2    0    0  0.11266323099E-01 -0.44109644644E-02  0.33626580873E-01  0.35737005818E-01  0.00000000000E+00 0.  1.
  9000001    1    1    2    0    0 -0.11266323099E-01  0.44109644644E-02 -0.33626580873E-01  0.35750994182E-01  0.10000000475E-02 0. -1.
</event>
<event>
 4   0  0.2441219E-02  0.9118800E+02  0.7818609E-02  0.1379984E+01
      -11   -1    0    0    0    0  0.00000000000E+00  0.00000000000E+00  0.35740347158E-01  0.35744000000E-01  0.51099999109E-03 0. -1.
       11   -1    0    0    0    0 -0.00000000000E+00 -0.00000000000E+00 -0.35740347158E-01  0.35744000000E-01  0.51099999109E-03 0.  1.
       22    1    1    2    0    0  0.12848477701E-01 -0.35787172313E-02  0.33154833563E-01  0.35737005818E-01  0.00000000000E+00 0. -1.
  9000001    1    1    2    0    0 -0.12848477701E-01  0.35787172313E-02 -0.33154833563E-01  0.35750994182E-01  0.10000000475E-02 0.  1.
</event>
<event>
 4   0  0.2441219E-02  0.9118800E+02  0.7818609E-02  0.1379984E+01
      -11   -1    0    0    0    0  0.00000000000E+00  0.00000000000E+00  0.35740347158E-01  0.35744000000E-01  0.51099999109E-03 0. -1.
       11   -1    0    0    0    0 -0.00000000000E+00 -0.00000000000E+00 -0.35740347158E-01  0.35744000000E-01  0.51099999109E-03 0.  1.
       22    1    1    2    0    0  0.42892411968E-02 -0.11867536124E-02 -0.35458815698E-01  0.35737005818E-01  0.00000000000E+00 0.  1.
  9000001    1    1    2    0    0 -0.42892411968E-02  0.11867536124E-02  0.35458815698E-01  0.35750994182E-01  0.10000000475E-02 0. -1.
</event>
<event>
 4   0  0.2441219E-02  0.9118800E+02  0.7818609E-02  0.1379984E+01
      -11   -1    0    0    0    0  0.00000000000E+00  0.00000000000E+00  0.35740347158E-01  0.35744000000E-01  0.51099999109E-03 0.  1.
       11   -1    0    0    0    0 -0.00000000000E+00 -0.00000000000E+00 -0.35740347158E-01  0.35744000000E-01  0.51099999109E-03 0. -1.
       22    1    1    2    0    0 -0.63752422393E-02 -0.61134426842E-02  0.34628249881E-01  0.35737005818E-01  0.00000000000E+00 0.  1.
  9000001    1    1    2    0    0  0.63752422393E-02  0.61134426842E-02 -0.34628249881E-01  0.35750994182E-01  0.10000000475E-02 0. -1.
</event>
<event>
 4   0  0.2441219E-02  0.9118800E+02  0.7818609E-02  0.1379984E+01
      -11   -1    0    0    0    0  0.00000000000E+00  0.00000000000E+00  0.35740347158E-01  0.35744000000E-01  0.51099999109E-03 0. -1.
       11   -1    0    0    0    0 -0.00000000000E+00 -0.00000000000E+00 -0.35740347158E-01  0.35744000000E-01  0.51099999109E-03 0.  1.
       22    1    1    2    0    0 -0.30784705808E-02  0.13356259278E-02  0.35579104923E-01  0.35737005818E-01  0.00000000000E+00 0. -1.
  9000001    1    1    2    0    0  0.30784705808E-02 -0.13356259278E-02 -0.35579104923E-01  0.35750994182E-01  0.10000000475E-02 0.  1.
</event>
<event>
 4   0  0.2441219E-02  0.9118800E+02  0.7818609E-02  0.1379984E+01
      -11   -1    0    0    0    0  0.00000000000E+00  0.00000000000E+00  0.35740347158E-01  0.35744000000E-01  0.51099999109E-03 0. -1.
       11   -1    0    0    0    0 -0.00000000000E+00 -0.00000000000E+00 -0.35740347158E-01  0.35744000000E-01  0.51099999109E-03 0.  1.
       22    1    1    2    0    0  0.37564106395E-02 -0.30639150534E-02  0.35406713891E-01  0.35737005818E-01  0.00000000000E+00 0. -1.
  9000001    1    1    2    0    0 -0.37564106395E-02  0.30639150534E-02 -0.35406713891E-01  0.35750994182E-01  0.10000000475E-02 0.  1.
</event>
<event>
 4   0  0.2441219E-02  0.9118800E+02  0.7818609E-02  0.1379984E+01
      -11   -1    0    0    0    0  0.00000000000E+00  0.00000000000E+00  0.35740347158E-01  0.35744000000E-01  0.51099999109E-03 0.  1.
       11   -1    0    0    0    0 -0.00000000000E+00 -0.00000000000E+00 -0.35740347158E-01  0.35744000000E-01  0.51099999109E-03 0. -1.
       22    1    1    2    0    0 -0.16000005706E-01  0.43619448641E-03  0.31952200811E-01  0.35737005818E-01  0.00000000000E+00 0.  1.
  9000001    1    1    2    0    0  0.16000005706E-01 -0.43619448641E-03 -0.31952200811E-01  0.35750994182E-01  0.10000000475E-02 0. -1.
</event>
<event>
 4   0  0.2441219E-02  0.9118800E+02  0.7818609E-02  0.1379984E+01
      -11   -1    0    0    0    0  0.00000000000E+00  0.00000000000E+00  0.35740347158E-01  0.35744000000E-01  0.51099999109E-03 0.  1.
       11   -1    0    0    0    0 -0.00000000000E+00 -0.00000000000E+00 -0.35740347158E-01  0.35744000000E-01  0.51099999109E-03 0. -1.
       22    1    1    2    0    0  0.47860448323E-02 -0.47899594637E-02 -0.35089651581E-01  0.35737005818E-01  0.00000000000E+00 0. -1.
  9000001    1    1    2    0    0 -0.47860448323E-02  0.47899594637E-02  0.35089651581E-01  0.35750994182E-01  0.10000000475E-02 0.  1.
</event>
<event>
 4   0  0.2441219E-02  0.9118800E+02  0.7818609E-02  0.1379984E+01
      -11   -1    0    0    0    0  0.00000000000E+00  0.00000000000E+00  0.35740347158E-01  0.35744000000E-01  0.51099999109E-03 0. -1.
       11   -1    0    0    0    0 -0.00000000000E+00 -0.00000000000E+00 -0.35740347158E-01  0.35744000000E-01  0.51099999109E-03 0.  1.
       22    1    1    2    0    0  0.31317971061E-01  0.12940029609E-02 -0.17165192391E-01  0.35737005818E-01  0.00000000000E+00 0.  1.
  9000001    1    1    2    0    0 -0.31317971061E-01 -0.12940029609E-02  0.17165192391E-01  0.35750994182E-01  0.10000000475E-02 0. -1.
</event>
<event>
 4   0  0.2441219E-02  0.9118800E+02  0.7818609E-02  0.1379984E+01
      -11   -1    0    0    0    0  0.00000000000E+00  0.00000000000E+00  0.35740347158E-01  0.35744000000E-01  0.51099999109E-03 0. -1.
       11   -1    0    0    0    0 -0.00000000000E+00 -0.00000000000E+00 -0.35740347158E-01  0.35744000000E-01  0.51099999109E-03 0.  1.
       22    1    1    2    0    0  0.19475602560E-02  0.85123173061E-02 -0.34653730651E-01  0.35737005818E-01  0.00000000000E+00 0.  1.
  9000001    1    1    2    0    0 -0.19475602560E-02 -0.85123173061E-02  0.34653730651E-01  0.35750994182E-01  0.10000000475E-02 0. -1.
</event>
<event>
 4   0  0.2441219E-02  0.9118800E+02  0.7818609E-02  0.1379984E+01
      -11   -1    0    0    0    0  0.00000000000E+00  0.00000000000E+00  0.35740347158E-01  0.35744000000E-01  0.51099999109E-03 0.  1.
       11   -1    0    0    0    0 -0.00000000000E+00 -0.00000000000E+00 -0.35740347158E-01  0.35744000000E-01  0.51099999109E-03 0. -1.
       22    1    1    2    0    0 -0.23327734839E-02  0.94375252383E-02  0.34389313313E-01  0.35737005818E-01  0.00000000000E+00 0.  1.
  9000001    1    1    2    0    0  0.23327734839E-02 -0.94375252383E-02 -0.34389313313E-01  0.35750994182E-01  0.10000000475E-02 0. -1.
</event>
<event>
 4   0  0.2441219E-02  0.9118800E+02  0.7818609E-02  0.1379984E+01
      -11   -1    0    0    0    0  0.00000000000E+00  0.00000000000E+00  0.35740347158E-01  0.35744000000E-01  0.51099999109E-03 0.  1.
       11   -1    0    0    0    0 -0.00000000000E+00 -0.00000000000E+00 -0.35740347158E-01  0.35744000000E-01  0.51099999109E-03 0. -1.
       22    1    1    2    0    0 -0.44831692036E-02 -0.76564182913E-02 -0.34618117189E-01  0.35737005818E-01  0.00000000000E+00 0. -1.
  9000001    1    1    2    0    0  0.44831692036E-02  0.76564182913E-02  0.34618117189E-01  0.35750994182E-01  0.10000000475E-02 0.  1.
</event>
<event>
 4   0  0.2441219E-02  0.9118800E+02  0.7818609E-02  0.1379984E+01
      -11   -1    0    0    0    0  0.00000000000E+00  0.00000000000E+00  0.35740347158E-01  0.35744000000E-01  0.51099999109E-03 0.  1.
       11   -1    0    0    0    0 -0.00000000000E+00 -0.00000000000E+00 -0.35740347158E-01  0.35744000000E-01  0.51099999109E-03 0. -1.
       22    1    1    2    0    0  0.11746912438E-02  0.11334371650E-01  0.33871606172E-01  0.35737005818E-01  0.00000000000E+00 0.  1.
  9000001    1    1    2    0    0 -0.11746912438E-02 -0.11334371650E-01 -0.33871606172E-01  0.35750994182E-01  0.10000000475E-02 0. -1.
</event>
<event>
 4   0  0.2441219E-02  0.9118800E+02  0.7818609E-02  0.1379984E+01
      -11   -1    0    0    0    0  0.00000000000E+00  0.00000000000E+00  0.35740347158E-01  0.35744000000E-01  0.51099999109E-03 0.  1.
       11   -1    0    0    0    0 -0.00000000000E+00 -0.00000000000E+00 -0.35740347158E-01  0.35744000000E-01  0.51099999109E-03 0. -1.
       22    1    1    2    0    0 -0.16904522693E-01 -0.15391284479E-01 -0.27467782209E-01  0.35737005818E-01  0.00000000000E+00 0. -1.
  9000001    1    1    2    0    0  0.16904522693E-01  0.15391284479E-01  0.27467782209E-01  0.35750994182E-01  0.10000000475E-02 0.  1.
</event>
<event>
 4   0  0.2441219E-02  0.9118800E+02  0.7818609E-02  0.1379984E+01
      -11   -1    0    0    0    0  0.00000000000E+00  0.00000000000E+00  0.35740347158E-01  0.35744000000E-01  0.51099999109E-03 0. -1.
       11   -1    0    0    0    0 -0.00000000000E+00 -0.00000000000E+00 -0.35740347158E-01  0.35744000000E-01  0.51099999109E-03 0.  1.
       22    1    1    2    0    0 -0.29122023137E-02  0.19973214265E-02  0.35562105810E-01  0.35737005818E-01  0.00000000000E+00 0. -1.
  9000001    1    1    2    0    0  0.29122023137E-02 -0.19973214265E-02 -0.35562105810E-01  0.35750994182E-01  0.10000000475E-02 0.  1.
</event>
<event>
 4   0  0.2441219E-02  0.9118800E+02  0.7818609E-02  0.1379984E+01
      -11   -1    0    0    0    0  0.00000000000E+00  0.00000000000E+00  0.35740347158E-01  0.35744000000E-01  0.51099999109E-03 0. -1.
       11   -1    0    0    0    0 -0.00000000000E+00 -0.00000000000E+00 -0.35740347158E-01  0.35744000000E-01  0.51099999109E-03 0.  1.
       22    1    1    2    0    0  0.52484533315E-02 -0.58326856096E-03 -0.35344690129E-01  0.35737005818E-01  0.00000000000E+00 0.  1.
  9000001    1    1    2    0    0 -0.52484533315E-02  0.58326856096E-03  0.35344690129E-01  0.35750994182E-01  0.10000000475E-02 0. -1.
</event>
<event>
 4   0  0.2441219E-02  0.9118800E+02  0.7818609E-02  0.1379984E+01
      -11   -1    0    0    0    0  0.00000000000E+00  0.00000000000E+00  0.35740347158E-01  0.35744000000E-01  0.51099999109E-03 0.  1.
       11   -1    0    0    0    0 -0.00000000000E+00 -0.00000000000E+00 -0.35740347158E-01  0.35744000000E-01  0.51099999109E-03 0. -1.
       22    1    1    2    0    0 -0.13101396364E-01 -0.16792697689E-01 -0.28696555586E-01  0.35737005818E-01  0.00000000000E+00 0. -1.
  9000001    1    1    2    0    0  0.13101396364E-01  0.16792697689E-01  0.28696555586E-01  0.35750994182E-01  0.10000000475E-02 0.  1.
</event>
<event>
 4   0  0.2441219E-02  0.9118800E+02  0.7818609E-02  0.1379984E+01
      -11   -1    0    0    0    0  0.00000000000E+00  0.00000000000E+00  0.35740347158E-01  0.35744000000E-01  0.51099999109E-03 0.  1.
       11   -1    0    0    0    0 -0.00000000000E+00 -0.00000000000E+00 -0.35740347158E-01  0.35744000000E-01  0.51099999109E-03 0. -1.
       22    1    1    2    0    0 -0.89667254764E-02 -0.14201849617E-01 -0.31544236979E-01  0.35737005818E-01  0.00000000000E+00 0. -1.
  9000001    1    1    2    0    0  0.89667254764E-02  0.14201849617E-01  0.31544236979E-01  0.35750994182E-01  0.10000000475E-02 0.  1.
</event>
<event>
 4   0  0.2441219E-02  0.9118800E+02  0.7818609E-02  0.1379984E+01
      -11   -1    0    0    0    0  0.00000000000E+00  0.00000000000E+00  0.35740347158E-01  0.35744000000E-01  0.51099999109E-03 0.  1.
       11   -1    0    0    0    0 -0.00000000000E+00 -0.00000000000E+00 -0.35740347158E-01  0.35744000000E-01  0.51099999109E-03 0. -1.
       22    1    1    2    0    0 -0.17959188768E-01 -0.27015894100E-01 -0.14991417200E-01  0.35737005818E-01  0.00000000000E+00 0. -1.
  9000001    1    1    2    0    0  0.17959188768E-01  0.27015894100E-01  0.14991417200E-01  0.35750994182E-01  0.10000000475E-02 0.  1.
</event>
<event>
 4   0  0.2441219E-02  0.9118800E+02  0.7818609E-02  0.1379984E+01
      -11   -1    0    0    0    0  0.00000000000E+00  0.00000000000E+00  0.35740347158E-01  0.35744000000E-01  0.51099999109E-03 0.  1.
       11   -1    0    0    0    0 -0.00000000000E+00 -0.00000000000E+00 -0.35740347158E-01  0.35744000000E-01  0.51099999109E-03 0. -1.
       22    1    1    2    0    0  0.42666044875E-02 -0.20989369877E-02 -0.35419262196E-01  0.35737005818E-01  0.00000000000E+00 0. -1.
  9000001    1    1    2    0    0 -0.42666044875E-02  0.20989369877E-02  0.35419262196E-01  0.35750994182E-01  0.10000000475E-02 0.  1.
</event>
<event>
 4   0  0.2441219E-02  0.9118800E+02  0.7818609E-02  0.1379984E+01
      -11   -1    0    0    0    0  0.00000000000E+00  0.00000000000E+00  0.35740347158E-01  0.35744000000E-01  0.51099999109E-03 0.  1.
       11   -1    0    0    0    0 -0.00000000000E+00 -0.00000000000E+00 -0.35740347158E-01  0.35744000000E-01  0.51099999109E-03 0. -1.
       22    1    1    2    0    0 -0.16576794422E-01  0.30964291251E-01  0.65997074821E-02  0.35737005818E-01  0.00000000000E+00 0.  1.
  9000001    1    1    2    0    0  0.16576794422E-01 -0.30964291251E-01 -0.65997074821E-02  0.35750994182E-01  0.10000000475E-02 0. -1.
</event>
<event>
 4   0  0.2441219E-02  0.9118800E+02  0.7818609E-02  0.1379984E+01
      -11   -1    0    0    0    0  0.00000000000E+00  0.00000000000E+00  0.35740347158E-01  0.35744000000E-01  0.51099999109E-03 0.  1.
       11   -1    0    0    0    0 -0.00000000000E+00 -0.00000000000E+00 -0.35740347158E-01  0.35744000000E-01  0.51099999109E-03 0.  1.
       22    1    1    2    0    0 -0.10727104399E-02 -0.33725510232E-02 -0.35561338231E-01  0.35737005818E-01  0.00000000000E+00 0.  1.
  9000001    1    1    2    0    0  0.10727104399E-02  0.33725510232E-02  0.35561338231E-01  0.35750994182E-01  0.10000000475E-02 0.  1.
</event>
<event>
 4   0  0.2441219E-02  0.9118800E+02  0.7818609E-02  0.1379984E+01
      -11   -1    0    0    0    0  0.00000000000E+00  0.00000000000E+00  0.35740347158E-01  0.35744000000E-01  0.51099999109E-03 0. -1.
       11   -1    0    0    0    0 -0.00000000000E+00 -0.00000000000E+00 -0.35740347158E-01  0.35744000000E-01  0.51099999109E-03 0.  1.
       22    1    1    2    0    0  0.51332533753E-02  0.71158804658E-02 -0.34643145640E-01  0.35737005818E-01  0.00000000000E+00 0.  1.
  9000001    1    1    2    0    0 -0.51332533753E-02 -0.71158804658E-02  0.34643145640E-01  0.35750994182E-01  0.10000000475E-02 0. -1.
</event>
<event>
 4   0  0.2441219E-02  0.9118800E+02  0.7818609E-02  0.1379984E+01
      -11   -1    0    0    0    0  0.00000000000E+00  0.00000000000E+00  0.35740347158E-01  0.35744000000E-01  0.51099999109E-03 0.  1.
       11   -1    0    0    0    0 -0.00000000000E+00 -0.00000000000E+00 -0.35740347158E-01  0.35744000000E-01  0.51099999109E-03 0. -1.
       22    1    1    2    0    0  0.29752308340E-01 -0.19653933451E-01  0.23783677561E-02  0.35737005818E-01  0.00000000000E+00 0.  1.
  9000001    1    1    2    0    0 -0.29752308340E-01  0.19653933451E-01 -0.23783677561E-02  0.35750994182E-01  0.10000000475E-02 0. -1.
</event>
<event>
 4   0  0.2441219E-02  0.9118800E+02  0.7818609E-02  0.1379984E+01
      -11   -1    0    0    0    0  0.00000000000E+00  0.00000000000E+00  0.35740347158E-01  0.35744000000E-01  0.51099999109E-03 0.  1.
       11   -1    0    0    0    0 -0.00000000000E+00 -0.00000000000E+00 -0.35740347158E-01  0.35744000000E-01  0.51099999109E-03 0. -1.
       22    1    1    2    0    0 -0.45737266884E-02  0.22502898711E-02 -0.35371610149E-01  0.35737005818E-01  0.00000000000E+00 0. -1.
  9000001    1    1    2    0    0  0.45737266884E-02 -0.22502898711E-02  0.35371610149E-01  0.35750994182E-01  0.10000000475E-02 0.  1.
</event>
<event>
 4   0  0.2441219E-02  0.9118800E+02  0.7818609E-02  0.1379984E+01
      -11   -1    0    0    0    0  0.00000000000E+00  0.00000000000E+00  0.35740347158E-01  0.35744000000E-01  0.51099999109E-03 0. -1.
       11   -1    0    0    0    0 -0.00000000000E+00 -0.00000000000E+00 -0.35740347158E-01  0.35744000000E-01  0.51099999109E-03 0.  1.
       22    1    1    2    0    0  0.13862399112E-02 -0.16929550935E-01 -0.31442045559E-01  0.35737005818E-01  0.00000000000E+00 0.  1.
  9000001    1    1    2    0    0 -0.13862399112E-02  0.16929550935E-01  0.31442045559E-01  0.35750994182E-01  0.10000000475E-02 0. -1.
</event>
<event>
 4   0  0.2441219E-02  0.9118800E+02  0.7818609E-02  0.1379984E+01
      -11   -1    0    0    0    0  0.00000000000E+00  0.00000000000E+00  0.35740347158E-01  0.35744000000E-01  0.51099999109E-03 0.  1.
       11   -1    0    0    0    0 -0.00000000000E+00 -0.00000000000E+00 -0.35740347158E-01  0.35744000000E-01  0.51099999109E-03 0. -1.
       22    1    1    2    0    0 -0.17212464309E-01 -0.59922653648E-02  0.30740159614E-01  0.35737005818E-01  0.00000000000E+00 0.  1.
  9000001    1    1    2    0    0  0.17212464309E-01  0.59922653648E-02 -0.30740159614E-01  0.35750994182E-01  0.10000000475E-02 0. -1.
</event>
<event>
 4   0  0.2441219E-02  0.9118800E+02  0.7818609E-02  0.1379984E+01
      -11   -1    0    0    0    0  0.00000000000E+00  0.00000000000E+00  0.35740347158E-01  0.35744000000E-01  0.51099999109E-03 0.  1.
       11   -1    0    0    0    0 -0.00000000000E+00 -0.00000000000E+00 -0.35740347158E-01  0.35744000000E-01  0.51099999109E-03 0. -1.
       22    1    1    2    0    0 -0.95448291083E-03 -0.68177132132E-02 -0.35067667926E-01  0.35737005818E-01  0.00000000000E+00 0. -1.
  9000001    1    1    2    0    0  0.95448291083E-03  0.68177132132E-02  0.35067667926E-01  0.35750994182E-01  0.10000000475E-02 0.  1.
</event>
<event>
 4   0  0.2441219E-02  0.9118800E+02  0.7818609E-02  0.1379984E+01
      -11   -1    0    0    0    0  0.00000000000E+00  0.00000000000E+00  0.35740347158E-01  0.35744000000E-01  0.51099999109E-03 0.  1.
       11   -1    0    0    0    0 -0.00000000000E+00 -0.00000000000E+00 -0.35740347158E-01  0.35744000000E-01  0.51099999109E-03 0. -1.
       22    1    1    2    0    0  0.87868135750E-02  0.25831117296E-03  0.34638977574E-01  0.35737005818E-01  0.00000000000E+00 0.  1.
  9000001    1    1    2    0    0 -0.87868135750E-02 -0.25831117296E-03 -0.34638977574E-01  0.35750994182E-01  0.10000000475E-02 0. -1.
</event>
<event>
 4   0  0.2441219E-02  0.9118800E+02  0.7818609E-02  0.1379984E+01
      -11   -1    0    0    0    0  0.00000000000E+00  0.00000000000E+00  0.35740347158E-01  0.35744000000E-01  0.51099999109E-03 0.  1.
       11   -1    0    0    0    0 -0.00000000000E+00 -0.00000000000E+00 -0.35740347158E-01  0.35744000000E-01  0.51099999109E-03 0. -1.
       22    1    1    2    0    0  0.30848232182E-02  0.12787805515E-02  0.35580643205E-01  0.35737005818E-01  0.00000000000E+00 0.  1.
  9000001    1    1    2    0    0 -0.30848232182E-02 -0.12787805515E-02 -0.35580643205E-01  0.35750994182E-01  0.10000000475E-02 0. -1.
</event>
<event>
 4   0  0.2441219E-02  0.9118800E+02  0.7818609E-02  0.1379984E+01
      -11   -1    0    0    0    0  0.00000000000E+00  0.00000000000E+00  0.35740347158E-01  0.35744000000E-01  0.51099999109E-03 0.  1.
       11   -1    0    0    0    0 -0.00000000000E+00 -0.00000000000E+00 -0.35740347158E-01  0.35744000000E-01  0.51099999109E-03 0. -1.
       22    1    1    2    0    0 -0.47914200238E-03  0.48381217764E-02  0.35404753713E-01  0.35737005818E-01  0.00000000000E+00 0.  1.
  9000001    1    1    2    0    0  0.47914200238E-03 -0.48381217764E-02 -0.35404753713E-01  0.35750994182E-01  0.10000000475E-02 0. -1.
</event>
<event>
 4   0  0.2441219E-02  0.9118800E+02  0.7818609E-02  0.1379984E+01
      -11   -1    0    0    0    0  0.00000000000E+00  0.00000000000E+00  0.35740347158E-01  0.35744000000E-01  0.51099999109E-03 0.  1.
       11   -1    0    0    0    0 -0.00000000000E+00 -0.00000000000E+00 -0.35740347158E-01  0.35744000000E-01  0.51099999109E-03 0. -1.
       22    1    1    2    0    0  0.48883205925E-02  0.38904002890E-02 -0.35186683451E-01  0.35737005818E-01  0.00000000000E+00 0. -1.
  9000001    1    1    2    0    0 -0.48883205925E-02 -0.38904002890E-02  0.35186683451E-01  0.35750994182E-01  0.10000000475E-02 0.  1.
</event>
<event>
 4   0  0.2441219E-02  0.9118800E+02  0.7818609E-02  0.1379984E+01
      -11   -1    0    0    0    0  0.00000000000E+00  0.00000000000E+00  0.35740347158E-01  0.35744000000E-01  0.51099999109E-03 0. -1.
       11   -1    0    0    0    0 -0.00000000000E+00 -0.00000000000E+00 -0.35740347158E-01  0.35744000000E-01  0.51099999109E-03 0.  1.
       22    1    1    2    0    0 -0.39984875679E-02  0.54293072301E-02  0.35095132213E-01  0.35737005818E-01  0.00000000000E+00 0. -1.
  9000001    1    1    2    0    0  0.39984875679E-02 -0.54293072301E-02 -0.35095132213E-01  0.35750994182E-01  0.10000000475E-02 0.  1.
</event>
<event>
 4   0  0.2441219E-02  0.9118800E+02  0.7818609E-02  0.1379984E+01
      -11   -1    0    0    0    0  0.00000000000E+00  0.00000000000E+00  0.35740347158E-01  0.35744000000E-01  0.51099999109E-03 0.  1.
       11   -1    0    0    0    0 -0.00000000000E+00 -0.00000000000E+00 -0.35740347158E-01  0.35744000000E-01  0.51099999109E-03 0. -1.
       22    1    1    2    0    0  0.15342886207E-01 -0.15593550032E-01  0.28258991934E-01  0.35737005818E-01  0.00000000000E+00 0.  1.
  9000001    1    1    2    0    0 -0.15342886207E-01  0.15593550032E-01 -0.28258991934E-01  0.35750994182E-01  0.10000000475E-02 0. -1.
</event>
<event>
 4   0  0.2441219E-02  0.9118800E+02  0.7818609E-02  0.1379984E+01
      -11   -1    0    0    0    0  0.00000000000E+00  0.00000000000E+00  0.35740347158E-01  0.35744000000E-01  0.51099999109E-03 0. -1.
       11   -1    0    0    0    0 -0.00000000000E+00 -0.00000000000E+00 -0.35740347158E-01  0.35744000000E-01  0.51099999109E-03 0.  1.
       22    1    1    2    0    0  0.91817242893E-02 -0.82961574768E-02  0.33526158370E-01  0.35737005818E-01  0.00000000000E+00 0. -1.
  9000001    1    1    2    0    0 -0.91817242893E-02  0.82961574768E-02 -0.33526158370E-01  0.35750994182E-01  0.10000000475E-02 0.  1.
</event>
<event>
 4   0  0.2441219E-02  0.9118800E+02  0.7818609E-02  0.1379984E+01
      -11   -1    0    0    0    0  0.00000000000E+00  0.00000000000E+00  0.35740347158E-01  0.35744000000E-01  0.51099999109E-03 0.  1.
       11   -1    0    0    0    0 -0.00000000000E+00 -0.00000000000E+00 -0.35740347158E-01  0.35744000000E-01  0.51099999109E-03 0. -1.
       22    1    1    2    0    0  0.16996804762E-02 -0.47293330380E-02 -0.35381889155E-01  0.35737005818E-01  0.00000000000E+00 0. -1.
  9000001    1    1    2    0    0 -0.16996804762E-02  0.47293330380E-02  0.35381889155E-01  0.35750994182E-01  0.10000000475E-02 0.  1.
</event>
<event>
 4   0  0.2441219E-02  0.9118800E+02  0.7818609E-02  0.1379984E+01
      -11   -1    0    0    0    0  0.00000000000E+00  0.00000000000E+00  0.35740347158E-01  0.35744000000E-01  0.51099999109E-03 0. -1.
       11   -1    0    0    0    0 -0.00000000000E+00 -0.00000000000E+00 -0.35740347158E-01  0.35744000000E-01  0.51099999109E-03 0.  1.
       22    1    1    2    0    0 -0.18163543508E-01  0.29360526056E-01  0.92292351700E-02  0.35737005818E-01  0.00000000000E+00 0. -1.
  9000001    1    1    2    0    0  0.18163543508E-01 -0.29360526056E-01 -0.92292351700E-02  0.35750994182E-01  0.10000000475E-02 0.  1.
</event>
<event>
 4   0  0.2441219E-02  0.9118800E+02  0.7818609E-02  0.1379984E+01
      -11   -1    0    0    0    0  0.00000000000E+00  0.00000000000E+00  0.35740347158E-01  0.35744000000E-01  0.51099999109E-03 0.  1.
       11   -1    0    0    0    0 -0.00000000000E+00 -0.00000000000E+00 -0.35740347158E-01  0.35744000000E-01  0.51099999109E-03 0. -1.
       22    1    1    2    0    0 -0.12548222032E-01  0.76227851620E-02  0.32581725784E-01  0.35737005818E-01  0.00000000000E+00 0.  1.
  9000001    1    1    2    0    0  0.12548222032E-01 -0.76227851620E-02 -0.32581725784E-01  0.35750994182E-01  0.10000000475E-02 0. -1.
</event>
<event>
 4   0  0.2441219E-02  0.9118800E+02  0.7818609E-02  0.1379984E+01
      -11   -1    0    0    0    0  0.00000000000E+00  0.00000000000E+00  0.35740347158E-01  0.35744000000E-01  0.51099999109E-03 0. -1.
       11   -1    0    0    0    0 -0.00000000000E+00 -0.00000000000E+00 -0.35740347158E-01  0.35744000000E-01  0.51099999109E-03 0.  1.
       22    1    1    2    0    0 -0.10216656269E-01 -0.32760617663E-02  0.34088428225E-01  0.35737005818E-01  0.00000000000E+00 0. -1.
  9000001    1    1    2    0    0  0.10216656269E-01  0.32760617663E-02 -0.34088428225E-01  0.35750994182E-01  0.10000000475E-02 0.  1.
</event>
<event>
 4   0  0.2441219E-02  0.9118800E+02  0.7818609E-02  0.1379984E+01
      -11   -1    0    0    0    0  0.00000000000E+00  0.00000000000E+00  0.35740347158E-01  0.35744000000E-01  0.51099999109E-03 0. -1.
       11   -1    0    0    0    0 -0.00000000000E+00 -0.00000000000E+00 -0.35740347158E-01  0.35744000000E-01  0.51099999109E-03 0.  1.
       22    1    1    2    0    0  0.28403100733E-01 -0.57514437346E-02 -0.20912157913E-01  0.35737005818E-01  0.00000000000E+00 0.  1.
  9000001    1    1    2    0    0 -0.28403100733E-01  0.57514437346E-02  0.20912157913E-01  0.35750994182E-01  0.10000000475E-02 0. -1.
</event>
<event>
 4   0  0.2441219E-02  0.9118800E+02  0.7818609E-02  0.1379984E+01
      -11   -1    0    0    0    0  0.00000000000E+00  0.00000000000E+00  0.35740347158E-01  0.35744000000E-01  0.51099999109E-03 0.  1.
       11   -1    0    0    0    0 -0.00000000000E+00 -0.00000000000E+00 -0.35740347158E-01  0.35744000000E-01  0.51099999109E-03 0. -1.
       22    1    1    2    0    0 -0.17004628869E-01 -0.27315522538E-01 -0.15551154631E-01  0.35737005818E-01  0.00000000000E+00 0. -1.
  9000001    1    1    2    0    0  0.17004628869E-01  0.27315522538E-01  0.15551154631E-01  0.35750994182E-01  0.10000000475E-02 0.  1.
</event>
<event>
 4   0  0.2441219E-02  0.9118800E+02  0.7818609E-02  0.1379984E+01
      -11   -1    0    0    0    0  0.00000000000E+00  0.00000000000E+00  0.35740347158E-01  0.35744000000E-01  0.51099999109E-03 0.  1.
       11   -1    0    0    0    0 -0.00000000000E+00 -0.00000000000E+00 -0.35740347158E-01  0.35744000000E-01  0.51099999109E-03 0. -1.
       22    1    1    2    0    0  0.72760049717E-02  0.33956756642E-02  0.34823307185E-01  0.35737005818E-01  0.00000000000E+00 0.  1.
  9000001    1    1    2    0    0 -0.72760049717E-02 -0.33956756642E-02 -0.34823307185E-01  0.35750994182E-01  0.10000000475E-02 0. -1.
</event>
<event>
 4   0  0.2441219E-02  0.9118800E+02  0.7818609E-02  0.1379984E+01
      -11   -1    0    0    0    0  0.00000000000E+00  0.00000000000E+00  0.35740347158E-01  0.35744000000E-01  0.51099999109E-03 0.  1.
       11   -1    0    0    0    0 -0.00000000000E+00 -0.00000000000E+00 -0.35740347158E-01  0.35744000000E-01  0.51099999109E-03 0. -1.
       22    1    1    2    0    0 -0.80141098053E-03  0.17797078798E-01  0.30979917875E-01  0.35737005818E-01  0.00000000000E+00 0.  1.
  9000001    1    1    2    0    0  0.80141098053E-03 -0.17797078798E-01 -0.30979917875E-01  0.35750994182E-01  0.10000000475E-02 0. -1.
</event>
<event>
 4   0  0.2441219E-02  0.9118800E+02  0.7818609E-02  0.1379984E+01
      -11   -1    0    0    0    0  0.00000000000E+00  0.00000000000E+00  0.35740347158E-01  0.35744000000E-01  0.51099999109E-03 0. -1.
       11   -1    0    0    0    0 -0.00000000000E+00 -0.00000000000E+00 -0.35740347158E-01  0.35744000000E-01  0.51099999109E-03 0.  1.
       22    1    1    2    0    0  0.18647448749E-02  0.70565251169E-02  0.34983735717E-01  0.35737005818E-01  0.00000000000E+00 0. -1.
  9000001    1    1    2    0    0 -0.18647448749E-02 -0.70565251169E-02 -0.34983735717E-01  0.35750994182E-01  0.10000000475E-02 0.  1.
</event>
<event>
 4   0  0.2441219E-02  0.9118800E+02  0.7818609E-02  0.1379984E+01
      -11   -1    0    0    0    0  0.00000000000E+00  0.00000000000E+00  0.35740347158E-01  0.35744000000E-01  0.51099999109E-03 0. -1.
       11   -1    0    0    0    0 -0.00000000000E+00 -0.00000000000E+00 -0.35740347158E-01  0.35744000000E-01  0.51099999109E-03 0.  1.
       22    1    1    2    0    0 -0.95650924089E-02 -0.21380238670E-01  0.26991257594E-01  0.35737005818E-01  0.00000000000E+00 0. -1.
  9000001    1    1    2    0    0  0.95650924089E-02  0.21380238670E-01 -0.26991257594E-01  0.35750994182E-01  0.10000000475E-02 0.  1.
</event>
<event>
 4   0  0.2441219E-02  0.9118800E+02  0.7818609E-02  0.1379984E+01
      -11   -1    0    0    0    0  0.00000000000E+00  0.00000000000E+00  0.35740347158E-01  0.35744000000E-01  0.51099999109E-03 0.  1.
       11   -1    0    0    0    0 -0.00000000000E+00 -0.00000000000E+00 -0.35740347158E-01  0.35744000000E-01  0.51099999109E-03 0. -1.
       22    1    1    2    0    0 -0.66809073991E-03  0.77083002554E-02 -0.34889387309E-01  0.35737005818E-01  0.00000000000E+00 0. -1.
  9000001    1    1    2    0    0  0.66809073991E-03 -0.77083002554E-02  0.34889387309E-01  0.35750994182E-01  0.10000000475E-02 0.  1.
</event>
<event>
 4   0  0.2441219E-02  0.9118800E+02  0.7818609E-02  0.1379984E+01
      -11   -1    0    0    0    0  0.00000000000E+00  0.00000000000E+00  0.35740347158E-01  0.35744000000E-01  0.51099999109E-03 0.  1.
       11   -1    0    0    0    0 -0.00000000000E+00 -0.00000000000E+00 -0.35740347158E-01  0.35744000000E-01  0.51099999109E-03 0. -1.
       22    1    1    2    0    0  0.47153524421E-02  0.11438812935E-01  0.33526893606E-01  0.35737005818E-01  0.00000000000E+00 0.  1.
  9000001    1    1    2    0    0 -0.47153524421E-02 -0.11438812935E-01 -0.33526893606E-01  0.35750994182E-01  0.10000000475E-02 0. -1.
</event>
<event>
 4   0  0.2441219E-02  0.9118800E+02  0.7818609E-02  0.1379984E+01
      -11   -1    0    0    0    0  0.00000000000E+00  0.00000000000E+00  0.35740347158E-01  0.35744000000E-01  0.51099999109E-03 0. -1.
       11   -1    0    0    0    0 -0.00000000000E+00 -0.00000000000E+00 -0.35740347158E-01  0.35744000000E-01  0.51099999109E-03 0.  1.
       22    1    1    2    0    0  0.41421877945E-02  0.50211724977E-02  0.35139204486E-01  0.35737005818E-01  0.00000000000E+00 0. -1.
  9000001    1    1    2    0    0 -0.41421877945E-02 -0.50211724977E-02 -0.35139204486E-01  0.35750994182E-01  0.10000000475E-02 0.  1.
</event>
<event>
 4   0  0.2441219E-02  0.9118800E+02  0.7818609E-02  0.1379984E+01
      -11   -1    0    0    0    0  0.00000000000E+00  0.00000000000E+00  0.35740347158E-01  0.35744000000E-01  0.51099999109E-03 0. -1.
       11   -1    0    0    0    0 -0.00000000000E+00 -0.00000000000E+00 -0.35740347158E-01  0.35744000000E-01  0.51099999109E-03 0.  1.
       22    1    1    2    0    0 -0.10294648871E-01 -0.61648148340E-02  0.33662276328E-01  0.35737005818E-01  0.00000000000E+00 0. -1.
  9000001    1    1    2    0    0  0.10294648871E-01  0.61648148340E-02 -0.33662276328E-01  0.35750994182E-01  0.10000000475E-02 0.  1.
</event>
<event>
 4   0  0.2441219E-02  0.9118800E+02  0.7818609E-02  0.1379984E+01
      -11   -1    0    0    0    0  0.00000000000E+00  0.00000000000E+00  0.35740347158E-01  0.35744000000E-01  0.51099999109E-03 0. -1.
       11   -1    0    0    0    0 -0.00000000000E+00 -0.00000000000E+00 -0.35740347158E-01  0.35744000000E-01  0.51099999109E-03 0.  1.
       22    1    1    2    0    0 -0.40291848670E-02 -0.15689194204E-01  0.31855116377E-01  0.35737005818E-01  0.00000000000E+00 0. -1.
  9000001    1    1    2    0    0  0.40291848670E-02  0.15689194204E-01 -0.31855116377E-01  0.35750994182E-01  0.10000000475E-02 0.  1.
</event>
<event>
 4   0  0.2441219E-02  0.9118800E+02  0.7818609E-02  0.1379984E+01
      -11   -1    0    0    0    0  0.00000000000E+00  0.00000000000E+00  0.35740347158E-01  0.35744000000E-01  0.51099999109E-03 0.  1.
       11   -1    0    0    0    0 -0.00000000000E+00 -0.00000000000E+00 -0.35740347158E-01  0.35744000000E-01  0.51099999109E-03 0. -1.
       22    1    1    2    0    0  0.99595148089E-03 -0.81425049879E-02  0.34782772719E-01  0.35737005818E-01  0.00000000000E+00 0.  1.
  9000001    1    1    2    0    0 -0.99595148089E-03  0.81425049879E-02 -0.34782772719E-01  0.35750994182E-01  0.10000000475E-02 0. -1.
</event>
<event>
 4   0  0.2441219E-02  0.9118800E+02  0.7818609E-02  0.1379984E+01
      -11   -1    0    0    0    0  0.00000000000E+00  0.00000000000E+00  0.35740347158E-01  0.35744000000E-01  0.51099999109E-03 0. -1.
       11   -1    0    0    0    0 -0.00000000000E+00 -0.00000000000E+00 -0.35740347158E-01  0.35744000000E-01  0.51099999109E-03 0.  1.
       22    1    1    2    0    0 -0.72412645106E-02  0.16834756974E-02 -0.34955165323E-01  0.35737005818E-01  0.00000000000E+00 0.  1.
  9000001    1    1    2    0    0  0.72412645106E-02 -0.16834756974E-02  0.34955165323E-01  0.35750994182E-01  0.10000000475E-02 0. -1.
</event>
<event>
 4   0  0.2441219E-02  0.9118800E+02  0.7818609E-02  0.1379984E+01
      -11   -1    0    0    0    0  0.00000000000E+00  0.00000000000E+00  0.35740347158E-01  0.35744000000E-01  0.51099999109E-03 0.  1.
       11   -1    0    0    0    0 -0.00000000000E+00 -0.00000000000E+00 -0.35740347158E-01  0.35744000000E-01  0.51099999109E-03 0. -1.
       22    1    1    2    0    0  0.41114020877E-02 -0.22502898362E-02 -0.35428324169E-01  0.35737005818E-01  0.00000000000E+00 0. -1.
  9000001    1    1    2    0    0 -0.41114020877E-02  0.22502898362E-02  0.35428324169E-01  0.35750994182E-01  0.10000000475E-02 0.  1.
</event>
<event>
 4   0  0.2441219E-02  0.9118800E+02  0.7818609E-02  0.1379984E+01
      -11   -1    0    0    0    0  0.00000000000E+00  0.00000000000E+00  0.35740347158E-01  0.35744000000E-01  0.51099999109E-03 0.  1.
       11   -1    0    0    0    0 -0.00000000000E+00 -0.00000000000E+00 -0.35740347158E-01  0.35744000000E-01  0.51099999109E-03 0. -1.
       22    1    1    2    0    0 -0.12406536399E-02 -0.36974840389E-02 -0.35523555216E-01  0.35737005818E-01  0.00000000000E+00 0. -1.
  9000001    1    1    2    0    0  0.12406536399E-02  0.36974840389E-02  0.35523555216E-01  0.35750994182E-01  0.10000000475E-02 0.  1.
</event>
<event>
 4   0  0.2441219E-02  0.9118800E+02  0.7818609E-02  0.1379984E+01
      -11   -1    0    0    0    0  0.00000000000E+00  0.00000000000E+00  0.35740347158E-01  0.35744000000E-01  0.51099999109E-03 0.  1.
       11   -1    0    0    0    0 -0.00000000000E+00 -0.00000000000E+00 -0.35740347158E-01  0.35744000000E-01  0.51099999109E-03 0. -1.
       22    1    1    2    0    0 -0.86697736371E-02 -0.53055112519E-02 -0.34261058949E-01  0.35737005818E-01  0.00000000000E+00 0. -1.
  9000001    1    1    2    0    0  0.86697736371E-02  0.53055112519E-02  0.34261058949E-01  0.35750994182E-01  0.10000000475E-02 0.  1.
</event>
<event>
 4   0  0.2441219E-02  0.9118800E+02  0.7818609E-02  0.1379984E+01
      -11   -1    0    0    0    0  0.00000000000E+00  0.00000000000E+00  0.35740347158E-01  0.35744000000E-01  0.51099999109E-03 0. -1.
       11   -1    0    0    0    0 -0.00000000000E+00 -0.00000000000E+00 -0.35740347158E-01  0.35744000000E-01  0.51099999109E-03 0.  1.
       22    1    1    2    0    0 -0.84797909514E-02 -0.26280180106E-02 -0.34616762582E-01  0.35737005818E-01  0.00000000000E+00 0.  1.
  9000001    1    1    2    0    0  0.84797909514E-02  0.26280180106E-02  0.34616762582E-01  0.35750994182E-01  0.10000000475E-02 0. -1.
</event>
<event>
 4   0  0.2441219E-02  0.9118800E+02  0.7818609E-02  0.1379984E+01
      -11   -1    0    0    0    0  0.00000000000E+00  0.00000000000E+00  0.35740347158E-01  0.35744000000E-01  0.51099999109E-03 0. -1.
       11   -1    0    0    0    0 -0.00000000000E+00 -0.00000000000E+00 -0.35740347158E-01  0.35744000000E-01  0.51099999109E-03 0.  1.
       22    1    1    2    0    0  0.23504918289E-01 -0.29343392394E-02 -0.26758962131E-01  0.35737005818E-01  0.00000000000E+00 0.  1.
  9000001    1    1    2    0    0 -0.23504918289E-01  0.29343392394E-02  0.26758962131E-01  0.35750994182E-01  0.10000000475E-02 0. -1.
</event>
<event>
 4   0  0.2441219E-02  0.9118800E+02  0.7818609E-02  0.1379984E+01
      -11   -1    0    0    0    0  0.00000000000E+00  0.00000000000E+00  0.35740347158E-01  0.35744000000E-01  0.51099999109E-03 0. -1.
       11   -1    0    0    0    0 -0.00000000000E+00 -0.00000000000E+00 -0.35740347158E-01  0.35744000000E-01  0.51099999109E-03 0.  1.
       22    1    1    2    0    0  0.69129670887E-02  0.43113792745E-02 -0.34795926193E-01  0.35737005818E-01  0.00000000000E+00 0.  1.
  9000001    1    1    2    0    0 -0.69129670887E-02 -0.43113792745E-02  0.34795926193E-01  0.35750994182E-01  0.10000000475E-02 0. -1.
</event>
<event>
 4   0  0.2441219E-02  0.9118800E+02  0.7818609E-02  0.1379984E+01
      -11   -1    0    0    0    0  0.00000000000E+00  0.00000000000E+00  0.35740347158E-01  0.35744000000E-01  0.51099999109E-03 0. -1.
       11   -1    0    0    0    0 -0.00000000000E+00 -0.00000000000E+00 -0.35740347158E-01  0.35744000000E-01  0.51099999109E-03 0.  1.
       22    1    1    2    0    0  0.23479239765E-02  0.61104781435E-02 -0.35132362499E-01  0.35737005818E-01  0.00000000000E+00 0.  1.
  9000001    1    1    2    0    0 -0.23479239765E-02 -0.61104781435E-02  0.35132362499E-01  0.35750994182E-01  0.10000000475E-02 0. -1.
</event>
<event>
 4   0  0.2441219E-02  0.9118800E+02  0.7818609E-02  0.1379984E+01
      -11   -1    0    0    0    0  0.00000000000E+00  0.00000000000E+00  0.35740347158E-01  0.35744000000E-01  0.51099999109E-03 0. -1.
       11   -1    0    0    0    0 -0.00000000000E+00 -0.00000000000E+00 -0.35740347158E-01  0.35744000000E-01  0.51099999109E-03 0.  1.
       22    1    1    2    0    0 -0.28778720686E-01  0.20321951527E-01  0.59947565996E-02  0.35737005818E-01  0.00000000000E+00 0.  1.
  9000001    1    1    2    0    0  0.28778720686E-01 -0.20321951527E-01 -0.59947565996E-02  0.35750994182E-01  0.10000000475E-02 0. -1.
</event>
<event>
 4   0  0.2441219E-02  0.9118800E+02  0.7818609E-02  0.1379984E+01
      -11   -1    0    0    0    0  0.00000000000E+00  0.00000000000E+00  0.35740347158E-01  0.35744000000E-01  0.51099999109E-03 0. -1.
       11   -1    0    0    0    0 -0.00000000000E+00 -0.00000000000E+00 -0.35740347158E-01  0.35744000000E-01  0.51099999109E-03 0.  1.
       22    1    1    2    0    0 -0.14104789683E-01 -0.17456155321E-01 -0.27811349019E-01  0.35737005818E-01  0.00000000000E+00 0.  1.
  9000001    1    1    2    0    0  0.14104789683E-01  0.17456155321E-01  0.27811349019E-01  0.35750994182E-01  0.10000000475E-02 0. -1.
</event>
<event>
 4   0  0.2441219E-02  0.9118800E+02  0.7818609E-02  0.1379984E+01
      -11   -1    0    0    0    0  0.00000000000E+00  0.00000000000E+00  0.35740347158E-01  0.35744000000E-01  0.51099999109E-03 0. -1.
       11   -1    0    0    0    0 -0.00000000000E+00 -0.00000000000E+00 -0.35740347158E-01  0.35744000000E-01  0.51099999109E-03 0.  1.
       22    1    1    2    0    0  0.94107318496E-03  0.42305792996E-02 -0.35473231667E-01  0.35737005818E-01  0.00000000000E+00 0.  1.
  9000001    1    1    2    0    0 -0.94107318496E-03 -0.42305792996E-02  0.35473231667E-01  0.35750994182E-01  0.10000000475E-02 0. -1.
</event>
<event>
 4   0  0.2441219E-02  0.9118800E+02  0.7818609E-02  0.1379984E+01
      -11   -1    0    0    0    0  0.00000000000E+00  0.00000000000E+00  0.35740347158E-01  0.35744000000E-01  0.51099999109E-03 0. -1.
       11   -1    0    0    0    0 -0.00000000000E+00 -0.00000000000E+00 -0.35740347158E-01  0.35744000000E-01  0.51099999109E-03 0.  1.
       22    1    1    2    0    0  0.55209648452E-02  0.93554100165E-02  0.34045981194E-01  0.35737005818E-01  0.00000000000E+00 0. -1.
  9000001    1    1    2    0    0 -0.55209648452E-02 -0.93554100165E-02 -0.34045981194E-01  0.35750994182E-01  0.10000000475E-02 0.  1.
</event>
<event>
 4   0  0.2441219E-02  0.9118800E+02  0.7818609E-02  0.1379984E+01
      -11   -1    0    0    0    0  0.00000000000E+00  0.00000000000E+00  0.35740347158E-01  0.35744000000E-01  0.51099999109E-03 0.  1.
       11   -1    0    0    0    0 -0.00000000000E+00 -0.00000000000E+00 -0.35740347158E-01  0.35744000000E-01  0.51099999109E-03 0. -1.
       22    1    1    2    0    0 -0.12105296112E-01 -0.92411543897E-02  0.32329498240E-01  0.35737005818E-01  0.00000000000E+00 0.  1.
  9000001    1    1    2    0    0  0.12105296112E-01  0.92411543897E-02 -0.32329498240E-01  0.35750994182E-01  0.10000000475E-02 0. -1.
</event>
<event>
 4   0  0.2441219E-02  0.9118800E+02  0.7818609E-02  0.1379984E+01
      -11   -1    0    0    0    0  0.00000000000E+00  0.00000000000E+00  0.35740347158E-01  0.35744000000E-01  0.51099999109E-03 0.  1.
       11   -1    0    0    0    0 -0.00000000000E+00 -0.00000000000E+00 -0.35740347158E-01  0.35744000000E-01  0.51099999109E-03 0. -1.
       22    1    1    2    0    0 -0.86970310901E-02  0.23270202514E-01  0.25690327169E-01  0.35737005818E-01  0.00000000000E+00 0.  1.
  9000001    1    1    2    0    0  0.86970310901E-02 -0.23270202514E-01 -0.25690327169E-01  0.35750994182E-01  0.10000000475E-02 0. -1.
</event>
<event>
 4   0  0.2441219E-02  0.9118800E+02  0.7818609E-02  0.1379984E+01
      -11   -1    0    0    0    0  0.00000000000E+00  0.00000000000E+00  0.35740347158E-01  0.35744000000E-01  0.51099999109E-03 0. -1.
       11   -1    0    0    0    0 -0.00000000000E+00 -0.00000000000E+00 -0.35740347158E-01  0.35744000000E-01  0.51099999109E-03 0.  1.
       22    1    1    2    0    0 -0.18270044573E-01 -0.10700824688E-02  0.30695178443E-01  0.35737005818E-01  0.00000000000E+00 0. -1.
  9000001    1    1    2    0    0  0.18270044573E-01  0.10700824688E-02 -0.30695178443E-01  0.35750994182E-01  0.10000000475E-02 0.  1.
</event>
<event>
 4   0  0.2441219E-02  0.9118800E+02  0.7818609E-02  0.1379984E+01
      -11   -1    0    0    0    0  0.00000000000E+00  0.00000000000E+00  0.35740347158E-01  0.35744000000E-01  0.51099999109E-03 0. -1.
       11   -1    0    0    0    0 -0.00000000000E+00 -0.00000000000E+00 -0.35740347158E-01  0.35744000000E-01  0.51099999109E-03 0.  1.
       22    1    1    2    0    0  0.19337057188E-01  0.65689915786E-02  0.29326782193E-01  0.35737005818E-01  0.00000000000E+00 0. -1.
  9000001    1    1    2    0    0 -0.19337057188E-01 -0.65689915786E-02 -0.29326782193E-01  0.35750994182E-01  0.10000000475E-02 0.  1.
</event>
<event>
 4   0  0.2441219E-02  0.9118800E+02  0.7818609E-02  0.1379984E+01
      -11   -1    0    0    0    0  0.00000000000E+00  0.00000000000E+00  0.35740347158E-01  0.35744000000E-01  0.51099999109E-03 0.  1.
       11   -1    0    0    0    0 -0.00000000000E+00 -0.00000000000E+00 -0.35740347158E-01  0.35744000000E-01  0.51099999109E-03 0. -1.
       22    1    1    2    0    0  0.11519934856E-01 -0.78494437905E-02  0.32906092414E-01  0.35737005818E-01  0.00000000000E+00 0.  1.
  9000001    1    1    2    0    0 -0.11519934856E-01  0.78494437905E-02 -0.32906092414E-01  0.35750994182E-01  0.10000000475E-02 0. -1.
</event>
<event>
 4   0  0.2441219E-02  0.9118800E+02  0.7818609E-02  0.1379984E+01
      -11   -1    0    0    0    0  0.00000000000E+00  0.00000000000E+00  0.35740347158E-01  0.35744000000E-01  0.51099999109E-03 0. -1.
       11   -1    0    0    0    0 -0.00000000000E+00 -0.00000000000E+00 -0.35740347158E-01  0.35744000000E-01  0.51099999109E-03 0.  1.
       22    1    1    2    0    0 -0.10269632074E-01 -0.11194282231E-01  0.32347430922E-01  0.35737005818E-01  0.00000000000E+00 0. -1.
  9000001    1    1    2    0    0  0.10269632074E-01  0.11194282231E-01 -0.32347430922E-01  0.35750994182E-01  0.10000000475E-02 0.  1.
</event>
<event>
 4   0  0.2441219E-02  0.9118800E+02  0.7818609E-02  0.1379984E+01
      -11   -1    0    0    0    0  0.00000000000E+00  0.00000000000E+00  0.35740347158E-01  0.35744000000E-01  0.51099999109E-03 0.  1.
       11   -1    0    0    0    0 -0.00000000000E+00 -0.00000000000E+00 -0.35740347158E-01  0.35744000000E-01  0.51099999109E-03 0. -1.
       22    1    1    2    0    0 -0.24624606164E-02 -0.54000280775E-02 -0.35240737355E-01  0.35737005818E-01  0.00000000000E+00 0. -1.
  9000001    1    1    2    0    0  0.24624606164E-02  0.54000280775E-02  0.35240737355E-01  0.35750994182E-01  0.10000000475E-02 0.  1.
</event>
<event>
 4   0  0.2441219E-02  0.9118800E+02  0.7818609E-02  0.1379984E+01
      -11   -1    0    0    0    0  0.00000000000E+00  0.00000000000E+00  0.35740347158E-01  0.35744000000E-01  0.51099999109E-03 0.  1.
       11   -1    0    0    0    0 -0.00000000000E+00 -0.00000000000E+00 -0.35740347158E-01  0.35744000000E-01  0.51099999109E-03 0. -1.
       22    1    1    2    0    0  0.57369929395E-02 -0.32885464889E-01  0.12758005171E-01  0.35737005818E-01  0.00000000000E+00 0.  1.
  9000001    1    1    2    0    0 -0.57369929395E-02  0.32885464889E-01 -0.12758005171E-01  0.35750994182E-01  0.10000000475E-02 0. -1.
</event>
<event>
 4   0  0.2441219E-02  0.9118800E+02  0.7818609E-02  0.1379984E+01
      -11   -1    0    0    0    0  0.00000000000E+00  0.00000000000E+00  0.35740347158E-01  0.35744000000E-01  0.51099999109E-03 0. -1.
       11   -1    0    0    0    0 -0.00000000000E+00 -0.00000000000E+00 -0.35740347158E-01  0.35744000000E-01  0.51099999109E-03 0.  1.
       22    1    1    2    0    0  0.35263766223E-02 -0.94760725625E-03  0.35549968963E-01  0.35737005818E-01  0.00000000000E+00 0. -1.
  9000001    1    1    2    0    0 -0.35263766223E-02  0.94760725625E-03 -0.35549968963E-01  0.35750994182E-01  0.10000000475E-02 0.  1.
</event>
<event>
 4   0  0.2441219E-02  0.9118800E+02  0.7818609E-02  0.1379984E+01
      -11   -1    0    0    0    0  0.00000000000E+00  0.00000000000E+00  0.35740347158E-01  0.35744000000E-01  0.51099999109E-03 0. -1.
       11   -1    0    0    0    0 -0.00000000000E+00 -0.00000000000E+00 -0.35740347158E-01  0.35744000000E-01  0.51099999109E-03 0.  1.
       22    1    1    2    0    0  0.10467694665E-01  0.22410214074E-01 -0.25794248554E-01  0.35737005818E-01  0.00000000000E+00 0.  1.
  9000001    1    1    2    0    0 -0.10467694665E-01 -0.22410214074E-01  0.25794248554E-01  0.35750994182E-01  0.10000000475E-02 0. -1.
</event>
<event>
 4   0  0.2441219E-02  0.9118800E+02  0.7818609E-02  0.1379984E+01
      -11   -1    0    0    0    0  0.00000000000E+00  0.00000000000E+00  0.35740347158E-01  0.35744000000E-01  0.51099999109E-03 0.  1.
       11   -1    0    0    0    0 -0.00000000000E+00 -0.00000000000E+00 -0.35740347158E-01  0.35744000000E-01  0.51099999109E-03 0. -1.
       22    1    1    2    0    0  0.96564010402E-04 -0.14509934466E-01  0.32658629213E-01  0.35737005818E-01  0.00000000000E+00 0.  1.
  9000001    1    1    2    0    0 -0.96564010402E-04  0.14509934466E-01 -0.32658629213E-01  0.35750994182E-01  0.10000000475E-02 0. -1.
</event>
<event>
 4   0  0.2441219E-02  0.9118800E+02  0.7818609E-02  0.1379984E+01
      -11   -1    0    0    0    0  0.00000000000E+00  0.00000000000E+00  0.35740347158E-01  0.35744000000E-01  0.51099999109E-03 0. -1.
       11   -1    0    0    0    0 -0.00000000000E+00 -0.00000000000E+00 -0.35740347158E-01  0.35744000000E-01  0.51099999109E-03 0.  1.
       22    1    1    2    0    0 -0.21934912707E-01 -0.22046728473E-01 -0.17604969555E-01  0.35737005818E-01  0.00000000000E+00 0.  1.
  9000001    1    1    2    0    0  0.21934912707E-01  0.22046728473E-01  0.17604969555E-01  0.35750994182E-01  0.10000000475E-02 0. -1.
</event>
<event>
 4   0  0.2441219E-02  0.9118800E+02  0.7818609E-02  0.1379984E+01
      -11   -1    0    0    0    0  0.00000000000E+00  0.00000000000E+00  0.35740347158E-01  0.35744000000E-01  0.51099999109E-03 0. -1.
       11   -1    0    0    0    0 -0.00000000000E+00 -0.00000000000E+00 -0.35740347158E-01  0.35744000000E-01  0.51099999109E-03 0.  1.
       22    1    1    2    0    0 -0.16563891669E-01  0.83460978912E-02  0.30546910280E-01  0.35737005818E-01  0.00000000000E+00 0. -1.
  9000001    1    1    2    0    0  0.16563891669E-01 -0.83460978912E-02 -0.30546910280E-01  0.35750994182E-01  0.10000000475E-02 0.  1.
</event>
<event>
 4   0  0.2441219E-02  0.9118800E+02  0.7818609E-02  0.1379984E+01
      -11   -1    0    0    0    0  0.00000000000E+00  0.00000000000E+00  0.35740347158E-01  0.35744000000E-01  0.51099999109E-03 0.  1.
       11   -1    0    0    0    0 -0.00000000000E+00 -0.00000000000E+00 -0.35740347158E-01  0.35744000000E-01  0.51099999109E-03 0. -1.
       22    1    1    2    0    0 -0.38766786142E-02 -0.47701615989E-02 -0.35204410322E-01  0.35737005818E-01  0.00000000000E+00 0. -1.
  9000001    1    1    2    0    0  0.38766786142E-02  0.47701615989E-02  0.35204410322E-01  0.35750994182E-01  0.10000000475E-02 0.  1.
</event>
<event>
 4   0  0.2441219E-02  0.9118800E+02  0.7818609E-02  0.1379984E+01
      -11   -1    0    0    0    0  0.00000000000E+00  0.00000000000E+00  0.35740347158E-01  0.35744000000E-01  0.51099999109E-03 0.  1.
       11   -1    0    0    0    0 -0.00000000000E+00 -0.00000000000E+00 -0.35740347158E-01  0.35744000000E-01  0.51099999109E-03 0. -1.
       22    1    1    2    0    0  0.22628902028E-02  0.15812864828E-01 -0.31968206374E-01  0.35737005818E-01  0.00000000000E+00 0. -1.
  9000001    1    1    2    0    0 -0.22628902028E-02 -0.15812864828E-01  0.31968206374E-01  0.35750994182E-01  0.10000000475E-02 0.  1.
</event>
<event>
 4   0  0.2441219E-02  0.9118800E+02  0.7818609E-02  0.1379984E+01
      -11   -1    0    0    0    0  0.00000000000E+00  0.00000000000E+00  0.35740347158E-01  0.35744000000E-01  0.51099999109E-03 0.  1.
       11   -1    0    0    0    0 -0.00000000000E+00 -0.00000000000E+00 -0.35740347158E-01  0.35744000000E-01  0.51099999109E-03 0. -1.
       22    1    1    2    0    0 -0.75499701793E-03  0.34079347184E-02  0.35566129187E-01  0.35737005818E-01  0.00000000000E+00 0.  1.
  9000001    1    1    2    0    0  0.75499701793E-03 -0.34079347184E-02 -0.35566129187E-01  0.35750994182E-01  0.10000000475E-02 0. -1.
</event>
<event>
 4   0  0.2441219E-02  0.9118800E+02  0.7818609E-02  0.1379984E+01
      -11   -1    0    0    0    0  0.00000000000E+00  0.00000000000E+00  0.35740347158E-01  0.35744000000E-01  0.51099999109E-03 0.  1.
       11   -1    0    0    0    0 -0.00000000000E+00 -0.00000000000E+00 -0.35740347158E-01  0.35744000000E-01  0.51099999109E-03 0. -1.
       22    1    1    2    0    0 -0.14019616112E-01 -0.58387701195E-03  0.32867050926E-01  0.35737005818E-01  0.00000000000E+00 0.  1.
  9000001    1    1    2    0    0  0.14019616112E-01  0.58387701195E-03 -0.32867050926E-01  0.35750994182E-01  0.10000000475E-02 0. -1.
</event>
<event>
 4   0  0.2441219E-02  0.9118800E+02  0.7818609E-02  0.1379984E+01
      -11   -1    0    0    0    0  0.00000000000E+00  0.00000000000E+00  0.35740347158E-01  0.35744000000E-01  0.51099999109E-03 0. -1.
       11   -1    0    0    0    0 -0.00000000000E+00 -0.00000000000E+00 -0.35740347158E-01  0.35744000000E-01  0.51099999109E-03 0.  1.
       22    1    1    2    0    0  0.30790573347E-02 -0.40095818302E-02  0.35377623498E-01  0.35737005818E-01  0.00000000000E+00 0. -1.
  9000001    1    1    2    0    0 -0.30790573347E-02  0.40095818302E-02 -0.35377623498E-01  0.35750994182E-01  0.10000000475E-02 0.  1.
</event>
<event>
 4   0  0.2441219E-02  0.9118800E+02  0.7818609E-02  0.1379984E+01
      -11   -1    0    0    0    0  0.00000000000E+00  0.00000000000E+00  0.35740347158E-01  0.35744000000E-01  0.51099999109E-03 0. -1.
       11   -1    0    0    0    0 -0.00000000000E+00 -0.00000000000E+00 -0.35740347158E-01  0.35744000000E-01  0.51099999109E-03 0.  1.
       22    1    1    2    0    0 -0.20650841628E-01  0.24302178905E-01 -0.16127009190E-01  0.35737005818E-01  0.00000000000E+00 0.  1.
  9000001    1    1    2    0    0  0.20650841628E-01 -0.24302178905E-01  0.16127009190E-01  0.35750994182E-01  0.10000000475E-02 0. -1.
</event>
<event>
 4   0  0.2441219E-02  0.9118800E+02  0.7818609E-02  0.1379984E+01
      -11   -1    0    0    0    0  0.00000000000E+00  0.00000000000E+00  0.35740347158E-01  0.35744000000E-01  0.51099999109E-03 0. -1.
       11   -1    0    0    0    0 -0.00000000000E+00 -0.00000000000E+00 -0.35740347158E-01  0.35744000000E-01  0.51099999109E-03 0.  1.
       22    1    1    2    0    0  0.32002533360E-02  0.15483693228E-01 -0.32049137391E-01  0.35737005818E-01  0.00000000000E+00 0.  1.
  9000001    1    1    2    0    0 -0.32002533360E-02 -0.15483693228E-01  0.32049137391E-01  0.35750994182E-01  0.10000000475E-02 0. -1.
</event>
<event>
 4   0  0.2441219E-02  0.9118800E+02  0.7818609E-02  0.1379984E+01
      -11   -1    0    0    0    0  0.00000000000E+00  0.00000000000E+00  0.35740347158E-01  0.35744000000E-01  0.51099999109E-03 0. -1.
       11   -1    0    0    0    0 -0.00000000000E+00 -0.00000000000E+00 -0.35740347158E-01  0.35744000000E-01  0.51099999109E-03 0.  1.
       22    1    1    2    0    0 -0.88240124014E-02  0.24546755155E-01 -0.24428000356E-01  0.35737005818E-01  0.00000000000E+00 0.  1.
  9000001    1    1    2    0    0  0.88240124014E-02 -0.24546755155E-01  0.24428000356E-01  0.35750994182E-01  0.10000000475E-02 0. -1.
</event>
<event>
 4   0  0.2441219E-02  0.9118800E+02  0.7818609E-02  0.1379984E+01
      -11   -1    0    0    0    0  0.00000000000E+00  0.00000000000E+00  0.35740347158E-01  0.35744000000E-01  0.51099999109E-03 0. -1.
       11   -1    0    0    0    0 -0.00000000000E+00 -0.00000000000E+00 -0.35740347158E-01  0.35744000000E-01  0.51099999109E-03 0.  1.
       22    1    1    2    0    0 -0.85489376986E-02 -0.14285562595E-02 -0.34669993887E-01  0.35737005818E-01  0.00000000000E+00 0.  1.
  9000001    1    1    2    0    0  0.85489376986E-02  0.14285562595E-02  0.34669993887E-01  0.35750994182E-01  0.10000000475E-02 0. -1.
</event>
<event>
 4   0  0.2441219E-02  0.9118800E+02  0.7818609E-02  0.1379984E+01
      -11   -1    0    0    0    0  0.00000000000E+00  0.00000000000E+00  0.35740347158E-01  0.35744000000E-01  0.51099999109E-03 0.  1.
       11   -1    0    0    0    0 -0.00000000000E+00 -0.00000000000E+00 -0.35740347158E-01  0.35744000000E-01  0.51099999109E-03 0. -1.
       22    1    1    2    0    0  0.33348010056E-02  0.11106863032E-01 -0.33803110518E-01  0.35737005818E-01  0.00000000000E+00 0. -1.
  9000001    1    1    2    0    0 -0.33348010056E-02 -0.11106863032E-01  0.33803110518E-01  0.35750994182E-01  0.10000000475E-02 0.  1.
</event>
<event>
 4   0  0.2441219E-02  0.9118800E+02  0.7818609E-02  0.1379984E+01
      -11   -1    0    0    0    0  0.00000000000E+00  0.00000000000E+00  0.35740347158E-01  0.35744000000E-01  0.51099999109E-03 0. -1.
       11   -1    0    0    0    0 -0.00000000000E+00 -0.00000000000E+00 -0.35740347158E-01  0.35744000000E-01  0.51099999109E-03 0.  1.
       22    1    1    2    0    0 -0.31195784377E-02  0.67622013746E-02  0.34952459825E-01  0.35737005818E-01  0.00000000000E+00 0. -1.
  9000001    1    1    2    0    0  0.31195784377E-02 -0.67622013746E-02 -0.34952459825E-01  0.35750994182E-01  0.10000000475E-02 0.  1.
</event>
<event>
 4   0  0.2441219E-02  0.9118800E+02  0.7818609E-02  0.1379984E+01
      -11   -1    0    0    0    0  0.00000000000E+00  0.00000000000E+00  0.35740347158E-01  0.35744000000E-01  0.51099999109E-03 0. -1.
       11   -1    0    0    0    0 -0.00000000000E+00 -0.00000000000E+00 -0.35740347158E-01  0.35744000000E-01  0.51099999109E-03 0.  1.
       22    1    1    2    0    0  0.30399439966E-01  0.11677909318E-02 -0.18752170514E-01  0.35737005818E-01  0.00000000000E+00 0.  1.
  9000001    1    1    2    0    0 -0.30399439966E-01 -0.11677909318E-02  0.18752170514E-01  0.35750994182E-01  0.10000000475E-02 0. -1.
</event>
<event>
 4   0  0.2441219E-02  0.9118800E+02  0.7818609E-02  0.1379984E+01
      -11   -1    0    0    0    0  0.00000000000E+00  0.00000000000E+00  0.35740347158E-01  0.35744000000E-01  0.51099999109E-03 0. -1.
       11   -1    0    0    0    0 -0.00000000000E+00 -0.00000000000E+00 -0.35740347158E-01  0.35744000000E-01  0.51099999109E-03 0.  1.
       22    1    1    2    0    0 -0.10440790649E-02  0.13825883576E-01  0.32937644529E-01  0.35737005818E-01  0.00000000000E+00 0. -1.
  9000001    1    1    2    0    0  0.10440790649E-02 -0.13825883576E-01 -0.32937644529E-01  0.35750994182E-01  0.10000000475E-02 0.  1.
</event>
<event>
 4   0  0.2441219E-02  0.9118800E+02  0.7818609E-02  0.1379984E+01
      -11   -1    0    0    0    0  0.00000000000E+00  0.00000000000E+00  0.35740347158E-01  0.35744000000E-01  0.51099999109E-03 0. -1.
       11   -1    0    0    0    0 -0.00000000000E+00 -0.00000000000E+00 -0.35740347158E-01  0.35744000000E-01  0.51099999109E-03 0.  1.
       22    1    1    2    0    0 -0.26676512831E-01 -0.13410662325E-01 -0.19638008658E-01  0.35737005818E-01  0.00000000000E+00 0.  1.
  9000001    1    1    2    0    0  0.26676512831E-01  0.13410662325E-01  0.19638008658E-01  0.35750994182E-01  0.10000000475E-02 0. -1.
</event>
<event>
 4   0  0.2441219E-02  0.9118800E+02  0.7818609E-02  0.1379984E+01
      -11   -1    0    0    0    0  0.00000000000E+00  0.00000000000E+00  0.35740347158E-01  0.35744000000E-01  0.51099999109E-03 0. -1.
       11   -1    0    0    0    0 -0.00000000000E+00 -0.00000000000E+00 -0.35740347158E-01  0.35744000000E-01  0.51099999109E-03 0.  1.
       22    1    1    2    0    0 -0.88225940545E-03  0.13429880191E-01  0.33105792866E-01  0.35737005818E-01  0.00000000000E+00 0. -1.
  9000001    1    1    2    0    0  0.88225940545E-03 -0.13429880191E-01 -0.33105792866E-01  0.35750994182E-01  0.10000000475E-02 0.  1.
</event>
<event>
 4   0  0.2441219E-02  0.9118800E+02  0.7818609E-02  0.1379984E+01
      -11   -1    0    0    0    0  0.00000000000E+00  0.00000000000E+00  0.35740347158E-01  0.35744000000E-01  0.51099999109E-03 0. -1.
       11   -1    0    0    0    0 -0.00000000000E+00 -0.00000000000E+00 -0.35740347158E-01  0.35744000000E-01  0.51099999109E-03 0.  1.
       22    1    1    2    0    0  0.29704307675E-02  0.31843870681E-02 -0.35470689378E-01  0.35737005818E-01  0.00000000000E+00 0.  1.
  9000001    1    1    2    0    0 -0.29704307675E-02 -0.31843870681E-02  0.35470689378E-01  0.35750994182E-01  0.10000000475E-02 0. -1.
</event>
<event>
 4   0  0.2441219E-02  0.9118800E+02  0.7818609E-02  0.1379984E+01
      -11   -1    0    0    0    0  0.00000000000E+00  0.00000000000E+00  0.35740347158E-01  0.35744000000E-01  0.51099999109E-03 0. -1.
       11   -1    0    0    0    0 -0.00000000000E+00 -0.00000000000E+00 -0.35740347158E-01  0.35744000000E-01  0.51099999109E-03 0.  1.
       22    1    1    2    0    0  0.38867325762E-02  0.26742028960E-02  0.35424222414E-01  0.35737005818E-01  0.00000000000E+00 0. -1.
  9000001    1    1    2    0    0 -0.38867325762E-02 -0.26742028960E-02 -0.35424222414E-01  0.35750994182E-01  0.10000000475E-02 0.  1.
</event>
<event>
 4   0  0.2441219E-02  0.9118800E+02  0.7818609E-02  0.1379984E+01
      -11   -1    0    0    0    0  0.00000000000E+00  0.00000000000E+00  0.35740347158E-01  0.35744000000E-01  0.51099999109E-03 0.  1.
       11   -1    0    0    0    0 -0.00000000000E+00 -0.00000000000E+00 -0.35740347158E-01  0.35744000000E-01  0.51099999109E-03 0. -1.
       22    1    1    2    0    0 -0.13375995955E-02 -0.20396462407E-01  0.29314309363E-01  0.35737005818E-01  0.00000000000E+00 0.  1.
  9000001    1    1    2    0    0  0.13375995955E-02  0.20396462407E-01 -0.29314309363E-01  0.35750994182E-01  0.10000000475E-02 0. -1.
</event>
<event>
 4   0  0.2441219E-02  0.9118800E+02  0.7818609E-02  0.1379984E+01
      -11   -1    0    0    0    0  0.00000000000E+00  0.00000000000E+00  0.35740347158E-01  0.35744000000E-01  0.51099999109E-03 0. -1.
       11   -1    0    0    0    0 -0.00000000000E+00 -0.00000000000E+00 -0.35740347158E-01  0.35744000000E-01  0.51099999109E-03 0.  1.
       22    1    1    2    0    0  0.34817717167E-01 -0.19538644221E-02 -0.78129744625E-02  0.35737005818E-01  0.00000000000E+00 0. -1.
  9000001    1    1    2    0    0 -0.34817717167E-01  0.19538644221E-02  0.78129744625E-02  0.35750994182E-01  0.10000000475E-02 0.  1.
</event>
<event>
 4   0  0.2441219E-02  0.9118800E+02  0.7818609E-02  0.1379984E+01
      -11   -1    0    0    0    0  0.00000000000E+00  0.00000000000E+00  0.35740347158E-01  0.35744000000E-01  0.51099999109E-03 0.  1.
       11   -1    0    0    0    0 -0.00000000000E+00 -0.00000000000E+00 -0.35740347158E-01  0.35744000000E-01  0.51099999109E-03 0. -1.
       22    1    1    2    0    0 -0.16339927976E-01  0.78978183573E-02  0.30785788991E-01  0.35737005818E-01  0.00000000000E+00 0.  1.
  9000001    1    1    2    0    0  0.16339927976E-01 -0.78978183573E-02 -0.30785788991E-01  0.35750994182E-01  0.10000000475E-02 0. -1.
</event>
<event>
 4   0  0.2441219E-02  0.9118800E+02  0.7818609E-02  0.1379984E+01
      -11   -1    0    0    0    0  0.00000000000E+00  0.00000000000E+00  0.35740347158E-01  0.35744000000E-01  0.51099999109E-03 0. -1.
       11   -1    0    0    0    0 -0.00000000000E+00 -0.00000000000E+00 -0.35740347158E-01  0.35744000000E-01  0.51099999109E-03 0.  1.
       22    1    1    2    0    0 -0.19887159906E-01  0.10069411964E-01  0.27932801479E-01  0.35737005818E-01  0.00000000000E+00 0. -1.
  9000001    1    1    2    0    0  0.19887159906E-01 -0.10069411964E-01 -0.27932801479E-01  0.35750994182E-01  0.10000000475E-02 0.  1.
</event>
<event>
 4   0  0.2441219E-02  0.9118800E+02  0.7818609E-02  0.1379984E+01
      -11   -1    0    0    0    0  0.00000000000E+00  0.00000000000E+00  0.35740347158E-01  0.35744000000E-01  0.51099999109E-03 0. -1.
       11   -1    0    0    0    0 -0.00000000000E+00 -0.00000000000E+00 -0.35740347158E-01  0.35744000000E-01  0.51099999109E-03 0.  1.
       22    1    1    2    0    0 -0.16417980089E-01  0.80732396088E-02 -0.30698637053E-01  0.35737005818E-01  0.00000000000E+00 0.  1.
  9000001    1    1    2    0    0  0.16417980089E-01 -0.80732396088E-02  0.30698637053E-01  0.35750994182E-01  0.10000000475E-02 0. -1.
</event>
<event>
 4   0  0.2441219E-02  0.9118800E+02  0.7818609E-02  0.1379984E+01
      -11   -1    0    0    0    0  0.00000000000E+00  0.00000000000E+00  0.35740347158E-01  0.35744000000E-01  0.51099999109E-03 0.  1.
       11   -1    0    0    0    0 -0.00000000000E+00 -0.00000000000E+00 -0.35740347158E-01  0.35744000000E-01  0.51099999109E-03 0. -1.
       22    1    1    2    0    0  0.44103727047E-02 -0.31804050845E-02  0.35320917612E-01  0.35737005818E-01  0.00000000000E+00 0.  1.
  9000001    1    1    2    0    0 -0.44103727047E-02  0.31804050845E-02 -0.35320917612E-01  0.35750994182E-01  0.10000000475E-02 0. -1.
</event>
<event>
 4   0  0.2441219E-02  0.9118800E+02  0.7818609E-02  0.1379984E+01
      -11   -1    0    0    0    0  0.00000000000E+00  0.00000000000E+00  0.35740347158E-01  0.35744000000E-01  0.51099999109E-03 0.  1.
       11   -1    0    0    0    0 -0.00000000000E+00 -0.00000000000E+00 -0.35740347158E-01  0.35744000000E-01  0.51099999109E-03 0. -1.
       22    1    1    2    0    0 -0.12759891267E-01 -0.76177897871E-03 -0.33372720185E-01  0.35737005818E-01  0.00000000000E+00 0. -1.
  9000001    1    1    2    0    0  0.12759891267E-01  0.76177897871E-03  0.33372720185E-01  0.35750994182E-01  0.10000000475E-02 0.  1.
</event>
<event>
 4   0  0.2441219E-02  0.9118800E+02  0.7818609E-02  0.1379984E+01
      -11   -1    0    0    0    0  0.00000000000E+00  0.00000000000E+00  0.35740347158E-01  0.35744000000E-01  0.51099999109E-03 0.  1.
       11   -1    0    0    0    0 -0.00000000000E+00 -0.00000000000E+00 -0.35740347158E-01  0.35744000000E-01  0.51099999109E-03 0. -1.
       22    1    1    2    0    0  0.11554129984E-02  0.25995841477E-01 -0.24495200174E-01  0.35737005818E-01  0.00000000000E+00 0. -1.
  9000001    1    1    2    0    0 -0.11554129984E-02 -0.25995841477E-01  0.24495200174E-01  0.35750994182E-01  0.10000000475E-02 0.  1.
</event>
<event>
 4   0  0.2441219E-02  0.9118800E+02  0.7818609E-02  0.1379984E+01
      -11   -1    0    0    0    0  0.00000000000E+00  0.00000000000E+00  0.35740347158E-01  0.35744000000E-01  0.51099999109E-03 0.  1.
       11   -1    0    0    0    0 -0.00000000000E+00 -0.00000000000E+00 -0.35740347158E-01  0.35744000000E-01  0.51099999109E-03 0. -1.
       22    1    1    2    0    0 -0.55812499548E-02 -0.15941219048E-02 -0.35262473101E-01  0.35737005818E-01  0.00000000000E+00 0. -1.
  9000001    1    1    2    0    0  0.55812499548E-02  0.15941219048E-02  0.35262473101E-01  0.35750994182E-01  0.10000000475E-02 0.  1.
</event>
<event>
 4   0  0.2441219E-02  0.9118800E+02  0.7818609E-02  0.1379984E+01
      -11   -1    0    0    0    0  0.00000000000E+00  0.00000000000E+00  0.35740347158E-01  0.35744000000E-01  0.51099999109E-03 0.  1.
       11   -1    0    0    0    0 -0.00000000000E+00 -0.00000000000E+00 -0.35740347158E-01  0.35744000000E-01  0.51099999109E-03 0. -1.
       22    1    1    2    0    0  0.66655535719E-02 -0.89528133260E-03  0.35098467941E-01  0.35737005818E-01  0.00000000000E+00 0.  1.
  9000001    1    1    2    0    0 -0.66655535719E-02  0.89528133260E-03 -0.35098467941E-01  0.35750994182E-01  0.10000000475E-02 0. -1.
</event>
<event>
 4   0  0.2441219E-02  0.9118800E+02  0.7818609E-02  0.1379984E+01
      -11   -1    0    0    0    0  0.00000000000E+00  0.00000000000E+00  0.35740347158E-01  0.35744000000E-01  0.51099999109E-03 0. -1.
       11   -1    0    0    0    0 -0.00000000000E+00 -0.00000000000E+00 -0.35740347158E-01  0.35744000000E-01  0.51099999109E-03 0.  1.
       22    1    1    2    0    0 -0.15811441604E-01 -0.28609772653E-01  0.14443434772E-01  0.35737005818E-01  0.00000000000E+00 0.  1.
  9000001    1    1    2    0    0  0.15811441604E-01  0.28609772653E-01 -0.14443434772E-01  0.35750994182E-01  0.10000000475E-02 0. -1.
</event>
<event>
 4   0  0.2441219E-02  0.9118800E+02  0.7818609E-02  0.1379984E+01
      -11   -1    0    0    0    0  0.00000000000E+00  0.00000000000E+00  0.35740347158E-01  0.35744000000E-01  0.51099999109E-03 0. -1.
       11   -1    0    0    0    0 -0.00000000000E+00 -0.00000000000E+00 -0.35740347158E-01  0.35744000000E-01  0.51099999109E-03 0.  1.
       22    1    1    2    0    0  0.90424142011E-03  0.13169954076E-01 -0.33209460127E-01  0.35737005818E-01  0.00000000000E+00 0.  1.
  9000001    1    1    2    0    0 -0.90424142011E-03 -0.13169954076E-01  0.33209460127E-01  0.35750994182E-01  0.10000000475E-02 0. -1.
</event>
<event>
 4   0  0.2441219E-02  0.9118800E+02  0.7818609E-02  0.1379984E+01
      -11   -1    0    0    0    0  0.00000000000E+00  0.00000000000E+00  0.35740347158E-01  0.35744000000E-01  0.51099999109E-03 0.  1.
       11   -1    0    0    0    0 -0.00000000000E+00 -0.00000000000E+00 -0.35740347158E-01  0.35744000000E-01  0.51099999109E-03 0. -1.
       22    1    1    2    0    0 -0.21702413485E-02 -0.67263951575E-02 -0.35031118246E-01  0.35737005818E-01  0.00000000000E+00 0. -1.
  9000001    1    1    2    0    0  0.21702413485E-02  0.67263951575E-02  0.35031118246E-01  0.35750994182E-01  0.10000000475E-02 0.  1.
</event>
<event>
 4   0  0.2441219E-02  0.9118800E+02  0.7818609E-02  0.1379984E+01
      -11   -1    0    0    0    0  0.00000000000E+00  0.00000000000E+00  0.35740347158E-01  0.35744000000E-01  0.51099999109E-03 0.  1.
       11   -1    0    0    0    0 -0.00000000000E+00 -0.00000000000E+00 -0.35740347158E-01  0.35744000000E-01  0.51099999109E-03 0. -1.
       22    1    1    2    0    0  0.85773734762E-02  0.14987176937E-01 -0.31288125169E-01  0.35737005818E-01  0.00000000000E+00 0. -1.
  9000001    1    1    2    0    0 -0.85773734762E-02 -0.14987176937E-01  0.31288125169E-01  0.35750994182E-01  0.10000000475E-02 0.  1.
</event>
<event>
 4   0  0.2441219E-02  0.9118800E+02  0.7818609E-02  0.1379984E+01
      -11   -1    0    0    0    0  0.00000000000E+00  0.00000000000E+00  0.35740347158E-01  0.35744000000E-01  0.51099999109E-03 0. -1.
       11   -1    0    0    0    0 -0.00000000000E+00 -0.00000000000E+00 -0.35740347158E-01  0.35744000000E-01  0.51099999109E-03 0.  1.
       22    1    1    2    0    0  0.32074934073E-01  0.61232741059E-02 -0.14520251489E-01  0.35737005818E-01  0.00000000000E+00 0.  1.
  9000001    1    1    2    0    0 -0.32074934073E-01 -0.61232741059E-02  0.14520251489E-01  0.35750994182E-01  0.10000000475E-02 0. -1.
</event>
<event>
 4   0  0.2441219E-02  0.9118800E+02  0.7818609E-02  0.1379984E+01
      -11   -1    0    0    0    0  0.00000000000E+00  0.00000000000E+00  0.35740347158E-01  0.35744000000E-01  0.51099999109E-03 0. -1.
       11   -1    0    0    0    0 -0.00000000000E+00 -0.00000000000E+00 -0.35740347158E-01  0.35744000000E-01  0.51099999109E-03 0.  1.
       22    1    1    2    0    0 -0.13744212411E-02  0.28699190888E-02  0.35595057460E-01  0.35737005818E-01  0.00000000000E+00 0. -1.
  9000001    1    1    2    0    0  0.13744212411E-02 -0.28699190888E-02 -0.35595057460E-01  0.35750994182E-01  0.10000000475E-02 0.  1.
</event>
<event>
 4   0  0.2441219E-02  0.9118800E+02  0.7818609E-02  0.1379984E+01
      -11   -1    0    0    0    0  0.00000000000E+00  0.00000000000E+00  0.35740347158E-01  0.35744000000E-01  0.51099999109E-03 0.  1.
       11   -1    0    0    0    0 -0.00000000000E+00 -0.00000000000E+00 -0.35740347158E-01  0.35744000000E-01  0.51099999109E-03 0. -1.
       22    1    1    2    0    0 -0.18224762266E-03  0.15604426033E-01 -0.32149685206E-01  0.35737005818E-01  0.00000000000E+00 0. -1.
  9000001    1    1    2    0    0  0.18224762266E-03 -0.15604426033E-01  0.32149685206E-01  0.35750994182E-01  0.10000000475E-02 0.  1.
</event>
<event>
 4   0  0.2441219E-02  0.9118800E+02  0.7818609E-02  0.1379984E+01
      -11   -1    0    0    0    0  0.00000000000E+00  0.00000000000E+00  0.35740347158E-01  0.35744000000E-01  0.51099999109E-03 0. -1.
       11   -1    0    0    0    0 -0.00000000000E+00 -0.00000000000E+00 -0.35740347158E-01  0.35744000000E-01  0.51099999109E-03 0.  1.
       22    1    1    2    0    0  0.26318214345E-02 -0.27696835692E-02 -0.35532181944E-01  0.35737005818E-01  0.00000000000E+00 0.  1.
  9000001    1    1    2    0    0 -0.26318214345E-02  0.27696835692E-02  0.35532181944E-01  0.35750994182E-01  0.10000000475E-02 0. -1.
</event>
<event>
 4   0  0.2441219E-02  0.9118800E+02  0.7818609E-02  0.1379984E+01
      -11   -1    0    0    0    0  0.00000000000E+00  0.00000000000E+00  0.35740347158E-01  0.35744000000E-01  0.51099999109E-03 0.  1.
       11   -1    0    0    0    0 -0.00000000000E+00 -0.00000000000E+00 -0.35740347158E-01  0.35744000000E-01  0.51099999109E-03 0. -1.
       22    1    1    2    0    0  0.27913649925E-02  0.48263192358E-02 -0.35299412304E-01  0.35737005818E-01  0.00000000000E+00 0. -1.
  9000001    1    1    2    0    0 -0.27913649925E-02 -0.48263192358E-02  0.35299412304E-01  0.35750994182E-01  0.10000000475E-02 0.  1.
</event>
<event>
 4   0  0.2441219E-02  0.9118800E+02  0.7818609E-02  0.1379984E+01
      -11   -1    0    0    0    0  0.00000000000E+00  0.00000000000E+00  0.35740347158E-01  0.35744000000E-01  0.51099999109E-03 0. -1.
       11   -1    0    0    0    0 -0.00000000000E+00 -0.00000000000E+00 -0.35740347158E-01  0.35744000000E-01  0.51099999109E-03 0.  1.
       22    1    1    2    0    0  0.15522479898E-01  0.28001833602E-01  0.15877138206E-01  0.35737005818E-01  0.00000000000E+00 0. -1.
  9000001    1    1    2    0    0 -0.15522479898E-01 -0.28001833602E-01 -0.15877138206E-01  0.35750994182E-01  0.10000000475E-02 0.  1.
</event>
<event>
 4   0  0.2441219E-02  0.9118800E+02  0.7818609E-02  0.1379984E+01
      -11   -1    0    0    0    0  0.00000000000E+00  0.00000000000E+00  0.35740347158E-01  0.35744000000E-01  0.51099999109E-03 0.  1.
       11   -1    0    0    0    0 -0.00000000000E+00 -0.00000000000E+00 -0.35740347158E-01  0.35744000000E-01  0.51099999109E-03 0. -1.
       22    1    1    2    0    0 -0.84445626729E-02  0.15659757314E-01 -0.30993466199E-01  0.35737005818E-01  0.00000000000E+00 0. -1.
  9000001    1    1    2    0    0  0.84445626729E-02 -0.15659757314E-01  0.30993466199E-01  0.35750994182E-01  0.10000000475E-02 0.  1.
</event>
<event>
 4   0  0.2441219E-02  0.9118800E+02  0.7818609E-02  0.1379984E+01
      -11   -1    0    0    0    0  0.00000000000E+00  0.00000000000E+00  0.35740347158E-01  0.35744000000E-01  0.51099999109E-03 0. -1.
       11   -1    0    0    0    0 -0.00000000000E+00 -0.00000000000E+00 -0.35740347158E-01  0.35744000000E-01  0.51099999109E-03 0.  1.
       22    1    1    2    0    0  0.28202781279E-01  0.31348287539E-02  0.21723479502E-01  0.35737005818E-01  0.00000000000E+00 0. -1.
  9000001    1    1    2    0    0 -0.28202781279E-01 -0.31348287539E-02 -0.21723479502E-01  0.35750994182E-01  0.10000000475E-02 0.  1.
</event>
<event>
 4   0  0.2441219E-02  0.9118800E+02  0.7818609E-02  0.1379984E+01
      -11   -1    0    0    0    0  0.00000000000E+00  0.00000000000E+00  0.35740347158E-01  0.35744000000E-01  0.51099999109E-03 0.  1.
       11   -1    0    0    0    0 -0.00000000000E+00 -0.00000000000E+00 -0.35740347158E-01  0.35744000000E-01  0.51099999109E-03 0. -1.
       22    1    1    2    0    0  0.12872583285E-02 -0.71412250699E-02 -0.34992562858E-01  0.35737005818E-01  0.00000000000E+00 0. -1.
  9000001    1    1    2    0    0 -0.12872583285E-02  0.71412250699E-02  0.34992562858E-01  0.35750994182E-01  0.10000000475E-02 0.  1.
</event>
<event>
 4   0  0.2441219E-02  0.9118800E+02  0.7818609E-02  0.1379984E+01
      -11   -1    0    0    0    0  0.00000000000E+00  0.00000000000E+00  0.35740347158E-01  0.35744000000E-01  0.51099999109E-03 0.  1.
       11   -1    0    0    0    0 -0.00000000000E+00 -0.00000000000E+00 -0.35740347158E-01  0.35744000000E-01  0.51099999109E-03 0. -1.
       22    1    1    2    0    0 -0.89356905430E-03  0.54083380788E-02 -0.35314090650E-01  0.35737005818E-01  0.00000000000E+00 0. -1.
  9000001    1    1    2    0    0  0.89356905430E-03 -0.54083380788E-02  0.35314090650E-01  0.35750994182E-01  0.10000000475E-02 0.  1.
</event>
<event>
 4   0  0.2441219E-02  0.9118800E+02  0.7818609E-02  0.1379984E+01
      -11   -1    0    0    0    0  0.00000000000E+00  0.00000000000E+00  0.35740347158E-01  0.35744000000E-01  0.51099999109E-03 0. -1.
       11   -1    0    0    0    0 -0.00000000000E+00 -0.00000000000E+00 -0.35740347158E-01  0.35744000000E-01  0.51099999109E-03 0.  1.
       22    1    1    2    0    0  0.24882249654E-02  0.36532399738E-02  0.35462602261E-01  0.35737005818E-01  0.00000000000E+00 0. -1.
  9000001    1    1    2    0    0 -0.24882249654E-02 -0.36532399738E-02 -0.35462602261E-01  0.35750994182E-01  0.10000000475E-02 0.  1.
</event>
<event>
 4   0  0.2441219E-02  0.9118800E+02  0.7818609E-02  0.1379984E+01
      -11   -1    0    0    0    0  0.00000000000E+00  0.00000000000E+00  0.35740347158E-01  0.35744000000E-01  0.51099999109E-03 0. -1.
       11   -1    0    0    0    0 -0.00000000000E+00 -0.00000000000E+00 -0.35740347158E-01  0.35744000000E-01  0.51099999109E-03 0.  1.
       22    1    1    2    0    0 -0.36389263789E-02 -0.11700550424E-01  0.33570655630E-01  0.35737005818E-01  0.00000000000E+00 0. -1.
  9000001    1    1    2    0    0  0.36389263789E-02  0.11700550424E-01 -0.33570655630E-01  0.35750994182E-01  0.10000000475E-02 0.  1.
</event>
<event>
 4   0  0.2441219E-02  0.9118800E+02  0.7818609E-02  0.1379984E+01
      -11   -1    0    0    0    0  0.00000000000E+00  0.00000000000E+00  0.35740347158E-01  0.35744000000E-01  0.51099999109E-03 0. -1.
       11   -1    0    0    0    0 -0.00000000000E+00 -0.00000000000E+00 -0.35740347158E-01  0.35744000000E-01  0.51099999109E-03 0.  1.
       22    1    1    2    0    0 -0.11370819173E-01  0.11472171250E-01  0.31878320894E-01  0.35737005818E-01  0.00000000000E+00 0. -1.
  9000001    1    1    2    0    0  0.11370819173E-01 -0.11472171250E-01 -0.31878320894E-01  0.35750994182E-01  0.10000000475E-02 0.  1.
</event>
<event>
 4   0  0.2441219E-02  0.9118800E+02  0.7818609E-02  0.1379984E+01
      -11   -1    0    0    0    0  0.00000000000E+00  0.00000000000E+00  0.35740347158E-01  0.35744000000E-01  0.51099999109E-03 0. -1.
       11   -1    0    0    0    0 -0.00000000000E+00 -0.00000000000E+00 -0.35740347158E-01  0.35744000000E-01  0.51099999109E-03 0.  1.
       22    1    1    2    0    0 -0.10385912482E-01 -0.10129886160E-01  0.32659635840E-01  0.35737005818E-01  0.00000000000E+00 0. -1.
  9000001    1    1    2    0    0  0.10385912482E-01  0.10129886160E-01 -0.32659635840E-01  0.35750994182E-01  0.10000000475E-02 0.  1.
</event>
<event>
 4   0  0.2441219E-02  0.9118800E+02  0.7818609E-02  0.1379984E+01
      -11   -1    0    0    0    0  0.00000000000E+00  0.00000000000E+00  0.35740347158E-01  0.35744000000E-01  0.51099999109E-03 0. -1.
       11   -1    0    0    0    0 -0.00000000000E+00 -0.00000000000E+00 -0.35740347158E-01  0.35744000000E-01  0.51099999109E-03 0.  1.
       22    1    1    2    0    0  0.12909838359E-01  0.21711124099E-02  0.33252908584E-01  0.35737005818E-01  0.00000000000E+00 0. -1.
  9000001    1    1    2    0    0 -0.12909838359E-01 -0.21711124099E-02 -0.33252908584E-01  0.35750994182E-01  0.10000000475E-02 0.  1.
</event>
<event>
 4   0  0.2441219E-02  0.9118800E+02  0.7818609E-02  0.1379984E+01
      -11   -1    0    0    0    0  0.00000000000E+00  0.00000000000E+00  0.35740347158E-01  0.35744000000E-01  0.51099999109E-03 0.  1.
       11   -1    0    0    0    0 -0.00000000000E+00 -0.00000000000E+00 -0.35740347158E-01  0.35744000000E-01  0.51099999109E-03 0. -1.
       22    1    1    2    0    0 -0.25682196405E-02  0.16725783855E-01 -0.31476753123E-01  0.35737005818E-01  0.00000000000E+00 0. -1.
  9000001    1    1    2    0    0  0.25682196405E-02 -0.16725783855E-01  0.31476753123E-01  0.35750994182E-01  0.10000000475E-02 0.  1.
</event>
<event>
 4   0  0.2441219E-02  0.9118800E+02  0.7818609E-02  0.1379984E+01
      -11   -1    0    0    0    0  0.00000000000E+00  0.00000000000E+00  0.35740347158E-01  0.35744000000E-01  0.51099999109E-03 0. -1.
       11   -1    0    0    0    0 -0.00000000000E+00 -0.00000000000E+00 -0.35740347158E-01  0.35744000000E-01  0.51099999109E-03 0.  1.
       22    1    1    2    0    0  0.70312052992E-02 -0.16102829500E-01 -0.31119039494E-01  0.35737005818E-01  0.00000000000E+00 0.  1.
  9000001    1    1    2    0    0 -0.70312052992E-02  0.16102829500E-01  0.31119039494E-01  0.35750994182E-01  0.10000000475E-02 0. -1.
</event>
<event>
 4   0  0.2441219E-02  0.9118800E+02  0.7818609E-02  0.1379984E+01
      -11   -1    0    0    0    0  0.00000000000E+00  0.00000000000E+00  0.35740347158E-01  0.35744000000E-01  0.51099999109E-03 0.  1.
       11   -1    0    0    0    0 -0.00000000000E+00 -0.00000000000E+00 -0.35740347158E-01  0.35744000000E-01  0.51099999109E-03 0. -1.
       22    1    1    2    0    0 -0.20305433216E-02  0.83375651590E-02  0.34691432457E-01  0.35737005818E-01  0.00000000000E+00 0.  1.
  9000001    1    1    2    0    0  0.20305433216E-02 -0.83375651590E-02 -0.34691432457E-01  0.35750994182E-01  0.10000000475E-02 0. -1.
</event>
<event>
 4   0  0.2441219E-02  0.9118800E+02  0.7818609E-02  0.1379984E+01
      -11   -1    0    0    0    0  0.00000000000E+00  0.00000000000E+00  0.35740347158E-01  0.35744000000E-01  0.51099999109E-03 0. -1.
       11   -1    0    0    0    0 -0.00000000000E+00 -0.00000000000E+00 -0.35740347158E-01  0.35744000000E-01  0.51099999109E-03 0.  1.
       22    1    1    2    0    0 -0.12378535105E-01  0.26302718032E-01  0.20786353159E-01  0.35737005818E-01  0.00000000000E+00 0. -1.
  9000001    1    1    2    0    0  0.12378535105E-01 -0.26302718032E-01 -0.20786353159E-01  0.35750994182E-01  0.10000000475E-02 0.  1.
</event>
<event>
 4   0  0.2441219E-02  0.9118800E+02  0.7818609E-02  0.1379984E+01
      -11   -1    0    0    0    0  0.00000000000E+00  0.00000000000E+00  0.35740347158E-01  0.35744000000E-01  0.51099999109E-03 0.  1.
       11   -1    0    0    0    0 -0.00000000000E+00 -0.00000000000E+00 -0.35740347158E-01  0.35744000000E-01  0.51099999109E-03 0. -1.
       22    1    1    2    0    0  0.29705727828E-02  0.19583157987E-02 -0.35559447148E-01  0.35737005818E-01  0.00000000000E+00 0. -1.
  9000001    1    1    2    0    0 -0.29705727828E-02 -0.19583157987E-02  0.35559447148E-01  0.35750994182E-01  0.10000000475E-02 0.  1.
</event>
<event>
 4   0  0.2441219E-02  0.9118800E+02  0.7818609E-02  0.1379984E+01
      -11   -1    0    0    0    0  0.00000000000E+00  0.00000000000E+00  0.35740347158E-01  0.35744000000E-01  0.51099999109E-03 0.  1.
       11   -1    0    0    0    0 -0.00000000000E+00 -0.00000000000E+00 -0.35740347158E-01  0.35744000000E-01  0.51099999109E-03 0. -1.
       22    1    1    2    0    0 -0.54433878609E-02  0.63807464566E-02  0.34738871428E-01  0.35737005818E-01  0.00000000000E+00 0.  1.
  9000001    1    1    2    0    0  0.54433878609E-02 -0.63807464566E-02 -0.34738871428E-01  0.35750994182E-01  0.10000000475E-02 0. -1.
</event>
<event>
 4   0  0.2441219E-02  0.9118800E+02  0.7818609E-02  0.1379984E+01
      -11   -1    0    0    0    0  0.00000000000E+00  0.00000000000E+00  0.35740347158E-01  0.35744000000E-01  0.51099999109E-03 0. -1.
       11   -1    0    0    0    0 -0.00000000000E+00 -0.00000000000E+00 -0.35740347158E-01  0.35744000000E-01  0.51099999109E-03 0.  1.
       22    1    1    2    0    0 -0.32304284006E-02  0.17113513724E-04 -0.35590695755E-01  0.35737005818E-01  0.00000000000E+00 0.  1.
  9000001    1    1    2    0    0  0.32304284006E-02 -0.17113513724E-04  0.35590695755E-01  0.35750994182E-01  0.10000000475E-02 0. -1.
</event>
<event>
 4   0  0.2441219E-02  0.9118800E+02  0.7818609E-02  0.1379984E+01
      -11   -1    0    0    0    0  0.00000000000E+00  0.00000000000E+00  0.35740347158E-01  0.35744000000E-01  0.51099999109E-03 0.  1.
       11   -1    0    0    0    0 -0.00000000000E+00 -0.00000000000E+00 -0.35740347158E-01  0.35744000000E-01  0.51099999109E-03 0. -1.
       22    1    1    2    0    0 -0.25233568621E-02  0.17846192329E-01  0.30859029058E-01  0.35737005818E-01  0.00000000000E+00 0.  1.
  9000001    1    1    2    0    0  0.25233568621E-02 -0.17846192329E-01 -0.30859029058E-01  0.35750994182E-01  0.10000000475E-02 0. -1.
</event>
<event>
 4   0  0.2441219E-02  0.9118800E+02  0.7818609E-02  0.1379984E+01
      -11   -1    0    0    0    0  0.00000000000E+00  0.00000000000E+00  0.35740347158E-01  0.35744000000E-01  0.51099999109E-03 0.  1.
       11   -1    0    0    0    0 -0.00000000000E+00 -0.00000000000E+00 -0.35740347158E-01  0.35744000000E-01  0.51099999109E-03 0. -1.
       22    1    1    2    0    0  0.71914523137E-02 -0.10599235363E-01 -0.33362745813E-01  0.35737005818E-01  0.00000000000E+00 0. -1.
  9000001    1    1    2    0    0 -0.71914523137E-02  0.10599235363E-01  0.33362745813E-01  0.35750994182E-01  0.10000000475E-02 0.  1.
</event>
<event>
 4   0  0.2441219E-02  0.9118800E+02  0.7818609E-02  0.1379984E+01
      -11   -1    0    0    0    0  0.00000000000E+00  0.00000000000E+00  0.35740347158E-01  0.35744000000E-01  0.51099999109E-03 0. -1.
       11   -1    0    0    0    0 -0.00000000000E+00 -0.00000000000E+00 -0.35740347158E-01  0.35744000000E-01  0.51099999109E-03 0.  1.
       22    1    1    2    0    0 -0.66712265630E-02  0.22625251035E-01 -0.26846346802E-01  0.35737005818E-01  0.00000000000E+00 0.  1.
  9000001    1    1    2    0    0  0.66712265630E-02 -0.22625251035E-01  0.26846346802E-01  0.35750994182E-01  0.10000000475E-02 0. -1.
</event>
<event>
 4   0  0.2441219E-02  0.9118800E+02  0.7818609E-02  0.1379984E+01
      -11   -1    0    0    0    0  0.00000000000E+00  0.00000000000E+00  0.35740347158E-01  0.35744000000E-01  0.51099999109E-03 0.  1.
       11   -1    0    0    0    0 -0.00000000000E+00 -0.00000000000E+00 -0.35740347158E-01  0.35744000000E-01  0.51099999109E-03 0. -1.
       22    1    1    2    0    0  0.91177409660E-03 -0.63934425135E-02 -0.35148629357E-01  0.35737005818E-01  0.00000000000E+00 0. -1.
  9000001    1    1    2    0    0 -0.91177409660E-03  0.63934425135E-02  0.35148629357E-01  0.35750994182E-01  0.10000000475E-02 0.  1.
</event>
<event>
 4   0  0.2441219E-02  0.9118800E+02  0.7818609E-02  0.1379984E+01
      -11   -1    0    0    0    0  0.00000000000E+00  0.00000000000E+00  0.35740347158E-01  0.35744000000E-01  0.51099999109E-03 0. -1.
       11   -1    0    0    0    0 -0.00000000000E+00 -0.00000000000E+00 -0.35740347158E-01  0.35744000000E-01  0.51099999109E-03 0.  1.
       22    1    1    2    0    0 -0.12176976644E-02  0.30499858635E-02  0.35585789067E-01  0.35737005818E-01  0.00000000000E+00 0. -1.
  9000001    1    1    2    0    0  0.12176976644E-02 -0.30499858635E-02 -0.35585789067E-01  0.35750994182E-01  0.10000000475E-02 0.  1.
</event>
<event>
 4   0  0.2441219E-02  0.9118800E+02  0.7818609E-02  0.1379984E+01
      -11   -1    0    0    0    0  0.00000000000E+00  0.00000000000E+00  0.35740347158E-01  0.35744000000E-01  0.51099999109E-03 0.  1.
       11   -1    0    0    0    0 -0.00000000000E+00 -0.00000000000E+00 -0.35740347158E-01  0.35744000000E-01  0.51099999109E-03 0. -1.
       22    1    1    2    0    0 -0.11888172795E-01  0.95267895075E-02  0.32327159079E-01  0.35737005818E-01  0.00000000000E+00 0.  1.
  9000001    1    1    2    0    0  0.11888172795E-01 -0.95267895075E-02 -0.32327159079E-01  0.35750994182E-01  0.10000000475E-02 0. -1.
</event>
<event>
 4   0  0.2441219E-02  0.9118800E+02  0.7818609E-02  0.1379984E+01
      -11   -1    0    0    0    0  0.00000000000E+00  0.00000000000E+00  0.35740347158E-01  0.35744000000E-01  0.51099999109E-03 0.  1.
       11   -1    0    0    0    0 -0.00000000000E+00 -0.00000000000E+00 -0.35740347158E-01  0.35744000000E-01  0.51099999109E-03 0. -1.
       22    1    1    2    0    0 -0.88799038516E-02  0.99284534147E-02 -0.33161826024E-01  0.35737005818E-01  0.00000000000E+00 0. -1.
  9000001    1    1    2    0    0  0.88799038516E-02 -0.99284534147E-02  0.33161826024E-01  0.35750994182E-01  0.10000000475E-02 0.  1.
</event>
<event>
 4   0  0.2441219E-02  0.9118800E+02  0.7818609E-02  0.1379984E+01
      -11   -1    0    0    0    0  0.00000000000E+00  0.00000000000E+00  0.35740347158E-01  0.35744000000E-01  0.51099999109E-03 0. -1.
       11   -1    0    0    0    0 -0.00000000000E+00 -0.00000000000E+00 -0.35740347158E-01  0.35744000000E-01  0.51099999109E-03 0.  1.
       22    1    1    2    0    0  0.27603714634E-02 -0.16114843210E-02 -0.35593778284E-01  0.35737005818E-01  0.00000000000E+00 0.  1.
  9000001    1    1    2    0    0 -0.27603714634E-02  0.16114843210E-02  0.35593778284E-01  0.35750994182E-01  0.10000000475E-02 0. -1.
</event>
<event>
 4   0  0.2441219E-02  0.9118800E+02  0.7818609E-02  0.1379984E+01
      -11   -1    0    0    0    0  0.00000000000E+00  0.00000000000E+00  0.35740347158E-01  0.35744000000E-01  0.51099999109E-03 0. -1.
       11   -1    0    0    0    0 -0.00000000000E+00 -0.00000000000E+00 -0.35740347158E-01  0.35744000000E-01  0.51099999109E-03 0.  1.
       22    1    1    2    0    0  0.25302756120E-02 -0.61483594133E-02  0.35113088254E-01  0.35737005818E-01  0.00000000000E+00 0. -1.
  9000001    1    1    2    0    0 -0.25302756120E-02  0.61483594133E-02 -0.35113088254E-01  0.35750994182E-01  0.10000000475E-02 0.  1.
</event>
<event>
 4   0  0.2441219E-02  0.9118800E+02  0.7818609E-02  0.1379984E+01
      -11   -1    0    0    0    0  0.00000000000E+00  0.00000000000E+00  0.35740347158E-01  0.35744000000E-01  0.51099999109E-03 0. -1.
       11   -1    0    0    0    0 -0.00000000000E+00 -0.00000000000E+00 -0.35740347158E-01  0.35744000000E-01  0.51099999109E-03 0.  1.
       22    1    1    2    0    0  0.84743818566E-02  0.14490459071E-02 -0.34687443016E-01  0.35737005818E-01  0.00000000000E+00 0.  1.
  9000001    1    1    2    0    0 -0.84743818566E-02 -0.14490459071E-02  0.34687443016E-01  0.35750994182E-01  0.10000000475E-02 0. -1.
</event>
<event>
 4   0  0.2441219E-02  0.9118800E+02  0.7818609E-02  0.1379984E+01
      -11   -1    0    0    0    0  0.00000000000E+00  0.00000000000E+00  0.35740347158E-01  0.35744000000E-01  0.51099999109E-03 0. -1.
       11   -1    0    0    0    0 -0.00000000000E+00 -0.00000000000E+00 -0.35740347158E-01  0.35744000000E-01  0.51099999109E-03 0.  1.
       22    1    1    2    0    0  0.21249981135E-02  0.65779256963E-02 -0.35062071551E-01  0.35737005818E-01  0.00000000000E+00 0.  1.
  9000001    1    1    2    0    0 -0.21249981135E-02 -0.65779256963E-02  0.35062071551E-01  0.35750994182E-01  0.10000000475E-02 0. -1.
</event>
<event>
 4   0  0.2441219E-02  0.9118800E+02  0.7818609E-02  0.1379984E+01
      -11   -1    0    0    0    0  0.00000000000E+00  0.00000000000E+00  0.35740347158E-01  0.35744000000E-01  0.51099999109E-03 0.  1.
       11   -1    0    0    0    0 -0.00000000000E+00 -0.00000000000E+00 -0.35740347158E-01  0.35744000000E-01  0.51099999109E-03 0. -1.
       22    1    1    2    0    0  0.31484695973E-02 -0.52937259116E-02  0.35202232742E-01  0.35737005818E-01  0.00000000000E+00 0.  1.
  9000001    1    1    2    0    0 -0.31484695973E-02  0.52937259116E-02 -0.35202232742E-01  0.35750994182E-01  0.10000000475E-02 0. -1.
</event>
<event>
 4   0  0.2441219E-02  0.9118800E+02  0.7818609E-02  0.1379984E+01
      -11   -1    0    0    0    0  0.00000000000E+00  0.00000000000E+00  0.35740347158E-01  0.35744000000E-01  0.51099999109E-03 0. -1.
       11   -1    0    0    0    0 -0.00000000000E+00 -0.00000000000E+00 -0.35740347158E-01  0.35744000000E-01  0.51099999109E-03 0.  1.
       22    1    1    2    0    0 -0.31273317834E-02  0.35669488209E-02  0.35420760253E-01  0.35737005818E-01  0.00000000000E+00 0. -1.
  9000001    1    1    2    0    0  0.31273317834E-02 -0.35669488209E-02 -0.35420760253E-01  0.35750994182E-01  0.10000000475E-02 0.  1.
</event>
<event>
 4   0  0.2441219E-02  0.9118800E+02  0.7818609E-02  0.1379984E+01
      -11   -1    0    0    0    0  0.00000000000E+00  0.00000000000E+00  0.35740347158E-01  0.35744000000E-01  0.51099999109E-03 0.  1.
       11   -1    0    0    0    0 -0.00000000000E+00 -0.00000000000E+00 -0.35740347158E-01  0.35744000000E-01  0.51099999109E-03 0. -1.
       22    1    1    2    0    0 -0.16198000640E-02 -0.77343441297E-02  0.34852399537E-01  0.35737005818E-01  0.00000000000E+00 0.  1.
  9000001    1    1    2    0    0  0.16198000640E-02  0.77343441297E-02 -0.34852399537E-01  0.35750994182E-01  0.10000000475E-02 0. -1.
</event>
<event>
 4   0  0.2441219E-02  0.9118800E+02  0.7818609E-02  0.1379984E+01
      -11   -1    0    0    0    0  0.00000000000E+00  0.00000000000E+00  0.35740347158E-01  0.35744000000E-01  0.51099999109E-03 0.  1.
       11   -1    0    0    0    0 -0.00000000000E+00 -0.00000000000E+00 -0.35740347158E-01  0.35744000000E-01  0.51099999109E-03 0. -1.
       22    1    1    2    0    0 -0.77330972373E-02  0.40030143947E-02  0.34659899996E-01  0.35737005818E-01  0.00000000000E+00 0.  1.
  9000001    1    1    2    0    0  0.77330972373E-02 -0.40030143947E-02 -0.34659899996E-01  0.35750994182E-01  0.10000000475E-02 0. -1.
</event>
<event>
 4   0  0.2441219E-02  0.9118800E+02  0.7818609E-02  0.1379984E+01
      -11   -1    0    0    0    0  0.00000000000E+00  0.00000000000E+00  0.35740347158E-01  0.35744000000E-01  0.51099999109E-03 0. -1.
       11   -1    0    0    0    0 -0.00000000000E+00 -0.00000000000E+00 -0.35740347158E-01  0.35744000000E-01  0.51099999109E-03 0.  1.
       22    1    1    2    0    0  0.99444847231E-02 -0.29370959206E-02  0.34199623916E-01  0.35737005818E-01  0.00000000000E+00 0. -1.
  9000001    1    1    2    0    0 -0.99444847231E-02  0.29370959206E-02 -0.34199623916E-01  0.35750994182E-01  0.10000000475E-02 0.  1.
</event>
<event>
 4   0  0.2441219E-02  0.9118800E+02  0.7818609E-02  0.1379984E+01
      -11   -1    0    0    0    0  0.00000000000E+00  0.00000000000E+00  0.35740347158E-01  0.35744000000E-01  0.51099999109E-03 0.  1.
       11   -1    0    0    0    0 -0.00000000000E+00 -0.00000000000E+00 -0.35740347158E-01  0.35744000000E-01  0.51099999109E-03 0. -1.
       22    1    1    2    0    0  0.10654565304E-01  0.50654528050E-02  0.33733588764E-01  0.35737005818E-01  0.00000000000E+00 0.  1.
  9000001    1    1    2    0    0 -0.10654565304E-01 -0.50654528050E-02 -0.33733588764E-01  0.35750994182E-01  0.10000000475E-02 0. -1.
</event>
<event>
 4   0  0.2441219E-02  0.9118800E+02  0.7818609E-02  0.1379984E+01
      -11   -1    0    0    0    0  0.00000000000E+00  0.00000000000E+00  0.35740347158E-01  0.35744000000E-01  0.51099999109E-03 0. -1.
       11   -1    0    0    0    0 -0.00000000000E+00 -0.00000000000E+00 -0.35740347158E-01  0.35744000000E-01  0.51099999109E-03 0.  1.
       22    1    1    2    0    0 -0.77688257246E-02  0.18557954621E-01 -0.29536100826E-01  0.35737005818E-01  0.00000000000E+00 0.  1.
  9000001    1    1    2    0    0  0.77688257246E-02 -0.18557954621E-01  0.29536100826E-01  0.35750994182E-01  0.10000000475E-02 0. -1.
</event>
<event>
 4   0  0.2441219E-02  0.9118800E+02  0.7818609E-02  0.1379984E+01
      -11   -1    0    0    0    0  0.00000000000E+00  0.00000000000E+00  0.35740347158E-01  0.35744000000E-01  0.51099999109E-03 0. -1.
       11   -1    0    0    0    0 -0.00000000000E+00 -0.00000000000E+00 -0.35740347158E-01  0.35744000000E-01  0.51099999109E-03 0.  1.
       22    1    1    2    0    0  0.10147891325E-01  0.15901330850E-01 -0.30352949836E-01  0.35737005818E-01  0.00000000000E+00 0.  1.
  9000001    1    1    2    0    0 -0.10147891325E-01 -0.15901330850E-01  0.30352949836E-01  0.35750994182E-01  0.10000000475E-02 0. -1.
</event>
<event>
 4   0  0.2441219E-02  0.9118800E+02  0.7818609E-02  0.1379984E+01
      -11   -1    0    0    0    0  0.00000000000E+00  0.00000000000E+00  0.35740347158E-01  0.35744000000E-01  0.51099999109E-03 0. -1.
       11   -1    0    0    0    0 -0.00000000000E+00 -0.00000000000E+00 -0.35740347158E-01  0.35744000000E-01  0.51099999109E-03 0.  1.
       22    1    1    2    0    0 -0.79159234197E-02 -0.75024932556E-02 -0.34032107432E-01  0.35737005818E-01  0.00000000000E+00 0.  1.
  9000001    1    1    2    0    0  0.79159234197E-02  0.75024932556E-02  0.34032107432E-01  0.35750994182E-01  0.10000000475E-02 0. -1.
</event>
<event>
 4   0  0.2441219E-02  0.9118800E+02  0.7818609E-02  0.1379984E+01
      -11   -1    0    0    0    0  0.00000000000E+00  0.00000000000E+00  0.35740347158E-01  0.35744000000E-01  0.51099999109E-03 0. -1.
       11   -1    0    0    0    0 -0.00000000000E+00 -0.00000000000E+00 -0.35740347158E-01  0.35744000000E-01  0.51099999109E-03 0.  1.
       22    1    1    2    0    0 -0.32504682411E-02 -0.18692295549E-01  0.30284750753E-01  0.35737005818E-01  0.00000000000E+00 0. -1.
  9000001    1    1    2    0    0  0.32504682411E-02  0.18692295549E-01 -0.30284750753E-01  0.35750994182E-01  0.10000000475E-02 0.  1.
</event>
<event>
 4   0  0.2441219E-02  0.9118800E+02  0.7818609E-02  0.1379984E+01
      -11   -1    0    0    0    0  0.00000000000E+00  0.00000000000E+00  0.35740347158E-01  0.35744000000E-01  0.51099999109E-03 0. -1.
       11   -1    0    0    0    0 -0.00000000000E+00 -0.00000000000E+00 -0.35740347158E-01  0.35744000000E-01  0.51099999109E-03 0.  1.
       22    1    1    2    0    0  0.18147239034E-01  0.19006438418E-01  0.24219137040E-01  0.35737005818E-01  0.00000000000E+00 0. -1.
  9000001    1    1    2    0    0 -0.18147239034E-01 -0.19006438418E-01 -0.24219137040E-01  0.35750994182E-01  0.10000000475E-02 0.  1.
</event>
<event>
 4   0  0.2441219E-02  0.9118800E+02  0.7818609E-02  0.1379984E+01
      -11   -1    0    0    0    0  0.00000000000E+00  0.00000000000E+00  0.35740347158E-01  0.35744000000E-01  0.51099999109E-03 0.  1.
       11   -1    0    0    0    0 -0.00000000000E+00 -0.00000000000E+00 -0.35740347158E-01  0.35744000000E-01  0.51099999109E-03 0. -1.
       22    1    1    2    0    0  0.12509597292E-03  0.29343092295E-01  0.20398550694E-01  0.35737005818E-01  0.00000000000E+00 0. -1.
  9000001    1    1    2    0    0 -0.12509597292E-03 -0.29343092295E-01 -0.20398550694E-01  0.35750994182E-01  0.10000000475E-02 0.  1.
</event>
<event>
 4   0  0.2441219E-02  0.9118800E+02  0.7818609E-02  0.1379984E+01
      -11   -1    0    0    0    0  0.00000000000E+00  0.00000000000E+00  0.35740347158E-01  0.35744000000E-01  0.51099999109E-03 0. -1.
       11   -1    0    0    0    0 -0.00000000000E+00 -0.00000000000E+00 -0.35740347158E-01  0.35744000000E-01  0.51099999109E-03 0.  1.
       22    1    1    2    0    0  0.12280752564E-01  0.98228475105E-02 -0.32090939034E-01  0.35737005818E-01  0.00000000000E+00 0.  1.
  9000001    1    1    2    0    0 -0.12280752564E-01 -0.98228475105E-02  0.32090939034E-01  0.35750994182E-01  0.10000000475E-02 0. -1.
</event>
<event>
 4   0  0.2441219E-02  0.9118800E+02  0.7818609E-02  0.1379984E+01
      -11   -1    0    0    0    0  0.00000000000E+00  0.00000000000E+00  0.35740347158E-01  0.35744000000E-01  0.51099999109E-03 0. -1.
       11   -1    0    0    0    0 -0.00000000000E+00 -0.00000000000E+00 -0.35740347158E-01  0.35744000000E-01  0.51099999109E-03 0.  1.
       22    1    1    2    0    0 -0.56580882191E-02 -0.44190659663E-03 -0.35283485388E-01  0.35737005818E-01  0.00000000000E+00 0.  1.
  9000001    1    1    2    0    0  0.56580882191E-02  0.44190659663E-03  0.35283485388E-01  0.35750994182E-01  0.10000000475E-02 0. -1.
</event>
<event>
 4   0  0.2441219E-02  0.9118800E+02  0.7818609E-02  0.1379984E+01
      -11   -1    0    0    0    0  0.00000000000E+00  0.00000000000E+00  0.35740347158E-01  0.35744000000E-01  0.51099999109E-03 0.  1.
       11   -1    0    0    0    0 -0.00000000000E+00 -0.00000000000E+00 -0.35740347158E-01  0.35744000000E-01  0.51099999109E-03 0.  1.
       22    1    1    2    0    0  0.15749393907E-02 -0.38119150194E-02 -0.35498203541E-01  0.35737005818E-01  0.00000000000E+00 0.  1.
  9000001    1    1    2    0    0 -0.15749393907E-02  0.38119150194E-02  0.35498203541E-01  0.35750994182E-01  0.10000000475E-02 0.  1.
</event>
<event>
 4   0  0.2441219E-02  0.9118800E+02  0.7818609E-02  0.1379984E+01
      -11   -1    0    0    0    0  0.00000000000E+00  0.00000000000E+00  0.35740347158E-01  0.35744000000E-01  0.51099999109E-03 0.  1.
       11   -1    0    0    0    0 -0.00000000000E+00 -0.00000000000E+00 -0.35740347158E-01  0.35744000000E-01  0.51099999109E-03 0. -1.
       22    1    1    2    0    0  0.62725900896E-02  0.29991464344E-01  0.18392940627E-01  0.35737005818E-01  0.00000000000E+00 0.  1.
  9000001    1    1    2    0    0 -0.62725900896E-02 -0.29991464344E-01 -0.18392940627E-01  0.35750994182E-01  0.10000000475E-02 0. -1.
</event>
<event>
 4   0  0.2441219E-02  0.9118800E+02  0.7818609E-02  0.1379984E+01
      -11   -1    0    0    0    0  0.00000000000E+00  0.00000000000E+00  0.35740347158E-01  0.35744000000E-01  0.51099999109E-03 0. -1.
       11   -1    0    0    0    0 -0.00000000000E+00 -0.00000000000E+00 -0.35740347158E-01  0.35744000000E-01  0.51099999109E-03 0.  1.
       22    1    1    2    0    0  0.16645518757E-01 -0.16556117013E-01 -0.26943557294E-01  0.35737005818E-01  0.00000000000E+00 0.  1.
  9000001    1    1    2    0    0 -0.16645518757E-01  0.16556117013E-01  0.26943557294E-01  0.35750994182E-01  0.10000000475E-02 0. -1.
</event>
<event>
 4   0  0.2441219E-02  0.9118800E+02  0.7818609E-02  0.1379984E+01
      -11   -1    0    0    0    0  0.00000000000E+00  0.00000000000E+00  0.35740347158E-01  0.35744000000E-01  0.51099999109E-03 0. -1.
       11   -1    0    0    0    0 -0.00000000000E+00 -0.00000000000E+00 -0.35740347158E-01  0.35744000000E-01  0.51099999109E-03 0.  1.
       22    1    1    2    0    0  0.22204204199E-02 -0.43896606606E-02  0.35396810553E-01  0.35737005818E-01  0.00000000000E+00 0. -1.
  9000001    1    1    2    0    0 -0.22204204199E-02  0.43896606606E-02 -0.35396810553E-01  0.35750994182E-01  0.10000000475E-02 0.  1.
</event>
<event>
 4   0  0.2441219E-02  0.9118800E+02  0.7818609E-02  0.1379984E+01
      -11   -1    0    0    0    0  0.00000000000E+00  0.00000000000E+00  0.35740347158E-01  0.35744000000E-01  0.51099999109E-03 0.  1.
       11   -1    0    0    0    0 -0.00000000000E+00 -0.00000000000E+00 -0.35740347158E-01  0.35744000000E-01  0.51099999109E-03 0. -1.
       22    1    1    2    0    0  0.64950465824E-02  0.21088452503E-01 -0.28110943168E-01  0.35737005818E-01  0.00000000000E+00 0. -1.
  9000001    1    1    2    0    0 -0.64950465824E-02 -0.21088452503E-01  0.28110943168E-01  0.35750994182E-01  0.10000000475E-02 0.  1.
</event>
<event>
 4   0  0.2441219E-02  0.9118800E+02  0.7818609E-02  0.1379984E+01
      -11   -1    0    0    0    0  0.00000000000E+00  0.00000000000E+00  0.35740347158E-01  0.35744000000E-01  0.51099999109E-03 0.  1.
       11   -1    0    0    0    0 -0.00000000000E+00 -0.00000000000E+00 -0.35740347158E-01  0.35744000000E-01  0.51099999109E-03 0. -1.
       22    1    1    2    0    0  0.26880190708E-02  0.44721426855E-02  0.35354039064E-01  0.35737005818E-01  0.00000000000E+00 0.  1.
  9000001    1    1    2    0    0 -0.26880190708E-02 -0.44721426855E-02 -0.35354039064E-01  0.35750994182E-01  0.10000000475E-02 0. -1.
</event>
<event>
 4   0  0.2441219E-02  0.9118800E+02  0.7818609E-02  0.1379984E+01
      -11   -1    0    0    0    0  0.00000000000E+00  0.00000000000E+00  0.35740347158E-01  0.35744000000E-01  0.51099999109E-03 0.  1.
       11   -1    0    0    0    0 -0.00000000000E+00 -0.00000000000E+00 -0.35740347158E-01  0.35744000000E-01  0.51099999109E-03 0. -1.
       22    1    1    2    0    0  0.27768856927E-02 -0.44891126302E-02 -0.35345018864E-01  0.35737005818E-01  0.00000000000E+00 0. -1.
  9000001    1    1    2    0    0 -0.27768856927E-02  0.44891126302E-02  0.35345018864E-01  0.35750994182E-01  0.10000000475E-02 0.  1.
</event>
<event>
 4   0  0.2441219E-02  0.9118800E+02  0.7818609E-02  0.1379984E+01
      -11   -1    0    0    0    0  0.00000000000E+00  0.00000000000E+00  0.35740347158E-01  0.35744000000E-01  0.51099999109E-03 0.  1.
       11   -1    0    0    0    0 -0.00000000000E+00 -0.00000000000E+00 -0.35740347158E-01  0.35744000000E-01  0.51099999109E-03 0. -1.
       22    1    1    2    0    0  0.63230136620E-04  0.12510210185E-01 -0.33475725951E-01  0.35737005818E-01  0.00000000000E+00 0. -1.
  9000001    1    1    2    0    0 -0.63230136620E-04 -0.12510210185E-01  0.33475725951E-01  0.35750994182E-01  0.10000000475E-02 0.  1.
</event>
<event>
 4   0  0.2441219E-02  0.9118800E+02  0.7818609E-02  0.1379984E+01
      -11   -1    0    0    0    0  0.00000000000E+00  0.00000000000E+00  0.35740347158E-01  0.35744000000E-01  0.51099999109E-03 0.  1.
       11   -1    0    0    0    0 -0.00000000000E+00 -0.00000000000E+00 -0.35740347158E-01  0.35744000000E-01  0.51099999109E-03 0. -1.
       22    1    1    2    0    0 -0.15556405924E-01 -0.21537122740E-01 -0.23901551491E-01  0.35737005818E-01  0.00000000000E+00 0.  1.
  9000001    1    1    2    0    0  0.15556405924E-01  0.21537122740E-01  0.23901551491E-01  0.35750994182E-01  0.10000000475E-02 0. -1.
</event>
<event>
 4   0  0.2441219E-02  0.9118800E+02  0.7818609E-02  0.1379984E+01
      -11   -1    0    0    0    0  0.00000000000E+00  0.00000000000E+00  0.35740347158E-01  0.35744000000E-01  0.51099999109E-03 0. -1.
       11   -1    0    0    0    0 -0.00000000000E+00 -0.00000000000E+00 -0.35740347158E-01  0.35744000000E-01  0.51099999109E-03 0.  1.
       22    1    1    2    0    0 -0.86890784529E-02  0.72436852696E-02 -0.33899299760E-01  0.35737005818E-01  0.00000000000E+00 0.  1.
  9000001    1    1    2    0    0  0.86890784529E-02 -0.72436852696E-02  0.33899299760E-01  0.35750994182E-01  0.10000000475E-02 0. -1.
</event>
<event>
 4   0  0.2441219E-02  0.9118800E+02  0.7818609E-02  0.1379984E+01
      -11   -1    0    0    0    0  0.00000000000E+00  0.00000000000E+00  0.35740347158E-01  0.35744000000E-01  0.51099999109E-03 0. -1.
       11   -1    0    0    0    0 -0.00000000000E+00 -0.00000000000E+00 -0.35740347158E-01  0.35744000000E-01  0.51099999109E-03 0.  1.
       22    1    1    2    0    0  0.25958458928E-01 -0.19592130828E-02  0.24483739075E-01  0.35737005818E-01  0.00000000000E+00 0. -1.
  9000001    1    1    2    0    0 -0.25958458928E-01  0.19592130828E-02 -0.24483739075E-01  0.35750994182E-01  0.10000000475E-02 0.  1.
</event>
<event>
 4   0  0.2441219E-02  0.9118800E+02  0.7818609E-02  0.1379984E+01
      -11   -1    0    0    0    0  0.00000000000E+00  0.00000000000E+00  0.35740347158E-01  0.35744000000E-01  0.51099999109E-03 0.  1.
       11   -1    0    0    0    0 -0.00000000000E+00 -0.00000000000E+00 -0.35740347158E-01  0.35744000000E-01  0.51099999109E-03 0. -1.
       22    1    1    2    0    0  0.10585174333E-02  0.48103749611E-02  0.35395952007E-01  0.35737005818E-01  0.00000000000E+00 0.  1.
  9000001    1    1    2    0    0 -0.10585174333E-02 -0.48103749611E-02 -0.35395952007E-01  0.35750994182E-01  0.10000000475E-02 0. -1.
</event>
<event>
 4   0  0.2441219E-02  0.9118800E+02  0.7818609E-02  0.1379984E+01
      -11   -1    0    0    0    0  0.00000000000E+00  0.00000000000E+00  0.35740347158E-01  0.35744000000E-01  0.51099999109E-03 0. -1.
       11   -1    0    0    0    0 -0.00000000000E+00 -0.00000000000E+00 -0.35740347158E-01  0.35744000000E-01  0.51099999109E-03 0.  1.
       22    1    1    2    0    0 -0.10942390038E-01  0.18260377391E-02 -0.33971506757E-01  0.35737005818E-01  0.00000000000E+00 0.  1.
  9000001    1    1    2    0    0  0.10942390038E-01 -0.18260377391E-02  0.33971506757E-01  0.35750994182E-01  0.10000000475E-02 0. -1.
</event>
<event>
 4   0  0.2441219E-02  0.9118800E+02  0.7818609E-02  0.1379984E+01
      -11   -1    0    0    0    0  0.00000000000E+00  0.00000000000E+00  0.35740347158E-01  0.35744000000E-01  0.51099999109E-03 0. -1.
       11   -1    0    0    0    0 -0.00000000000E+00 -0.00000000000E+00 -0.35740347158E-01  0.35744000000E-01  0.51099999109E-03 0.  1.
       22    1    1    2    0    0 -0.19258631552E-03 -0.76736659851E-02 -0.34902884490E-01  0.35737005818E-01  0.00000000000E+00 0.  1.
  9000001    1    1    2    0    0  0.19258631552E-03  0.76736659851E-02  0.34902884490E-01  0.35750994182E-01  0.10000000475E-02 0. -1.
</event>
<event>
 4   0  0.2441219E-02  0.9118800E+02  0.7818609E-02  0.1379984E+01
      -11   -1    0    0    0    0  0.00000000000E+00  0.00000000000E+00  0.35740347158E-01  0.35744000000E-01  0.51099999109E-03 0.  1.
       11   -1    0    0    0    0 -0.00000000000E+00 -0.00000000000E+00 -0.35740347158E-01  0.35744000000E-01  0.51099999109E-03 0. -1.
       22    1    1    2    0    0 -0.86702135487E-02 -0.29546744244E-01 -0.18137003238E-01  0.35737005818E-01  0.00000000000E+00 0. -1.
  9000001    1    1    2    0    0  0.86702135487E-02  0.29546744244E-01  0.18137003238E-01  0.35750994182E-01  0.10000000475E-02 0.  1.
</event>
<event>
 4   0  0.2441219E-02  0.9118800E+02  0.7818609E-02  0.1379984E+01
      -11   -1    0    0    0    0  0.00000000000E+00  0.00000000000E+00  0.35740347158E-01  0.35744000000E-01  0.51099999109E-03 0.  1.
       11   -1    0    0    0    0 -0.00000000000E+00 -0.00000000000E+00 -0.35740347158E-01  0.35744000000E-01  0.51099999109E-03 0. -1.
       22    1    1    2    0    0  0.37627057262E-02 -0.20497564415E-01 -0.29031456793E-01  0.35737005818E-01  0.00000000000E+00 0. -1.
  9000001    1    1    2    0    0 -0.37627057262E-02  0.20497564415E-01  0.29031456793E-01  0.35750994182E-01  0.10000000475E-02 0.  1.
</event>
<event>
 4   0  0.2441219E-02  0.9118800E+02  0.7818609E-02  0.1379984E+01
      -11   -1    0    0    0    0  0.00000000000E+00  0.00000000000E+00  0.35740347158E-01  0.35744000000E-01  0.51099999109E-03 0. -1.
       11   -1    0    0    0    0 -0.00000000000E+00 -0.00000000000E+00 -0.35740347158E-01  0.35744000000E-01  0.51099999109E-03 0.  1.
       22    1    1    2    0    0 -0.35335177028E-02 -0.97089238311E-03 -0.35548631556E-01  0.35737005818E-01  0.00000000000E+00 0.  1.
  9000001    1    1    2    0    0  0.35335177028E-02  0.97089238311E-03  0.35548631556E-01  0.35750994182E-01  0.10000000475E-02 0. -1.
</event>
<event>
 4   0  0.2441219E-02  0.9118800E+02  0.7818609E-02  0.1379984E+01
      -11   -1    0    0    0    0  0.00000000000E+00  0.00000000000E+00  0.35740347158E-01  0.35744000000E-01  0.51099999109E-03 0.  1.
       11   -1    0    0    0    0 -0.00000000000E+00 -0.00000000000E+00 -0.35740347158E-01  0.35744000000E-01  0.51099999109E-03 0. -1.
       22    1    1    2    0    0 -0.15819614873E-02  0.62331324484E-02  0.35153649065E-01  0.35737005818E-01  0.00000000000E+00 0.  1.
  9000001    1    1    2    0    0  0.15819614873E-02 -0.62331324484E-02 -0.35153649065E-01  0.35750994182E-01  0.10000000475E-02 0. -1.
</event>
<event>
 4   0  0.2441219E-02  0.9118800E+02  0.7818609E-02  0.1379984E+01
      -11   -1    0    0    0    0  0.00000000000E+00  0.00000000000E+00  0.35740347158E-01  0.35744000000E-01  0.51099999109E-03 0. -1.
       11   -1    0    0    0    0 -0.00000000000E+00 -0.00000000000E+00 -0.35740347158E-01  0.35744000000E-01  0.51099999109E-03 0.  1.
       22    1    1    2    0    0  0.44997374384E-03  0.57077752720E-02 -0.35275379657E-01  0.35737005818E-01  0.00000000000E+00 0.  1.
  9000001    1    1    2    0    0 -0.44997374384E-03 -0.57077752720E-02  0.35275379657E-01  0.35750994182E-01  0.10000000475E-02 0. -1.
</event>
<event>
 4   0  0.2441219E-02  0.9118800E+02  0.7818609E-02  0.1379984E+01
      -11   -1    0    0    0    0  0.00000000000E+00  0.00000000000E+00  0.35740347158E-01  0.35744000000E-01  0.51099999109E-03 0. -1.
       11   -1    0    0    0    0 -0.00000000000E+00 -0.00000000000E+00 -0.35740347158E-01  0.35744000000E-01  0.51099999109E-03 0.  1.
       22    1    1    2    0    0 -0.15328379811E-01  0.25053661583E-01  0.20358988151E-01  0.35737005818E-01  0.00000000000E+00 0. -1.
  9000001    1    1    2    0    0  0.15328379811E-01 -0.25053661583E-01 -0.20358988151E-01  0.35750994182E-01  0.10000000475E-02 0.  1.
</event>
<event>
 4   0  0.2441219E-02  0.9118800E+02  0.7818609E-02  0.1379984E+01
      -11   -1    0    0    0    0  0.00000000000E+00  0.00000000000E+00  0.35740347158E-01  0.35744000000E-01  0.51099999109E-03 0.  1.
       11   -1    0    0    0    0 -0.00000000000E+00 -0.00000000000E+00 -0.35740347158E-01  0.35744000000E-01  0.51099999109E-03 0. -1.
       22    1    1    2    0    0  0.38361354182E-02 -0.27830186715E-04 -0.35530506264E-01  0.35737005818E-01  0.00000000000E+00 0. -1.
  9000001    1    1    2    0    0 -0.38361354182E-02  0.27830186715E-04  0.35530506264E-01  0.35750994182E-01  0.10000000475E-02 0.  1.
</event>
<event>
 4   0  0.2441219E-02  0.9118800E+02  0.7818609E-02  0.1379984E+01
      -11   -1    0    0    0    0  0.00000000000E+00  0.00000000000E+00  0.35740347158E-01  0.35744000000E-01  0.51099999109E-03 0. -1.
       11   -1    0    0    0    0 -0.00000000000E+00 -0.00000000000E+00 -0.35740347158E-01  0.35744000000E-01  0.51099999109E-03 0.  1.
       22    1    1    2    0    0 -0.42738101348E-02  0.67164299037E-02 -0.34839025548E-01  0.35737005818E-01  0.00000000000E+00 0.  1.
  9000001    1    1    2    0    0  0.42738101348E-02 -0.67164299037E-02  0.34839025548E-01  0.35750994182E-01  0.10000000475E-02 0. -1.
</event>
<event>
 4   0  0.2441219E-02  0.9118800E+02  0.7818609E-02  0.1379984E+01
      -11   -1    0    0    0    0  0.00000000000E+00  0.00000000000E+00  0.35740347158E-01  0.35744000000E-01  0.51099999109E-03 0. -1.
       11   -1    0    0    0    0 -0.00000000000E+00 -0.00000000000E+00 -0.35740347158E-01  0.35744000000E-01  0.51099999109E-03 0.  1.
       22    1    1    2    0    0 -0.61460290616E-04  0.10190282897E-01  0.34253290966E-01  0.35737005818E-01  0.00000000000E+00 0. -1.
  9000001    1    1    2    0    0  0.61460290616E-04 -0.10190282897E-01 -0.34253290966E-01  0.35750994182E-01  0.10000000475E-02 0.  1.
</event>
<event>
 4   0  0.2441219E-02  0.9118800E+02  0.7818609E-02  0.1379984E+01
      -11   -1    0    0    0    0  0.00000000000E+00  0.00000000000E+00  0.35740347158E-01  0.35744000000E-01  0.51099999109E-03 0. -1.
       11   -1    0    0    0    0 -0.00000000000E+00 -0.00000000000E+00 -0.35740347158E-01  0.35744000000E-01  0.51099999109E-03 0.  1.
       22    1    1    2    0    0  0.19168167704E-01  0.14058027936E-01  0.26684954230E-01  0.35737005818E-01  0.00000000000E+00 0. -1.
  9000001    1    1    2    0    0 -0.19168167704E-01 -0.14058027936E-01 -0.26684954230E-01  0.35750994182E-01  0.10000000475E-02 0.  1.
</event>
<event>
 4   0  0.2441219E-02  0.9118800E+02  0.7818609E-02  0.1379984E+01
      -11   -1    0    0    0    0  0.00000000000E+00  0.00000000000E+00  0.35740347158E-01  0.35744000000E-01  0.51099999109E-03 0.  1.
       11   -1    0    0    0    0 -0.00000000000E+00 -0.00000000000E+00 -0.35740347158E-01  0.35744000000E-01  0.51099999109E-03 0. -1.
       22    1    1    2    0    0  0.53351427640E-02 -0.50930272118E-02 -0.34967569409E-01  0.35737005818E-01  0.00000000000E+00 0. -1.
  9000001    1    1    2    0    0 -0.53351427640E-02  0.50930272118E-02  0.34967569409E-01  0.35750994182E-01  0.10000000475E-02 0.  1.
</event>
<event>
 4   0  0.2441219E-02  0.9118800E+02  0.7818609E-02  0.1379984E+01
      -11   -1    0    0    0    0  0.00000000000E+00  0.00000000000E+00  0.35740347158E-01  0.35744000000E-01  0.51099999109E-03 0. -1.
       11   -1    0    0    0    0 -0.00000000000E+00 -0.00000000000E+00 -0.35740347158E-01  0.35744000000E-01  0.51099999109E-03 0.  1.
       22    1    1    2    0    0  0.13359087409E-01 -0.13668115606E-01  0.30196870438E-01  0.35737005818E-01  0.00000000000E+00 0. -1.
  9000001    1    1    2    0    0 -0.13359087409E-01  0.13668115606E-01 -0.30196870438E-01  0.35750994182E-01  0.10000000475E-02 0.  1.
</event>
<event>
 4   0  0.2441219E-02  0.9118800E+02  0.7818609E-02  0.1379984E+01
      -11   -1    0    0    0    0  0.00000000000E+00  0.00000000000E+00  0.35740347158E-01  0.35744000000E-01  0.51099999109E-03 0. -1.
       11   -1    0    0    0    0 -0.00000000000E+00 -0.00000000000E+00 -0.35740347158E-01  0.35744000000E-01  0.51099999109E-03 0.  1.
       22    1    1    2    0    0 -0.95602007408E-03 -0.13149187906E-01  0.33216238015E-01  0.35737005818E-01  0.00000000000E+00 0. -1.
  9000001    1    1    2    0    0  0.95602007408E-03  0.13149187906E-01 -0.33216238015E-01  0.35750994182E-01  0.10000000475E-02 0.  1.
</event>
<event>
 4   0  0.2441219E-02  0.9118800E+02  0.7818609E-02  0.1379984E+01
      -11   -1    0    0    0    0  0.00000000000E+00  0.00000000000E+00  0.35740347158E-01  0.35744000000E-01  0.51099999109E-03 0.  1.
       11   -1    0    0    0    0 -0.00000000000E+00 -0.00000000000E+00 -0.35740347158E-01  0.35744000000E-01  0.51099999109E-03 0. -1.
       22    1    1    2    0    0  0.16323512311E-02 -0.75178636281E-02  0.34899151004E-01  0.35737005818E-01  0.00000000000E+00 0.  1.
  9000001    1    1    2    0    0 -0.16323512311E-02  0.75178636281E-02 -0.34899151004E-01  0.35750994182E-01  0.10000000475E-02 0. -1.
</event>
<event>
 4   0  0.2441219E-02  0.9118800E+02  0.7818609E-02  0.1379984E+01
      -11   -1    0    0    0    0  0.00000000000E+00  0.00000000000E+00  0.35740347158E-01  0.35744000000E-01  0.51099999109E-03 0.  1.
       11   -1    0    0    0    0 -0.00000000000E+00 -0.00000000000E+00 -0.35740347158E-01  0.35744000000E-01  0.51099999109E-03 0. -1.
       22    1    1    2    0    0 -0.45068037584E-02  0.34640945822E-01  0.75383802830E-02  0.35737005818E-01  0.00000000000E+00 0.  1.
  9000001    1    1    2    0    0  0.45068037584E-02 -0.34640945822E-01 -0.75383802830E-02  0.35750994182E-01  0.10000000475E-02 0. -1.
</event>
<event>
 4   0  0.2441219E-02  0.9118800E+02  0.7818609E-02  0.1379984E+01
      -11   -1    0    0    0    0  0.00000000000E+00  0.00000000000E+00  0.35740347158E-01  0.35744000000E-01  0.51099999109E-03 0.  1.
       11   -1    0    0    0    0 -0.00000000000E+00 -0.00000000000E+00 -0.35740347158E-01  0.35744000000E-01  0.51099999109E-03 0. -1.
       22    1    1    2    0    0  0.67379599248E-02  0.19014085652E-01  0.29499119101E-01  0.35737005818E-01  0.00000000000E+00 0.  1.
  9000001    1    1    2    0    0 -0.67379599248E-02 -0.19014085652E-01 -0.29499119101E-01  0.35750994182E-01  0.10000000475E-02 0. -1.
</event>
<event>
 4   0  0.2441219E-02  0.9118800E+02  0.7818609E-02  0.1379984E+01
      -11   -1    0    0    0    0  0.00000000000E+00  0.00000000000E+00  0.35740347158E-01  0.35744000000E-01  0.51099999109E-03 0.  1.
       11   -1    0    0    0    0 -0.00000000000E+00 -0.00000000000E+00 -0.35740347158E-01  0.35744000000E-01  0.51099999109E-03 0. -1.
       22    1    1    2    0    0 -0.13043486687E-01 -0.32345298034E-01  0.77963283015E-02  0.35737005818E-01  0.00000000000E+00 0.  1.
  9000001    1    1    2    0    0  0.13043486687E-01  0.32345298034E-01 -0.77963283015E-02  0.35750994182E-01  0.10000000475E-02 0. -1.
</event>
<event>
 4   0  0.2441219E-02  0.9118800E+02  0.7818609E-02  0.1379984E+01
      -11   -1    0    0    0    0  0.00000000000E+00  0.00000000000E+00  0.35740347158E-01  0.35744000000E-01  0.51099999109E-03 0. -1.
       11   -1    0    0    0    0 -0.00000000000E+00 -0.00000000000E+00 -0.35740347158E-01  0.35744000000E-01  0.51099999109E-03 0.  1.
       22    1    1    2    0    0  0.10586417265E-01  0.13747354233E-01 -0.31242144708E-01  0.35737005818E-01  0.00000000000E+00 0.  1.
  9000001    1    1    2    0    0 -0.10586417265E-01 -0.13747354233E-01  0.31242144708E-01  0.35750994182E-01  0.10000000475E-02 0. -1.
</event>
<event>
 4   0  0.2441219E-02  0.9118800E+02  0.7818609E-02  0.1379984E+01
      -11   -1    0    0    0    0  0.00000000000E+00  0.00000000000E+00  0.35740347158E-01  0.35744000000E-01  0.51099999109E-03 0.  1.
       11   -1    0    0    0    0 -0.00000000000E+00 -0.00000000000E+00 -0.35740347158E-01  0.35744000000E-01  0.51099999109E-03 0. -1.
       22    1    1    2    0    0 -0.80619681594E-02  0.91850754413E-02  0.33582326355E-01  0.35737005818E-01  0.00000000000E+00 0.  1.
  9000001    1    1    2    0    0  0.80619681594E-02 -0.91850754413E-02 -0.33582326355E-01  0.35750994182E-01  0.10000000475E-02 0. -1.
</event>
<event>
 4   0  0.2441219E-02  0.9118800E+02  0.7818609E-02  0.1379984E+01
      -11   -1    0    0    0    0  0.00000000000E+00  0.00000000000E+00  0.35740347158E-01  0.35744000000E-01  0.51099999109E-03 0.  1.
       11   -1    0    0    0    0 -0.00000000000E+00 -0.00000000000E+00 -0.35740347158E-01  0.35744000000E-01  0.51099999109E-03 0. -1.
       22    1    1    2    0    0  0.85343208546E-02 -0.13552473098E-01  0.31947291362E-01  0.35737005818E-01  0.00000000000E+00 0.  1.
  9000001    1    1    2    0    0 -0.85343208546E-02  0.13552473098E-01 -0.31947291362E-01  0.35750994182E-01  0.10000000475E-02 0. -1.
</event>
<event>
 4   0  0.2441219E-02  0.9118800E+02  0.7818609E-02  0.1379984E+01
      -11   -1    0    0    0    0  0.00000000000E+00  0.00000000000E+00  0.35740347158E-01  0.35744000000E-01  0.51099999109E-03 0.  1.
       11   -1    0    0    0    0 -0.00000000000E+00 -0.00000000000E+00 -0.35740347158E-01  0.35744000000E-01  0.51099999109E-03 0. -1.
       22    1    1    2    0    0  0.13173123532E-02 -0.87557350947E-02 -0.34622758064E-01  0.35737005818E-01  0.00000000000E+00 0. -1.
  9000001    1    1    2    0    0 -0.13173123532E-02  0.87557350947E-02  0.34622758064E-01  0.35750994182E-01  0.10000000475E-02 0.  1.
</event>
<event>
 4   0  0.2441219E-02  0.9118800E+02  0.7818609E-02  0.1379984E+01
      -11   -1    0    0    0    0  0.00000000000E+00  0.00000000000E+00  0.35740347158E-01  0.35744000000E-01  0.51099999109E-03 0.  1.
       11   -1    0    0    0    0 -0.00000000000E+00 -0.00000000000E+00 -0.35740347158E-01  0.35744000000E-01  0.51099999109E-03 0. -1.
       22    1    1    2    0    0  0.11369850715E-01  0.32873969599E-02  0.33720217983E-01  0.35737005818E-01  0.00000000000E+00 0.  1.
  9000001    1    1    2    0    0 -0.11369850715E-01 -0.32873969599E-02 -0.33720217983E-01  0.35750994182E-01  0.10000000475E-02 0. -1.
</event>
<event>
 4   0  0.2441219E-02  0.9118800E+02  0.7818609E-02  0.1379984E+01
      -11   -1    0    0    0    0  0.00000000000E+00  0.00000000000E+00  0.35740347158E-01  0.35744000000E-01  0.51099999109E-03 0.  1.
       11   -1    0    0    0    0 -0.00000000000E+00 -0.00000000000E+00 -0.35740347158E-01  0.35744000000E-01  0.51099999109E-03 0. -1.
       22    1    1    2    0    0  0.17079719911E-02  0.61846848625E-02  0.35156309387E-01  0.35737005818E-01  0.00000000000E+00 0.  1.
  9000001    1    1    2    0    0 -0.17079719911E-02 -0.61846848625E-02 -0.35156309387E-01  0.35750994182E-01  0.10000000475E-02 0. -1.
</event>
<event>
 4   0  0.2441219E-02  0.9118800E+02  0.7818609E-02  0.1379984E+01
      -11   -1    0    0    0    0  0.00000000000E+00  0.00000000000E+00  0.35740347158E-01  0.35744000000E-01  0.51099999109E-03 0. -1.
       11   -1    0    0    0    0 -0.00000000000E+00 -0.00000000000E+00 -0.35740347158E-01  0.35744000000E-01  0.51099999109E-03 0.  1.
       22    1    1    2    0    0 -0.35074174678E-01  0.48688993099E-02  0.48197173166E-02  0.35737005818E-01  0.00000000000E+00 0.  1.
  9000001    1    1    2    0    0  0.35074174678E-01 -0.48688993099E-02 -0.48197173166E-02  0.35750994182E-01  0.10000000475E-02 0. -1.
</event>
<event>
 4   0  0.2441219E-02  0.9118800E+02  0.7818609E-02  0.1379984E+01
      -11   -1    0    0    0    0  0.00000000000E+00  0.00000000000E+00  0.35740347158E-01  0.35744000000E-01  0.51099999109E-03 0. -1.
       11   -1    0    0    0    0 -0.00000000000E+00 -0.00000000000E+00 -0.35740347158E-01  0.35744000000E-01  0.51099999109E-03 0.  1.
       22    1    1    2    0    0 -0.71719564688E-02  0.14913776245E-01 -0.31674530832E-01  0.35737005818E-01  0.00000000000E+00 0.  1.
  9000001    1    1    2    0    0  0.71719564688E-02 -0.14913776245E-01  0.31674530832E-01  0.35750994182E-01  0.10000000475E-02 0. -1.
</event>
<event>
 4   0  0.2441219E-02  0.9118800E+02  0.7818609E-02  0.1379984E+01
      -11   -1    0    0    0    0  0.00000000000E+00  0.00000000000E+00  0.35740347158E-01  0.35744000000E-01  0.51099999109E-03 0.  1.
       11   -1    0    0    0    0 -0.00000000000E+00 -0.00000000000E+00 -0.35740347158E-01  0.35744000000E-01  0.51099999109E-03 0. -1.
       22    1    1    2    0    0  0.33368687136E-02  0.81308030503E-03 -0.35571586870E-01  0.35737005818E-01  0.00000000000E+00 0. -1.
  9000001    1    1    2    0    0 -0.33368687136E-02 -0.81308030503E-03  0.35571586870E-01  0.35750994182E-01  0.10000000475E-02 0.  1.
</event>
<event>
 4   0  0.2441219E-02  0.9118800E+02  0.7818609E-02  0.1379984E+01
      -11   -1    0    0    0    0  0.00000000000E+00  0.00000000000E+00  0.35740347158E-01  0.35744000000E-01  0.51099999109E-03 0.  1.
       11   -1    0    0    0    0 -0.00000000000E+00 -0.00000000000E+00 -0.35740347158E-01  0.35744000000E-01  0.51099999109E-03 0. -1.
       22    1    1    2    0    0  0.15398866926E-02 -0.13149501051E-01 -0.33194170512E-01  0.35737005818E-01  0.00000000000E+00 0. -1.
  9000001    1    1    2    0    0 -0.15398866926E-02  0.13149501051E-01  0.33194170512E-01  0.35750994182E-01  0.10000000475E-02 0.  1.
</event>
<event>
 4   0  0.2441219E-02  0.9118800E+02  0.7818609E-02  0.1379984E+01
      -11   -1    0    0    0    0  0.00000000000E+00  0.00000000000E+00  0.35740347158E-01  0.35744000000E-01  0.51099999109E-03 0.  1.
       11   -1    0    0    0    0 -0.00000000000E+00 -0.00000000000E+00 -0.35740347158E-01  0.35744000000E-01  0.51099999109E-03 0. -1.
       22    1    1    2    0    0 -0.22369679700E-01  0.13120188338E-02  0.27838994622E-01  0.35737005818E-01  0.00000000000E+00 0.  1.
  9000001    1    1    2    0    0  0.22369679700E-01 -0.13120188338E-02 -0.27838994622E-01  0.35750994182E-01  0.10000000475E-02 0. -1.
</event>
<event>
 4   0  0.2441219E-02  0.9118800E+02  0.7818609E-02  0.1379984E+01
      -11   -1    0    0    0    0  0.00000000000E+00  0.00000000000E+00  0.35740347158E-01  0.35744000000E-01  0.51099999109E-03 0.  1.
       11   -1    0    0    0    0 -0.00000000000E+00 -0.00000000000E+00 -0.35740347158E-01  0.35744000000E-01  0.51099999109E-03 0. -1.
       22    1    1    2    0    0  0.79905068510E-02 -0.31005888102E-02  0.34693972591E-01  0.35737005818E-01  0.00000000000E+00 0.  1.
  9000001    1    1    2    0    0 -0.79905068510E-02  0.31005888102E-02 -0.34693972591E-01  0.35750994182E-01  0.10000000475E-02 0. -1.
</event>
<event>
 4   0  0.2441219E-02  0.9118800E+02  0.7818609E-02  0.1379984E+01
      -11   -1    0    0    0    0  0.00000000000E+00  0.00000000000E+00  0.35740347158E-01  0.35744000000E-01  0.51099999109E-03 0. -1.
       11   -1    0    0    0    0 -0.00000000000E+00 -0.00000000000E+00 -0.35740347158E-01  0.35744000000E-01  0.51099999109E-03 0.  1.
       22    1    1    2    0    0 -0.10633668459E-01  0.94764257192E-02  0.32775845307E-01  0.35737005818E-01  0.00000000000E+00 0. -1.
  9000001    1    1    2    0    0  0.10633668459E-01 -0.94764257192E-02 -0.32775845307E-01  0.35750994182E-01  0.10000000475E-02 0.  1.
</event>
<event>
 4   0  0.2441219E-02  0.9118800E+02  0.7818609E-02  0.1379984E+01
      -11   -1    0    0    0    0  0.00000000000E+00  0.00000000000E+00  0.35740347158E-01  0.35744000000E-01  0.51099999109E-03 0.  1.
       11   -1    0    0    0    0 -0.00000000000E+00 -0.00000000000E+00 -0.35740347158E-01  0.35744000000E-01  0.51099999109E-03 0. -1.
       22    1    1    2    0    0  0.40643319395E-02 -0.27723152784E-02  0.35396737968E-01  0.35737005818E-01  0.00000000000E+00 0.  1.
  9000001    1    1    2    0    0 -0.40643319395E-02  0.27723152784E-02 -0.35396737968E-01  0.35750994182E-01  0.10000000475E-02 0. -1.
</event>
<event>
 4   0  0.2441219E-02  0.9118800E+02  0.7818609E-02  0.1379984E+01
      -11   -1    0    0    0    0  0.00000000000E+00  0.00000000000E+00  0.35740347158E-01  0.35744000000E-01  0.51099999109E-03 0.  1.
       11   -1    0    0    0    0 -0.00000000000E+00 -0.00000000000E+00 -0.35740347158E-01  0.35744000000E-01  0.51099999109E-03 0. -1.
       22    1    1    2    0    0 -0.24853687875E-02  0.20802803210E-02 -0.35589731112E-01  0.35737005818E-01  0.00000000000E+00 0. -1.
  9000001    1    1    2    0    0  0.24853687875E-02 -0.20802803210E-02  0.35589731112E-01  0.35750994182E-01  0.10000000475E-02 0.  1.
</event>
<event>
 4   0  0.2441219E-02  0.9118800E+02  0.7818609E-02  0.1379984E+01
      -11   -1    0    0    0    0  0.00000000000E+00  0.00000000000E+00  0.35740347158E-01  0.35744000000E-01  0.51099999109E-03 0. -1.
       11   -1    0    0    0    0 -0.00000000000E+00 -0.00000000000E+00 -0.35740347158E-01  0.35744000000E-01  0.51099999109E-03 0.  1.
       22    1    1    2    0    0 -0.93993512824E-02 -0.10120673899E-01 -0.32959941447E-01  0.35737005818E-01  0.00000000000E+00 0.  1.
  9000001    1    1    2    0    0  0.93993512824E-02  0.10120673899E-01  0.32959941447E-01  0.35750994182E-01  0.10000000475E-02 0. -1.
</event>
<event>
 4   0  0.2441219E-02  0.9118800E+02  0.7818609E-02  0.1379984E+01
      -11   -1    0    0    0    0  0.00000000000E+00  0.00000000000E+00  0.35740347158E-01  0.35744000000E-01  0.51099999109E-03 0. -1.
       11   -1    0    0    0    0 -0.00000000000E+00 -0.00000000000E+00 -0.35740347158E-01  0.35744000000E-01  0.51099999109E-03 0.  1.
       22    1    1    2    0    0 -0.87566338287E-02  0.16240415462E-01 -0.30605618021E-01  0.35737005818E-01  0.00000000000E+00 0.  1.
  9000001    1    1    2    0    0  0.87566338287E-02 -0.16240415462E-01  0.30605618021E-01  0.35750994182E-01  0.10000000475E-02 0. -1.
</event>
<event>
 4   0  0.2441219E-02  0.9118800E+02  0.7818609E-02  0.1379984E+01
      -11   -1    0    0    0    0  0.00000000000E+00  0.00000000000E+00  0.35740347158E-01  0.35744000000E-01  0.51099999109E-03 0. -1.
       11   -1    0    0    0    0 -0.00000000000E+00 -0.00000000000E+00 -0.35740347158E-01  0.35744000000E-01  0.51099999109E-03 0.  1.
       22    1    1    2    0    0  0.12577497153E-01 -0.31687979041E-01 -0.10715042441E-01  0.35737005818E-01  0.00000000000E+00 0.  1.
  9000001    1    1    2    0    0 -0.12577497153E-01  0.31687979041E-01  0.10715042441E-01  0.35750994182E-01  0.10000000475E-02 0. -1.
</event>
<event>
 4   0  0.2441219E-02  0.9118800E+02  0.7818609E-02  0.1379984E+01
      -11   -1    0    0    0    0  0.00000000000E+00  0.00000000000E+00  0.35740347158E-01  0.35744000000E-01  0.51099999109E-03 0. -1.
       11   -1    0    0    0    0 -0.00000000000E+00 -0.00000000000E+00 -0.35740347158E-01  0.35744000000E-01  0.51099999109E-03 0.  1.
       22    1    1    2    0    0  0.27229088131E-02  0.18075859102E-02 -0.35587244704E-01  0.35737005818E-01  0.00000000000E+00 0.  1.
  9000001    1    1    2    0    0 -0.27229088131E-02 -0.18075859102E-02  0.35587244704E-01  0.35750994182E-01  0.10000000475E-02 0. -1.
</event>
<event>
 4   0  0.2441219E-02  0.9118800E+02  0.7818609E-02  0.1379984E+01
      -11   -1    0    0    0    0  0.00000000000E+00  0.00000000000E+00  0.35740347158E-01  0.35744000000E-01  0.51099999109E-03 0. -1.
       11   -1    0    0    0    0 -0.00000000000E+00 -0.00000000000E+00 -0.35740347158E-01  0.35744000000E-01  0.51099999109E-03 0.  1.
       22    1    1    2    0    0 -0.24233839232E-01 -0.23594895468E-01 -0.11538437016E-01  0.35737005818E-01  0.00000000000E+00 0.  1.
  9000001    1    1    2    0    0  0.24233839232E-01  0.23594895468E-01  0.11538437016E-01  0.35750994182E-01  0.10000000475E-02 0. -1.
</event>
<event>
 4   0  0.2441219E-02  0.9118800E+02  0.7818609E-02  0.1379984E+01
      -11   -1    0    0    0    0  0.00000000000E+00  0.00000000000E+00  0.35740347158E-01  0.35744000000E-01  0.51099999109E-03 0.  1.
       11   -1    0    0    0    0 -0.00000000000E+00 -0.00000000000E+00 -0.35740347158E-01  0.35744000000E-01  0.51099999109E-03 0. -1.
       22    1    1    2    0    0  0.51919381541E-02 -0.14037500623E-01  0.32451901937E-01  0.35737005818E-01  0.00000000000E+00 0.  1.
  9000001    1    1    2    0    0 -0.51919381541E-02  0.14037500623E-01 -0.32451901937E-01  0.35750994182E-01  0.10000000475E-02 0. -1.
</event>
<event>
 4   0  0.2441219E-02  0.9118800E+02  0.7818609E-02  0.1379984E+01
      -11   -1    0    0    0    0  0.00000000000E+00  0.00000000000E+00  0.35740347158E-01  0.35744000000E-01  0.51099999109E-03 0.  1.
       11   -1    0    0    0    0 -0.00000000000E+00 -0.00000000000E+00 -0.35740347158E-01  0.35744000000E-01  0.51099999109E-03 0. -1.
       22    1    1    2    0    0 -0.15062547759E-01 -0.17924423357E-01 -0.26999412719E-01  0.35737005818E-01  0.00000000000E+00 0. -1.
  9000001    1    1    2    0    0  0.15062547759E-01  0.17924423357E-01  0.26999412719E-01  0.35750994182E-01  0.10000000475E-02 0.  1.
</event>
<event>
 4   0  0.2441219E-02  0.9118800E+02  0.7818609E-02  0.1379984E+01
      -11   -1    0    0    0    0  0.00000000000E+00  0.00000000000E+00  0.35740347158E-01  0.35744000000E-01  0.51099999109E-03 0.  1.
       11   -1    0    0    0    0 -0.00000000000E+00 -0.00000000000E+00 -0.35740347158E-01  0.35744000000E-01  0.51099999109E-03 0. -1.
       22    1    1    2    0    0  0.23654799556E-01  0.25552731475E-01  0.80400222017E-02  0.35737005818E-01  0.00000000000E+00 0.  1.
  9000001    1    1    2    0    0 -0.23654799556E-01 -0.25552731475E-01 -0.80400222017E-02  0.35750994182E-01  0.10000000475E-02 0. -1.
</event>
<event>
 4   0  0.2441219E-02  0.9118800E+02  0.7818609E-02  0.1379984E+01
      -11   -1    0    0    0    0  0.00000000000E+00  0.00000000000E+00  0.35740347158E-01  0.35744000000E-01  0.51099999109E-03 0. -1.
       11   -1    0    0    0    0 -0.00000000000E+00 -0.00000000000E+00 -0.35740347158E-01  0.35744000000E-01  0.51099999109E-03 0.  1.
       22    1    1    2    0    0  0.27167053782E-01 -0.14245092515E-01 -0.18334724239E-01  0.35737005818E-01  0.00000000000E+00 0.  1.
  9000001    1    1    2    0    0 -0.27167053782E-01  0.14245092515E-01  0.18334724239E-01  0.35750994182E-01  0.10000000475E-02 0. -1.
</event>
<event>
 4   0  0.2441219E-02  0.9118800E+02  0.7818609E-02  0.1379984E+01
      -11   -1    0    0    0    0  0.00000000000E+00  0.00000000000E+00  0.35740347158E-01  0.35744000000E-01  0.51099999109E-03 0. -1.
       11   -1    0    0    0    0 -0.00000000000E+00 -0.00000000000E+00 -0.35740347158E-01  0.35744000000E-01  0.51099999109E-03 0.  1.
       22    1    1    2    0    0 -0.54165716536E-03  0.36898924522E-02 -0.35541875106E-01  0.35737005818E-01  0.00000000000E+00 0.  1.
  9000001    1    1    2    0    0  0.54165716536E-03 -0.36898924522E-02  0.35541875106E-01  0.35750994182E-01  0.10000000475E-02 0. -1.
</event>
<event>
 4   0  0.2441219E-02  0.9118800E+02  0.7818609E-02  0.1379984E+01
      -11   -1    0    0    0    0  0.00000000000E+00  0.00000000000E+00  0.35740347158E-01  0.35744000000E-01  0.51099999109E-03 0.  1.
       11   -1    0    0    0    0 -0.00000000000E+00 -0.00000000000E+00 -0.35740347158E-01  0.35744000000E-01  0.51099999109E-03 0. -1.
       22    1    1    2    0    0  0.75886386701E-02 -0.56746749913E-02 -0.34457861393E-01  0.35737005818E-01  0.00000000000E+00 0. -1.
  9000001    1    1    2    0    0 -0.75886386701E-02  0.56746749913E-02  0.34457861393E-01  0.35750994182E-01  0.10000000475E-02 0.  1.
</event>
<event>
 4   0  0.2441219E-02  0.9118800E+02  0.7818609E-02  0.1379984E+01
      -11   -1    0    0    0    0  0.00000000000E+00  0.00000000000E+00  0.35740347158E-01  0.35744000000E-01  0.51099999109E-03 0.  1.
       11   -1    0    0    0    0 -0.00000000000E+00 -0.00000000000E+00 -0.35740347158E-01  0.35744000000E-01  0.51099999109E-03 0. -1.
       22    1    1    2    0    0 -0.31542015048E-01 -0.40058569427E-02  0.16315268363E-01  0.35737005818E-01  0.00000000000E+00 0.  1.
  9000001    1    1    2    0    0  0.31542015048E-01  0.40058569427E-02 -0.16315268363E-01  0.35750994182E-01  0.10000000475E-02 0. -1.
</event>
<event>
 4   0  0.2441219E-02  0.9118800E+02  0.7818609E-02  0.1379984E+01
      -11   -1    0    0    0    0  0.00000000000E+00  0.00000000000E+00  0.35740347158E-01  0.35744000000E-01  0.51099999109E-03 0.  1.
       11   -1    0    0    0    0 -0.00000000000E+00 -0.00000000000E+00 -0.35740347158E-01  0.35744000000E-01  0.51099999109E-03 0. -1.
       22    1    1    2    0    0 -0.41144944442E-02 -0.35370957051E-02  0.35322704799E-01  0.35737005818E-01  0.00000000000E+00 0.  1.
  9000001    1    1    2    0    0  0.41144944442E-02  0.35370957051E-02 -0.35322704799E-01  0.35750994182E-01  0.10000000475E-02 0. -1.
</event>
<event>
 4   0  0.2441219E-02  0.9118800E+02  0.7818609E-02  0.1379984E+01
      -11   -1    0    0    0    0  0.00000000000E+00  0.00000000000E+00  0.35740347158E-01  0.35744000000E-01  0.51099999109E-03 0. -1.
       11   -1    0    0    0    0 -0.00000000000E+00 -0.00000000000E+00 -0.35740347158E-01  0.35744000000E-01  0.51099999109E-03 0.  1.
       22    1    1    2    0    0 -0.30476045836E-01  0.18065921793E-01 -0.46868630063E-02  0.35737005818E-01  0.00000000000E+00 0.  1.
  9000001    1    1    2    0    0  0.30476045836E-01 -0.18065921793E-01  0.46868630063E-02  0.35750994182E-01  0.10000000475E-02 0. -1.
</event>
<event>
 4   0  0.2441219E-02  0.9118800E+02  0.7818609E-02  0.1379984E+01
      -11   -1    0    0    0    0  0.00000000000E+00  0.00000000000E+00  0.35740347158E-01  0.35744000000E-01  0.51099999109E-03 0.  1.
       11   -1    0    0    0    0 -0.00000000000E+00 -0.00000000000E+00 -0.35740347158E-01  0.35744000000E-01  0.51099999109E-03 0. -1.
       22    1    1    2    0    0  0.26758417631E-01 -0.20581920204E-01  0.11726262468E-01  0.35737005818E-01  0.00000000000E+00 0. -1.
  9000001    1    1    2    0    0 -0.26758417631E-01  0.20581920204E-01 -0.11726262468E-01  0.35750994182E-01  0.10000000475E-02 0.  1.
</event>
<event>
 4   0  0.2441219E-02  0.9118800E+02  0.7818609E-02  0.1379984E+01
      -11   -1    0    0    0    0  0.00000000000E+00  0.00000000000E+00  0.35740347158E-01  0.35744000000E-01  0.51099999109E-03 0.  1.
       11   -1    0    0    0    0 -0.00000000000E+00 -0.00000000000E+00 -0.35740347158E-01  0.35744000000E-01  0.51099999109E-03 0. -1.
       22    1    1    2    0    0 -0.71219456663E-02  0.15794985579E-02  0.34984520278E-01  0.35737005818E-01  0.00000000000E+00 0.  1.
  9000001    1    1    2    0    0  0.71219456663E-02 -0.15794985579E-02 -0.34984520278E-01  0.35750994182E-01  0.10000000475E-02 0. -1.
</event>
<event>
 4   0  0.2441219E-02  0.9118800E+02  0.7818609E-02  0.1379984E+01
      -11   -1    0    0    0    0  0.00000000000E+00  0.00000000000E+00  0.35740347158E-01  0.35744000000E-01  0.51099999109E-03 0. -1.
       11   -1    0    0    0    0 -0.00000000000E+00 -0.00000000000E+00 -0.35740347158E-01  0.35744000000E-01  0.51099999109E-03 0.  1.
       22    1    1    2    0    0  0.12486521724E-01  0.11350890493E-01  0.31502026048E-01  0.35737005818E-01  0.00000000000E+00 0. -1.
  9000001    1    1    2    0    0 -0.12486521724E-01 -0.11350890493E-01 -0.31502026048E-01  0.35750994182E-01  0.10000000475E-02 0.  1.
</event>
<event>
 4   0  0.2441219E-02  0.9118800E+02  0.7818609E-02  0.1379984E+01
      -11   -1    0    0    0    0  0.00000000000E+00  0.00000000000E+00  0.35740347158E-01  0.35744000000E-01  0.51099999109E-03 0.  1.
       11   -1    0    0    0    0 -0.00000000000E+00 -0.00000000000E+00 -0.35740347158E-01  0.35744000000E-01  0.51099999109E-03 0. -1.
       22    1    1    2    0    0 -0.12006764511E-01  0.81972799170E-04 -0.33659537598E-01  0.35737005818E-01  0.00000000000E+00 0. -1.
  9000001    1    1    2    0    0  0.12006764511E-01 -0.81972799170E-04  0.33659537598E-01  0.35750994182E-01  0.10000000475E-02 0.  1.
</event>
<event>
 4   0  0.2441219E-02  0.9118800E+02  0.7818609E-02  0.1379984E+01
      -11   -1    0    0    0    0  0.00000000000E+00  0.00000000000E+00  0.35740347158E-01  0.35744000000E-01  0.51099999109E-03 0. -1.
       11   -1    0    0    0    0 -0.00000000000E+00 -0.00000000000E+00 -0.35740347158E-01  0.35744000000E-01  0.51099999109E-03 0.  1.
       22    1    1    2    0    0 -0.33639265093E-01  0.96854485437E-02  0.71920452827E-02  0.35737005818E-01  0.00000000000E+00 0. -1.
  9000001    1    1    2    0    0  0.33639265093E-01 -0.96854485437E-02 -0.71920452827E-02  0.35750994182E-01  0.10000000475E-02 0.  1.
</event>
<event>
 4   0  0.2441219E-02  0.9118800E+02  0.7818609E-02  0.1379984E+01
      -11   -1    0    0    0    0  0.00000000000E+00  0.00000000000E+00  0.35740347158E-01  0.35744000000E-01  0.51099999109E-03 0.  1.
       11   -1    0    0    0    0 -0.00000000000E+00 -0.00000000000E+00 -0.35740347158E-01  0.35744000000E-01  0.51099999109E-03 0. -1.
       22    1    1    2    0    0  0.14352664976E-01 -0.83011029462E-02 -0.31657957654E-01  0.35737005818E-01  0.00000000000E+00 0. -1.
  9000001    1    1    2    0    0 -0.14352664976E-01  0.83011029462E-02  0.31657957654E-01  0.35750994182E-01  0.10000000475E-02 0.  1.
</event>
<event>
 4   0  0.2441219E-02  0.9118800E+02  0.7818609E-02  0.1379984E+01
      -11   -1    0    0    0    0  0.00000000000E+00  0.00000000000E+00  0.35740347158E-01  0.35744000000E-01  0.51099999109E-03 0.  1.
       11   -1    0    0    0    0 -0.00000000000E+00 -0.00000000000E+00 -0.35740347158E-01  0.35744000000E-01  0.51099999109E-03 0. -1.
       22    1    1    2    0    0  0.12980903513E-01  0.21631375634E-01 -0.25312315521E-01  0.35737005818E-01  0.00000000000E+00 0. -1.
  9000001    1    1    2    0    0 -0.12980903513E-01 -0.21631375634E-01  0.25312315521E-01  0.35750994182E-01  0.10000000475E-02 0.  1.
</event>
<event>
 4   0  0.2441219E-02  0.9118800E+02  0.7818609E-02  0.1379984E+01
      -11   -1    0    0    0    0  0.00000000000E+00  0.00000000000E+00  0.35740347158E-01  0.35744000000E-01  0.51099999109E-03 0.  1.
       11   -1    0    0    0    0 -0.00000000000E+00 -0.00000000000E+00 -0.35740347158E-01  0.35744000000E-01  0.51099999109E-03 0. -1.
       22    1    1    2    0    0 -0.16242717877E-02 -0.21553479443E-01  0.28459494900E-01  0.35737005818E-01  0.00000000000E+00 0.  1.
  9000001    1    1    2    0    0  0.16242717877E-02  0.21553479443E-01 -0.28459494900E-01  0.35750994182E-01  0.10000000475E-02 0. -1.
</event>
<event>
 4   0  0.2441219E-02  0.9118800E+02  0.7818609E-02  0.1379984E+01
      -11   -1    0    0    0    0  0.00000000000E+00  0.00000000000E+00  0.35740347158E-01  0.35744000000E-01  0.51099999109E-03 0.  1.
       11   -1    0    0    0    0 -0.00000000000E+00 -0.00000000000E+00 -0.35740347158E-01  0.35744000000E-01  0.51099999109E-03 0. -1.
       22    1    1    2    0    0 -0.87604354937E-02 -0.16422208672E-01 -0.30507366605E-01  0.35737005818E-01  0.00000000000E+00 0. -1.
  9000001    1    1    2    0    0  0.87604354937E-02  0.16422208672E-01  0.30507366605E-01  0.35750994182E-01  0.10000000475E-02 0.  1.
</event>
<event>
 4   0  0.2441219E-02  0.9118800E+02  0.7818609E-02  0.1379984E+01
      -11   -1    0    0    0    0  0.00000000000E+00  0.00000000000E+00  0.35740347158E-01  0.35744000000E-01  0.51099999109E-03 0.  1.
       11   -1    0    0    0    0 -0.00000000000E+00 -0.00000000000E+00 -0.35740347158E-01  0.35744000000E-01  0.51099999109E-03 0. -1.
       22    1    1    2    0    0  0.43796725737E-02 -0.47638611710E-02 -0.35146232796E-01  0.35737005818E-01  0.00000000000E+00 0. -1.
  9000001    1    1    2    0    0 -0.43796725737E-02  0.47638611710E-02  0.35146232796E-01  0.35750994182E-01  0.10000000475E-02 0.  1.
</event>
<event>
 4   0  0.2441219E-02  0.9118800E+02  0.7818609E-02  0.1379984E+01
      -11   -1    0    0    0    0  0.00000000000E+00  0.00000000000E+00  0.35740347158E-01  0.35744000000E-01  0.51099999109E-03 0. -1.
       11   -1    0    0    0    0 -0.00000000000E+00 -0.00000000000E+00 -0.35740347158E-01  0.35744000000E-01  0.51099999109E-03 0.  1.
       22    1    1    2    0    0  0.94985518215E-02  0.20735626375E-01 -0.27512631590E-01  0.35737005818E-01  0.00000000000E+00 0.  1.
  9000001    1    1    2    0    0 -0.94985518215E-02 -0.20735626375E-01  0.27512631590E-01  0.35750994182E-01  0.10000000475E-02 0. -1.
</event>
<event>
 4   0  0.2441219E-02  0.9118800E+02  0.7818609E-02  0.1379984E+01
      -11   -1    0    0    0    0  0.00000000000E+00  0.00000000000E+00  0.35740347158E-01  0.35744000000E-01  0.51099999109E-03 0. -1.
       11   -1    0    0    0    0 -0.00000000000E+00 -0.00000000000E+00 -0.35740347158E-01  0.35744000000E-01  0.51099999109E-03 0.  1.
       22    1    1    2    0    0  0.61139488101E-02 -0.33430060125E-02  0.35051070249E-01  0.35737005818E-01  0.00000000000E+00 0. -1.
  9000001    1    1    2    0    0 -0.61139488101E-02  0.33430060125E-02 -0.35051070249E-01  0.35750994182E-01  0.10000000475E-02 0.  1.
</event>
<event>
 4   0  0.2441219E-02  0.9118800E+02  0.7818609E-02  0.1379984E+01
      -11   -1    0    0    0    0  0.00000000000E+00  0.00000000000E+00  0.35740347158E-01  0.35744000000E-01  0.51099999109E-03 0. -1.
       11   -1    0    0    0    0 -0.00000000000E+00 -0.00000000000E+00 -0.35740347158E-01  0.35744000000E-01  0.51099999109E-03 0.  1.
       22    1    1    2    0    0 -0.10569607178E-01 -0.52042168821E-02 -0.33739192575E-01  0.35737005818E-01  0.00000000000E+00 0.  1.
  9000001    1    1    2    0    0  0.10569607178E-01  0.52042168821E-02  0.33739192575E-01  0.35750994182E-01  0.10000000475E-02 0. -1.
</event>
<event>
 4   0  0.2441219E-02  0.9118800E+02  0.7818609E-02  0.1379984E+01
      -11   -1    0    0    0    0  0.00000000000E+00  0.00000000000E+00  0.35740347158E-01  0.35744000000E-01  0.51099999109E-03 0.  1.
       11   -1    0    0    0    0 -0.00000000000E+00 -0.00000000000E+00 -0.35740347158E-01  0.35744000000E-01  0.51099999109E-03 0. -1.
       22    1    1    2    0    0 -0.21916502699E-01  0.11297845686E-01 -0.25868111202E-01  0.35737005818E-01  0.00000000000E+00 0. -1.
  9000001    1    1    2    0    0  0.21916502699E-01 -0.11297845686E-01  0.25868111202E-01  0.35750994182E-01  0.10000000475E-02 0.  1.
</event>
<event>
 4   0  0.2441219E-02  0.9118800E+02  0.7818609E-02  0.1379984E+01
      -11   -1    0    0    0    0  0.00000000000E+00  0.00000000000E+00  0.35740347158E-01  0.35744000000E-01  0.51099999109E-03 0.  1.
       11   -1    0    0    0    0 -0.00000000000E+00 -0.00000000000E+00 -0.35740347158E-01  0.35744000000E-01  0.51099999109E-03 0. -1.
       22    1    1    2    0    0  0.45278238043E-02  0.15421382472E-01  0.31918855855E-01  0.35737005818E-01  0.00000000000E+00 0.  1.
  9000001    1    1    2    0    0 -0.45278238043E-02 -0.15421382472E-01 -0.31918855855E-01  0.35750994182E-01  0.10000000475E-02 0. -1.
</event>
<event>
 4   0  0.2441219E-02  0.9118800E+02  0.7818609E-02  0.1379984E+01
      -11   -1    0    0    0    0  0.00000000000E+00  0.00000000000E+00  0.35740347158E-01  0.35744000000E-01  0.51099999109E-03 0. -1.
       11   -1    0    0    0    0 -0.00000000000E+00 -0.00000000000E+00 -0.35740347158E-01  0.35744000000E-01  0.51099999109E-03 0.  1.
       22    1    1    2    0    0  0.32962406794E-02 -0.50127892084E-02 -0.35229821552E-01  0.35737005818E-01  0.00000000000E+00 0.  1.
  9000001    1    1    2    0    0 -0.32962406794E-02  0.50127892084E-02  0.35229821552E-01  0.35750994182E-01  0.10000000475E-02 0. -1.
</event>
<event>
 4   0  0.2441219E-02  0.9118800E+02  0.7818609E-02  0.1379984E+01
      -11   -1    0    0    0    0  0.00000000000E+00  0.00000000000E+00  0.35740347158E-01  0.35744000000E-01  0.51099999109E-03 0.  1.
       11   -1    0    0    0    0 -0.00000000000E+00 -0.00000000000E+00 -0.35740347158E-01  0.35744000000E-01  0.51099999109E-03 0. -1.
       22    1    1    2    0    0  0.81066291735E-02 -0.31348531976E-01 -0.15122357331E-01  0.35737005818E-01  0.00000000000E+00 0. -1.
  9000001    1    1    2    0    0 -0.81066291735E-02  0.31348531976E-01  0.15122357331E-01  0.35750994182E-01  0.10000000475E-02 0.  1.
</event>
<event>
 4   0  0.2441219E-02  0.9118800E+02  0.7818609E-02  0.1379984E+01
      -11   -1    0    0    0    0  0.00000000000E+00  0.00000000000E+00  0.35740347158E-01  0.35744000000E-01  0.51099999109E-03 0. -1.
       11   -1    0    0    0    0 -0.00000000000E+00 -0.00000000000E+00 -0.35740347158E-01  0.35744000000E-01  0.51099999109E-03 0.  1.
       22    1    1    2    0    0  0.11225388559E-01 -0.58632045025E-02 -0.33417765777E-01  0.35737005818E-01  0.00000000000E+00 0.  1.
  9000001    1    1    2    0    0 -0.11225388559E-01  0.58632045025E-02  0.33417765777E-01  0.35750994182E-01  0.10000000475E-02 0. -1.
</event>
<event>
 4   0  0.2441219E-02  0.9118800E+02  0.7818609E-02  0.1379984E+01
      -11   -1    0    0    0    0  0.00000000000E+00  0.00000000000E+00  0.35740347158E-01  0.35744000000E-01  0.51099999109E-03 0.  1.
       11   -1    0    0    0    0 -0.00000000000E+00 -0.00000000000E+00 -0.35740347158E-01  0.35744000000E-01  0.51099999109E-03 0. -1.
       22    1    1    2    0    0 -0.11753104571E-01  0.33462168040E-02 -0.33582747817E-01  0.35737005818E-01  0.00000000000E+00 0. -1.
  9000001    1    1    2    0    0  0.11753104571E-01 -0.33462168040E-02  0.33582747817E-01  0.35750994182E-01  0.10000000475E-02 0.  1.
</event>
<event>
 4   0  0.2441219E-02  0.9118800E+02  0.7818609E-02  0.1379984E+01
      -11   -1    0    0    0    0  0.00000000000E+00  0.00000000000E+00  0.35740347158E-01  0.35744000000E-01  0.51099999109E-03 0.  1.
       11   -1    0    0    0    0 -0.00000000000E+00 -0.00000000000E+00 -0.35740347158E-01  0.35744000000E-01  0.51099999109E-03 0. -1.
       22    1    1    2    0    0  0.78585128812E-02  0.34671462864E-01  0.36423924866E-02  0.35737005818E-01  0.00000000000E+00 0. -1.
  9000001    1    1    2    0    0 -0.78585128812E-02 -0.34671462864E-01 -0.36423924866E-02  0.35750994182E-01  0.10000000475E-02 0.  1.
</event>
<event>
 4   0  0.2441219E-02  0.9118800E+02  0.7818609E-02  0.1379984E+01
      -11   -1    0    0    0    0  0.00000000000E+00  0.00000000000E+00  0.35740347158E-01  0.35744000000E-01  0.51099999109E-03 0. -1.
       11   -1    0    0    0    0 -0.00000000000E+00 -0.00000000000E+00 -0.35740347158E-01  0.35744000000E-01  0.51099999109E-03 0.  1.
       22    1    1    2    0    0  0.69978158822E-02 -0.12445645795E-01 -0.32760800639E-01  0.35737005818E-01  0.00000000000E+00 0.  1.
  9000001    1    1    2    0    0 -0.69978158822E-02  0.12445645795E-01  0.32760800639E-01  0.35750994182E-01  0.10000000475E-02 0. -1.
</event>
<event>
 4   0  0.2441219E-02  0.9118800E+02  0.7818609E-02  0.1379984E+01
      -11   -1    0    0    0    0  0.00000000000E+00  0.00000000000E+00  0.35740347158E-01  0.35744000000E-01  0.51099999109E-03 0. -1.
       11   -1    0    0    0    0 -0.00000000000E+00 -0.00000000000E+00 -0.35740347158E-01  0.35744000000E-01  0.51099999109E-03 0.  1.
       22    1    1    2    0    0 -0.50994259529E-02  0.45740766395E-02 -0.35074310581E-01  0.35737005818E-01  0.00000000000E+00 0.  1.
  9000001    1    1    2    0    0  0.50994259529E-02 -0.45740766395E-02  0.35074310581E-01  0.35750994182E-01  0.10000000475E-02 0. -1.
</event>
<event>
 4   0  0.2441219E-02  0.9118800E+02  0.7818609E-02  0.1379984E+01
      -11   -1    0    0    0    0  0.00000000000E+00  0.00000000000E+00  0.35740347158E-01  0.35744000000E-01  0.51099999109E-03 0.  1.
       11   -1    0    0    0    0 -0.00000000000E+00 -0.00000000000E+00 -0.35740347158E-01  0.35744000000E-01  0.51099999109E-03 0. -1.
       22    1    1    2    0    0 -0.97709411081E-02  0.18861503715E-01  0.28738579860E-01  0.35737005818E-01  0.00000000000E+00 0.  1.
  9000001    1    1    2    0    0  0.97709411081E-02 -0.18861503715E-01 -0.28738579860E-01  0.35750994182E-01  0.10000000475E-02 0. -1.
</event>
<event>
 4   0  0.2441219E-02  0.9118800E+02  0.7818609E-02  0.1379984E+01
      -11   -1    0    0    0    0  0.00000000000E+00  0.00000000000E+00  0.35740347158E-01  0.35744000000E-01  0.51099999109E-03 0. -1.
       11   -1    0    0    0    0 -0.00000000000E+00 -0.00000000000E+00 -0.35740347158E-01  0.35744000000E-01  0.51099999109E-03 0.  1.
       22    1    1    2    0    0  0.24784724610E-01  0.21876727078E-02 -0.25652779557E-01  0.35737005818E-01  0.00000000000E+00 0.  1.
  9000001    1    1    2    0    0 -0.24784724610E-01 -0.21876727078E-02  0.25652779557E-01  0.35750994182E-01  0.10000000475E-02 0. -1.
</event>
<event>
 4   0  0.2441219E-02  0.9118800E+02  0.7818609E-02  0.1379984E+01
      -11   -1    0    0    0    0  0.00000000000E+00  0.00000000000E+00  0.35740347158E-01  0.35744000000E-01  0.51099999109E-03 0. -1.
       11   -1    0    0    0    0 -0.00000000000E+00 -0.00000000000E+00 -0.35740347158E-01  0.35744000000E-01  0.51099999109E-03 0.  1.
       22    1    1    2    0    0  0.19795941332E-02  0.76275653098E-02 -0.34857352731E-01  0.35737005818E-01  0.00000000000E+00 0.  1.
  9000001    1    1    2    0    0 -0.19795941332E-02 -0.76275653098E-02  0.34857352731E-01  0.35750994182E-01  0.10000000475E-02 0. -1.
</event>
<event>
 4   0  0.2441219E-02  0.9118800E+02  0.7818609E-02  0.1379984E+01
      -11   -1    0    0    0    0  0.00000000000E+00  0.00000000000E+00  0.35740347158E-01  0.35744000000E-01  0.51099999109E-03 0.  1.
       11   -1    0    0    0    0 -0.00000000000E+00 -0.00000000000E+00 -0.35740347158E-01  0.35744000000E-01  0.51099999109E-03 0. -1.
       22    1    1    2    0    0  0.14649288365E-02  0.11362901658E-01 -0.33850731665E-01  0.35737005818E-01  0.00000000000E+00 0. -1.
  9000001    1    1    2    0    0 -0.14649288365E-02 -0.11362901658E-01  0.33850731665E-01  0.35750994182E-01  0.10000000475E-02 0.  1.
</event>
<event>
 4   0  0.2441219E-02  0.9118800E+02  0.7818609E-02  0.1379984E+01
      -11   -1    0    0    0    0  0.00000000000E+00  0.00000000000E+00  0.35740347158E-01  0.35744000000E-01  0.51099999109E-03 0.  1.
       11   -1    0    0    0    0 -0.00000000000E+00 -0.00000000000E+00 -0.35740347158E-01  0.35744000000E-01  0.51099999109E-03 0. -1.
       22    1    1    2    0    0 -0.67769578676E-02 -0.19882464802E-01  0.28911831840E-01  0.35737005818E-01  0.00000000000E+00 0.  1.
  9000001    1    1    2    0    0  0.67769578676E-02  0.19882464802E-01 -0.28911831840E-01  0.35750994182E-01  0.10000000475E-02 0. -1.
</event>
<event>
 4   0  0.2441219E-02  0.9118800E+02  0.7818609E-02  0.1379984E+01
      -11   -1    0    0    0    0  0.00000000000E+00  0.00000000000E+00  0.35740347158E-01  0.35744000000E-01  0.51099999109E-03 0. -1.
       11   -1    0    0    0    0 -0.00000000000E+00 -0.00000000000E+00 -0.35740347158E-01  0.35744000000E-01  0.51099999109E-03 0.  1.
       22    1    1    2    0    0  0.50407558296E-02  0.86900722518E-02  0.34295874530E-01  0.35737005818E-01  0.00000000000E+00 0. -1.
  9000001    1    1    2    0    0 -0.50407558296E-02 -0.86900722518E-02 -0.34295874530E-01  0.35750994182E-01  0.10000000475E-02 0.  1.
</event>
<event>
 4   0  0.2441219E-02  0.9118800E+02  0.7818609E-02  0.1379984E+01
      -11   -1    0    0    0    0  0.00000000000E+00  0.00000000000E+00  0.35740347158E-01  0.35744000000E-01  0.51099999109E-03 0.  1.
       11   -1    0    0    0    0 -0.00000000000E+00 -0.00000000000E+00 -0.35740347158E-01  0.35744000000E-01  0.51099999109E-03 0. -1.
       22    1    1    2    0    0 -0.65782850555E-02 -0.19327420834E-02  0.35073127301E-01  0.35737005818E-01  0.00000000000E+00 0.  1.
  9000001    1    1    2    0    0  0.65782850555E-02  0.19327420834E-02 -0.35073127301E-01  0.35750994182E-01  0.10000000475E-02 0. -1.
</event>
<event>
 4   0  0.2441219E-02  0.9118800E+02  0.7818609E-02  0.1379984E+01
      -11   -1    0    0    0    0  0.00000000000E+00  0.00000000000E+00  0.35740347158E-01  0.35744000000E-01  0.51099999109E-03 0. -1.
       11   -1    0    0    0    0 -0.00000000000E+00 -0.00000000000E+00 -0.35740347158E-01  0.35744000000E-01  0.51099999109E-03 0.  1.
       22    1    1    2    0    0  0.43963299562E-02  0.22107783920E-02  0.35396586371E-01  0.35737005818E-01  0.00000000000E+00 0. -1.
  9000001    1    1    2    0    0 -0.43963299562E-02 -0.22107783920E-02 -0.35396586371E-01  0.35750994182E-01  0.10000000475E-02 0.  1.
</event>
<event>
 4   0  0.2441219E-02  0.9118800E+02  0.7818609E-02  0.1379984E+01
      -11   -1    0    0    0    0  0.00000000000E+00  0.00000000000E+00  0.35740347158E-01  0.35744000000E-01  0.51099999109E-03 0. -1.
       11   -1    0    0    0    0 -0.00000000000E+00 -0.00000000000E+00 -0.35740347158E-01  0.35744000000E-01  0.51099999109E-03 0.  1.
       22    1    1    2    0    0  0.52042606913E-02 -0.16575834866E-01 -0.31229648637E-01  0.35737005818E-01  0.00000000000E+00 0.  1.
  9000001    1    1    2    0    0 -0.52042606913E-02  0.16575834866E-01  0.31229648637E-01  0.35750994182E-01  0.10000000475E-02 0. -1.
</event>
<event>
 4   0  0.2441219E-02  0.9118800E+02  0.7818609E-02  0.1379984E+01
      -11   -1    0    0    0    0  0.00000000000E+00  0.00000000000E+00  0.35740347158E-01  0.35744000000E-01  0.51099999109E-03 0.  1.
       11   -1    0    0    0    0 -0.00000000000E+00 -0.00000000000E+00 -0.35740347158E-01  0.35744000000E-01  0.51099999109E-03 0. -1.
       22    1    1    2    0    0 -0.33605790044E-01  0.59200869316E-02 -0.10617769592E-01  0.35737005818E-01  0.00000000000E+00 0. -1.
  9000001    1    1    2    0    0  0.33605790044E-01 -0.59200869316E-02  0.10617769592E-01  0.35750994182E-01  0.10000000475E-02 0.  1.
</event>
<event>
 4   0  0.2441219E-02  0.9118800E+02  0.7818609E-02  0.1379984E+01
      -11   -1    0    0    0    0  0.00000000000E+00  0.00000000000E+00  0.35740347158E-01  0.35744000000E-01  0.51099999109E-03 0. -1.
       11   -1    0    0    0    0 -0.00000000000E+00 -0.00000000000E+00 -0.35740347158E-01  0.35744000000E-01  0.51099999109E-03 0.  1.
       22    1    1    2    0    0 -0.30887887639E-01  0.12209924123E-02 -0.17932684115E-01  0.35737005818E-01  0.00000000000E+00 0.  1.
  9000001    1    1    2    0    0  0.30887887639E-01 -0.12209924123E-02  0.17932684115E-01  0.35750994182E-01  0.10000000475E-02 0. -1.
</event>
<event>
 4   0  0.2441219E-02  0.9118800E+02  0.7818609E-02  0.1379984E+01
      -11   -1    0    0    0    0  0.00000000000E+00  0.00000000000E+00  0.35740347158E-01  0.35744000000E-01  0.51099999109E-03 0. -1.
       11   -1    0    0    0    0 -0.00000000000E+00 -0.00000000000E+00 -0.35740347158E-01  0.35744000000E-01  0.51099999109E-03 0.  1.
       22    1    1    2    0    0 -0.59262796117E-02  0.43811551117E-03 -0.35239478566E-01  0.35737005818E-01  0.00000000000E+00 0.  1.
  9000001    1    1    2    0    0  0.59262796117E-02 -0.43811551117E-03  0.35239478566E-01  0.35750994182E-01  0.10000000475E-02 0. -1.
</event>
<event>
 4   0  0.2441219E-02  0.9118800E+02  0.7818609E-02  0.1379984E+01
      -11   -1    0    0    0    0  0.00000000000E+00  0.00000000000E+00  0.35740347158E-01  0.35744000000E-01  0.51099999109E-03 0.  1.
       11   -1    0    0    0    0 -0.00000000000E+00 -0.00000000000E+00 -0.35740347158E-01  0.35744000000E-01  0.51099999109E-03 0. -1.
       22    1    1    2    0    0 -0.22723734715E-02  0.41625977642E-02  0.35420935667E-01  0.35737005818E-01  0.00000000000E+00 0.  1.
  9000001    1    1    2    0    0  0.22723734715E-02 -0.41625977642E-02 -0.35420935667E-01  0.35750994182E-01  0.10000000475E-02 0. -1.
</event>
<event>
 4   0  0.2441219E-02  0.9118800E+02  0.7818609E-02  0.1379984E+01
      -11   -1    0    0    0    0  0.00000000000E+00  0.00000000000E+00  0.35740347158E-01  0.35744000000E-01  0.51099999109E-03 0. -1.
       11   -1    0    0    0    0 -0.00000000000E+00 -0.00000000000E+00 -0.35740347158E-01  0.35744000000E-01  0.51099999109E-03 0.  1.
       22    1    1    2    0    0  0.17856512614E-02 -0.59440126763E-02 -0.35193944760E-01  0.35737005818E-01  0.00000000000E+00 0.  1.
  9000001    1    1    2    0    0 -0.17856512614E-02  0.59440126763E-02  0.35193944760E-01  0.35750994182E-01  0.10000000475E-02 0. -1.
</event>
<event>
 4   0  0.2441219E-02  0.9118800E+02  0.7818609E-02  0.1379984E+01
      -11   -1    0    0    0    0  0.00000000000E+00  0.00000000000E+00  0.35740347158E-01  0.35744000000E-01  0.51099999109E-03 0. -1.
       11   -1    0    0    0    0 -0.00000000000E+00 -0.00000000000E+00 -0.35740347158E-01  0.35744000000E-01  0.51099999109E-03 0.  1.
       22    1    1    2    0    0 -0.14826591216E-01  0.21741613002E-01  0.24178669149E-01  0.35737005818E-01  0.00000000000E+00 0. -1.
  9000001    1    1    2    0    0  0.14826591216E-01 -0.21741613002E-01 -0.24178669149E-01  0.35750994182E-01  0.10000000475E-02 0.  1.
</event>
<event>
 4   0  0.2441219E-02  0.9118800E+02  0.7818609E-02  0.1379984E+01
      -11   -1    0    0    0    0  0.00000000000E+00  0.00000000000E+00  0.35740347158E-01  0.35744000000E-01  0.51099999109E-03 0. -1.
       11   -1    0    0    0    0 -0.00000000000E+00 -0.00000000000E+00 -0.35740347158E-01  0.35744000000E-01  0.51099999109E-03 0.  1.
       22    1    1    2    0    0 -0.24786070534E-02  0.79619923065E-02  0.34750493097E-01  0.35737005818E-01  0.00000000000E+00 0. -1.
  9000001    1    1    2    0    0  0.24786070534E-02 -0.79619923065E-02 -0.34750493097E-01  0.35750994182E-01  0.10000000475E-02 0.  1.
</event>
<event>
 4   0  0.2441219E-02  0.9118800E+02  0.7818609E-02  0.1379984E+01
      -11   -1    0    0    0    0  0.00000000000E+00  0.00000000000E+00  0.35740347158E-01  0.35744000000E-01  0.51099999109E-03 0.  1.
       11   -1    0    0    0    0 -0.00000000000E+00 -0.00000000000E+00 -0.35740347158E-01  0.35744000000E-01  0.51099999109E-03 0. -1.
       22    1    1    2    0    0  0.30337700308E-01  0.60762300766E-02  0.17883985936E-01  0.35737005818E-01  0.00000000000E+00 0.  1.
  9000001    1    1    2    0    0 -0.30337700308E-01 -0.60762300766E-02 -0.17883985936E-01  0.35750994182E-01  0.10000000475E-02 0. -1.
</event>
<event>
 4   0  0.2441219E-02  0.9118800E+02  0.7818609E-02  0.1379984E+01
      -11   -1    0    0    0    0  0.00000000000E+00  0.00000000000E+00  0.35740347158E-01  0.35744000000E-01  0.51099999109E-03 0.  1.
       11   -1    0    0    0    0 -0.00000000000E+00 -0.00000000000E+00 -0.35740347158E-01  0.35744000000E-01  0.51099999109E-03 0. -1.
       22    1    1    2    0    0 -0.20647402625E-03  0.47753489826E-02  0.35415914437E-01  0.35737005818E-01  0.00000000000E+00 0.  1.
  9000001    1    1    2    0    0  0.20647402625E-03 -0.47753489826E-02 -0.35415914437E-01  0.35750994182E-01  0.10000000475E-02 0. -1.
</event>
<event>
 4   0  0.2441219E-02  0.9118800E+02  0.7818609E-02  0.1379984E+01
      -11   -1    0    0    0    0  0.00000000000E+00  0.00000000000E+00  0.35740347158E-01  0.35744000000E-01  0.51099999109E-03 0. -1.
       11   -1    0    0    0    0 -0.00000000000E+00 -0.00000000000E+00 -0.35740347158E-01  0.35744000000E-01  0.51099999109E-03 0.  1.
       22    1    1    2    0    0  0.13922048888E-01 -0.24616028302E-01  0.21848599275E-01  0.35737005818E-01  0.00000000000E+00 0. -1.
  9000001    1    1    2    0    0 -0.13922048888E-01  0.24616028302E-01 -0.21848599275E-01  0.35750994182E-01  0.10000000475E-02 0.  1.
</event>
<event>
 4   0  0.2441219E-02  0.9118800E+02  0.7818609E-02  0.1379984E+01
      -11   -1    0    0    0    0  0.00000000000E+00  0.00000000000E+00  0.35740347158E-01  0.35744000000E-01  0.51099999109E-03 0.  1.
       11   -1    0    0    0    0 -0.00000000000E+00 -0.00000000000E+00 -0.35740347158E-01  0.35744000000E-01  0.51099999109E-03 0. -1.
       22    1    1    2    0    0  0.20722678924E-02 -0.18927744580E-01  0.30242020034E-01  0.35737005818E-01  0.00000000000E+00 0.  1.
  9000001    1    1    2    0    0 -0.20722678924E-02  0.18927744580E-01 -0.30242020034E-01  0.35750994182E-01  0.10000000475E-02 0. -1.
</event>
<event>
 4   0  0.2441219E-02  0.9118800E+02  0.7818609E-02  0.1379984E+01
      -11   -1    0    0    0    0  0.00000000000E+00  0.00000000000E+00  0.35740347158E-01  0.35744000000E-01  0.51099999109E-03 0.  1.
       11   -1    0    0    0    0 -0.00000000000E+00 -0.00000000000E+00 -0.35740347158E-01  0.35744000000E-01  0.51099999109E-03 0. -1.
       22    1    1    2    0    0  0.98918532928E-02 -0.83179693647E-02 -0.33318106323E-01  0.35737005818E-01  0.00000000000E+00 0. -1.
  9000001    1    1    2    0    0 -0.98918532928E-02  0.83179693647E-02  0.33318106323E-01  0.35750994182E-01  0.10000000475E-02 0.  1.
</event>
<event>
 4   0  0.2441219E-02  0.9118800E+02  0.7818609E-02  0.1379984E+01
      -11   -1    0    0    0    0  0.00000000000E+00  0.00000000000E+00  0.35740347158E-01  0.35744000000E-01  0.51099999109E-03 0. -1.
       11   -1    0    0    0    0 -0.00000000000E+00 -0.00000000000E+00 -0.35740347158E-01  0.35744000000E-01  0.51099999109E-03 0.  1.
       22    1    1    2    0    0 -0.92898706297E-03  0.39272155496E-02 -0.35508415143E-01  0.35737005818E-01  0.00000000000E+00 0.  1.
  9000001    1    1    2    0    0  0.92898706297E-03 -0.39272155496E-02  0.35508415143E-01  0.35750994182E-01  0.10000000475E-02 0. -1.
</event>
<event>
 4   0  0.2441219E-02  0.9118800E+02  0.7818609E-02  0.1379984E+01
      -11   -1    0    0    0    0  0.00000000000E+00  0.00000000000E+00  0.35740347158E-01  0.35744000000E-01  0.51099999109E-03 0.  1.
       11   -1    0    0    0    0 -0.00000000000E+00 -0.00000000000E+00 -0.35740347158E-01  0.35744000000E-01  0.51099999109E-03 0. -1.
       22    1    1    2    0    0 -0.25998967415E-02 -0.32852782922E-02 -0.35490577177E-01  0.35737005818E-01  0.00000000000E+00 0. -1.
  9000001    1    1    2    0    0  0.25998967415E-02  0.32852782922E-02  0.35490577177E-01  0.35750994182E-01  0.10000000475E-02 0.  1.
</event>
<event>
 4   0  0.2441219E-02  0.9118800E+02  0.7818609E-02  0.1379984E+01
      -11   -1    0    0    0    0  0.00000000000E+00  0.00000000000E+00  0.35740347158E-01  0.35744000000E-01  0.51099999109E-03 0.  1.
       11   -1    0    0    0    0 -0.00000000000E+00 -0.00000000000E+00 -0.35740347158E-01  0.35744000000E-01  0.51099999109E-03 0. -1.
       22    1    1    2    0    0  0.23466395860E-02  0.29941837881E-02  0.35533951806E-01  0.35737005818E-01  0.00000000000E+00 0.  1.
  9000001    1    1    2    0    0 -0.23466395860E-02 -0.29941837881E-02 -0.35533951806E-01  0.35750994182E-01  0.10000000475E-02 0. -1.
</event>
<event>
 4   0  0.2441219E-02  0.9118800E+02  0.7818609E-02  0.1379984E+01
      -11   -1    0    0    0    0  0.00000000000E+00  0.00000000000E+00  0.35740347158E-01  0.35744000000E-01  0.51099999109E-03 0.  1.
       11   -1    0    0    0    0 -0.00000000000E+00 -0.00000000000E+00 -0.35740347158E-01  0.35744000000E-01  0.51099999109E-03 0. -1.
       22    1    1    2    0    0  0.53212922964E-02 -0.53394635849E-04  0.35338570743E-01  0.35737005818E-01  0.00000000000E+00 0.  1.
  9000001    1    1    2    0    0 -0.53212922964E-02  0.53394635849E-04 -0.35338570743E-01  0.35750994182E-01  0.10000000475E-02 0. -1.
</event>
<event>
 4   0  0.2441219E-02  0.9118800E+02  0.7818609E-02  0.1379984E+01
      -11   -1    0    0    0    0  0.00000000000E+00  0.00000000000E+00  0.35740347158E-01  0.35744000000E-01  0.51099999109E-03 0. -1.
       11   -1    0    0    0    0 -0.00000000000E+00 -0.00000000000E+00 -0.35740347158E-01  0.35744000000E-01  0.51099999109E-03 0.  1.
       22    1    1    2    0    0 -0.24132573911E-01  0.49262758715E-02 -0.25893710962E-01  0.35737005818E-01  0.00000000000E+00 0.  1.
  9000001    1    1    2    0    0  0.24132573911E-01 -0.49262758715E-02  0.25893710962E-01  0.35750994182E-01  0.10000000475E-02 0. -1.
</event>
<event>
 4   0  0.2441219E-02  0.9118800E+02  0.7818609E-02  0.1379984E+01
      -11   -1    0    0    0    0  0.00000000000E+00  0.00000000000E+00  0.35740347158E-01  0.35744000000E-01  0.51099999109E-03 0.  1.
       11   -1    0    0    0    0 -0.00000000000E+00 -0.00000000000E+00 -0.35740347158E-01  0.35744000000E-01  0.51099999109E-03 0. -1.
       22    1    1    2    0    0  0.11159008627E-02  0.49462482808E-02  0.35375457284E-01  0.35737005818E-01  0.00000000000E+00 0.  1.
  9000001    1    1    2    0    0 -0.11159008627E-02 -0.49462482808E-02 -0.35375457284E-01  0.35750994182E-01  0.10000000475E-02 0. -1.
</event>
<event>
 4   0  0.2441219E-02  0.9118800E+02  0.7818609E-02  0.1379984E+01
      -11   -1    0    0    0    0  0.00000000000E+00  0.00000000000E+00  0.35740347158E-01  0.35744000000E-01  0.51099999109E-03 0. -1.
       11   -1    0    0    0    0 -0.00000000000E+00 -0.00000000000E+00 -0.35740347158E-01  0.35744000000E-01  0.51099999109E-03 0.  1.
       22    1    1    2    0    0  0.11344933479E-01  0.26235952773E-02 -0.33786725456E-01  0.35737005818E-01  0.00000000000E+00 0.  1.
  9000001    1    1    2    0    0 -0.11344933479E-01 -0.26235952773E-02  0.33786725456E-01  0.35750994182E-01  0.10000000475E-02 0. -1.
</event>
<event>
 4   0  0.2441219E-02  0.9118800E+02  0.7818609E-02  0.1379984E+01
      -11   -1    0    0    0    0  0.00000000000E+00  0.00000000000E+00  0.35740347158E-01  0.35744000000E-01  0.51099999109E-03 0. -1.
       11   -1    0    0    0    0 -0.00000000000E+00 -0.00000000000E+00 -0.35740347158E-01  0.35744000000E-01  0.51099999109E-03 0.  1.
       22    1    1    2    0    0 -0.11847848005E-01 -0.12902704979E-01 -0.31149354516E-01  0.35737005818E-01  0.00000000000E+00 0.  1.
  9000001    1    1    2    0    0  0.11847848005E-01  0.12902704979E-01  0.31149354516E-01  0.35750994182E-01  0.10000000475E-02 0. -1.
</event>
<event>
 4   0  0.2441219E-02  0.9118800E+02  0.7818609E-02  0.1379984E+01
      -11   -1    0    0    0    0  0.00000000000E+00  0.00000000000E+00  0.35740347158E-01  0.35744000000E-01  0.51099999109E-03 0. -1.
       11   -1    0    0    0    0 -0.00000000000E+00 -0.00000000000E+00 -0.35740347158E-01  0.35744000000E-01  0.51099999109E-03 0.  1.
       22    1    1    2    0    0  0.72193752587E-02 -0.21351083604E-01 -0.27733471378E-01  0.35737005818E-01  0.00000000000E+00 0.  1.
  9000001    1    1    2    0    0 -0.72193752587E-02  0.21351083604E-01  0.27733471378E-01  0.35750994182E-01  0.10000000475E-02 0. -1.
</event>
<event>
 4   0  0.2441219E-02  0.9118800E+02  0.7818609E-02  0.1379984E+01
      -11   -1    0    0    0    0  0.00000000000E+00  0.00000000000E+00  0.35740347158E-01  0.35744000000E-01  0.51099999109E-03 0.  1.
       11   -1    0    0    0    0 -0.00000000000E+00 -0.00000000000E+00 -0.35740347158E-01  0.35744000000E-01  0.51099999109E-03 0. -1.
       22    1    1    2    0    0  0.41012344799E-02 -0.78112645389E-02  0.34630876496E-01  0.35737005818E-01  0.00000000000E+00 0.  1.
  9000001    1    1    2    0    0 -0.41012344799E-02  0.78112645389E-02 -0.34630876496E-01  0.35750994182E-01  0.10000000475E-02 0. -1.
</event>
<event>
 4   0  0.2441219E-02  0.9118800E+02  0.7818609E-02  0.1379984E+01
      -11   -1    0    0    0    0  0.00000000000E+00  0.00000000000E+00  0.35740347158E-01  0.35744000000E-01  0.51099999109E-03 0. -1.
       11   -1    0    0    0    0 -0.00000000000E+00 -0.00000000000E+00 -0.35740347158E-01  0.35744000000E-01  0.51099999109E-03 0.  1.
       22    1    1    2    0    0  0.32112681605E-04 -0.42895639427E-02 -0.35478616022E-01  0.35737005818E-01  0.00000000000E+00 0.  1.
  9000001    1    1    2    0    0 -0.32112681605E-04  0.42895639427E-02  0.35478616022E-01  0.35750994182E-01  0.10000000475E-02 0. -1.
</event>
<event>
 4   0  0.2441219E-02  0.9118800E+02  0.7818609E-02  0.1379984E+01
      -11   -1    0    0    0    0  0.00000000000E+00  0.00000000000E+00  0.35740347158E-01  0.35744000000E-01  0.51099999109E-03 0. -1.
       11   -1    0    0    0    0 -0.00000000000E+00 -0.00000000000E+00 -0.35740347158E-01  0.35744000000E-01  0.51099999109E-03 0.  1.
       22    1    1    2    0    0 -0.39040238597E-02 -0.65845761911E-02 -0.34907528399E-01  0.35737005818E-01  0.00000000000E+00 0.  1.
  9000001    1    1    2    0    0  0.39040238597E-02  0.65845761911E-02  0.34907528399E-01  0.35750994182E-01  0.10000000475E-02 0. -1.
</event>
<event>
 4   0  0.2441219E-02  0.9118800E+02  0.7818609E-02  0.1379984E+01
      -11   -1    0    0    0    0  0.00000000000E+00  0.00000000000E+00  0.35740347158E-01  0.35744000000E-01  0.51099999109E-03 0.  1.
       11   -1    0    0    0    0 -0.00000000000E+00 -0.00000000000E+00 -0.35740347158E-01  0.35744000000E-01  0.51099999109E-03 0. -1.
       22    1    1    2    0    0 -0.15343596951E-02 -0.26438309757E-02  0.35606031553E-01  0.35737005818E-01  0.00000000000E+00 0.  1.
  9000001    1    1    2    0    0  0.15343596951E-02  0.26438309757E-02 -0.35606031553E-01  0.35750994182E-01  0.10000000475E-02 0. -1.
</event>
<event>
 4   0  0.2441219E-02  0.9118800E+02  0.7818609E-02  0.1379984E+01
      -11   -1    0    0    0    0  0.00000000000E+00  0.00000000000E+00  0.35740347158E-01  0.35744000000E-01  0.51099999109E-03 0. -1.
       11   -1    0    0    0    0 -0.00000000000E+00 -0.00000000000E+00 -0.35740347158E-01  0.35744000000E-01  0.51099999109E-03 0.  1.
       22    1    1    2    0    0  0.14993405850E-01  0.15684056389E-02  0.32401720165E-01  0.35737005818E-01  0.00000000000E+00 0. -1.
  9000001    1    1    2    0    0 -0.14993405850E-01 -0.15684056389E-02 -0.32401720165E-01  0.35750994182E-01  0.10000000475E-02 0.  1.
</event>
<event>
 4   0  0.2441219E-02  0.9118800E+02  0.7818609E-02  0.1379984E+01
      -11   -1    0    0    0    0  0.00000000000E+00  0.00000000000E+00  0.35740347158E-01  0.35744000000E-01  0.51099999109E-03 0.  1.
       11   -1    0    0    0    0 -0.00000000000E+00 -0.00000000000E+00 -0.35740347158E-01  0.35744000000E-01  0.51099999109E-03 0. -1.
       22    1    1    2    0    0  0.27432237228E-01 -0.17530845936E-01 -0.14740264119E-01  0.35737005818E-01  0.00000000000E+00 0. -1.
  9000001    1    1    2    0    0 -0.27432237228E-01  0.17530845936E-01  0.14740264119E-01  0.35750994182E-01  0.10000000475E-02 0.  1.
</event>
<event>
 4   0  0.2441219E-02  0.9118800E+02  0.7818609E-02  0.1379984E+01
      -11   -1    0    0    0    0  0.00000000000E+00  0.00000000000E+00  0.35740347158E-01  0.35744000000E-01  0.51099999109E-03 0. -1.
       11   -1    0    0    0    0 -0.00000000000E+00 -0.00000000000E+00 -0.35740347158E-01  0.35744000000E-01  0.51099999109E-03 0.  1.
       22    1    1    2    0    0 -0.14041463477E-02 -0.40846913114E-02  0.35475022971E-01  0.35737005818E-01  0.00000000000E+00 0. -1.
  9000001    1    1    2    0    0  0.14041463477E-02  0.40846913114E-02 -0.35475022971E-01  0.35750994182E-01  0.10000000475E-02 0.  1.
</event>
<event>
 4   0  0.2441219E-02  0.9118800E+02  0.7818609E-02  0.1379984E+01
      -11   -1    0    0    0    0  0.00000000000E+00  0.00000000000E+00  0.35740347158E-01  0.35744000000E-01  0.51099999109E-03 0. -1.
       11   -1    0    0    0    0 -0.00000000000E+00 -0.00000000000E+00 -0.35740347158E-01  0.35744000000E-01  0.51099999109E-03 0.  1.
       22    1    1    2    0    0  0.17109113973E-01 -0.10268514356E-01  0.29647418384E-01  0.35737005818E-01  0.00000000000E+00 0. -1.
  9000001    1    1    2    0    0 -0.17109113973E-01  0.10268514356E-01 -0.29647418384E-01  0.35750994182E-01  0.10000000475E-02 0.  1.
</event>
<event>
 4   0  0.2441219E-02  0.9118800E+02  0.7818609E-02  0.1379984E+01
      -11   -1    0    0    0    0  0.00000000000E+00  0.00000000000E+00  0.35740347158E-01  0.35744000000E-01  0.51099999109E-03 0. -1.
       11   -1    0    0    0    0 -0.00000000000E+00 -0.00000000000E+00 -0.35740347158E-01  0.35744000000E-01  0.51099999109E-03 0.  1.
       22    1    1    2    0    0 -0.86846028793E-02 -0.14817936967E-01  0.31339112970E-01  0.35737005818E-01  0.00000000000E+00 0. -1.
  9000001    1    1    2    0    0  0.86846028793E-02  0.14817936967E-01 -0.31339112970E-01  0.35750994182E-01  0.10000000475E-02 0.  1.
</event>
<event>
 4   0  0.2441219E-02  0.9118800E+02  0.7818609E-02  0.1379984E+01
      -11   -1    0    0    0    0  0.00000000000E+00  0.00000000000E+00  0.35740347158E-01  0.35744000000E-01  0.51099999109E-03 0. -1.
       11   -1    0    0    0    0 -0.00000000000E+00 -0.00000000000E+00 -0.35740347158E-01  0.35744000000E-01  0.51099999109E-03 0.  1.
       22    1    1    2    0    0  0.11888183323E-01 -0.80066035256E-02 -0.32736813867E-01  0.35737005818E-01  0.00000000000E+00 0.  1.
  9000001    1    1    2    0    0 -0.11888183323E-01  0.80066035256E-02  0.32736813867E-01  0.35750994182E-01  0.10000000475E-02 0. -1.
</event>
<event>
 4   0  0.2441219E-02  0.9118800E+02  0.7818609E-02  0.1379984E+01
      -11   -1    0    0    0    0  0.00000000000E+00  0.00000000000E+00  0.35740347158E-01  0.35744000000E-01  0.51099999109E-03 0. -1.
       11   -1    0    0    0    0 -0.00000000000E+00 -0.00000000000E+00 -0.35740347158E-01  0.35744000000E-01  0.51099999109E-03 0.  1.
       22    1    1    2    0    0  0.62696735181E-03  0.61380336715E-02 -0.35200355672E-01  0.35737005818E-01  0.00000000000E+00 0.  1.
  9000001    1    1    2    0    0 -0.62696735181E-03 -0.61380336715E-02  0.35200355672E-01  0.35750994182E-01  0.10000000475E-02 0. -1.
</event>
<event>
 4   0  0.2441219E-02  0.9118800E+02  0.7818609E-02  0.1379984E+01
      -11   -1    0    0    0    0  0.00000000000E+00  0.00000000000E+00  0.35740347158E-01  0.35744000000E-01  0.51099999109E-03 0. -1.
       11   -1    0    0    0    0 -0.00000000000E+00 -0.00000000000E+00 -0.35740347158E-01  0.35744000000E-01  0.51099999109E-03 0.  1.
       22    1    1    2    0    0  0.21502911179E-01  0.87456831001E-02 -0.27171150561E-01  0.35737005818E-01  0.00000000000E+00 0.  1.
  9000001    1    1    2    0    0 -0.21502911179E-01 -0.87456831001E-02  0.27171150561E-01  0.35750994182E-01  0.10000000475E-02 0. -1.
</event>
<event>
 4   0  0.2441219E-02  0.9118800E+02  0.7818609E-02  0.1379984E+01
      -11   -1    0    0    0    0  0.00000000000E+00  0.00000000000E+00  0.35740347158E-01  0.35744000000E-01  0.51099999109E-03 0. -1.
       11   -1    0    0    0    0 -0.00000000000E+00 -0.00000000000E+00 -0.35740347158E-01  0.35744000000E-01  0.51099999109E-03 0.  1.
       22    1    1    2    0    0 -0.51699652812E-02  0.10997859259E-01 -0.33607322648E-01  0.35737005818E-01  0.00000000000E+00 0.  1.
  9000001    1    1    2    0    0  0.51699652812E-02 -0.10997859259E-01  0.33607322648E-01  0.35750994182E-01  0.10000000475E-02 0. -1.
</event>
<event>
 4   0  0.2441219E-02  0.9118800E+02  0.7818609E-02  0.1379984E+01
      -11   -1    0    0    0    0  0.00000000000E+00  0.00000000000E+00  0.35740347158E-01  0.35744000000E-01  0.51099999109E-03 0. -1.
       11   -1    0    0    0    0 -0.00000000000E+00 -0.00000000000E+00 -0.35740347158E-01  0.35744000000E-01  0.51099999109E-03 0.  1.
       22    1    1    2    0    0 -0.17239918946E-01  0.43148202446E-02  0.31004856166E-01  0.35737005818E-01  0.00000000000E+00 0. -1.
  9000001    1    1    2    0    0  0.17239918946E-01 -0.43148202446E-02 -0.31004856166E-01  0.35750994182E-01  0.10000000475E-02 0.  1.
</event>
<event>
 4   0  0.2441219E-02  0.9118800E+02  0.7818609E-02  0.1379984E+01
      -11   -1    0    0    0    0  0.00000000000E+00  0.00000000000E+00  0.35740347158E-01  0.35744000000E-01  0.51099999109E-03 0.  1.
       11   -1    0    0    0    0 -0.00000000000E+00 -0.00000000000E+00 -0.35740347158E-01  0.35744000000E-01  0.51099999109E-03 0. -1.
       22    1    1    2    0    0  0.37568008321E-02 -0.23553924268E-02 -0.35460853894E-01  0.35737005818E-01  0.00000000000E+00 0. -1.
  9000001    1    1    2    0    0 -0.37568008321E-02  0.23553924268E-02  0.35460853894E-01  0.35750994182E-01  0.10000000475E-02 0.  1.
</event>
<event>
 4   0  0.2441219E-02  0.9118800E+02  0.7818609E-02  0.1379984E+01
      -11   -1    0    0    0    0  0.00000000000E+00  0.00000000000E+00  0.35740347158E-01  0.35744000000E-01  0.51099999109E-03 0. -1.
       11   -1    0    0    0    0 -0.00000000000E+00 -0.00000000000E+00 -0.35740347158E-01  0.35744000000E-01  0.51099999109E-03 0.  1.
       22    1    1    2    0    0  0.32772556116E-02  0.90198306958E-03 -0.35574985693E-01  0.35737005818E-01  0.00000000000E+00 0.  1.
  9000001    1    1    2    0    0 -0.32772556116E-02 -0.90198306958E-03  0.35574985693E-01  0.35750994182E-01  0.10000000475E-02 0. -1.
</event>
<event>
 4   0  0.2441219E-02  0.9118800E+02  0.7818609E-02  0.1379984E+01
      -11   -1    0    0    0    0  0.00000000000E+00  0.00000000000E+00  0.35740347158E-01  0.35744000000E-01  0.51099999109E-03 0. -1.
       11   -1    0    0    0    0 -0.00000000000E+00 -0.00000000000E+00 -0.35740347158E-01  0.35744000000E-01  0.51099999109E-03 0.  1.
       22    1    1    2    0    0  0.31956837505E-01 -0.19198972152E-02 -0.15881061559E-01  0.35737005818E-01  0.00000000000E+00 0.  1.
  9000001    1    1    2    0    0 -0.31956837505E-01  0.19198972152E-02  0.15881061559E-01  0.35750994182E-01  0.10000000475E-02 0. -1.
</event>
<event>
 4   0  0.2441219E-02  0.9118800E+02  0.7818609E-02  0.1379984E+01
      -11   -1    0    0    0    0  0.00000000000E+00  0.00000000000E+00  0.35740347158E-01  0.35744000000E-01  0.51099999109E-03 0.  1.
       11   -1    0    0    0    0 -0.00000000000E+00 -0.00000000000E+00 -0.35740347158E-01  0.35744000000E-01  0.51099999109E-03 0. -1.
       22    1    1    2    0    0  0.55232607908E-02 -0.24018090809E-02  0.35225821328E-01  0.35737005818E-01  0.00000000000E+00 0.  1.
  9000001    1    1    2    0    0 -0.55232607908E-02  0.24018090809E-02 -0.35225821328E-01  0.35750994182E-01  0.10000000475E-02 0. -1.
</event>
<event>
 4   0  0.2441219E-02  0.9118800E+02  0.7818609E-02  0.1379984E+01
      -11   -1    0    0    0    0  0.00000000000E+00  0.00000000000E+00  0.35740347158E-01  0.35744000000E-01  0.51099999109E-03 0. -1.
       11   -1    0    0    0    0 -0.00000000000E+00 -0.00000000000E+00 -0.35740347158E-01  0.35744000000E-01  0.51099999109E-03 0.  1.
       22    1    1    2    0    0  0.12874100317E-01  0.10439010813E-01 -0.31660988284E-01  0.35737005818E-01  0.00000000000E+00 0.  1.
  9000001    1    1    2    0    0 -0.12874100317E-01 -0.10439010813E-01  0.31660988284E-01  0.35750994182E-01  0.10000000475E-02 0. -1.
</event>
<event>
 4   0  0.2441219E-02  0.9118800E+02  0.7818609E-02  0.1379984E+01
      -11   -1    0    0    0    0  0.00000000000E+00  0.00000000000E+00  0.35740347158E-01  0.35744000000E-01  0.51099999109E-03 0.  1.
       11   -1    0    0    0    0 -0.00000000000E+00 -0.00000000000E+00 -0.35740347158E-01  0.35744000000E-01  0.51099999109E-03 0. -1.
       22    1    1    2    0    0  0.20156657522E-02  0.91886418137E-02  0.34476652072E-01  0.35737005818E-01  0.00000000000E+00 0.  1.
  9000001    1    1    2    0    0 -0.20156657522E-02 -0.91886418137E-02 -0.34476652072E-01  0.35750994182E-01  0.10000000475E-02 0. -1.
</event>
<event>
 4   0  0.2441219E-02  0.9118800E+02  0.7818609E-02  0.1379984E+01
      -11   -1    0    0    0    0  0.00000000000E+00  0.00000000000E+00  0.35740347158E-01  0.35744000000E-01  0.51099999109E-03 0.  1.
       11   -1    0    0    0    0 -0.00000000000E+00 -0.00000000000E+00 -0.35740347158E-01  0.35744000000E-01  0.51099999109E-03 0. -1.
       22    1    1    2    0    0  0.49229808056E-02 -0.11564086874E-02 -0.35377401880E-01  0.35737005818E-01  0.00000000000E+00 0. -1.
  9000001    1    1    2    0    0 -0.49229808056E-02  0.11564086874E-02  0.35377401880E-01  0.35750994182E-01  0.10000000475E-02 0.  1.
</event>
<event>
 4   0  0.2441219E-02  0.9118800E+02  0.7818609E-02  0.1379984E+01
      -11   -1    0    0    0    0  0.00000000000E+00  0.00000000000E+00  0.35740347158E-01  0.35744000000E-01  0.51099999109E-03 0. -1.
       11   -1    0    0    0    0 -0.00000000000E+00 -0.00000000000E+00 -0.35740347158E-01  0.35744000000E-01  0.51099999109E-03 0.  1.
       22    1    1    2    0    0 -0.26227148089E-02  0.10499353997E-01 -0.34059044578E-01  0.35737005818E-01  0.00000000000E+00 0.  1.
  9000001    1    1    2    0    0  0.26227148089E-02 -0.10499353997E-01  0.34059044578E-01  0.35750994182E-01  0.10000000475E-02 0. -1.
</event>
<event>
 4   0  0.2441219E-02  0.9118800E+02  0.7818609E-02  0.1379984E+01
      -11   -1    0    0    0    0  0.00000000000E+00  0.00000000000E+00  0.35740347158E-01  0.35744000000E-01  0.51099999109E-03 0. -1.
       11   -1    0    0    0    0 -0.00000000000E+00 -0.00000000000E+00 -0.35740347158E-01  0.35744000000E-01  0.51099999109E-03 0.  1.
       22    1    1    2    0    0 -0.37468923919E-02 -0.46784037645E-02  0.35230766675E-01  0.35737005818E-01  0.00000000000E+00 0. -1.
  9000001    1    1    2    0    0  0.37468923919E-02  0.46784037645E-02 -0.35230766675E-01  0.35750994182E-01  0.10000000475E-02 0.  1.
</event>
<event>
 4   0  0.2441219E-02  0.9118800E+02  0.7818609E-02  0.1379984E+01
      -11   -1    0    0    0    0  0.00000000000E+00  0.00000000000E+00  0.35740347158E-01  0.35744000000E-01  0.51099999109E-03 0. -1.
       11   -1    0    0    0    0 -0.00000000000E+00 -0.00000000000E+00 -0.35740347158E-01  0.35744000000E-01  0.51099999109E-03 0.  1.
       22    1    1    2    0    0 -0.30982014597E-02  0.54362260376E-02 -0.35184970926E-01  0.35737005818E-01  0.00000000000E+00 0.  1.
  9000001    1    1    2    0    0  0.30982014597E-02 -0.54362260376E-02  0.35184970926E-01  0.35750994182E-01  0.10000000475E-02 0. -1.
</event>
<event>
 4   0  0.2441219E-02  0.9118800E+02  0.7818609E-02  0.1379984E+01
      -11   -1    0    0    0    0  0.00000000000E+00  0.00000000000E+00  0.35740347158E-01  0.35744000000E-01  0.51099999109E-03 0.  1.
       11   -1    0    0    0    0 -0.00000000000E+00 -0.00000000000E+00 -0.35740347158E-01  0.35744000000E-01  0.51099999109E-03 0. -1.
       22    1    1    2    0    0  0.12711225226E-01 -0.73671796468E-02 -0.32577338783E-01  0.35737005818E-01  0.00000000000E+00 0. -1.
  9000001    1    1    2    0    0 -0.12711225226E-01  0.73671796468E-02  0.32577338783E-01  0.35750994182E-01  0.10000000475E-02 0.  1.
</event>
<event>
 4   0  0.2441219E-02  0.9118800E+02  0.7818609E-02  0.1379984E+01
      -11   -1    0    0    0    0  0.00000000000E+00  0.00000000000E+00  0.35740347158E-01  0.35744000000E-01  0.51099999109E-03 0.  1.
       11   -1    0    0    0    0 -0.00000000000E+00 -0.00000000000E+00 -0.35740347158E-01  0.35744000000E-01  0.51099999109E-03 0. -1.
       22    1    1    2    0    0 -0.43167216669E-02 -0.12710759373E-02 -0.35452557946E-01  0.35737005818E-01  0.00000000000E+00 0. -1.
  9000001    1    1    2    0    0  0.43167216669E-02  0.12710759373E-02  0.35452557946E-01  0.35750994182E-01  0.10000000475E-02 0.  1.
</event>
<event>
 4   0  0.2441219E-02  0.9118800E+02  0.7818609E-02  0.1379984E+01
      -11   -1    0    0    0    0  0.00000000000E+00  0.00000000000E+00  0.35740347158E-01  0.35744000000E-01  0.51099999109E-03 0.  1.
       11   -1    0    0    0    0 -0.00000000000E+00 -0.00000000000E+00 -0.35740347158E-01  0.35744000000E-01  0.51099999109E-03 0. -1.
       22    1    1    2    0    0 -0.15889921261E-01 -0.25482365678E-01  0.19372481170E-01  0.35737005818E-01  0.00000000000E+00 0.  1.
  9000001    1    1    2    0    0  0.15889921261E-01  0.25482365678E-01 -0.19372481170E-01  0.35750994182E-01  0.10000000475E-02 0. -1.
</event>
<event>
 4   0  0.2441219E-02  0.9118800E+02  0.7818609E-02  0.1379984E+01
      -11   -1    0    0    0    0  0.00000000000E+00  0.00000000000E+00  0.35740347158E-01  0.35744000000E-01  0.51099999109E-03 0.  1.
       11   -1    0    0    0    0 -0.00000000000E+00 -0.00000000000E+00 -0.35740347158E-01  0.35744000000E-01  0.51099999109E-03 0. -1.
       22    1    1    2    0    0  0.69605436186E-02  0.17316279035E-01 -0.30476727150E-01  0.35737005818E-01  0.00000000000E+00 0. -1.
  9000001    1    1    2    0    0 -0.69605436186E-02 -0.17316279035E-01  0.30476727150E-01  0.35750994182E-01  0.10000000475E-02 0.  1.
</event>
<event>
 4   0  0.2441219E-02  0.9118800E+02  0.7818609E-02  0.1379984E+01
      -11   -1    0    0    0    0  0.00000000000E+00  0.00000000000E+00  0.35740347158E-01  0.35744000000E-01  0.51099999109E-03 0. -1.
       11   -1    0    0    0    0 -0.00000000000E+00 -0.00000000000E+00 -0.35740347158E-01  0.35744000000E-01  0.51099999109E-03 0.  1.
       22    1    1    2    0    0  0.11140601096E-01 -0.29677805016E-01  0.16499953986E-01  0.35737005818E-01  0.00000000000E+00 0. -1.
  9000001    1    1    2    0    0 -0.11140601096E-01  0.29677805016E-01 -0.16499953986E-01  0.35750994182E-01  0.10000000475E-02 0.  1.
</event>
<event>
 4   0  0.2441219E-02  0.9118800E+02  0.7818609E-02  0.1379984E+01
      -11   -1    0    0    0    0  0.00000000000E+00  0.00000000000E+00  0.35740347158E-01  0.35744000000E-01  0.51099999109E-03 0.  1.
       11   -1    0    0    0    0 -0.00000000000E+00 -0.00000000000E+00 -0.35740347158E-01  0.35744000000E-01  0.51099999109E-03 0. -1.
       22    1    1    2    0    0 -0.30523749657E-01  0.34936499283E-02  0.18254552910E-01  0.35737005818E-01  0.00000000000E+00 0.  1.
  9000001    1    1    2    0    0  0.30523749657E-01 -0.34936499283E-02 -0.18254552910E-01  0.35750994182E-01  0.10000000475E-02 0. -1.
</event>
<event>
 4   0  0.2441219E-02  0.9118800E+02  0.7818609E-02  0.1379984E+01
      -11   -1    0    0    0    0  0.00000000000E+00  0.00000000000E+00  0.35740347158E-01  0.35744000000E-01  0.51099999109E-03 0.  1.
       11   -1    0    0    0    0 -0.00000000000E+00 -0.00000000000E+00 -0.35740347158E-01  0.35744000000E-01  0.51099999109E-03 0. -1.
       22    1    1    2    0    0 -0.11633439801E-01  0.23545635015E-02 -0.33708347542E-01  0.35737005818E-01  0.00000000000E+00 0. -1.
  9000001    1    1    2    0    0  0.11633439801E-01 -0.23545635015E-02  0.33708347542E-01  0.35750994182E-01  0.10000000475E-02 0.  1.
</event>
<event>
 4   0  0.2441219E-02  0.9118800E+02  0.7818609E-02  0.1379984E+01
      -11   -1    0    0    0    0  0.00000000000E+00  0.00000000000E+00  0.35740347158E-01  0.35744000000E-01  0.51099999109E-03 0. -1.
       11   -1    0    0    0    0 -0.00000000000E+00 -0.00000000000E+00 -0.35740347158E-01  0.35744000000E-01  0.51099999109E-03 0.  1.
       22    1    1    2    0    0 -0.11579036445E-01  0.24351314451E-02 -0.33721352801E-01  0.35737005818E-01  0.00000000000E+00 0.  1.
  9000001    1    1    2    0    0  0.11579036445E-01 -0.24351314451E-02  0.33721352801E-01  0.35750994182E-01  0.10000000475E-02 0. -1.
</event>
<event>
 4   0  0.2441219E-02  0.9118800E+02  0.7818609E-02  0.1379984E+01
      -11   -1    0    0    0    0  0.00000000000E+00  0.00000000000E+00  0.35740347158E-01  0.35744000000E-01  0.51099999109E-03 0.  1.
       11   -1    0    0    0    0 -0.00000000000E+00 -0.00000000000E+00 -0.35740347158E-01  0.35744000000E-01  0.51099999109E-03 0. -1.
       22    1    1    2    0    0 -0.18555883840E-01  0.13782846614E-01 -0.27255199486E-01  0.35737005818E-01  0.00000000000E+00 0. -1.
  9000001    1    1    2    0    0  0.18555883840E-01 -0.13782846614E-01  0.27255199486E-01  0.35750994182E-01  0.10000000475E-02 0.  1.
</event>
<event>
 4   0  0.2441219E-02  0.9118800E+02  0.7818609E-02  0.1379984E+01
      -11   -1    0    0    0    0  0.00000000000E+00  0.00000000000E+00  0.35740347158E-01  0.35744000000E-01  0.51099999109E-03 0.  1.
       11   -1    0    0    0    0 -0.00000000000E+00 -0.00000000000E+00 -0.35740347158E-01  0.35744000000E-01  0.51099999109E-03 0. -1.
       22    1    1    2    0    0  0.66345498748E-02 -0.18037007141E-01 -0.30129432557E-01  0.35737005818E-01  0.00000000000E+00 0. -1.
  9000001    1    1    2    0    0 -0.66345498748E-02  0.18037007141E-01  0.30129432557E-01  0.35750994182E-01  0.10000000475E-02 0.  1.
</event>
<event>
 4   0  0.2441219E-02  0.9118800E+02  0.7818609E-02  0.1379984E+01
      -11   -1    0    0    0    0  0.00000000000E+00  0.00000000000E+00  0.35740347158E-01  0.35744000000E-01  0.51099999109E-03 0.  1.
       11   -1    0    0    0    0 -0.00000000000E+00 -0.00000000000E+00 -0.35740347158E-01  0.35744000000E-01  0.51099999109E-03 0. -1.
       22    1    1    2    0    0 -0.14208233429E-02 -0.55997270738E-02  0.35266951989E-01  0.35737005818E-01  0.00000000000E+00 0.  1.
  9000001    1    1    2    0    0  0.14208233429E-02  0.55997270738E-02 -0.35266951989E-01  0.35750994182E-01  0.10000000475E-02 0. -1.
</event>
<event>
 4   0  0.2441219E-02  0.9118800E+02  0.7818609E-02  0.1379984E+01
      -11   -1    0    0    0    0  0.00000000000E+00  0.00000000000E+00  0.35740347158E-01  0.35744000000E-01  0.51099999109E-03 0. -1.
       11   -1    0    0    0    0 -0.00000000000E+00 -0.00000000000E+00 -0.35740347158E-01  0.35744000000E-01  0.51099999109E-03 0.  1.
       22    1    1    2    0    0  0.58436192310E-02 -0.18765110884E-01  0.29847216163E-01  0.35737005818E-01  0.00000000000E+00 0. -1.
  9000001    1    1    2    0    0 -0.58436192310E-02  0.18765110884E-01 -0.29847216163E-01  0.35750994182E-01  0.10000000475E-02 0.  1.
</event>
<event>
 4   0  0.2441219E-02  0.9118800E+02  0.7818609E-02  0.1379984E+01
      -11   -1    0    0    0    0  0.00000000000E+00  0.00000000000E+00  0.35740347158E-01  0.35744000000E-01  0.51099999109E-03 0.  1.
       11   -1    0    0    0    0 -0.00000000000E+00 -0.00000000000E+00 -0.35740347158E-01  0.35744000000E-01  0.51099999109E-03 0. -1.
       22    1    1    2    0    0 -0.13769330736E-02  0.34119154048E-02  0.35547102181E-01  0.35737005818E-01  0.00000000000E+00 0.  1.
  9000001    1    1    2    0    0  0.13769330736E-02 -0.34119154048E-02 -0.35547102181E-01  0.35750994182E-01  0.10000000475E-02 0. -1.
</event>
<event>
 4   0  0.2441219E-02  0.9118800E+02  0.7818609E-02  0.1379984E+01
      -11   -1    0    0    0    0  0.00000000000E+00  0.00000000000E+00  0.35740347158E-01  0.35744000000E-01  0.51099999109E-03 0. -1.
       11   -1    0    0    0    0 -0.00000000000E+00 -0.00000000000E+00 -0.35740347158E-01  0.35744000000E-01  0.51099999109E-03 0.  1.
       22    1    1    2    0    0 -0.12698882667E-01  0.10095093987E-01  0.31842754926E-01  0.35737005818E-01  0.00000000000E+00 0. -1.
  9000001    1    1    2    0    0  0.12698882667E-01 -0.10095093987E-01 -0.31842754926E-01  0.35750994182E-01  0.10000000475E-02 0.  1.
</event>
<event>
 4   0  0.2441219E-02  0.9118800E+02  0.7818609E-02  0.1379984E+01
      -11   -1    0    0    0    0  0.00000000000E+00  0.00000000000E+00  0.35740347158E-01  0.35744000000E-01  0.51099999109E-03 0.  1.
       11   -1    0    0    0    0 -0.00000000000E+00 -0.00000000000E+00 -0.35740347158E-01  0.35744000000E-01  0.51099999109E-03 0. -1.
       22    1    1    2    0    0 -0.44870964730E-02  0.42073716337E-02  0.35203658532E-01  0.35737005818E-01  0.00000000000E+00 0.  1.
  9000001    1    1    2    0    0  0.44870964730E-02 -0.42073716337E-02 -0.35203658532E-01  0.35750994182E-01  0.10000000475E-02 0. -1.
</event>
<event>
 4   0  0.2441219E-02  0.9118800E+02  0.7818609E-02  0.1379984E+01
      -11   -1    0    0    0    0  0.00000000000E+00  0.00000000000E+00  0.35740347158E-01  0.35744000000E-01  0.51099999109E-03 0. -1.
       11   -1    0    0    0    0 -0.00000000000E+00 -0.00000000000E+00 -0.35740347158E-01  0.35744000000E-01  0.51099999109E-03 0.  1.
       22    1    1    2    0    0  0.27621786755E-02 -0.13843687917E-02  0.35603194757E-01  0.35737005818E-01  0.00000000000E+00 0. -1.
  9000001    1    1    2    0    0 -0.27621786755E-02  0.13843687917E-02 -0.35603194757E-01  0.35750994182E-01  0.10000000475E-02 0.  1.
</event>
<event>
 4   0  0.2441219E-02  0.9118800E+02  0.7818609E-02  0.1379984E+01
      -11   -1    0    0    0    0  0.00000000000E+00  0.00000000000E+00  0.35740347158E-01  0.35744000000E-01  0.51099999109E-03 0. -1.
       11   -1    0    0    0    0 -0.00000000000E+00 -0.00000000000E+00 -0.35740347158E-01  0.35744000000E-01  0.51099999109E-03 0.  1.
       22    1    1    2    0    0 -0.53762204781E-02 -0.69102633028E-03  0.35323537774E-01  0.35737005818E-01  0.00000000000E+00 0. -1.
  9000001    1    1    2    0    0  0.53762204781E-02  0.69102633028E-03 -0.35323537774E-01  0.35750994182E-01  0.10000000475E-02 0.  1.
</event>
<event>
 4   0  0.2441219E-02  0.9118800E+02  0.7818609E-02  0.1379984E+01
      -11   -1    0    0    0    0  0.00000000000E+00  0.00000000000E+00  0.35740347158E-01  0.35744000000E-01  0.51099999109E-03 0.  1.
       11   -1    0    0    0    0 -0.00000000000E+00 -0.00000000000E+00 -0.35740347158E-01  0.35744000000E-01  0.51099999109E-03 0. -1.
       22    1    1    2    0    0 -0.15609723208E-01 -0.86371202715E-02 -0.30965630619E-01  0.35737005818E-01  0.00000000000E+00 0. -1.
  9000001    1    1    2    0    0  0.15609723208E-01  0.86371202715E-02  0.30965630619E-01  0.35750994182E-01  0.10000000475E-02 0.  1.
</event>
<event>
 4   0  0.2441219E-02  0.9118800E+02  0.7818609E-02  0.1379984E+01
      -11   -1    0    0    0    0  0.00000000000E+00  0.00000000000E+00  0.35740347158E-01  0.35744000000E-01  0.51099999109E-03 0. -1.
       11   -1    0    0    0    0 -0.00000000000E+00 -0.00000000000E+00 -0.35740347158E-01  0.35744000000E-01  0.51099999109E-03 0.  1.
       22    1    1    2    0    0 -0.14901073225E-01  0.19858069121E-01 -0.25705032433E-01  0.35737005818E-01  0.00000000000E+00 0.  1.
  9000001    1    1    2    0    0  0.14901073225E-01 -0.19858069121E-01  0.25705032433E-01  0.35750994182E-01  0.10000000475E-02 0. -1.
</event>
<event>
 4   0  0.2441219E-02  0.9118800E+02  0.7818609E-02  0.1379984E+01
      -11   -1    0    0    0    0  0.00000000000E+00  0.00000000000E+00  0.35740347158E-01  0.35744000000E-01  0.51099999109E-03 0.  1.
       11   -1    0    0    0    0 -0.00000000000E+00 -0.00000000000E+00 -0.35740347158E-01  0.35744000000E-01  0.51099999109E-03 0. -1.
       22    1    1    2    0    0 -0.11669733341E-01  0.11747758377E-01  0.31669245045E-01  0.35737005818E-01  0.00000000000E+00 0.  1.
  9000001    1    1    2    0    0  0.11669733341E-01 -0.11747758377E-01 -0.31669245045E-01  0.35750994182E-01  0.10000000475E-02 0. -1.
</event>
<event>
 4   0  0.2441219E-02  0.9118800E+02  0.7818609E-02  0.1379984E+01
      -11   -1    0    0    0    0  0.00000000000E+00  0.00000000000E+00  0.35740347158E-01  0.35744000000E-01  0.51099999109E-03 0. -1.
       11   -1    0    0    0    0 -0.00000000000E+00 -0.00000000000E+00 -0.35740347158E-01  0.35744000000E-01  0.51099999109E-03 0.  1.
       22    1    1    2    0    0  0.48133667099E-02  0.13629065927E-01  0.32683537871E-01  0.35737005818E-01  0.00000000000E+00 0. -1.
  9000001    1    1    2    0    0 -0.48133667099E-02 -0.13629065927E-01 -0.32683537871E-01  0.35750994182E-01  0.10000000475E-02 0.  1.
</event>
<event>
 4   0  0.2441219E-02  0.9118800E+02  0.7818609E-02  0.1379984E+01
      -11   -1    0    0    0    0  0.00000000000E+00  0.00000000000E+00  0.35740347158E-01  0.35744000000E-01  0.51099999109E-03 0. -1.
       11   -1    0    0    0    0 -0.00000000000E+00 -0.00000000000E+00 -0.35740347158E-01  0.35744000000E-01  0.51099999109E-03 0.  1.
       22    1    1    2    0    0  0.38634403986E-03  0.93008989497E-02 -0.34503298420E-01  0.35737005818E-01  0.00000000000E+00 0.  1.
  9000001    1    1    2    0    0 -0.38634403986E-03 -0.93008989497E-02  0.34503298420E-01  0.35750994182E-01  0.10000000475E-02 0. -1.
</event>
<event>
 4   0  0.2441219E-02  0.9118800E+02  0.7818609E-02  0.1379984E+01
      -11   -1    0    0    0    0  0.00000000000E+00  0.00000000000E+00  0.35740347158E-01  0.35744000000E-01  0.51099999109E-03 0. -1.
       11   -1    0    0    0    0 -0.00000000000E+00 -0.00000000000E+00 -0.35740347158E-01  0.35744000000E-01  0.51099999109E-03 0.  1.
       22    1    1    2    0    0  0.33456933849E-02 -0.13200825292E-02 -0.35555552348E-01  0.35737005818E-01  0.00000000000E+00 0.  1.
  9000001    1    1    2    0    0 -0.33456933849E-02  0.13200825292E-02  0.35555552348E-01  0.35750994182E-01  0.10000000475E-02 0. -1.
</event>
<event>
 4   0  0.2441219E-02  0.9118800E+02  0.7818609E-02  0.1379984E+01
      -11   -1    0    0    0    0  0.00000000000E+00  0.00000000000E+00  0.35740347158E-01  0.35744000000E-01  0.51099999109E-03 0.  1.
       11   -1    0    0    0    0 -0.00000000000E+00 -0.00000000000E+00 -0.35740347158E-01  0.35744000000E-01  0.51099999109E-03 0. -1.
       22    1    1    2    0    0  0.20317997386E-01  0.56027500409E-02  0.28860383904E-01  0.35737005818E-01  0.00000000000E+00 0.  1.
  9000001    1    1    2    0    0 -0.20317997386E-01 -0.56027500409E-02 -0.28860383904E-01  0.35750994182E-01  0.10000000475E-02 0. -1.
</event>
<event>
 4   0  0.2441219E-02  0.9118800E+02  0.7818609E-02  0.1379984E+01
      -11   -1    0    0    0    0  0.00000000000E+00  0.00000000000E+00  0.35740347158E-01  0.35744000000E-01  0.51099999109E-03 0. -1.
       11   -1    0    0    0    0 -0.00000000000E+00 -0.00000000000E+00 -0.35740347158E-01  0.35744000000E-01  0.51099999109E-03 0.  1.
       22    1    1    2    0    0  0.48054169498E-02  0.93044300121E-03  0.35400223568E-01  0.35737005818E-01  0.00000000000E+00 0. -1.
  9000001    1    1    2    0    0 -0.48054169498E-02 -0.93044300121E-03 -0.35400223568E-01  0.35750994182E-01  0.10000000475E-02 0.  1.
</event>
<event>
 4   0  0.2441219E-02  0.9118800E+02  0.7818609E-02  0.1379984E+01
      -11   -1    0    0    0    0  0.00000000000E+00  0.00000000000E+00  0.35740347158E-01  0.35744000000E-01  0.51099999109E-03 0. -1.
       11   -1    0    0    0    0 -0.00000000000E+00 -0.00000000000E+00 -0.35740347158E-01  0.35744000000E-01  0.51099999109E-03 0.  1.
       22    1    1    2    0    0  0.25550313461E-02 -0.24378950833E-02 -0.35562087499E-01  0.35737005818E-01  0.00000000000E+00 0.  1.
  9000001    1    1    2    0    0 -0.25550313461E-02  0.24378950833E-02  0.35562087499E-01  0.35750994182E-01  0.10000000475E-02 0. -1.
</event>
<event>
 4   0  0.2441219E-02  0.9118800E+02  0.7818609E-02  0.1379984E+01
      -11   -1    0    0    0    0  0.00000000000E+00  0.00000000000E+00  0.35740347158E-01  0.35744000000E-01  0.51099999109E-03 0. -1.
       11   -1    0    0    0    0 -0.00000000000E+00 -0.00000000000E+00 -0.35740347158E-01  0.35744000000E-01  0.51099999109E-03 0.  1.
       22    1    1    2    0    0  0.54607654733E-03  0.33743865937E-02 -0.35573148587E-01  0.35737005818E-01  0.00000000000E+00 0.  1.
  9000001    1    1    2    0    0 -0.54607654733E-03 -0.33743865937E-02  0.35573148587E-01  0.35750994182E-01  0.10000000475E-02 0. -1.
</event>
<event>
 4   0  0.2441219E-02  0.9118800E+02  0.7818609E-02  0.1379984E+01
      -11   -1    0    0    0    0  0.00000000000E+00  0.00000000000E+00  0.35740347158E-01  0.35744000000E-01  0.51099999109E-03 0.  1.
       11   -1    0    0    0    0 -0.00000000000E+00 -0.00000000000E+00 -0.35740347158E-01  0.35744000000E-01  0.51099999109E-03 0. -1.
       22    1    1    2    0    0 -0.12712616243E-01 -0.91603689379E-03  0.33386881399E-01  0.35737005818E-01  0.00000000000E+00 0.  1.
  9000001    1    1    2    0    0  0.12712616243E-01  0.91603689379E-03 -0.33386881399E-01  0.35750994182E-01  0.10000000475E-02 0. -1.
</event>
<event>
 4   0  0.2441219E-02  0.9118800E+02  0.7818609E-02  0.1379984E+01
      -11   -1    0    0    0    0  0.00000000000E+00  0.00000000000E+00  0.35740347158E-01  0.35744000000E-01  0.51099999109E-03 0. -1.
       11   -1    0    0    0    0 -0.00000000000E+00 -0.00000000000E+00 -0.35740347158E-01  0.35744000000E-01  0.51099999109E-03 0.  1.
       22    1    1    2    0    0  0.45975383232E-02  0.32771533417E-02 -0.35288191966E-01  0.35737005818E-01  0.00000000000E+00 0.  1.
  9000001    1    1    2    0    0 -0.45975383232E-02 -0.32771533417E-02  0.35288191966E-01  0.35750994182E-01  0.10000000475E-02 0. -1.
</event>
<event>
 4   0  0.2441219E-02  0.9118800E+02  0.7818609E-02  0.1379984E+01
      -11   -1    0    0    0    0  0.00000000000E+00  0.00000000000E+00  0.35740347158E-01  0.35744000000E-01  0.51099999109E-03 0.  1.
       11   -1    0    0    0    0 -0.00000000000E+00 -0.00000000000E+00 -0.35740347158E-01  0.35744000000E-01  0.51099999109E-03 0. -1.
       22    1    1    2    0    0  0.14563110010E-01 -0.80744217129E-02  0.31620454230E-01  0.35737005818E-01  0.00000000000E+00 0.  1.
  9000001    1    1    2    0    0 -0.14563110010E-01  0.80744217129E-02 -0.31620454230E-01  0.35750994182E-01  0.10000000475E-02 0. -1.
</event>
<event>
 4   0  0.2441219E-02  0.9118800E+02  0.7818609E-02  0.1379984E+01
      -11   -1    0    0    0    0  0.00000000000E+00  0.00000000000E+00  0.35740347158E-01  0.35744000000E-01  0.51099999109E-03 0.  1.
       11   -1    0    0    0    0 -0.00000000000E+00 -0.00000000000E+00 -0.35740347158E-01  0.35744000000E-01  0.51099999109E-03 0. -1.
       22    1    1    2    0    0 -0.10002287857E-01  0.19273849544E-01  0.28383208879E-01  0.35737005818E-01  0.00000000000E+00 0.  1.
  9000001    1    1    2    0    0  0.10002287857E-01 -0.19273849544E-01 -0.28383208879E-01  0.35750994182E-01  0.10000000475E-02 0. -1.
</event>
<event>
 4   0  0.2441219E-02  0.9118800E+02  0.7818609E-02  0.1379984E+01
      -11   -1    0    0    0    0  0.00000000000E+00  0.00000000000E+00  0.35740347158E-01  0.35744000000E-01  0.51099999109E-03 0. -1.
       11   -1    0    0    0    0 -0.00000000000E+00 -0.00000000000E+00 -0.35740347158E-01  0.35744000000E-01  0.51099999109E-03 0.  1.
       22    1    1    2    0    0 -0.20983749620E-02  0.74819568440E-02  0.34881954205E-01  0.35737005818E-01  0.00000000000E+00 0. -1.
  9000001    1    1    2    0    0  0.20983749620E-02 -0.74819568440E-02 -0.34881954205E-01  0.35750994182E-01  0.10000000475E-02 0.  1.
</event>
<event>
 4   0  0.2441219E-02  0.9118800E+02  0.7818609E-02  0.1379984E+01
      -11   -1    0    0    0    0  0.00000000000E+00  0.00000000000E+00  0.35740347158E-01  0.35744000000E-01  0.51099999109E-03 0.  1.
       11   -1    0    0    0    0 -0.00000000000E+00 -0.00000000000E+00 -0.35740347158E-01  0.35744000000E-01  0.51099999109E-03 0. -1.
       22    1    1    2    0    0 -0.94113236566E-03 -0.45368414729E-02 -0.35435362623E-01  0.35737005818E-01  0.00000000000E+00 0. -1.
  9000001    1    1    2    0    0  0.94113236566E-03  0.45368414729E-02  0.35435362623E-01  0.35750994182E-01  0.10000000475E-02 0.  1.
</event>
<event>
 4   0  0.2441219E-02  0.9118800E+02  0.7818609E-02  0.1379984E+01
      -11   -1    0    0    0    0  0.00000000000E+00  0.00000000000E+00  0.35740347158E-01  0.35744000000E-01  0.51099999109E-03 0. -1.
       11   -1    0    0    0    0 -0.00000000000E+00 -0.00000000000E+00 -0.35740347158E-01  0.35744000000E-01  0.51099999109E-03 0.  1.
       22    1    1    2    0    0 -0.39419987276E-02  0.32420305531E-02 -0.35370658303E-01  0.35737005818E-01  0.00000000000E+00 0.  1.
  9000001    1    1    2    0    0  0.39419987276E-02 -0.32420305531E-02  0.35370658303E-01  0.35750994182E-01  0.10000000475E-02 0. -1.
</event>
<event>
 4   0  0.2441219E-02  0.9118800E+02  0.7818609E-02  0.1379984E+01
      -11   -1    0    0    0    0  0.00000000000E+00  0.00000000000E+00  0.35740347158E-01  0.35744000000E-01  0.51099999109E-03 0.  1.
       11   -1    0    0    0    0 -0.00000000000E+00 -0.00000000000E+00 -0.35740347158E-01  0.35744000000E-01  0.51099999109E-03 0. -1.
       22    1    1    2    0    0  0.51742714297E-02  0.41820068293E-02  0.35112267357E-01  0.35737005818E-01  0.00000000000E+00 0.  1.
  9000001    1    1    2    0    0 -0.51742714297E-02 -0.41820068293E-02 -0.35112267357E-01  0.35750994182E-01  0.10000000475E-02 0. -1.
</event>
<event>
 4   0  0.2441219E-02  0.9118800E+02  0.7818609E-02  0.1379984E+01
      -11   -1    0    0    0    0  0.00000000000E+00  0.00000000000E+00  0.35740347158E-01  0.35744000000E-01  0.51099999109E-03 0.  1.
       11   -1    0    0    0    0 -0.00000000000E+00 -0.00000000000E+00 -0.35740347158E-01  0.35744000000E-01  0.51099999109E-03 0. -1.
       22    1    1    2    0    0  0.18636150447E-01  0.22462219718E-01 -0.20622225067E-01  0.35737005818E-01  0.00000000000E+00 0. -1.
  9000001    1    1    2    0    0 -0.18636150447E-01 -0.22462219718E-01  0.20622225067E-01  0.35750994182E-01  0.10000000475E-02 0.  1.
</event>
<event>
 4   0  0.2441219E-02  0.9118800E+02  0.7818609E-02  0.1379984E+01
      -11   -1    0    0    0    0  0.00000000000E+00  0.00000000000E+00  0.35740347158E-01  0.35744000000E-01  0.51099999109E-03 0.  1.
       11   -1    0    0    0    0 -0.00000000000E+00 -0.00000000000E+00 -0.35740347158E-01  0.35744000000E-01  0.51099999109E-03 0. -1.
       22    1    1    2    0    0 -0.21794051244E-02 -0.37678242121E-02  0.35470935692E-01  0.35737005818E-01  0.00000000000E+00 0.  1.
  9000001    1    1    2    0    0  0.21794051244E-02  0.37678242121E-02 -0.35470935692E-01  0.35750994182E-01  0.10000000475E-02 0. -1.
</event>
<event>
 4   0  0.2441219E-02  0.9118800E+02  0.7818609E-02  0.1379984E+01
      -11   -1    0    0    0    0  0.00000000000E+00  0.00000000000E+00  0.35740347158E-01  0.35744000000E-01  0.51099999109E-03 0. -1.
       11   -1    0    0    0    0 -0.00000000000E+00 -0.00000000000E+00 -0.35740347158E-01  0.35744000000E-01  0.51099999109E-03 0.  1.
       22    1    1    2    0    0 -0.10537700128E-01 -0.10695539395E-01 -0.32429861207E-01  0.35737005818E-01  0.00000000000E+00 0.  1.
  9000001    1    1    2    0    0  0.10537700128E-01  0.10695539395E-01  0.32429861207E-01  0.35750994182E-01  0.10000000475E-02 0. -1.
</event>
<event>
 4   0  0.2441219E-02  0.9118800E+02  0.7818609E-02  0.1379984E+01
      -11   -1    0    0    0    0  0.00000000000E+00  0.00000000000E+00  0.35740347158E-01  0.35744000000E-01  0.51099999109E-03 0. -1.
       11   -1    0    0    0    0 -0.00000000000E+00 -0.00000000000E+00 -0.35740347158E-01  0.35744000000E-01  0.51099999109E-03 0.  1.
       22    1    1    2    0    0 -0.26650520189E-02  0.28441334397E-01  0.21473741647E-01  0.35737005818E-01  0.00000000000E+00 0. -1.
  9000001    1    1    2    0    0  0.26650520189E-02 -0.28441334397E-01 -0.21473741647E-01  0.35750994182E-01  0.10000000475E-02 0.  1.
</event>
<event>
 4   0  0.2441219E-02  0.9118800E+02  0.7818609E-02  0.1379984E+01
      -11   -1    0    0    0    0  0.00000000000E+00  0.00000000000E+00  0.35740347158E-01  0.35744000000E-01  0.51099999109E-03 0. -1.
       11   -1    0    0    0    0 -0.00000000000E+00 -0.00000000000E+00 -0.35740347158E-01  0.35744000000E-01  0.51099999109E-03 0.  1.
       22    1    1    2    0    0 -0.37750783828E-02 -0.14214996495E-02 -0.35508614544E-01  0.35737005818E-01  0.00000000000E+00 0.  1.
  9000001    1    1    2    0    0  0.37750783828E-02  0.14214996495E-02  0.35508614544E-01  0.35750994182E-01  0.10000000475E-02 0. -1.
</event>
<event>
 4   0  0.2441219E-02  0.9118800E+02  0.7818609E-02  0.1379984E+01
      -11   -1    0    0    0    0  0.00000000000E+00  0.00000000000E+00  0.35740347158E-01  0.35744000000E-01  0.51099999109E-03 0. -1.
       11   -1    0    0    0    0 -0.00000000000E+00 -0.00000000000E+00 -0.35740347158E-01  0.35744000000E-01  0.51099999109E-03 0.  1.
       22    1    1    2    0    0 -0.13954320924E-01 -0.60863861125E-02 -0.32332126693E-01  0.35737005818E-01  0.00000000000E+00 0.  1.
  9000001    1    1    2    0    0  0.13954320924E-01  0.60863861125E-02  0.32332126693E-01  0.35750994182E-01  0.10000000475E-02 0. -1.
</event>
<event>
 4   0  0.2441219E-02  0.9118800E+02  0.7818609E-02  0.1379984E+01
      -11   -1    0    0    0    0  0.00000000000E+00  0.00000000000E+00  0.35740347158E-01  0.35744000000E-01  0.51099999109E-03 0. -1.
       11   -1    0    0    0    0 -0.00000000000E+00 -0.00000000000E+00 -0.35740347158E-01  0.35744000000E-01  0.51099999109E-03 0.  1.
       22    1    1    2    0    0  0.28828291259E-01  0.18404284265E-03  0.21119406625E-01  0.35737005818E-01  0.00000000000E+00 0. -1.
  9000001    1    1    2    0    0 -0.28828291259E-01 -0.18404284265E-03 -0.21119406625E-01  0.35750994182E-01  0.10000000475E-02 0.  1.
</event>
<event>
 4   0  0.2441219E-02  0.9118800E+02  0.7818609E-02  0.1379984E+01
      -11   -1    0    0    0    0  0.00000000000E+00  0.00000000000E+00  0.35740347158E-01  0.35744000000E-01  0.51099999109E-03 0. -1.
       11   -1    0    0    0    0 -0.00000000000E+00 -0.00000000000E+00 -0.35740347158E-01  0.35744000000E-01  0.51099999109E-03 0.  1.
       22    1    1    2    0    0 -0.16541309204E-01 -0.18798663799E-01  0.25497625655E-01  0.35737005818E-01  0.00000000000E+00 0. -1.
  9000001    1    1    2    0    0  0.16541309204E-01  0.18798663799E-01 -0.25497625655E-01  0.35750994182E-01  0.10000000475E-02 0.  1.
</event>
<event>
 4   0  0.2441219E-02  0.9118800E+02  0.7818609E-02  0.1379984E+01
      -11   -1    0    0    0    0  0.00000000000E+00  0.00000000000E+00  0.35740347158E-01  0.35744000000E-01  0.51099999109E-03 0. -1.
       11   -1    0    0    0    0 -0.00000000000E+00 -0.00000000000E+00 -0.35740347158E-01  0.35744000000E-01  0.51099999109E-03 0.  1.
       22    1    1    2    0    0  0.10762533178E-01  0.90063332687E-02 -0.32866204915E-01  0.35737005818E-01  0.00000000000E+00 0.  1.
  9000001    1    1    2    0    0 -0.10762533178E-01 -0.90063332687E-02  0.32866204915E-01  0.35750994182E-01  0.10000000475E-02 0. -1.
</event>
<event>
 4   0  0.2441219E-02  0.9118800E+02  0.7818609E-02  0.1379984E+01
      -11   -1    0    0    0    0  0.00000000000E+00  0.00000000000E+00  0.35740347158E-01  0.35744000000E-01  0.51099999109E-03 0.  1.
       11   -1    0    0    0    0 -0.00000000000E+00 -0.00000000000E+00 -0.35740347158E-01  0.35744000000E-01  0.51099999109E-03 0. -1.
       22    1    1    2    0    0  0.18823306144E-01 -0.52628574400E-02  0.29918540443E-01  0.35737005818E-01  0.00000000000E+00 0.  1.
  9000001    1    1    2    0    0 -0.18823306144E-01  0.52628574400E-02 -0.29918540443E-01  0.35750994182E-01  0.10000000475E-02 0. -1.
</event>
<event>
 4   0  0.2441219E-02  0.9118800E+02  0.7818609E-02  0.1379984E+01
      -11   -1    0    0    0    0  0.00000000000E+00  0.00000000000E+00  0.35740347158E-01  0.35744000000E-01  0.51099999109E-03 0. -1.
       11   -1    0    0    0    0 -0.00000000000E+00 -0.00000000000E+00 -0.35740347158E-01  0.35744000000E-01  0.51099999109E-03 0.  1.
       22    1    1    2    0    0 -0.45736680773E-02  0.79448428001E-02 -0.34541201746E-01  0.35737005818E-01  0.00000000000E+00 0.  1.
  9000001    1    1    2    0    0  0.45736680773E-02 -0.79448428001E-02  0.34541201746E-01  0.35750994182E-01  0.10000000475E-02 0. -1.
</event>
<event>
 4   0  0.2441219E-02  0.9118800E+02  0.7818609E-02  0.1379984E+01
      -11   -1    0    0    0    0  0.00000000000E+00  0.00000000000E+00  0.35740347158E-01  0.35744000000E-01  0.51099999109E-03 0. -1.
       11   -1    0    0    0    0 -0.00000000000E+00 -0.00000000000E+00 -0.35740347158E-01  0.35744000000E-01  0.51099999109E-03 0.  1.
       22    1    1    2    0    0 -0.46973885345E-03  0.57075328793E-02 -0.35275161215E-01  0.35737005818E-01  0.00000000000E+00 0.  1.
  9000001    1    1    2    0    0  0.46973885345E-03 -0.57075328793E-02  0.35275161215E-01  0.35750994182E-01  0.10000000475E-02 0. -1.
</event>
<event>
 4   0  0.2441219E-02  0.9118800E+02  0.7818609E-02  0.1379984E+01
      -11   -1    0    0    0    0  0.00000000000E+00  0.00000000000E+00  0.35740347158E-01  0.35744000000E-01  0.51099999109E-03 0. -1.
       11   -1    0    0    0    0 -0.00000000000E+00 -0.00000000000E+00 -0.35740347158E-01  0.35744000000E-01  0.51099999109E-03 0.  1.
       22    1    1    2    0    0  0.10470108831E-01  0.32348331717E-01 -0.11004355550E-01  0.35737005818E-01  0.00000000000E+00 0. -1.
  9000001    1    1    2    0    0 -0.10470108831E-01 -0.32348331717E-01  0.11004355550E-01  0.35750994182E-01  0.10000000475E-02 0.  1.
</event>
<event>
 4   0  0.2441219E-02  0.9118800E+02  0.7818609E-02  0.1379984E+01
      -11   -1    0    0    0    0  0.00000000000E+00  0.00000000000E+00  0.35740347158E-01  0.35744000000E-01  0.51099999109E-03 0.  1.
       11   -1    0    0    0    0 -0.00000000000E+00 -0.00000000000E+00 -0.35740347158E-01  0.35744000000E-01  0.51099999109E-03 0. -1.
       22    1    1    2    0    0  0.48811740334E-03  0.32124278391E-02 -0.35588981914E-01  0.35737005818E-01  0.00000000000E+00 0. -1.
  9000001    1    1    2    0    0 -0.48811740334E-03 -0.32124278391E-02  0.35588981914E-01  0.35750994182E-01  0.10000000475E-02 0.  1.
</event>
<event>
 4   0  0.2441219E-02  0.9118800E+02  0.7818609E-02  0.1379984E+01
      -11   -1    0    0    0    0  0.00000000000E+00  0.00000000000E+00  0.35740347158E-01  0.35744000000E-01  0.51099999109E-03 0. -1.
       11   -1    0    0    0    0 -0.00000000000E+00 -0.00000000000E+00 -0.35740347158E-01  0.35744000000E-01  0.51099999109E-03 0.  1.
       22    1    1    2    0    0  0.41992678400E-02  0.20206550762E-02 -0.35431859781E-01  0.35737005818E-01  0.00000000000E+00 0.  1.
  9000001    1    1    2    0    0 -0.41992678400E-02 -0.20206550762E-02  0.35431859781E-01  0.35750994182E-01  0.10000000475E-02 0. -1.
</event>
<event>
 4   0  0.2441219E-02  0.9118800E+02  0.7818609E-02  0.1379984E+01
      -11   -1    0    0    0    0  0.00000000000E+00  0.00000000000E+00  0.35740347158E-01  0.35744000000E-01  0.51099999109E-03 0.  1.
       11   -1    0    0    0    0 -0.00000000000E+00 -0.00000000000E+00 -0.35740347158E-01  0.35744000000E-01  0.51099999109E-03 0. -1.
       22    1    1    2    0    0  0.21480750352E-02 -0.33125643032E-02  0.35518252720E-01  0.35737005818E-01  0.00000000000E+00 0.  1.
  9000001    1    1    2    0    0 -0.21480750352E-02  0.33125643032E-02 -0.35518252720E-01  0.35750994182E-01  0.10000000475E-02 0. -1.
</event>
<event>
 4   0  0.2441219E-02  0.9118800E+02  0.7818609E-02  0.1379984E+01
      -11   -1    0    0    0    0  0.00000000000E+00  0.00000000000E+00  0.35740347158E-01  0.35744000000E-01  0.51099999109E-03 0. -1.
       11   -1    0    0    0    0 -0.00000000000E+00 -0.00000000000E+00 -0.35740347158E-01  0.35744000000E-01  0.51099999109E-03 0.  1.
       22    1    1    2    0    0 -0.72081649376E-02 -0.12636262425E-01 -0.32642009972E-01  0.35737005818E-01  0.00000000000E+00 0.  1.
  9000001    1    1    2    0    0  0.72081649376E-02  0.12636262425E-01  0.32642009972E-01  0.35750994182E-01  0.10000000475E-02 0. -1.
</event>
<event>
 4   0  0.2441219E-02  0.9118800E+02  0.7818609E-02  0.1379984E+01
      -11   -1    0    0    0    0  0.00000000000E+00  0.00000000000E+00  0.35740347158E-01  0.35744000000E-01  0.51099999109E-03 0.  1.
       11   -1    0    0    0    0 -0.00000000000E+00 -0.00000000000E+00 -0.35740347158E-01  0.35744000000E-01  0.51099999109E-03 0. -1.
       22    1    1    2    0    0  0.12055149436E-02 -0.15331568464E-01 -0.32258693821E-01  0.35737005818E-01  0.00000000000E+00 0. -1.
  9000001    1    1    2    0    0 -0.12055149436E-02  0.15331568464E-01  0.32258693821E-01  0.35750994182E-01  0.10000000475E-02 0.  1.
</event>
<event>
 4   0  0.2441219E-02  0.9118800E+02  0.7818609E-02  0.1379984E+01
      -11   -1    0    0    0    0  0.00000000000E+00  0.00000000000E+00  0.35740347158E-01  0.35744000000E-01  0.51099999109E-03 0.  1.
       11   -1    0    0    0    0 -0.00000000000E+00 -0.00000000000E+00 -0.35740347158E-01  0.35744000000E-01  0.51099999109E-03 0. -1.
       22    1    1    2    0    0 -0.60290121157E-02  0.71141461014E-02 -0.34498891620E-01  0.35737005818E-01  0.00000000000E+00 0. -1.
  9000001    1    1    2    0    0  0.60290121157E-02 -0.71141461014E-02  0.34498891620E-01  0.35750994182E-01  0.10000000475E-02 0.  1.
</event>
<event>
 4   0  0.2441219E-02  0.9118800E+02  0.7818609E-02  0.1379984E+01
      -11   -1    0    0    0    0  0.00000000000E+00  0.00000000000E+00  0.35740347158E-01  0.35744000000E-01  0.51099999109E-03 0.  1.
       11   -1    0    0    0    0 -0.00000000000E+00 -0.00000000000E+00 -0.35740347158E-01  0.35744000000E-01  0.51099999109E-03 0. -1.
       22    1    1    2    0    0  0.44621171538E-02 -0.80585025050E-03 -0.35448183321E-01  0.35737005818E-01  0.00000000000E+00 0. -1.
  9000001    1    1    2    0    0 -0.44621171538E-02  0.80585025050E-03  0.35448183321E-01  0.35750994182E-01  0.10000000475E-02 0.  1.
</event>
<event>
 4   0  0.2441219E-02  0.9118800E+02  0.7818609E-02  0.1379984E+01
      -11   -1    0    0    0    0  0.00000000000E+00  0.00000000000E+00  0.35740347158E-01  0.35744000000E-01  0.51099999109E-03 0.  1.
       11   -1    0    0    0    0 -0.00000000000E+00 -0.00000000000E+00 -0.35740347158E-01  0.35744000000E-01  0.51099999109E-03 0. -1.
       22    1    1    2    0    0  0.97060362002E-02  0.34346303925E-01  0.18049523032E-02  0.35737005818E-01  0.00000000000E+00 0.  1.
  9000001    1    1    2    0    0 -0.97060362002E-02 -0.34346303925E-01 -0.18049523032E-02  0.35750994182E-01  0.10000000475E-02 0. -1.
</event>
<event>
 4   0  0.2441219E-02  0.9118800E+02  0.7818609E-02  0.1379984E+01
      -11   -1    0    0    0    0  0.00000000000E+00  0.00000000000E+00  0.35740347158E-01  0.35744000000E-01  0.51099999109E-03 0. -1.
       11   -1    0    0    0    0 -0.00000000000E+00 -0.00000000000E+00 -0.35740347158E-01  0.35744000000E-01  0.51099999109E-03 0.  1.
       22    1    1    2    0    0 -0.48532302876E-02 -0.29728130518E-02 -0.35280903095E-01  0.35737005818E-01  0.00000000000E+00 0.  1.
  9000001    1    1    2    0    0  0.48532302876E-02  0.29728130518E-02  0.35280903095E-01  0.35750994182E-01  0.10000000475E-02 0. -1.
</event>
<event>
 4   0  0.2441219E-02  0.9118800E+02  0.7818609E-02  0.1379984E+01
      -11   -1    0    0    0    0  0.00000000000E+00  0.00000000000E+00  0.35740347158E-01  0.35744000000E-01  0.51099999109E-03 0. -1.
       11   -1    0    0    0    0 -0.00000000000E+00 -0.00000000000E+00 -0.35740347158E-01  0.35744000000E-01  0.51099999109E-03 0.  1.
       22    1    1    2    0    0 -0.15673102913E-01  0.89253027211E-02  0.30851683930E-01  0.35737005818E-01  0.00000000000E+00 0. -1.
  9000001    1    1    2    0    0  0.15673102913E-01 -0.89253027211E-02 -0.30851683930E-01  0.35750994182E-01  0.10000000475E-02 0.  1.
</event>
<event>
 4   0  0.2441219E-02  0.9118800E+02  0.7818609E-02  0.1379984E+01
      -11   -1    0    0    0    0  0.00000000000E+00  0.00000000000E+00  0.35740347158E-01  0.35744000000E-01  0.51099999109E-03 0.  1.
       11   -1    0    0    0    0 -0.00000000000E+00 -0.00000000000E+00 -0.35740347158E-01  0.35744000000E-01  0.51099999109E-03 0. -1.
       22    1    1    2    0    0 -0.36784575210E-02  0.62713156812E-02  0.34989614670E-01  0.35737005818E-01  0.00000000000E+00 0.  1.
  9000001    1    1    2    0    0  0.36784575210E-02 -0.62713156812E-02 -0.34989614670E-01  0.35750994182E-01  0.10000000475E-02 0. -1.
</event>
<event>
 4   0  0.2441219E-02  0.9118800E+02  0.7818609E-02  0.1379984E+01
      -11   -1    0    0    0    0  0.00000000000E+00  0.00000000000E+00  0.35740347158E-01  0.35744000000E-01  0.51099999109E-03 0.  1.
       11   -1    0    0    0    0 -0.00000000000E+00 -0.00000000000E+00 -0.35740347158E-01  0.35744000000E-01  0.51099999109E-03 0. -1.
       22    1    1    2    0    0  0.49584672213E-02  0.58073759806E-02 -0.34911625169E-01  0.35737005818E-01  0.00000000000E+00 0. -1.
  9000001    1    1    2    0    0 -0.49584672213E-02 -0.58073759806E-02  0.34911625169E-01  0.35750994182E-01  0.10000000475E-02 0.  1.
</event>
<event>
 4   0  0.2441219E-02  0.9118800E+02  0.7818609E-02  0.1379984E+01
      -11   -1    0    0    0    0  0.00000000000E+00  0.00000000000E+00  0.35740347158E-01  0.35744000000E-01  0.51099999109E-03 0. -1.
       11   -1    0    0    0    0 -0.00000000000E+00 -0.00000000000E+00 -0.35740347158E-01  0.35744000000E-01  0.51099999109E-03 0.  1.
       22    1    1    2    0    0 -0.24309645222E-02  0.51997166646E-02  0.35273034218E-01  0.35737005818E-01  0.00000000000E+00 0. -1.
  9000001    1    1    2    0    0  0.24309645222E-02 -0.51997166646E-02 -0.35273034218E-01  0.35750994182E-01  0.10000000475E-02 0.  1.
</event>
<event>
 4   0  0.2441219E-02  0.9118800E+02  0.7818609E-02  0.1379984E+01
      -11   -1    0    0    0    0  0.00000000000E+00  0.00000000000E+00  0.35740347158E-01  0.35744000000E-01  0.51099999109E-03 0. -1.
       11   -1    0    0    0    0 -0.00000000000E+00 -0.00000000000E+00 -0.35740347158E-01  0.35744000000E-01  0.51099999109E-03 0.  1.
       22    1    1    2    0    0  0.17349128213E-01  0.99832491025E-05 -0.31243259040E-01  0.35737005818E-01  0.00000000000E+00 0.  1.
  9000001    1    1    2    0    0 -0.17349128213E-01 -0.99832491025E-05  0.31243259040E-01  0.35750994182E-01  0.10000000475E-02 0. -1.
</event>
<event>
 4   0  0.2441219E-02  0.9118800E+02  0.7818609E-02  0.1379984E+01
      -11   -1    0    0    0    0  0.00000000000E+00  0.00000000000E+00  0.35740347158E-01  0.35744000000E-01  0.51099999109E-03 0.  1.
       11   -1    0    0    0    0 -0.00000000000E+00 -0.00000000000E+00 -0.35740347158E-01  0.35744000000E-01  0.51099999109E-03 0. -1.
       22    1    1    2    0    0  0.15296747767E-01  0.85243453131E-02  0.31152505992E-01  0.35737005818E-01  0.00000000000E+00 0.  1.
  9000001    1    1    2    0    0 -0.15296747767E-01 -0.85243453131E-02 -0.31152505992E-01  0.35750994182E-01  0.10000000475E-02 0. -1.
</event>
<event>
 4   0  0.2441219E-02  0.9118800E+02  0.7818609E-02  0.1379984E+01
      -11   -1    0    0    0    0  0.00000000000E+00  0.00000000000E+00  0.35740347158E-01  0.35744000000E-01  0.51099999109E-03 0.  1.
       11   -1    0    0    0    0 -0.00000000000E+00 -0.00000000000E+00 -0.35740347158E-01  0.35744000000E-01  0.51099999109E-03 0. -1.
       22    1    1    2    0    0  0.12198586820E-01 -0.32500997293E-02  0.33432991434E-01  0.35737005818E-01  0.00000000000E+00 0.  1.
  9000001    1    1    2    0    0 -0.12198586820E-01  0.32500997293E-02 -0.33432991434E-01  0.35750994182E-01  0.10000000475E-02 0. -1.
</event>
<event>
 4   0  0.2441219E-02  0.9118800E+02  0.7818609E-02  0.1379984E+01
      -11   -1    0    0    0    0  0.00000000000E+00  0.00000000000E+00  0.35740347158E-01  0.35744000000E-01  0.51099999109E-03 0.  1.
       11   -1    0    0    0    0 -0.00000000000E+00 -0.00000000000E+00 -0.35740347158E-01  0.35744000000E-01  0.51099999109E-03 0. -1.
       22    1    1    2    0    0  0.24181640201E-02  0.10044151830E-01 -0.34211125115E-01  0.35737005818E-01  0.00000000000E+00 0. -1.
  9000001    1    1    2    0    0 -0.24181640201E-02 -0.10044151830E-01  0.34211125115E-01  0.35750994182E-01  0.10000000475E-02 0.  1.
</event>
<event>
 4   0  0.2441219E-02  0.9118800E+02  0.7818609E-02  0.1379984E+01
      -11   -1    0    0    0    0  0.00000000000E+00  0.00000000000E+00  0.35740347158E-01  0.35744000000E-01  0.51099999109E-03 0. -1.
       11   -1    0    0    0    0 -0.00000000000E+00 -0.00000000000E+00 -0.35740347158E-01  0.35744000000E-01  0.51099999109E-03 0.  1.
       22    1    1    2    0    0 -0.11762973957E-01 -0.25188015200E-01 -0.22457290995E-01  0.35737005818E-01  0.00000000000E+00 0.  1.
  9000001    1    1    2    0    0  0.11762973957E-01  0.25188015200E-01  0.22457290995E-01  0.35750994182E-01  0.10000000475E-02 0. -1.
</event>
<event>
 4   0  0.2441219E-02  0.9118800E+02  0.7818609E-02  0.1379984E+01
      -11   -1    0    0    0    0  0.00000000000E+00  0.00000000000E+00  0.35740347158E-01  0.35744000000E-01  0.51099999109E-03 0. -1.
       11   -1    0    0    0    0 -0.00000000000E+00 -0.00000000000E+00 -0.35740347158E-01  0.35744000000E-01  0.51099999109E-03 0.  1.
       22    1    1    2    0    0  0.38650607135E-02  0.64271102960E-02  0.34941195512E-01  0.35737005818E-01  0.00000000000E+00 0. -1.
  9000001    1    1    2    0    0 -0.38650607135E-02 -0.64271102960E-02 -0.34941195512E-01  0.35750994182E-01  0.10000000475E-02 0.  1.
</event>
<event>
 4   0  0.2441219E-02  0.9118800E+02  0.7818609E-02  0.1379984E+01
      -11   -1    0    0    0    0  0.00000000000E+00  0.00000000000E+00  0.35740347158E-01  0.35744000000E-01  0.51099999109E-03 0. -1.
       11   -1    0    0    0    0 -0.00000000000E+00 -0.00000000000E+00 -0.35740347158E-01  0.35744000000E-01  0.51099999109E-03 0.  1.
       22    1    1    2    0    0  0.55119511225E-02 -0.74245760028E-02  0.34519960181E-01  0.35737005818E-01  0.00000000000E+00 0. -1.
  9000001    1    1    2    0    0 -0.55119511225E-02  0.74245760028E-02 -0.34519960181E-01  0.35750994182E-01  0.10000000475E-02 0.  1.
</event>
<event>
 4   0  0.2441219E-02  0.9118800E+02  0.7818609E-02  0.1379984E+01
      -11   -1    0    0    0    0  0.00000000000E+00  0.00000000000E+00  0.35740347158E-01  0.35744000000E-01  0.51099999109E-03 0. -1.
       11   -1    0    0    0    0 -0.00000000000E+00 -0.00000000000E+00 -0.35740347158E-01  0.35744000000E-01  0.51099999109E-03 0.  1.
       22    1    1    2    0    0 -0.84771723925E-02  0.91077219827E-02  0.33501052721E-01  0.35737005818E-01  0.00000000000E+00 0. -1.
  9000001    1    1    2    0    0  0.84771723925E-02 -0.91077219827E-02 -0.33501052721E-01  0.35750994182E-01  0.10000000475E-02 0.  1.
</event>
<event>
 4   0  0.2441219E-02  0.9118800E+02  0.7818609E-02  0.1379984E+01
      -11   -1    0    0    0    0  0.00000000000E+00  0.00000000000E+00  0.35740347158E-01  0.35744000000E-01  0.51099999109E-03 0. -1.
       11   -1    0    0    0    0 -0.00000000000E+00 -0.00000000000E+00 -0.35740347158E-01  0.35744000000E-01  0.51099999109E-03 0.  1.
       22    1    1    2    0    0  0.40646537575E-02  0.98670679396E-02  0.34106497108E-01  0.35737005818E-01  0.00000000000E+00 0. -1.
  9000001    1    1    2    0    0 -0.40646537575E-02 -0.98670679396E-02 -0.34106497108E-01  0.35750994182E-01  0.10000000475E-02 0.  1.
</event>
<event>
 4   0  0.2441219E-02  0.9118800E+02  0.7818609E-02  0.1379984E+01
      -11   -1    0    0    0    0  0.00000000000E+00  0.00000000000E+00  0.35740347158E-01  0.35744000000E-01  0.51099999109E-03 0. -1.
       11   -1    0    0    0    0 -0.00000000000E+00 -0.00000000000E+00 -0.35740347158E-01  0.35744000000E-01  0.51099999109E-03 0.  1.
       22    1    1    2    0    0 -0.88563075710E-02 -0.72896599839E-02 -0.33846126195E-01  0.35737005818E-01  0.00000000000E+00 0.  1.
  9000001    1    1    2    0    0  0.88563075710E-02  0.72896599839E-02  0.33846126195E-01  0.35750994182E-01  0.10000000475E-02 0. -1.
</event>
<event>
 4   0  0.2441219E-02  0.9118800E+02  0.7818609E-02  0.1379984E+01
      -11   -1    0    0    0    0  0.00000000000E+00  0.00000000000E+00  0.35740347158E-01  0.35744000000E-01  0.51099999109E-03 0. -1.
       11   -1    0    0    0    0 -0.00000000000E+00 -0.00000000000E+00 -0.35740347158E-01  0.35744000000E-01  0.51099999109E-03 0.  1.
       22    1    1    2    0    0  0.62736911629E-02  0.81091168652E-02 -0.34234728095E-01  0.35737005818E-01  0.00000000000E+00 0.  1.
  9000001    1    1    2    0    0 -0.62736911629E-02 -0.81091168652E-02  0.34234728095E-01  0.35750994182E-01  0.10000000475E-02 0. -1.
</event>
<event>
 4   0  0.2441219E-02  0.9118800E+02  0.7818609E-02  0.1379984E+01
      -11   -1    0    0    0    0  0.00000000000E+00  0.00000000000E+00  0.35740347158E-01  0.35744000000E-01  0.51099999109E-03 0. -1.
       11   -1    0    0    0    0 -0.00000000000E+00 -0.00000000000E+00 -0.35740347158E-01  0.35744000000E-01  0.51099999109E-03 0.  1.
       22    1    1    2    0    0 -0.18431506495E-01 -0.27195871527E-01 -0.14064057916E-01  0.35737005818E-01  0.00000000000E+00 0.  1.
  9000001    1    1    2    0    0  0.18431506495E-01  0.27195871527E-01  0.14064057916E-01  0.35750994182E-01  0.10000000475E-02 0. -1.
</event>
<event>
 4   0  0.2441219E-02  0.9118800E+02  0.7818609E-02  0.1379984E+01
      -11   -1    0    0    0    0  0.00000000000E+00  0.00000000000E+00  0.35740347158E-01  0.35744000000E-01  0.51099999109E-03 0. -1.
       11   -1    0    0    0    0 -0.00000000000E+00 -0.00000000000E+00 -0.35740347158E-01  0.35744000000E-01  0.51099999109E-03 0.  1.
       22    1    1    2    0    0  0.89689183396E-02 -0.48790589973E-02  0.34247435991E-01  0.35737005818E-01  0.00000000000E+00 0. -1.
  9000001    1    1    2    0    0 -0.89689183396E-02  0.48790589973E-02 -0.34247435991E-01  0.35750994182E-01  0.10000000475E-02 0.  1.
</event>
<event>
 4   0  0.2441219E-02  0.9118800E+02  0.7818609E-02  0.1379984E+01
      -11   -1    0    0    0    0  0.00000000000E+00  0.00000000000E+00  0.35740347158E-01  0.35744000000E-01  0.51099999109E-03 0. -1.
       11   -1    0    0    0    0 -0.00000000000E+00 -0.00000000000E+00 -0.35740347158E-01  0.35744000000E-01  0.51099999109E-03 0.  1.
       22    1    1    2    0    0  0.17680681809E-01  0.42459118802E-02 -0.30765228878E-01  0.35737005818E-01  0.00000000000E+00 0.  1.
  9000001    1    1    2    0    0 -0.17680681809E-01 -0.42459118802E-02  0.30765228878E-01  0.35750994182E-01  0.10000000475E-02 0. -1.
</event>
<event>
 4   0  0.2441219E-02  0.9118800E+02  0.7818609E-02  0.1379984E+01
      -11   -1    0    0    0    0  0.00000000000E+00  0.00000000000E+00  0.35740347158E-01  0.35744000000E-01  0.51099999109E-03 0.  1.
       11   -1    0    0    0    0 -0.00000000000E+00 -0.00000000000E+00 -0.35740347158E-01  0.35744000000E-01  0.51099999109E-03 0. -1.
       22    1    1    2    0    0 -0.22753909115E-01 -0.18420651095E-01  0.20495678034E-01  0.35737005818E-01  0.00000000000E+00 0.  1.
  9000001    1    1    2    0    0  0.22753909115E-01  0.18420651095E-01 -0.20495678034E-01  0.35750994182E-01  0.10000000475E-02 0. -1.
</event>
<event>
 4   0  0.2441219E-02  0.9118800E+02  0.7818609E-02  0.1379984E+01
      -11   -1    0    0    0    0  0.00000000000E+00  0.00000000000E+00  0.35740347158E-01  0.35744000000E-01  0.51099999109E-03 0.  1.
       11   -1    0    0    0    0 -0.00000000000E+00 -0.00000000000E+00 -0.35740347158E-01  0.35744000000E-01  0.51099999109E-03 0. -1.
       22    1    1    2    0    0 -0.27684640143E-01 -0.13442725171E-02 -0.22558528685E-01  0.35737005818E-01  0.00000000000E+00 0. -1.
  9000001    1    1    2    0    0  0.27684640143E-01  0.13442725171E-02  0.22558528685E-01  0.35750994182E-01  0.10000000475E-02 0.  1.
</event>
<event>
 4   0  0.2441219E-02  0.9118800E+02  0.7818609E-02  0.1379984E+01
      -11   -1    0    0    0    0  0.00000000000E+00  0.00000000000E+00  0.35740347158E-01  0.35744000000E-01  0.51099999109E-03 0. -1.
       11   -1    0    0    0    0 -0.00000000000E+00 -0.00000000000E+00 -0.35740347158E-01  0.35744000000E-01  0.51099999109E-03 0.  1.
       22    1    1    2    0    0  0.83498369160E-02  0.15750993662E-02 -0.34712142981E-01  0.35737005818E-01  0.00000000000E+00 0.  1.
  9000001    1    1    2    0    0 -0.83498369160E-02 -0.15750993662E-02  0.34712142981E-01  0.35750994182E-01  0.10000000475E-02 0. -1.
</event>
<event>
 4   0  0.2441219E-02  0.9118800E+02  0.7818609E-02  0.1379984E+01
      -11   -1    0    0    0    0  0.00000000000E+00  0.00000000000E+00  0.35740347158E-01  0.35744000000E-01  0.51099999109E-03 0.  1.
       11   -1    0    0    0    0 -0.00000000000E+00 -0.00000000000E+00 -0.35740347158E-01  0.35744000000E-01  0.51099999109E-03 0. -1.
       22    1    1    2    0    0 -0.71283275394E-02  0.21737077385E-02 -0.34951330819E-01  0.35737005818E-01  0.00000000000E+00 0. -1.
  9000001    1    1    2    0    0  0.71283275394E-02 -0.21737077385E-02  0.34951330819E-01  0.35750994182E-01  0.10000000475E-02 0.  1.
</event>
<event>
 4   0  0.2441219E-02  0.9118800E+02  0.7818609E-02  0.1379984E+01
      -11   -1    0    0    0    0  0.00000000000E+00  0.00000000000E+00  0.35740347158E-01  0.35744000000E-01  0.51099999109E-03 0. -1.
       11   -1    0    0    0    0 -0.00000000000E+00 -0.00000000000E+00 -0.35740347158E-01  0.35744000000E-01  0.51099999109E-03 0.  1.
       22    1    1    2    0    0  0.56203540572E-02 -0.35271604594E-01  0.12079381347E-02  0.35737005818E-01  0.00000000000E+00 0.  1.
  9000001    1    1    2    0    0 -0.56203540572E-02  0.35271604594E-01 -0.12079381347E-02  0.35750994182E-01  0.10000000475E-02 0. -1.
</event>
<event>
 4   0  0.2441219E-02  0.9118800E+02  0.7818609E-02  0.1379984E+01
      -11   -1    0    0    0    0  0.00000000000E+00  0.00000000000E+00  0.35740347158E-01  0.35744000000E-01  0.51099999109E-03 0. -1.
       11   -1    0    0    0    0 -0.00000000000E+00 -0.00000000000E+00 -0.35740347158E-01  0.35744000000E-01  0.51099999109E-03 0.  1.
       22    1    1    2    0    0  0.41762628990E-04  0.33163785038E-02 -0.35582769347E-01  0.35737005818E-01  0.00000000000E+00 0.  1.
  9000001    1    1    2    0    0 -0.41762628990E-04 -0.33163785038E-02  0.35582769347E-01  0.35750994182E-01  0.10000000475E-02 0. -1.
</event>
<event>
 4   0  0.2441219E-02  0.9118800E+02  0.7818609E-02  0.1379984E+01
      -11   -1    0    0    0    0  0.00000000000E+00  0.00000000000E+00  0.35740347158E-01  0.35744000000E-01  0.51099999109E-03 0. -1.
       11   -1    0    0    0    0 -0.00000000000E+00 -0.00000000000E+00 -0.35740347158E-01  0.35744000000E-01  0.51099999109E-03 0.  1.
       22    1    1    2    0    0 -0.96124345925E-02  0.29341708438E-01 -0.17994411132E-01  0.35737005818E-01  0.00000000000E+00 0.  1.
  9000001    1    1    2    0    0  0.96124345925E-02 -0.29341708438E-01  0.17994411132E-01  0.35750994182E-01  0.10000000475E-02 0. -1.
</event>
<event>
 4   0  0.2441219E-02  0.9118800E+02  0.7818609E-02  0.1379984E+01
      -11   -1    0    0    0    0  0.00000000000E+00  0.00000000000E+00  0.35740347158E-01  0.35744000000E-01  0.51099999109E-03 0. -1.
       11   -1    0    0    0    0 -0.00000000000E+00 -0.00000000000E+00 -0.35740347158E-01  0.35744000000E-01  0.51099999109E-03 0.  1.
       22    1    1    2    0    0  0.23740842257E-01  0.21725712699E-01  0.15540251013E-01  0.35737005818E-01  0.00000000000E+00 0.  1.
  9000001    1    1    2    0    0 -0.23740842257E-01 -0.21725712699E-01 -0.15540251013E-01  0.35750994182E-01  0.10000000475E-02 0. -1.
</event>
<event>
 4   0  0.2441219E-02  0.9118800E+02  0.7818609E-02  0.1379984E+01
      -11   -1    0    0    0    0  0.00000000000E+00  0.00000000000E+00  0.35740347158E-01  0.35744000000E-01  0.51099999109E-03 0.  1.
       11   -1    0    0    0    0 -0.00000000000E+00 -0.00000000000E+00 -0.35740347158E-01  0.35744000000E-01  0.51099999109E-03 0. -1.
       22    1    1    2    0    0  0.55008855747E-02  0.59800827557E-02  0.34801040976E-01  0.35737005818E-01  0.00000000000E+00 0.  1.
  9000001    1    1    2    0    0 -0.55008855747E-02 -0.59800827557E-02 -0.34801040976E-01  0.35750994182E-01  0.10000000475E-02 0. -1.
</event>
<event>
 4   0  0.2441219E-02  0.9118800E+02  0.7818609E-02  0.1379984E+01
      -11   -1    0    0    0    0  0.00000000000E+00  0.00000000000E+00  0.35740347158E-01  0.35744000000E-01  0.51099999109E-03 0.  1.
       11   -1    0    0    0    0 -0.00000000000E+00 -0.00000000000E+00 -0.35740347158E-01  0.35744000000E-01  0.51099999109E-03 0. -1.
       22    1    1    2    0    0  0.47448406260E-02  0.31869410175E-02  0.35276953940E-01  0.35737005818E-01  0.00000000000E+00 0.  1.
  9000001    1    1    2    0    0 -0.47448406260E-02 -0.31869410175E-02 -0.35276953940E-01  0.35750994182E-01  0.10000000475E-02 0. -1.
</event>
<event>
 4   0  0.2441219E-02  0.9118800E+02  0.7818609E-02  0.1379984E+01
      -11   -1    0    0    0    0  0.00000000000E+00  0.00000000000E+00  0.35740347158E-01  0.35744000000E-01  0.51099999109E-03 0.  1.
       11   -1    0    0    0    0 -0.00000000000E+00 -0.00000000000E+00 -0.35740347158E-01  0.35744000000E-01  0.51099999109E-03 0. -1.
       22    1    1    2    0    0 -0.45332836243E-02  0.14196264777E-01 -0.32481517681E-01  0.35737005818E-01  0.00000000000E+00 0. -1.
  9000001    1    1    2    0    0  0.45332836243E-02 -0.14196264777E-01  0.32481517681E-01  0.35750994182E-01  0.10000000475E-02 0.  1.
</event>
<event>
 4   0  0.2441219E-02  0.9118800E+02  0.7818609E-02  0.1379984E+01
      -11   -1    0    0    0    0  0.00000000000E+00  0.00000000000E+00  0.35740347158E-01  0.35744000000E-01  0.51099999109E-03 0.  1.
       11   -1    0    0    0    0 -0.00000000000E+00 -0.00000000000E+00 -0.35740347158E-01  0.35744000000E-01  0.51099999109E-03 0. -1.
       22    1    1    2    0    0 -0.34943106454E-02  0.11156555055E-01  0.33770618255E-01  0.35737005818E-01  0.00000000000E+00 0.  1.
  9000001    1    1    2    0    0  0.34943106454E-02 -0.11156555055E-01 -0.33770618255E-01  0.35750994182E-01  0.10000000475E-02 0. -1.
</event>
<event>
 4   0  0.2441219E-02  0.9118800E+02  0.7818609E-02  0.1379984E+01
      -11   -1    0    0    0    0  0.00000000000E+00  0.00000000000E+00  0.35740347158E-01  0.35744000000E-01  0.51099999109E-03 0.  1.
       11   -1    0    0    0    0 -0.00000000000E+00 -0.00000000000E+00 -0.35740347158E-01  0.35744000000E-01  0.51099999109E-03 0. -1.
       22    1    1    2    0    0 -0.71510570486E-02  0.99468510046E-02 -0.33571656543E-01  0.35737005818E-01  0.00000000000E+00 0. -1.
  9000001    1    1    2    0    0  0.71510570486E-02 -0.99468510046E-02  0.33571656543E-01  0.35750994182E-01  0.10000000475E-02 0.  1.
</event>
<event>
 4   0  0.2441219E-02  0.9118800E+02  0.7818609E-02  0.1379984E+01
      -11   -1    0    0    0    0  0.00000000000E+00  0.00000000000E+00  0.35740347158E-01  0.35744000000E-01  0.51099999109E-03 0.  1.
       11   -1    0    0    0    0 -0.00000000000E+00 -0.00000000000E+00 -0.35740347158E-01  0.35744000000E-01  0.51099999109E-03 0. -1.
       22    1    1    2    0    0 -0.59543740808E-02  0.18095312697E-02  0.35190973427E-01  0.35737005818E-01  0.00000000000E+00 0.  1.
  9000001    1    1    2    0    0  0.59543740808E-02 -0.18095312697E-02 -0.35190973427E-01  0.35750994182E-01  0.10000000475E-02 0. -1.
</event>
<event>
 4   0  0.2441219E-02  0.9118800E+02  0.7818609E-02  0.1379984E+01
      -11   -1    0    0    0    0  0.00000000000E+00  0.00000000000E+00  0.35740347158E-01  0.35744000000E-01  0.51099999109E-03 0.  1.
       11   -1    0    0    0    0 -0.00000000000E+00 -0.00000000000E+00 -0.35740347158E-01  0.35744000000E-01  0.51099999109E-03 0. -1.
       22    1    1    2    0    0 -0.35083769102E-02 -0.53561130654E-02 -0.35158739015E-01  0.35737005818E-01  0.00000000000E+00 0. -1.
  9000001    1    1    2    0    0  0.35083769102E-02  0.53561130654E-02  0.35158739015E-01  0.35750994182E-01  0.10000000475E-02 0.  1.
</event>
<event>
 4   0  0.2441219E-02  0.9118800E+02  0.7818609E-02  0.1379984E+01
      -11   -1    0    0    0    0  0.00000000000E+00  0.00000000000E+00  0.35740347158E-01  0.35744000000E-01  0.51099999109E-03 0. -1.
       11   -1    0    0    0    0 -0.00000000000E+00 -0.00000000000E+00 -0.35740347158E-01  0.35744000000E-01  0.51099999109E-03 0.  1.
       22    1    1    2    0    0  0.90089447618E-02  0.78962122795E-02  0.33669308439E-01  0.35737005818E-01  0.00000000000E+00 0. -1.
  9000001    1    1    2    0    0 -0.90089447618E-02 -0.78962122795E-02 -0.33669308439E-01  0.35750994182E-01  0.10000000475E-02 0.  1.
</event>
<event>
 4   0  0.2441219E-02  0.9118800E+02  0.7818609E-02  0.1379984E+01
      -11   -1    0    0    0    0  0.00000000000E+00  0.00000000000E+00  0.35740347158E-01  0.35744000000E-01  0.51099999109E-03 0.  1.
       11   -1    0    0    0    0 -0.00000000000E+00 -0.00000000000E+00 -0.35740347158E-01  0.35744000000E-01  0.51099999109E-03 0. -1.
       22    1    1    2    0    0  0.32035537963E-02  0.14603371138E-01 -0.32459395856E-01  0.35737005818E-01  0.00000000000E+00 0. -1.
  9000001    1    1    2    0    0 -0.32035537963E-02 -0.14603371138E-01  0.32459395856E-01  0.35750994182E-01  0.10000000475E-02 0.  1.
</event>
<event>
 4   0  0.2441219E-02  0.9118800E+02  0.7818609E-02  0.1379984E+01
      -11   -1    0    0    0    0  0.00000000000E+00  0.00000000000E+00  0.35740347158E-01  0.35744000000E-01  0.51099999109E-03 0.  1.
       11   -1    0    0    0    0 -0.00000000000E+00 -0.00000000000E+00 -0.35740347158E-01  0.35744000000E-01  0.51099999109E-03 0. -1.
       22    1    1    2    0    0 -0.52240616292E-03 -0.54807593237E-02 -0.35310366097E-01  0.35737005818E-01  0.00000000000E+00 0. -1.
  9000001    1    1    2    0    0  0.52240616292E-03  0.54807593237E-02  0.35310366097E-01  0.35750994182E-01  0.10000000475E-02 0.  1.
</event>
<event>
 4   0  0.2441219E-02  0.9118800E+02  0.7818609E-02  0.1379984E+01
      -11   -1    0    0    0    0  0.00000000000E+00  0.00000000000E+00  0.35740347158E-01  0.35744000000E-01  0.51099999109E-03 0.  1.
       11   -1    0    0    0    0 -0.00000000000E+00 -0.00000000000E+00 -0.35740347158E-01  0.35744000000E-01  0.51099999109E-03 0. -1.
       22    1    1    2    0    0  0.35235658299E-01 -0.21566255731E-02 -0.55615587071E-02  0.35737005818E-01  0.00000000000E+00 0. -1.
  9000001    1    1    2    0    0 -0.35235658299E-01  0.21566255731E-02  0.55615587071E-02  0.35750994182E-01  0.10000000475E-02 0.  1.
</event>
<event>
 4   0  0.2441219E-02  0.9118800E+02  0.7818609E-02  0.1379984E+01
      -11   -1    0    0    0    0  0.00000000000E+00  0.00000000000E+00  0.35740347158E-01  0.35744000000E-01  0.51099999109E-03 0. -1.
       11   -1    0    0    0    0 -0.00000000000E+00 -0.00000000000E+00 -0.35740347158E-01  0.35744000000E-01  0.51099999109E-03 0.  1.
       22    1    1    2    0    0  0.63847405270E-02 -0.13927682648E-01  0.32286039233E-01  0.35737005818E-01  0.00000000000E+00 0. -1.
  9000001    1    1    2    0    0 -0.63847405270E-02  0.13927682648E-01 -0.32286039233E-01  0.35750994182E-01  0.10000000475E-02 0.  1.
</event>
<event>
 4   0  0.2441219E-02  0.9118800E+02  0.7818609E-02  0.1379984E+01
      -11   -1    0    0    0    0  0.00000000000E+00  0.00000000000E+00  0.35740347158E-01  0.35744000000E-01  0.51099999109E-03 0. -1.
       11   -1    0    0    0    0 -0.00000000000E+00 -0.00000000000E+00 -0.35740347158E-01  0.35744000000E-01  0.51099999109E-03 0.  1.
       22    1    1    2    0    0  0.59424979690E-02  0.71039853990E-02 -0.34515991862E-01  0.35737005818E-01  0.00000000000E+00 0.  1.
  9000001    1    1    2    0    0 -0.59424979690E-02 -0.71039853990E-02  0.34515991862E-01  0.35750994182E-01  0.10000000475E-02 0. -1.
</event>
<event>
 4   0  0.2441219E-02  0.9118800E+02  0.7818609E-02  0.1379984E+01
      -11   -1    0    0    0    0  0.00000000000E+00  0.00000000000E+00  0.35740347158E-01  0.35744000000E-01  0.51099999109E-03 0.  1.
       11   -1    0    0    0    0 -0.00000000000E+00 -0.00000000000E+00 -0.35740347158E-01  0.35744000000E-01  0.51099999109E-03 0. -1.
       22    1    1    2    0    0  0.13277319759E-01 -0.29004038751E-01  0.16112482769E-01  0.35737005818E-01  0.00000000000E+00 0. -1.
  9000001    1    1    2    0    0 -0.13277319759E-01  0.29004038751E-01 -0.16112482769E-01  0.35750994182E-01  0.10000000475E-02 0.  1.
</event>
<event>
 4   0  0.2441219E-02  0.9118800E+02  0.7818609E-02  0.1379984E+01
      -11   -1    0    0    0    0  0.00000000000E+00  0.00000000000E+00  0.35740347158E-01  0.35744000000E-01  0.51099999109E-03 0.  1.
       11   -1    0    0    0    0 -0.00000000000E+00 -0.00000000000E+00 -0.35740347158E-01  0.35744000000E-01  0.51099999109E-03 0. -1.
       22    1    1    2    0    0  0.26710108985E-02  0.27122785406E-01 -0.23116093907E-01  0.35737005818E-01  0.00000000000E+00 0. -1.
  9000001    1    1    2    0    0 -0.26710108985E-02 -0.27122785406E-01  0.23116093907E-01  0.35750994182E-01  0.10000000475E-02 0.  1.
</event>
<event>
 4   0  0.2441219E-02  0.9118800E+02  0.7818609E-02  0.1379984E+01
      -11   -1    0    0    0    0  0.00000000000E+00  0.00000000000E+00  0.35740347158E-01  0.35744000000E-01  0.51099999109E-03 0. -1.
       11   -1    0    0    0    0 -0.00000000000E+00 -0.00000000000E+00 -0.35740347158E-01  0.35744000000E-01  0.51099999109E-03 0.  1.
       22    1    1    2    0    0  0.35133604418E-01 -0.11751822421E-02 -0.64329131930E-02  0.35737005818E-01  0.00000000000E+00 0.  1.
  9000001    1    1    2    0    0 -0.35133604418E-01  0.11751822421E-02  0.64329131930E-02  0.35750994182E-01  0.10000000475E-02 0. -1.
</event>
<event>
 4   0  0.2441219E-02  0.9118800E+02  0.7818609E-02  0.1379984E+01
      -11   -1    0    0    0    0  0.00000000000E+00  0.00000000000E+00  0.35740347158E-01  0.35744000000E-01  0.51099999109E-03 0.  1.
       11   -1    0    0    0    0 -0.00000000000E+00 -0.00000000000E+00 -0.35740347158E-01  0.35744000000E-01  0.51099999109E-03 0. -1.
       22    1    1    2    0    0 -0.22861482015E-01 -0.27269856832E-01 -0.32925876291E-02  0.35737005818E-01  0.00000000000E+00 0. -1.
  9000001    1    1    2    0    0  0.22861482015E-01  0.27269856832E-01  0.32925876291E-02  0.35750994182E-01  0.10000000475E-02 0.  1.
</event>
<event>
 4   0  0.2441219E-02  0.9118800E+02  0.7818609E-02  0.1379984E+01
      -11   -1    0    0    0    0  0.00000000000E+00  0.00000000000E+00  0.35740347158E-01  0.35744000000E-01  0.51099999109E-03 0. -1.
       11   -1    0    0    0    0 -0.00000000000E+00 -0.00000000000E+00 -0.35740347158E-01  0.35744000000E-01  0.51099999109E-03 0.  1.
       22    1    1    2    0    0  0.19393686047E-01  0.30016956139E-01  0.29504914740E-04  0.35737005818E-01  0.00000000000E+00 0.  1.
  9000001    1    1    2    0    0 -0.19393686047E-01 -0.30016956139E-01 -0.29504914740E-04  0.35750994182E-01  0.10000000475E-02 0. -1.
</event>
<event>
 4   0  0.2441219E-02  0.9118800E+02  0.7818609E-02  0.1379984E+01
      -11   -1    0    0    0    0  0.00000000000E+00  0.00000000000E+00  0.35740347158E-01  0.35744000000E-01  0.51099999109E-03 0. -1.
       11   -1    0    0    0    0 -0.00000000000E+00 -0.00000000000E+00 -0.35740347158E-01  0.35744000000E-01  0.51099999109E-03 0.  1.
       22    1    1    2    0    0 -0.32449464355E-02  0.78773439960E-02 -0.34706647189E-01  0.35737005818E-01  0.00000000000E+00 0.  1.
  9000001    1    1    2    0    0  0.32449464355E-02 -0.78773439960E-02  0.34706647189E-01  0.35750994182E-01  0.10000000475E-02 0. -1.
</event>
<event>
 4   0  0.2441219E-02  0.9118800E+02  0.7818609E-02  0.1379984E+01
      -11   -1    0    0    0    0  0.00000000000E+00  0.00000000000E+00  0.35740347158E-01  0.35744000000E-01  0.51099999109E-03 0. -1.
       11   -1    0    0    0    0 -0.00000000000E+00 -0.00000000000E+00 -0.35740347158E-01  0.35744000000E-01  0.51099999109E-03 0.  1.
       22    1    1    2    0    0  0.16272470546E-01 -0.84795309174E-02  0.30666559028E-01  0.35737005818E-01  0.00000000000E+00 0. -1.
  9000001    1    1    2    0    0 -0.16272470546E-01  0.84795309174E-02 -0.30666559028E-01  0.35750994182E-01  0.10000000475E-02 0.  1.
</event>
<event>
 4   0  0.2441219E-02  0.9118800E+02  0.7818609E-02  0.1379984E+01
      -11   -1    0    0    0    0  0.00000000000E+00  0.00000000000E+00  0.35740347158E-01  0.35744000000E-01  0.51099999109E-03 0. -1.
       11   -1    0    0    0    0 -0.00000000000E+00 -0.00000000000E+00 -0.35740347158E-01  0.35744000000E-01  0.51099999109E-03 0.  1.
       22    1    1    2    0    0  0.66148966360E-02 -0.11486477582E-05 -0.35119463636E-01  0.35737005818E-01  0.00000000000E+00 0.  1.
  9000001    1    1    2    0    0 -0.66148966360E-02  0.11486477582E-05  0.35119463636E-01  0.35750994182E-01  0.10000000475E-02 0. -1.
</event>
<event>
 4   0  0.2441219E-02  0.9118800E+02  0.7818609E-02  0.1379984E+01
      -11   -1    0    0    0    0  0.00000000000E+00  0.00000000000E+00  0.35740347158E-01  0.35744000000E-01  0.51099999109E-03 0. -1.
       11   -1    0    0    0    0 -0.00000000000E+00 -0.00000000000E+00 -0.35740347158E-01  0.35744000000E-01  0.51099999109E-03 0.  1.
       22    1    1    2    0    0 -0.96897932333E-03 -0.81756195243E-02  0.34775766121E-01  0.35737005818E-01  0.00000000000E+00 0. -1.
  9000001    1    1    2    0    0  0.96897932333E-03  0.81756195243E-02 -0.34775766121E-01  0.35750994182E-01  0.10000000475E-02 0.  1.
</event>
<event>
 4   0  0.2441219E-02  0.9118800E+02  0.7818609E-02  0.1379984E+01
      -11   -1    0    0    0    0  0.00000000000E+00  0.00000000000E+00  0.35740347158E-01  0.35744000000E-01  0.51099999109E-03 0.  1.
       11   -1    0    0    0    0 -0.00000000000E+00 -0.00000000000E+00 -0.35740347158E-01  0.35744000000E-01  0.51099999109E-03 0. -1.
       22    1    1    2    0    0  0.14613049333E-02  0.41429696980E-02  0.35465955152E-01  0.35737005818E-01  0.00000000000E+00 0.  1.
  9000001    1    1    2    0    0 -0.14613049333E-02 -0.41429696980E-02 -0.35465955152E-01  0.35750994182E-01  0.10000000475E-02 0. -1.
</event>
<event>
 4   0  0.2441219E-02  0.9118800E+02  0.7818609E-02  0.1379984E+01
      -11   -1    0    0    0    0  0.00000000000E+00  0.00000000000E+00  0.35740347158E-01  0.35744000000E-01  0.51099999109E-03 0. -1.
       11   -1    0    0    0    0 -0.00000000000E+00 -0.00000000000E+00 -0.35740347158E-01  0.35744000000E-01  0.51099999109E-03 0.  1.
       22    1    1    2    0    0 -0.52500930629E-02 -0.17500500432E-02 -0.35305912147E-01  0.35737005818E-01  0.00000000000E+00 0.  1.
  9000001    1    1    2    0    0  0.52500930629E-02  0.17500500432E-02  0.35305912147E-01  0.35750994182E-01  0.10000000475E-02 0. -1.
</event>
<event>
 4   0  0.2441219E-02  0.9118800E+02  0.7818609E-02  0.1379984E+01
      -11   -1    0    0    0    0  0.00000000000E+00  0.00000000000E+00  0.35740347158E-01  0.35744000000E-01  0.51099999109E-03 0.  1.
       11   -1    0    0    0    0 -0.00000000000E+00 -0.00000000000E+00 -0.35740347158E-01  0.35744000000E-01  0.51099999109E-03 0. -1.
       22    1    1    2    0    0 -0.92467832874E-02  0.39297938779E-02  0.34295587235E-01  0.35737005818E-01  0.00000000000E+00 0.  1.
  9000001    1    1    2    0    0  0.92467832874E-02 -0.39297938779E-02 -0.34295587235E-01  0.35750994182E-01  0.10000000475E-02 0. -1.
</event>
<event>
 4   0  0.2441219E-02  0.9118800E+02  0.7818609E-02  0.1379984E+01
      -11   -1    0    0    0    0  0.00000000000E+00  0.00000000000E+00  0.35740347158E-01  0.35744000000E-01  0.51099999109E-03 0. -1.
       11   -1    0    0    0    0 -0.00000000000E+00 -0.00000000000E+00 -0.35740347158E-01  0.35744000000E-01  0.51099999109E-03 0.  1.
       22    1    1    2    0    0  0.20994350656E-01 -0.25620114344E-01 -0.13415683598E-01  0.35737005818E-01  0.00000000000E+00 0. -1.
  9000001    1    1    2    0    0 -0.20994350656E-01  0.25620114344E-01  0.13415683598E-01  0.35750994182E-01  0.10000000475E-02 0.  1.
</event>
<event>
 4   0  0.2441219E-02  0.9118800E+02  0.7818609E-02  0.1379984E+01
      -11   -1    0    0    0    0  0.00000000000E+00  0.00000000000E+00  0.35740347158E-01  0.35744000000E-01  0.51099999109E-03 0. -1.
       11   -1    0    0    0    0 -0.00000000000E+00 -0.00000000000E+00 -0.35740347158E-01  0.35744000000E-01  0.51099999109E-03 0.  1.
       22    1    1    2    0    0 -0.20205791385E-01 -0.29325339671E-01  0.29806094268E-02  0.35737005818E-01  0.00000000000E+00 0. -1.
  9000001    1    1    2    0    0  0.20205791385E-01  0.29325339671E-01 -0.29806094268E-02  0.35750994182E-01  0.10000000475E-02 0.  1.
</event>
<event>
 4   0  0.2441219E-02  0.9118800E+02  0.7818609E-02  0.1379984E+01
      -11   -1    0    0    0    0  0.00000000000E+00  0.00000000000E+00  0.35740347158E-01  0.35744000000E-01  0.51099999109E-03 0.  1.
       11   -1    0    0    0    0 -0.00000000000E+00 -0.00000000000E+00 -0.35740347158E-01  0.35744000000E-01  0.51099999109E-03 0. -1.
       22    1    1    2    0    0 -0.11293554237E-02  0.30206245601E-02 -0.35591206336E-01  0.35737005818E-01  0.00000000000E+00 0. -1.
  9000001    1    1    2    0    0  0.11293554237E-02 -0.30206245601E-02  0.35591206336E-01  0.35750994182E-01  0.10000000475E-02 0.  1.
</event>
<event>
 4   0  0.2441219E-02  0.9118800E+02  0.7818609E-02  0.1379984E+01
      -11   -1    0    0    0    0  0.00000000000E+00  0.00000000000E+00  0.35740347158E-01  0.35744000000E-01  0.51099999109E-03 0. -1.
       11   -1    0    0    0    0 -0.00000000000E+00 -0.00000000000E+00 -0.35740347158E-01  0.35744000000E-01  0.51099999109E-03 0.  1.
       22    1    1    2    0    0 -0.34852125565E-04  0.73388465428E-02  0.34975329900E-01  0.35737005818E-01  0.00000000000E+00 0. -1.
  9000001    1    1    2    0    0  0.34852125565E-04 -0.73388465428E-02 -0.34975329900E-01  0.35750994182E-01  0.10000000475E-02 0.  1.
</event>
<event>
 4   0  0.2441219E-02  0.9118800E+02  0.7818609E-02  0.1379984E+01
      -11   -1    0    0    0    0  0.00000000000E+00  0.00000000000E+00  0.35740347158E-01  0.35744000000E-01  0.51099999109E-03 0.  1.
       11   -1    0    0    0    0 -0.00000000000E+00 -0.00000000000E+00 -0.35740347158E-01  0.35744000000E-01  0.51099999109E-03 0. -1.
       22    1    1    2    0    0  0.49479161581E-02  0.22751024441E-02  0.35319620885E-01  0.35737005818E-01  0.00000000000E+00 0.  1.
  9000001    1    1    2    0    0 -0.49479161581E-02 -0.22751024441E-02 -0.35319620885E-01  0.35750994182E-01  0.10000000475E-02 0. -1.
</event>
<event>
 4   0  0.2441219E-02  0.9118800E+02  0.7818609E-02  0.1379984E+01
      -11   -1    0    0    0    0  0.00000000000E+00  0.00000000000E+00  0.35740347158E-01  0.35744000000E-01  0.51099999109E-03 0.  1.
       11   -1    0    0    0    0 -0.00000000000E+00 -0.00000000000E+00 -0.35740347158E-01  0.35744000000E-01  0.51099999109E-03 0. -1.
       22    1    1    2    0    0 -0.29803975557E-01  0.19647559835E-01 -0.16822658627E-02  0.35737005818E-01  0.00000000000E+00 0. -1.
  9000001    1    1    2    0    0  0.29803975557E-01 -0.19647559835E-01  0.16822658627E-02  0.35750994182E-01  0.10000000475E-02 0.  1.
</event>
<event>
 4   0  0.2441219E-02  0.9118800E+02  0.7818609E-02  0.1379984E+01
      -11   -1    0    0    0    0  0.00000000000E+00  0.00000000000E+00  0.35740347158E-01  0.35744000000E-01  0.51099999109E-03 0.  1.
       11   -1    0    0    0    0 -0.00000000000E+00 -0.00000000000E+00 -0.35740347158E-01  0.35744000000E-01  0.51099999109E-03 0. -1.
       22    1    1    2    0    0 -0.21250318185E-01  0.63319752713E-02  0.28026124439E-01  0.35737005818E-01  0.00000000000E+00 0.  1.
  9000001    1    1    2    0    0  0.21250318185E-01 -0.63319752713E-02 -0.28026124439E-01  0.35750994182E-01  0.10000000475E-02 0. -1.
</event>
<event>
 4   0  0.2441219E-02  0.9118800E+02  0.7818609E-02  0.1379984E+01
      -11   -1    0    0    0    0  0.00000000000E+00  0.00000000000E+00  0.35740347158E-01  0.35744000000E-01  0.51099999109E-03 0.  1.
       11   -1    0    0    0    0 -0.00000000000E+00 -0.00000000000E+00 -0.35740347158E-01  0.35744000000E-01  0.51099999109E-03 0. -1.
       22    1    1    2    0    0 -0.47050712668E-02 -0.11552230992E-01 -0.33489428905E-01  0.35737005818E-01  0.00000000000E+00 0. -1.
  9000001    1    1    2    0    0  0.47050712668E-02  0.11552230992E-01  0.33489428905E-01  0.35750994182E-01  0.10000000475E-02 0.  1.
</event>
<event>
 4   0  0.2441219E-02  0.9118800E+02  0.7818609E-02  0.1379984E+01
      -11   -1    0    0    0    0  0.00000000000E+00  0.00000000000E+00  0.35740347158E-01  0.35744000000E-01  0.51099999109E-03 0.  1.
       11   -1    0    0    0    0 -0.00000000000E+00 -0.00000000000E+00 -0.35740347158E-01  0.35744000000E-01  0.51099999109E-03 0. -1.
       22    1    1    2    0    0  0.76102445941E-02 -0.32901157302E-02  0.34761946156E-01  0.35737005818E-01  0.00000000000E+00 0.  1.
  9000001    1    1    2    0    0 -0.76102445941E-02  0.32901157302E-02 -0.34761946156E-01  0.35750994182E-01  0.10000000475E-02 0. -1.
</event>
<event>
 4   0  0.2441219E-02  0.9118800E+02  0.7818609E-02  0.1379984E+01
      -11   -1    0    0    0    0  0.00000000000E+00  0.00000000000E+00  0.35740347158E-01  0.35744000000E-01  0.51099999109E-03 0. -1.
       11   -1    0    0    0    0 -0.00000000000E+00 -0.00000000000E+00 -0.35740347158E-01  0.35744000000E-01  0.51099999109E-03 0.  1.
       22    1    1    2    0    0  0.11596399311E-01 -0.23969215978E-02 -0.33718123832E-01  0.35737005818E-01  0.00000000000E+00 0.  1.
  9000001    1    1    2    0    0 -0.11596399311E-01  0.23969215978E-02  0.33718123832E-01  0.35750994182E-01  0.10000000475E-02 0. -1.
</event>
<event>
 4   0  0.2441219E-02  0.9118800E+02  0.7818609E-02  0.1379984E+01
      -11   -1    0    0    0    0  0.00000000000E+00  0.00000000000E+00  0.35740347158E-01  0.35744000000E-01  0.51099999109E-03 0.  1.
       11   -1    0    0    0    0 -0.00000000000E+00 -0.00000000000E+00 -0.35740347158E-01  0.35744000000E-01  0.51099999109E-03 0. -1.
       22    1    1    2    0    0  0.18250665852E-02  0.26086485689E-02 -0.35594910724E-01  0.35737005818E-01  0.00000000000E+00 0. -1.
  9000001    1    1    2    0    0 -0.18250665852E-02 -0.26086485689E-02  0.35594910724E-01  0.35750994182E-01  0.10000000475E-02 0.  1.
</event>
<event>
 4   0  0.2441219E-02  0.9118800E+02  0.7818609E-02  0.1379984E+01
      -11   -1    0    0    0    0  0.00000000000E+00  0.00000000000E+00  0.35740347158E-01  0.35744000000E-01  0.51099999109E-03 0. -1.
       11   -1    0    0    0    0 -0.00000000000E+00 -0.00000000000E+00 -0.35740347158E-01  0.35744000000E-01  0.51099999109E-03 0.  1.
       22    1    1    2    0    0 -0.44896172874E-02 -0.49200082537E-02 -0.35110830811E-01  0.35737005818E-01  0.00000000000E+00 0.  1.
  9000001    1    1    2    0    0  0.44896172874E-02  0.49200082537E-02  0.35110830811E-01  0.35750994182E-01  0.10000000475E-02 0. -1.
</event>
<event>
 4   0  0.2441219E-02  0.9118800E+02  0.7818609E-02  0.1379984E+01
      -11   -1    0    0    0    0  0.00000000000E+00  0.00000000000E+00  0.35740347158E-01  0.35744000000E-01  0.51099999109E-03 0.  1.
       11   -1    0    0    0    0 -0.00000000000E+00 -0.00000000000E+00 -0.35740347158E-01  0.35744000000E-01  0.51099999109E-03 0. -1.
       22    1    1    2    0    0 -0.45746223357E-02 -0.34118829557E-01  0.95974936836E-02  0.35737005818E-01  0.00000000000E+00 0.  1.
  9000001    1    1    2    0    0  0.45746223357E-02  0.34118829557E-01 -0.95974936836E-02  0.35750994182E-01  0.10000000475E-02 0. -1.
</event>
<event>
 4   0  0.2441219E-02  0.9118800E+02  0.7818609E-02  0.1379984E+01
      -11   -1    0    0    0    0  0.00000000000E+00  0.00000000000E+00  0.35740347158E-01  0.35744000000E-01  0.51099999109E-03 0. -1.
       11   -1    0    0    0    0 -0.00000000000E+00 -0.00000000000E+00 -0.35740347158E-01  0.35744000000E-01  0.51099999109E-03 0.  1.
       22    1    1    2    0    0 -0.24431809136E-01 -0.11688537662E-01  0.23315196215E-01  0.35737005818E-01  0.00000000000E+00 0. -1.
  9000001    1    1    2    0    0  0.24431809136E-01  0.11688537662E-01 -0.23315196215E-01  0.35750994182E-01  0.10000000475E-02 0.  1.
</event>
<event>
 4   0  0.2441219E-02  0.9118800E+02  0.7818609E-02  0.1379984E+01
      -11   -1    0    0    0    0  0.00000000000E+00  0.00000000000E+00  0.35740347158E-01  0.35744000000E-01  0.51099999109E-03 0.  1.
       11   -1    0    0    0    0 -0.00000000000E+00 -0.00000000000E+00 -0.35740347158E-01  0.35744000000E-01  0.51099999109E-03 0. -1.
       22    1    1    2    0    0  0.31595186943E-01 -0.55539063543E-02 -0.15749027625E-01  0.35737005818E-01  0.00000000000E+00 0. -1.
  9000001    1    1    2    0    0 -0.31595186943E-01  0.55539063543E-02  0.15749027625E-01  0.35750994182E-01  0.10000000475E-02 0.  1.
</event>
<event>
 4   0  0.2441219E-02  0.9118800E+02  0.7818609E-02  0.1379984E+01
      -11   -1    0    0    0    0  0.00000000000E+00  0.00000000000E+00  0.35740347158E-01  0.35744000000E-01  0.51099999109E-03 0.  1.
       11   -1    0    0    0    0 -0.00000000000E+00 -0.00000000000E+00 -0.35740347158E-01  0.35744000000E-01  0.51099999109E-03 0. -1.
       22    1    1    2    0    0 -0.54989565926E-02  0.58636998627E-02 -0.34821144226E-01  0.35737005818E-01  0.00000000000E+00 0. -1.
  9000001    1    1    2    0    0  0.54989565926E-02 -0.58636998627E-02  0.34821144226E-01  0.35750994182E-01  0.10000000475E-02 0.  1.
</event>
<event>
 4   0  0.2441219E-02  0.9118800E+02  0.7818609E-02  0.1379984E+01
      -11   -1    0    0    0    0  0.00000000000E+00  0.00000000000E+00  0.35740347158E-01  0.35744000000E-01  0.51099999109E-03 0. -1.
       11   -1    0    0    0    0 -0.00000000000E+00 -0.00000000000E+00 -0.35740347158E-01  0.35744000000E-01  0.51099999109E-03 0.  1.
       22    1    1    2    0    0 -0.32241408292E-01  0.13107191885E-01 -0.81133653373E-02  0.35737005818E-01  0.00000000000E+00 0.  1.
  9000001    1    1    2    0    0  0.32241408292E-01 -0.13107191885E-01  0.81133653373E-02  0.35750994182E-01  0.10000000475E-02 0. -1.
</event>
<event>
 4   0  0.2441219E-02  0.9118800E+02  0.7818609E-02  0.1379984E+01
      -11   -1    0    0    0    0  0.00000000000E+00  0.00000000000E+00  0.35740347158E-01  0.35744000000E-01  0.51099999109E-03 0.  1.
       11   -1    0    0    0    0 -0.00000000000E+00 -0.00000000000E+00 -0.35740347158E-01  0.35744000000E-01  0.51099999109E-03 0. -1.
       22    1    1    2    0    0 -0.13138127714E-02 -0.44169013764E-02 -0.35438657750E-01  0.35737005818E-01  0.00000000000E+00 0. -1.
  9000001    1    1    2    0    0  0.13138127714E-02  0.44169013764E-02  0.35438657750E-01  0.35750994182E-01  0.10000000475E-02 0.  1.
</event>
<event>
 4   0  0.2441219E-02  0.9118800E+02  0.7818609E-02  0.1379984E+01
      -11   -1    0    0    0    0  0.00000000000E+00  0.00000000000E+00  0.35740347158E-01  0.35744000000E-01  0.51099999109E-03 0.  1.
       11   -1    0    0    0    0 -0.00000000000E+00 -0.00000000000E+00 -0.35740347158E-01  0.35744000000E-01  0.51099999109E-03 0. -1.
       22    1    1    2    0    0 -0.12995019988E-02  0.14416037006E-01 -0.32674497035E-01  0.35737005818E-01  0.00000000000E+00 0. -1.
  9000001    1    1    2    0    0  0.12995019988E-02 -0.14416037006E-01  0.32674497035E-01  0.35750994182E-01  0.10000000475E-02 0.  1.
</event>
<event>
 4   0  0.2441219E-02  0.9118800E+02  0.7818609E-02  0.1379984E+01
      -11   -1    0    0    0    0  0.00000000000E+00  0.00000000000E+00  0.35740347158E-01  0.35744000000E-01  0.51099999109E-03 0.  1.
       11   -1    0    0    0    0 -0.00000000000E+00 -0.00000000000E+00 -0.35740347158E-01  0.35744000000E-01  0.51099999109E-03 0. -1.
       22    1    1    2    0    0 -0.14489818440E-01  0.31793172013E-01  0.75081928466E-02  0.35737005818E-01  0.00000000000E+00 0.  1.
  9000001    1    1    2    0    0  0.14489818440E-01 -0.31793172013E-01 -0.75081928466E-02  0.35750994182E-01  0.10000000475E-02 0. -1.
</event>
<event>
 4   0  0.2441219E-02  0.9118800E+02  0.7818609E-02  0.1379984E+01
      -11   -1    0    0    0    0  0.00000000000E+00  0.00000000000E+00  0.35740347158E-01  0.35744000000E-01  0.51099999109E-03 0.  1.
       11   -1    0    0    0    0 -0.00000000000E+00 -0.00000000000E+00 -0.35740347158E-01  0.35744000000E-01  0.51099999109E-03 0. -1.
       22    1    1    2    0    0  0.32137240892E-02  0.18534143819E-02 -0.35543922370E-01  0.35737005818E-01  0.00000000000E+00 0. -1.
  9000001    1    1    2    0    0 -0.32137240892E-02 -0.18534143819E-02  0.35543922370E-01  0.35750994182E-01  0.10000000475E-02 0.  1.
</event>
<event>
 4   0  0.2441219E-02  0.9118800E+02  0.7818609E-02  0.1379984E+01
      -11   -1    0    0    0    0  0.00000000000E+00  0.00000000000E+00  0.35740347158E-01  0.35744000000E-01  0.51099999109E-03 0.  1.
       11   -1    0    0    0    0 -0.00000000000E+00 -0.00000000000E+00 -0.35740347158E-01  0.35744000000E-01  0.51099999109E-03 0. -1.
       22    1    1    2    0    0 -0.23136617144E-03 -0.26331913460E-01 -0.24160099092E-01  0.35737005818E-01  0.00000000000E+00 0. -1.
  9000001    1    1    2    0    0  0.23136617144E-03  0.26331913460E-01  0.24160099092E-01  0.35750994182E-01  0.10000000475E-02 0.  1.
</event>
<event>
 4   0  0.2441219E-02  0.9118800E+02  0.7818609E-02  0.1379984E+01
      -11   -1    0    0    0    0  0.00000000000E+00  0.00000000000E+00  0.35740347158E-01  0.35744000000E-01  0.51099999109E-03 0. -1.
       11   -1    0    0    0    0 -0.00000000000E+00 -0.00000000000E+00 -0.35740347158E-01  0.35744000000E-01  0.51099999109E-03 0.  1.
       22    1    1    2    0    0 -0.11899093766E-02 -0.46525106752E-02  0.35412876824E-01  0.35737005818E-01  0.00000000000E+00 0. -1.
  9000001    1    1    2    0    0  0.11899093766E-02  0.46525106752E-02 -0.35412876824E-01  0.35750994182E-01  0.10000000475E-02 0.  1.
</event>
<event>
 4   0  0.2441219E-02  0.9118800E+02  0.7818609E-02  0.1379984E+01
      -11   -1    0    0    0    0  0.00000000000E+00  0.00000000000E+00  0.35740347158E-01  0.35744000000E-01  0.51099999109E-03 0. -1.
       11   -1    0    0    0    0 -0.00000000000E+00 -0.00000000000E+00 -0.35740347158E-01  0.35744000000E-01  0.51099999109E-03 0.  1.
       22    1    1    2    0    0 -0.17336401855E-01  0.27209596606E-01  0.15369470002E-01  0.35737005818E-01  0.00000000000E+00 0. -1.
  9000001    1    1    2    0    0  0.17336401855E-01 -0.27209596606E-01 -0.15369470002E-01  0.35750994182E-01  0.10000000475E-02 0.  1.
</event>
<event>
 4   0  0.2441219E-02  0.9118800E+02  0.7818609E-02  0.1379984E+01
      -11   -1    0    0    0    0  0.00000000000E+00  0.00000000000E+00  0.35740347158E-01  0.35744000000E-01  0.51099999109E-03 0. -1.
       11   -1    0    0    0    0 -0.00000000000E+00 -0.00000000000E+00 -0.35740347158E-01  0.35744000000E-01  0.51099999109E-03 0.  1.
       22    1    1    2    0    0 -0.35999608094E-02 -0.26832243144E-01  0.23328193134E-01  0.35737005818E-01  0.00000000000E+00 0. -1.
  9000001    1    1    2    0    0  0.35999608094E-02  0.26832243144E-01 -0.23328193134E-01  0.35750994182E-01  0.10000000475E-02 0.  1.
</event>
<event>
 4   0  0.2441219E-02  0.9118800E+02  0.7818609E-02  0.1379984E+01
      -11   -1    0    0    0    0  0.00000000000E+00  0.00000000000E+00  0.35740347158E-01  0.35744000000E-01  0.51099999109E-03 0. -1.
       11   -1    0    0    0    0 -0.00000000000E+00 -0.00000000000E+00 -0.35740347158E-01  0.35744000000E-01  0.51099999109E-03 0.  1.
       22    1    1    2    0    0 -0.36959793952E-02 -0.37497582406E-02  0.35347031478E-01  0.35737005818E-01  0.00000000000E+00 0. -1.
  9000001    1    1    2    0    0  0.36959793952E-02  0.37497582406E-02 -0.35347031478E-01  0.35750994182E-01  0.10000000475E-02 0.  1.
</event>
<event>
 4   0  0.2441219E-02  0.9118800E+02  0.7818609E-02  0.1379984E+01
      -11   -1    0    0    0    0  0.00000000000E+00  0.00000000000E+00  0.35740347158E-01  0.35744000000E-01  0.51099999109E-03 0. -1.
       11   -1    0    0    0    0 -0.00000000000E+00 -0.00000000000E+00 -0.35740347158E-01  0.35744000000E-01  0.51099999109E-03 0.  1.
       22    1    1    2    0    0  0.22301432803E-01  0.41744163034E-03 -0.27921415120E-01  0.35737005818E-01  0.00000000000E+00 0.  1.
  9000001    1    1    2    0    0 -0.22301432803E-01 -0.41744163034E-03  0.27921415120E-01  0.35750994182E-01  0.10000000475E-02 0. -1.
</event>
<event>
 4   0  0.2441219E-02  0.9118800E+02  0.7818609E-02  0.1379984E+01
      -11   -1    0    0    0    0  0.00000000000E+00  0.00000000000E+00  0.35740347158E-01  0.35744000000E-01  0.51099999109E-03 0.  1.
       11   -1    0    0    0    0 -0.00000000000E+00 -0.00000000000E+00 -0.35740347158E-01  0.35744000000E-01  0.51099999109E-03 0. -1.
       22    1    1    2    0    0 -0.30054857507E-02  0.39075529440E-03 -0.35608256775E-01  0.35737005818E-01  0.00000000000E+00 0. -1.
  9000001    1    1    2    0    0  0.30054857507E-02 -0.39075529440E-03  0.35608256775E-01  0.35750994182E-01  0.10000000475E-02 0.  1.
</event>
<event>
 4   0  0.2441219E-02  0.9118800E+02  0.7818609E-02  0.1379984E+01
      -11   -1    0    0    0    0  0.00000000000E+00  0.00000000000E+00  0.35740347158E-01  0.35744000000E-01  0.51099999109E-03 0. -1.
       11   -1    0    0    0    0 -0.00000000000E+00 -0.00000000000E+00 -0.35740347158E-01  0.35744000000E-01  0.51099999109E-03 0.  1.
       22    1    1    2    0    0  0.16602400920E-01  0.40461990870E-02 -0.31386655469E-01  0.35737005818E-01  0.00000000000E+00 0.  1.
  9000001    1    1    2    0    0 -0.16602400920E-01 -0.40461990870E-02  0.31386655469E-01  0.35750994182E-01  0.10000000475E-02 0. -1.
</event>
<event>
 4   0  0.2441219E-02  0.9118800E+02  0.7818609E-02  0.1379984E+01
      -11   -1    0    0    0    0  0.00000000000E+00  0.00000000000E+00  0.35740347158E-01  0.35744000000E-01  0.51099999109E-03 0. -1.
       11   -1    0    0    0    0 -0.00000000000E+00 -0.00000000000E+00 -0.35740347158E-01  0.35744000000E-01  0.51099999109E-03 0.  1.
       22    1    1    2    0    0  0.61263585230E-02 -0.10644297515E-01  0.33560396996E-01  0.35737005818E-01  0.00000000000E+00 0. -1.
  9000001    1    1    2    0    0 -0.61263585230E-02  0.10644297515E-01 -0.33560396996E-01  0.35750994182E-01  0.10000000475E-02 0.  1.
</event>
<event>
 4   0  0.2441219E-02  0.9118800E+02  0.7818609E-02  0.1379984E+01
      -11   -1    0    0    0    0  0.00000000000E+00  0.00000000000E+00  0.35740347158E-01  0.35744000000E-01  0.51099999109E-03 0.  1.
       11   -1    0    0    0    0 -0.00000000000E+00 -0.00000000000E+00 -0.35740347158E-01  0.35744000000E-01  0.51099999109E-03 0. -1.
       22    1    1    2    0    0 -0.57667119477E-03 -0.50170351990E-02 -0.35378388785E-01  0.35737005818E-01  0.00000000000E+00 0. -1.
  9000001    1    1    2    0    0  0.57667119477E-03  0.50170351990E-02  0.35378388785E-01  0.35750994182E-01  0.10000000475E-02 0.  1.
</event>
<event>
 4   0  0.2441219E-02  0.9118800E+02  0.7818609E-02  0.1379984E+01
      -11   -1    0    0    0    0  0.00000000000E+00  0.00000000000E+00  0.35740347158E-01  0.35744000000E-01  0.51099999109E-03 0.  1.
       11   -1    0    0    0    0 -0.00000000000E+00 -0.00000000000E+00 -0.35740347158E-01  0.35744000000E-01  0.51099999109E-03 0. -1.
       22    1    1    2    0    0  0.84573624713E-02 -0.50673140711E-02 -0.34350093639E-01  0.35737005818E-01  0.00000000000E+00 0. -1.
  9000001    1    1    2    0    0 -0.84573624713E-02  0.50673140711E-02  0.34350093639E-01  0.35750994182E-01  0.10000000475E-02 0.  1.
</event>
<event>
 4   0  0.2441219E-02  0.9118800E+02  0.7818609E-02  0.1379984E+01
      -11   -1    0    0    0    0  0.00000000000E+00  0.00000000000E+00  0.35740347158E-01  0.35744000000E-01  0.51099999109E-03 0.  1.
       11   -1    0    0    0    0 -0.00000000000E+00 -0.00000000000E+00 -0.35740347158E-01  0.35744000000E-01  0.51099999109E-03 0. -1.
       22    1    1    2    0    0 -0.98242673723E-03  0.49405499667E-02 -0.35380211822E-01  0.35737005818E-01  0.00000000000E+00 0. -1.
  9000001    1    1    2    0    0  0.98242673723E-03 -0.49405499667E-02  0.35380211822E-01  0.35750994182E-01  0.10000000475E-02 0.  1.
</event>
<event>
 4   0  0.2441219E-02  0.9118800E+02  0.7818609E-02  0.1379984E+01
      -11   -1    0    0    0    0  0.00000000000E+00  0.00000000000E+00  0.35740347158E-01  0.35744000000E-01  0.51099999109E-03 0.  1.
       11   -1    0    0    0    0 -0.00000000000E+00 -0.00000000000E+00 -0.35740347158E-01  0.35744000000E-01  0.51099999109E-03 0. -1.
       22    1    1    2    0    0  0.49306139065E-02 -0.16537951383E-02 -0.35356577790E-01  0.35737005818E-01  0.00000000000E+00 0. -1.
  9000001    1    1    2    0    0 -0.49306139065E-02  0.16537951383E-02  0.35356577790E-01  0.35750994182E-01  0.10000000475E-02 0.  1.
</event>
<event>
 4   0  0.2441219E-02  0.9118800E+02  0.7818609E-02  0.1379984E+01
      -11   -1    0    0    0    0  0.00000000000E+00  0.00000000000E+00  0.35740347158E-01  0.35744000000E-01  0.51099999109E-03 0. -1.
       11   -1    0    0    0    0 -0.00000000000E+00 -0.00000000000E+00 -0.35740347158E-01  0.35744000000E-01  0.51099999109E-03 0.  1.
       22    1    1    2    0    0 -0.71339583603E-02  0.32362237258E-02 -0.34867851654E-01  0.35737005818E-01  0.00000000000E+00 0.  1.
  9000001    1    1    2    0    0  0.71339583603E-02 -0.32362237258E-02  0.34867851654E-01  0.35750994182E-01  0.10000000475E-02 0. -1.
</event>
<event>
 4   0  0.2441219E-02  0.9118800E+02  0.7818609E-02  0.1379984E+01
      -11   -1    0    0    0    0  0.00000000000E+00  0.00000000000E+00  0.35740347158E-01  0.35744000000E-01  0.51099999109E-03 0. -1.
       11   -1    0    0    0    0 -0.00000000000E+00 -0.00000000000E+00 -0.35740347158E-01  0.35744000000E-01  0.51099999109E-03 0.  1.
       22    1    1    2    0    0 -0.79532505236E-02  0.22904683209E-02 -0.34765401563E-01  0.35737005818E-01  0.00000000000E+00 0.  1.
  9000001    1    1    2    0    0  0.79532505236E-02 -0.22904683209E-02  0.34765401563E-01  0.35750994182E-01  0.10000000475E-02 0. -1.
</event>
<event>
 4   0  0.2441219E-02  0.9118800E+02  0.7818609E-02  0.1379984E+01
      -11   -1    0    0    0    0  0.00000000000E+00  0.00000000000E+00  0.35740347158E-01  0.35744000000E-01  0.51099999109E-03 0.  1.
       11   -1    0    0    0    0 -0.00000000000E+00 -0.00000000000E+00 -0.35740347158E-01  0.35744000000E-01  0.51099999109E-03 0. -1.
       22    1    1    2    0    0 -0.17708869576E-01 -0.31233521935E-02  0.30883234841E-01  0.35737005818E-01  0.00000000000E+00 0.  1.
  9000001    1    1    2    0    0  0.17708869576E-01  0.31233521935E-02 -0.30883234841E-01  0.35750994182E-01  0.10000000475E-02 0. -1.
</event>
<event>
 4   0  0.2441219E-02  0.9118800E+02  0.7818609E-02  0.1379984E+01
      -11   -1    0    0    0    0  0.00000000000E+00  0.00000000000E+00  0.35740347158E-01  0.35744000000E-01  0.51099999109E-03 0.  1.
       11   -1    0    0    0    0 -0.00000000000E+00 -0.00000000000E+00 -0.35740347158E-01  0.35744000000E-01  0.51099999109E-03 0. -1.
       22    1    1    2    0    0 -0.18007202319E-01 -0.71668392315E-02 -0.30025167192E-01  0.35737005818E-01  0.00000000000E+00 0. -1.
  9000001    1    1    2    0    0  0.18007202319E-01  0.71668392315E-02  0.30025167192E-01  0.35750994182E-01  0.10000000475E-02 0.  1.
</event>
<event>
 4   0  0.2441219E-02  0.9118800E+02  0.7818609E-02  0.1379984E+01
      -11   -1    0    0    0    0  0.00000000000E+00  0.00000000000E+00  0.35740347158E-01  0.35744000000E-01  0.51099999109E-03 0.  1.
       11   -1    0    0    0    0 -0.00000000000E+00 -0.00000000000E+00 -0.35740347158E-01  0.35744000000E-01  0.51099999109E-03 0. -1.
       22    1    1    2    0    0  0.58918480103E-02 -0.33615147961E-02 -0.35087318652E-01  0.35737005818E-01  0.00000000000E+00 0. -1.
  9000001    1    1    2    0    0 -0.58918480103E-02  0.33615147961E-02  0.35087318652E-01  0.35750994182E-01  0.10000000475E-02 0.  1.
</event>
<event>
 4   0  0.2441219E-02  0.9118800E+02  0.7818609E-02  0.1379984E+01
      -11   -1    0    0    0    0  0.00000000000E+00  0.00000000000E+00  0.35740347158E-01  0.35744000000E-01  0.51099999109E-03 0.  1.
       11   -1    0    0    0    0 -0.00000000000E+00 -0.00000000000E+00 -0.35740347158E-01  0.35744000000E-01  0.51099999109E-03 0. -1.
       22    1    1    2    0    0 -0.29895427949E-01 -0.13713198577E-01 -0.13976593198E-01  0.35737005818E-01  0.00000000000E+00 0. -1.
  9000001    1    1    2    0    0  0.29895427949E-01  0.13713198577E-01  0.13976593198E-01  0.35750994182E-01  0.10000000475E-02 0.  1.
</event>
<event>
 4   0  0.2441219E-02  0.9118800E+02  0.7818609E-02  0.1379984E+01
      -11   -1    0    0    0    0  0.00000000000E+00  0.00000000000E+00  0.35740347158E-01  0.35744000000E-01  0.51099999109E-03 0.  1.
       11   -1    0    0    0    0 -0.00000000000E+00 -0.00000000000E+00 -0.35740347158E-01  0.35744000000E-01  0.51099999109E-03 0. -1.
       22    1    1    2    0    0 -0.80772851149E-02 -0.52434049438E-02  0.34415080338E-01  0.35737005818E-01  0.00000000000E+00 0.  1.
  9000001    1    1    2    0    0  0.80772851149E-02  0.52434049438E-02 -0.34415080338E-01  0.35750994182E-01  0.10000000475E-02 0. -1.
</event>
<event>
 4   0  0.2441219E-02  0.9118800E+02  0.7818609E-02  0.1379984E+01
      -11   -1    0    0    0    0  0.00000000000E+00  0.00000000000E+00  0.35740347158E-01  0.35744000000E-01  0.51099999109E-03 0.  1.
       11   -1    0    0    0    0 -0.00000000000E+00 -0.00000000000E+00 -0.35740347158E-01  0.35744000000E-01  0.51099999109E-03 0. -1.
       22    1    1    2    0    0 -0.48952200996E-02 -0.23147372168E-02  0.35324388129E-01  0.35737005818E-01  0.00000000000E+00 0.  1.
  9000001    1    1    2    0    0  0.48952200996E-02  0.23147372168E-02 -0.35324388129E-01  0.35750994182E-01  0.10000000475E-02 0. -1.
</event>
<event>
 4   0  0.2441219E-02  0.9118800E+02  0.7818609E-02  0.1379984E+01
      -11   -1    0    0    0    0  0.00000000000E+00  0.00000000000E+00  0.35740347158E-01  0.35744000000E-01  0.51099999109E-03 0.  1.
       11   -1    0    0    0    0 -0.00000000000E+00 -0.00000000000E+00 -0.35740347158E-01  0.35744000000E-01  0.51099999109E-03 0. -1.
       22    1    1    2    0    0  0.62433375642E-02 -0.29898609397E-02 -0.35060163327E-01  0.35737005818E-01  0.00000000000E+00 0. -1.
  9000001    1    1    2    0    0 -0.62433375642E-02  0.29898609397E-02  0.35060163327E-01  0.35750994182E-01  0.10000000475E-02 0.  1.
</event>
<event>
 4   0  0.2441219E-02  0.9118800E+02  0.7818609E-02  0.1379984E+01
      -11   -1    0    0    0    0  0.00000000000E+00  0.00000000000E+00  0.35740347158E-01  0.35744000000E-01  0.51099999109E-03 0.  1.
       11   -1    0    0    0    0 -0.00000000000E+00 -0.00000000000E+00 -0.35740347158E-01  0.35744000000E-01  0.51099999109E-03 0. -1.
       22    1    1    2    0    0  0.42304431397E-02 -0.24107235594E-01 -0.26039933328E-01  0.35737005818E-01  0.00000000000E+00 0. -1.
  9000001    1    1    2    0    0 -0.42304431397E-02  0.24107235594E-01  0.26039933328E-01  0.35750994182E-01  0.10000000475E-02 0.  1.
</event>
<event>
 4   0  0.2441219E-02  0.9118800E+02  0.7818609E-02  0.1379984E+01
      -11   -1    0    0    0    0  0.00000000000E+00  0.00000000000E+00  0.35740347158E-01  0.35744000000E-01  0.51099999109E-03 0.  1.
       11   -1    0    0    0    0 -0.00000000000E+00 -0.00000000000E+00 -0.35740347158E-01  0.35744000000E-01  0.51099999109E-03 0. -1.
       22    1    1    2    0    0 -0.52075512529E-02 -0.87385173096E-02 -0.34258623879E-01  0.35737005818E-01  0.00000000000E+00 0. -1.
  9000001    1    1    2    0    0  0.52075512529E-02  0.87385173096E-02  0.34258623879E-01  0.35750994182E-01  0.10000000475E-02 0.  1.
</event>
<event>
 4   0  0.2441219E-02  0.9118800E+02  0.7818609E-02  0.1379984E+01
      -11   -1    0    0    0    0  0.00000000000E+00  0.00000000000E+00  0.35740347158E-01  0.35744000000E-01  0.51099999109E-03 0. -1.
       11   -1    0    0    0    0 -0.00000000000E+00 -0.00000000000E+00 -0.35740347158E-01  0.35744000000E-01  0.51099999109E-03 0.  1.
       22    1    1    2    0    0  0.96701221632E-02 -0.20651815075E-02  0.34341772633E-01  0.35737005818E-01  0.00000000000E+00 0. -1.
  9000001    1    1    2    0    0 -0.96701221632E-02  0.20651815075E-02 -0.34341772633E-01  0.35750994182E-01  0.10000000475E-02 0.  1.
</event>
<event>
 4   0  0.2441219E-02  0.9118800E+02  0.7818609E-02  0.1379984E+01
      -11   -1    0    0    0    0  0.00000000000E+00  0.00000000000E+00  0.35740347158E-01  0.35744000000E-01  0.51099999109E-03 0. -1.
       11   -1    0    0    0    0 -0.00000000000E+00 -0.00000000000E+00 -0.35740347158E-01  0.35744000000E-01  0.51099999109E-03 0.  1.
       22    1    1    2    0    0 -0.38347810399E-02 -0.24471340178E-02  0.35446291405E-01  0.35737005818E-01  0.00000000000E+00 0. -1.
  9000001    1    1    2    0    0  0.38347810399E-02  0.24471340178E-02 -0.35446291405E-01  0.35750994182E-01  0.10000000475E-02 0.  1.
</event>
<event>
 4   0  0.2441219E-02  0.9118800E+02  0.7818609E-02  0.1379984E+01
      -11   -1    0    0    0    0  0.00000000000E+00  0.00000000000E+00  0.35740347158E-01  0.35744000000E-01  0.51099999109E-03 0.  1.
       11   -1    0    0    0    0 -0.00000000000E+00 -0.00000000000E+00 -0.35740347158E-01  0.35744000000E-01  0.51099999109E-03 0. -1.
       22    1    1    2    0    0 -0.28189208119E-02  0.86522617937E-02 -0.34559016713E-01  0.35737005818E-01  0.00000000000E+00 0. -1.
  9000001    1    1    2    0    0  0.28189208119E-02 -0.86522617937E-02  0.34559016713E-01  0.35750994182E-01  0.10000000475E-02 0.  1.
</event>
<event>
 4   0  0.2441219E-02  0.9118800E+02  0.7818609E-02  0.1379984E+01
      -11   -1    0    0    0    0  0.00000000000E+00  0.00000000000E+00  0.35740347158E-01  0.35744000000E-01  0.51099999109E-03 0. -1.
       11   -1    0    0    0    0 -0.00000000000E+00 -0.00000000000E+00 -0.35740347158E-01  0.35744000000E-01  0.51099999109E-03 0.  1.
       22    1    1    2    0    0  0.50187204627E-02 -0.10230187895E-02 -0.35368057090E-01  0.35737005818E-01  0.00000000000E+00 0.  1.
  9000001    1    1    2    0    0 -0.50187204627E-02  0.10230187895E-02  0.35368057090E-01  0.35750994182E-01  0.10000000475E-02 0. -1.
</event>
<event>
 4   0  0.2441219E-02  0.9118800E+02  0.7818609E-02  0.1379984E+01
      -11   -1    0    0    0    0  0.00000000000E+00  0.00000000000E+00  0.35740347158E-01  0.35744000000E-01  0.51099999109E-03 0.  1.
       11   -1    0    0    0    0 -0.00000000000E+00 -0.00000000000E+00 -0.35740347158E-01  0.35744000000E-01  0.51099999109E-03 0. -1.
       22    1    1    2    0    0  0.35317493747E-02 -0.93988554370E-03 -0.35549640594E-01  0.35737005818E-01  0.00000000000E+00 0. -1.
  9000001    1    1    2    0    0 -0.35317493747E-02  0.93988554370E-03  0.35549640594E-01  0.35750994182E-01  0.10000000475E-02 0.  1.
</event>
<event>
 4   0  0.2441219E-02  0.9118800E+02  0.7818609E-02  0.1379984E+01
      -11   -1    0    0    0    0  0.00000000000E+00  0.00000000000E+00  0.35740347158E-01  0.35744000000E-01  0.51099999109E-03 0.  1.
       11   -1    0    0    0    0 -0.00000000000E+00 -0.00000000000E+00 -0.35740347158E-01  0.35744000000E-01  0.51099999109E-03 0. -1.
       22    1    1    2    0    0 -0.17625724218E-02 -0.63539385640E-02  0.35123416520E-01  0.35737005818E-01  0.00000000000E+00 0.  1.
  9000001    1    1    2    0    0  0.17625724218E-02  0.63539385640E-02 -0.35123416520E-01  0.35750994182E-01  0.10000000475E-02 0. -1.
</event>
<event>
 4   0  0.2441219E-02  0.9118800E+02  0.7818609E-02  0.1379984E+01
      -11   -1    0    0    0    0  0.00000000000E+00  0.00000000000E+00  0.35740347158E-01  0.35744000000E-01  0.51099999109E-03 0.  1.
       11   -1    0    0    0    0 -0.00000000000E+00 -0.00000000000E+00 -0.35740347158E-01  0.35744000000E-01  0.51099999109E-03 0. -1.
       22    1    1    2    0    0 -0.83402446115E-02  0.13474852797E-01  0.32031269828E-01  0.35737005818E-01  0.00000000000E+00 0.  1.
  9000001    1    1    2    0    0  0.83402446115E-02 -0.13474852797E-01 -0.32031269828E-01  0.35750994182E-01  0.10000000475E-02 0. -1.
</event>
<event>
 4   0  0.2441219E-02  0.9118800E+02  0.7818609E-02  0.1379984E+01
      -11   -1    0    0    0    0  0.00000000000E+00  0.00000000000E+00  0.35740347158E-01  0.35744000000E-01  0.51099999109E-03 0. -1.
       11   -1    0    0    0    0 -0.00000000000E+00 -0.00000000000E+00 -0.35740347158E-01  0.35744000000E-01  0.51099999109E-03 0.  1.
       22    1    1    2    0    0  0.22042885383E-01 -0.74085053462E-03 -0.28119315948E-01  0.35737005818E-01  0.00000000000E+00 0.  1.
  9000001    1    1    2    0    0 -0.22042885383E-01  0.74085053462E-03  0.28119315948E-01  0.35750994182E-01  0.10000000475E-02 0. -1.
</event>
<event>
 4   0  0.2441219E-02  0.9118800E+02  0.7818609E-02  0.1379984E+01
      -11   -1    0    0    0    0  0.00000000000E+00  0.00000000000E+00  0.35740347158E-01  0.35744000000E-01  0.51099999109E-03 0. -1.
       11   -1    0    0    0    0 -0.00000000000E+00 -0.00000000000E+00 -0.35740347158E-01  0.35744000000E-01  0.51099999109E-03 0.  1.
       22    1    1    2    0    0  0.11898510444E-01 -0.10458626929E-02 -0.33681823070E-01  0.35737005818E-01  0.00000000000E+00 0.  1.
  9000001    1    1    2    0    0 -0.11898510444E-01  0.10458626929E-02  0.33681823070E-01  0.35750994182E-01  0.10000000475E-02 0. -1.
</event>
<event>
 4   0  0.2441219E-02  0.9118800E+02  0.7818609E-02  0.1379984E+01
      -11   -1    0    0    0    0  0.00000000000E+00  0.00000000000E+00  0.35740347158E-01  0.35744000000E-01  0.51099999109E-03 0. -1.
       11   -1    0    0    0    0 -0.00000000000E+00 -0.00000000000E+00 -0.35740347158E-01  0.35744000000E-01  0.51099999109E-03 0.  1.
       22    1    1    2    0    0 -0.28010682842E-02  0.30777785599E-02  0.35493871027E-01  0.35737005818E-01  0.00000000000E+00 0. -1.
  9000001    1    1    2    0    0  0.28010682842E-02 -0.30777785599E-02 -0.35493871027E-01  0.35750994182E-01  0.10000000475E-02 0.  1.
</event>
<event>
 4   0  0.2441219E-02  0.9118800E+02  0.7818609E-02  0.1379984E+01
      -11   -1    0    0    0    0  0.00000000000E+00  0.00000000000E+00  0.35740347158E-01  0.35744000000E-01  0.51099999109E-03 0.  1.
       11   -1    0    0    0    0 -0.00000000000E+00 -0.00000000000E+00 -0.35740347158E-01  0.35744000000E-01  0.51099999109E-03 0. -1.
       22    1    1    2    0    0 -0.22856420717E-02  0.30874425897E-02  0.35529946854E-01  0.35737005818E-01  0.00000000000E+00 0.  1.
  9000001    1    1    2    0    0  0.22856420717E-02 -0.30874425897E-02 -0.35529946854E-01  0.35750994182E-01  0.10000000475E-02 0. -1.
</event>
<event>
 4   0  0.2441219E-02  0.9118800E+02  0.7818609E-02  0.1379984E+01
      -11   -1    0    0    0    0  0.00000000000E+00  0.00000000000E+00  0.35740347158E-01  0.35744000000E-01  0.51099999109E-03 0.  1.
       11   -1    0    0    0    0 -0.00000000000E+00 -0.00000000000E+00 -0.35740347158E-01  0.35744000000E-01  0.51099999109E-03 0. -1.
       22    1    1    2    0    0  0.77336372926E-02  0.92592721021E-02  0.33639118883E-01  0.35737005818E-01  0.00000000000E+00 0.  1.
  9000001    1    1    2    0    0 -0.77336372926E-02 -0.92592721021E-02 -0.33639118883E-01  0.35750994182E-01  0.10000000475E-02 0. -1.
</event>
<event>
 4   0  0.2441219E-02  0.9118800E+02  0.7818609E-02  0.1379984E+01
      -11   -1    0    0    0    0  0.00000000000E+00  0.00000000000E+00  0.35740347158E-01  0.35744000000E-01  0.51099999109E-03 0.  1.
       11   -1    0    0    0    0 -0.00000000000E+00 -0.00000000000E+00 -0.35740347158E-01  0.35744000000E-01  0.51099999109E-03 0. -1.
       22    1    1    2    0    0  0.19217679026E-03  0.98018194888E-02  0.34365985911E-01  0.35737005818E-01  0.00000000000E+00 0.  1.
  9000001    1    1    2    0    0 -0.19217679026E-03 -0.98018194888E-02 -0.34365985911E-01  0.35750994182E-01  0.10000000475E-02 0. -1.
</event>
<event>
 4   0  0.2441219E-02  0.9118800E+02  0.7818609E-02  0.1379984E+01
      -11   -1    0    0    0    0  0.00000000000E+00  0.00000000000E+00  0.35740347158E-01  0.35744000000E-01  0.51099999109E-03 0. -1.
       11   -1    0    0    0    0 -0.00000000000E+00 -0.00000000000E+00 -0.35740347158E-01  0.35744000000E-01  0.51099999109E-03 0.  1.
       22    1    1    2    0    0 -0.31157560542E-01  0.10087406122E-01  0.14303294853E-01  0.35737005818E-01  0.00000000000E+00 0. -1.
  9000001    1    1    2    0    0  0.31157560542E-01 -0.10087406122E-01 -0.14303294853E-01  0.35750994182E-01  0.10000000475E-02 0.  1.
</event>
<event>
 4   0  0.2441219E-02  0.9118800E+02  0.7818609E-02  0.1379984E+01
      -11   -1    0    0    0    0  0.00000000000E+00  0.00000000000E+00  0.35740347158E-01  0.35744000000E-01  0.51099999109E-03 0. -1.
       11   -1    0    0    0    0 -0.00000000000E+00 -0.00000000000E+00 -0.35740347158E-01  0.35744000000E-01  0.51099999109E-03 0.  1.
       22    1    1    2    0    0  0.18393276681E-02 -0.85006243154E-02  0.34662513539E-01  0.35737005818E-01  0.00000000000E+00 0. -1.
  9000001    1    1    2    0    0 -0.18393276681E-02  0.85006243154E-02 -0.34662513539E-01  0.35750994182E-01  0.10000000475E-02 0.  1.
</event>
<event>
 4   0  0.2441219E-02  0.9118800E+02  0.7818609E-02  0.1379984E+01
      -11   -1    0    0    0    0  0.00000000000E+00  0.00000000000E+00  0.35740347158E-01  0.35744000000E-01  0.51099999109E-03 0. -1.
       11   -1    0    0    0    0 -0.00000000000E+00 -0.00000000000E+00 -0.35740347158E-01  0.35744000000E-01  0.51099999109E-03 0.  1.
       22    1    1    2    0    0  0.15505567975E-01 -0.52269516004E-02 -0.31770897431E-01  0.35737005818E-01  0.00000000000E+00 0.  1.
  9000001    1    1    2    0    0 -0.15505567975E-01  0.52269516004E-02  0.31770897431E-01  0.35750994182E-01  0.10000000475E-02 0. -1.
</event>
<event>
 4   0  0.2441219E-02  0.9118800E+02  0.7818609E-02  0.1379984E+01
      -11   -1    0    0    0    0  0.00000000000E+00  0.00000000000E+00  0.35740347158E-01  0.35744000000E-01  0.51099999109E-03 0.  1.
       11   -1    0    0    0    0 -0.00000000000E+00 -0.00000000000E+00 -0.35740347158E-01  0.35744000000E-01  0.51099999109E-03 0. -1.
       22    1    1    2    0    0 -0.27281750096E-01  0.52544871860E-02  0.22477323262E-01  0.35737005818E-01  0.00000000000E+00 0.  1.
  9000001    1    1    2    0    0  0.27281750096E-01 -0.52544871860E-02 -0.22477323262E-01  0.35750994182E-01  0.10000000475E-02 0. -1.
</event>
<event>
 4   0  0.2441219E-02  0.9118800E+02  0.7818609E-02  0.1379984E+01
      -11   -1    0    0    0    0  0.00000000000E+00  0.00000000000E+00  0.35740347158E-01  0.35744000000E-01  0.51099999109E-03 0. -1.
       11   -1    0    0    0    0 -0.00000000000E+00 -0.00000000000E+00 -0.35740347158E-01  0.35744000000E-01  0.51099999109E-03 0.  1.
       22    1    1    2    0    0 -0.17616244470E-02  0.25807405761E-02 -0.35600141043E-01  0.35737005818E-01  0.00000000000E+00 0.  1.
  9000001    1    1    2    0    0  0.17616244470E-02 -0.25807405761E-02  0.35600141043E-01  0.35750994182E-01  0.10000000475E-02 0. -1.
</event>
<event>
 4   0  0.2441219E-02  0.9118800E+02  0.7818609E-02  0.1379984E+01
      -11   -1    0    0    0    0  0.00000000000E+00  0.00000000000E+00  0.35740347158E-01  0.35744000000E-01  0.51099999109E-03 0. -1.
       11   -1    0    0    0    0 -0.00000000000E+00 -0.00000000000E+00 -0.35740347158E-01  0.35744000000E-01  0.51099999109E-03 0.  1.
       22    1    1    2    0    0  0.31984420117E-01  0.15287195606E-01 -0.45201886181E-02  0.35737005818E-01  0.00000000000E+00 0.  1.
  9000001    1    1    2    0    0 -0.31984420117E-01 -0.15287195606E-01  0.45201886181E-02  0.35750994182E-01  0.10000000475E-02 0. -1.
</event>
<event>
 4   0  0.2441219E-02  0.9118800E+02  0.7818609E-02  0.1379984E+01
      -11   -1    0    0    0    0  0.00000000000E+00  0.00000000000E+00  0.35740347158E-01  0.35744000000E-01  0.51099999109E-03 0. -1.
       11   -1    0    0    0    0 -0.00000000000E+00 -0.00000000000E+00 -0.35740347158E-01  0.35744000000E-01  0.51099999109E-03 0.  1.
       22    1    1    2    0    0  0.23327780357E-02 -0.14505485069E-01 -0.32577333139E-01  0.35737005818E-01  0.00000000000E+00 0.  1.
  9000001    1    1    2    0    0 -0.23327780357E-02  0.14505485069E-01  0.32577333139E-01  0.35750994182E-01  0.10000000475E-02 0. -1.
</event>
<event>
 4   0  0.2441219E-02  0.9118800E+02  0.7818609E-02  0.1379984E+01
      -11   -1    0    0    0    0  0.00000000000E+00  0.00000000000E+00  0.35740347158E-01  0.35744000000E-01  0.51099999109E-03 0.  1.
       11   -1    0    0    0    0 -0.00000000000E+00 -0.00000000000E+00 -0.35740347158E-01  0.35744000000E-01  0.51099999109E-03 0. -1.
       22    1    1    2    0    0 -0.12245876986E-01  0.13814528456E-01  0.30599524265E-01  0.35737005818E-01  0.00000000000E+00 0.  1.
  9000001    1    1    2    0    0  0.12245876986E-01 -0.13814528456E-01 -0.30599524265E-01  0.35750994182E-01  0.10000000475E-02 0. -1.
</event>
<event>
 4   0  0.2441219E-02  0.9118800E+02  0.7818609E-02  0.1379984E+01
      -11   -1    0    0    0    0  0.00000000000E+00  0.00000000000E+00  0.35740347158E-01  0.35744000000E-01  0.51099999109E-03 0. -1.
       11   -1    0    0    0    0 -0.00000000000E+00 -0.00000000000E+00 -0.35740347158E-01  0.35744000000E-01  0.51099999109E-03 0.  1.
       22    1    1    2    0    0  0.54194180963E-02  0.55548386255E-04  0.35323652228E-01  0.35737005818E-01  0.00000000000E+00 0. -1.
  9000001    1    1    2    0    0 -0.54194180963E-02 -0.55548386255E-04 -0.35323652228E-01  0.35750994182E-01  0.10000000475E-02 0.  1.
</event>
<event>
 4   0  0.2441219E-02  0.9118800E+02  0.7818609E-02  0.1379984E+01
      -11   -1    0    0    0    0  0.00000000000E+00  0.00000000000E+00  0.35740347158E-01  0.35744000000E-01  0.51099999109E-03 0. -1.
       11   -1    0    0    0    0 -0.00000000000E+00 -0.00000000000E+00 -0.35740347158E-01  0.35744000000E-01  0.51099999109E-03 0.  1.
       22    1    1    2    0    0 -0.10820882610E-03  0.36009655119E-02  0.35554956379E-01  0.35737005818E-01  0.00000000000E+00 0. -1.
  9000001    1    1    2    0    0  0.10820882610E-03 -0.36009655119E-02 -0.35554956379E-01  0.35750994182E-01  0.10000000475E-02 0.  1.
</event>
<event>
 4   0  0.2441219E-02  0.9118800E+02  0.7818609E-02  0.1379984E+01
      -11   -1    0    0    0    0  0.00000000000E+00  0.00000000000E+00  0.35740347158E-01  0.35744000000E-01  0.51099999109E-03 0.  1.
       11   -1    0    0    0    0 -0.00000000000E+00 -0.00000000000E+00 -0.35740347158E-01  0.35744000000E-01  0.51099999109E-03 0. -1.
       22    1    1    2    0    0 -0.71492755500E-02  0.18757289840E-01 -0.29566628516E-01  0.35737005818E-01  0.00000000000E+00 0. -1.
  9000001    1    1    2    0    0  0.71492755500E-02 -0.18757289840E-01  0.29566628516E-01  0.35750994182E-01  0.10000000475E-02 0.  1.
</event>
<event>
 4   0  0.2441219E-02  0.9118800E+02  0.7818609E-02  0.1379984E+01
      -11   -1    0    0    0    0  0.00000000000E+00  0.00000000000E+00  0.35740347158E-01  0.35744000000E-01  0.51099999109E-03 0. -1.
       11   -1    0    0    0    0 -0.00000000000E+00 -0.00000000000E+00 -0.35740347158E-01  0.35744000000E-01  0.51099999109E-03 0.  1.
       22    1    1    2    0    0 -0.76484114260E-02  0.72823494518E-02  0.34140925207E-01  0.35737005818E-01  0.00000000000E+00 0. -1.
  9000001    1    1    2    0    0  0.76484114260E-02 -0.72823494518E-02 -0.34140925207E-01  0.35750994182E-01  0.10000000475E-02 0.  1.
</event>
<event>
 4   0  0.2441219E-02  0.9118800E+02  0.7818609E-02  0.1379984E+01
      -11   -1    0    0    0    0  0.00000000000E+00  0.00000000000E+00  0.35740347158E-01  0.35744000000E-01  0.51099999109E-03 0. -1.
       11   -1    0    0    0    0 -0.00000000000E+00 -0.00000000000E+00 -0.35740347158E-01  0.35744000000E-01  0.51099999109E-03 0.  1.
       22    1    1    2    0    0 -0.95049160277E-02 -0.86192505653E-02 -0.33354140311E-01  0.35737005818E-01  0.00000000000E+00 0.  1.
  9000001    1    1    2    0    0  0.95049160277E-02  0.86192505653E-02  0.33354140311E-01  0.35750994182E-01  0.10000000475E-02 0. -1.
</event>
<event>
 4   0  0.2441219E-02  0.9118800E+02  0.7818609E-02  0.1379984E+01
      -11   -1    0    0    0    0  0.00000000000E+00  0.00000000000E+00  0.35740347158E-01  0.35744000000E-01  0.51099999109E-03 0. -1.
       11   -1    0    0    0    0 -0.00000000000E+00 -0.00000000000E+00 -0.35740347158E-01  0.35744000000E-01  0.51099999109E-03 0. -1.
       22    1    1    2    0    0 -0.40168081293E-02 -0.37884043179E-03 -0.35508524572E-01  0.35737005818E-01  0.00000000000E+00 0. -1.
  9000001    1    1    2    0    0  0.40168081293E-02  0.37884043179E-03  0.35508524572E-01  0.35750994182E-01  0.10000000475E-02 0. -1.
</event>
<event>
 4   0  0.2441219E-02  0.9118800E+02  0.7818609E-02  0.1379984E+01
      -11   -1    0    0    0    0  0.00000000000E+00  0.00000000000E+00  0.35740347158E-01  0.35744000000E-01  0.51099999109E-03 0.  1.
       11   -1    0    0    0    0 -0.00000000000E+00 -0.00000000000E+00 -0.35740347158E-01  0.35744000000E-01  0.51099999109E-03 0. -1.
       22    1    1    2    0    0  0.30428481595E-02  0.26400282853E-01  0.23893508014E-01  0.35737005818E-01  0.00000000000E+00 0.  1.
  9000001    1    1    2    0    0 -0.30428481595E-02 -0.26400282853E-01 -0.23893508014E-01  0.35750994182E-01  0.10000000475E-02 0. -1.
</event>
<event>
 4   0  0.2441219E-02  0.9118800E+02  0.7818609E-02  0.1379984E+01
      -11   -1    0    0    0    0  0.00000000000E+00  0.00000000000E+00  0.35740347158E-01  0.35744000000E-01  0.51099999109E-03 0.  1.
       11   -1    0    0    0    0 -0.00000000000E+00 -0.00000000000E+00 -0.35740347158E-01  0.35744000000E-01  0.51099999109E-03 0. -1.
       22    1    1    2    0    0 -0.45555739485E-02 -0.11541852338E-01  0.33513668487E-01  0.35737005818E-01  0.00000000000E+00 0.  1.
  9000001    1    1    2    0    0  0.45555739485E-02  0.11541852338E-01 -0.33513668487E-01  0.35750994182E-01  0.10000000475E-02 0. -1.
</event>
<event>
 4   0  0.2441219E-02  0.9118800E+02  0.7818609E-02  0.1379984E+01
      -11   -1    0    0    0    0  0.00000000000E+00  0.00000000000E+00  0.35740347158E-01  0.35744000000E-01  0.51099999109E-03 0.  1.
       11   -1    0    0    0    0 -0.00000000000E+00 -0.00000000000E+00 -0.35740347158E-01  0.35744000000E-01  0.51099999109E-03 0. -1.
       22    1    1    2    0    0 -0.12917724622E-01 -0.57879086377E-02 -0.32814114175E-01  0.35737005818E-01  0.00000000000E+00 0. -1.
  9000001    1    1    2    0    0  0.12917724622E-01  0.57879086377E-02  0.32814114175E-01  0.35750994182E-01  0.10000000475E-02 0.  1.
</event>
<event>
 4   0  0.2441219E-02  0.9118800E+02  0.7818609E-02  0.1379984E+01
      -11   -1    0    0    0    0  0.00000000000E+00  0.00000000000E+00  0.35740347158E-01  0.35744000000E-01  0.51099999109E-03 0.  1.
       11   -1    0    0    0    0 -0.00000000000E+00 -0.00000000000E+00 -0.35740347158E-01  0.35744000000E-01  0.51099999109E-03 0. -1.
       22    1    1    2    0    0 -0.26517975189E-02  0.26119544346E-02 -0.35542639868E-01  0.35737005818E-01  0.00000000000E+00 0. -1.
  9000001    1    1    2    0    0  0.26517975189E-02 -0.26119544346E-02  0.35542639868E-01  0.35750994182E-01  0.10000000475E-02 0.  1.
</event>
<event>
 4   0  0.2441219E-02  0.9118800E+02  0.7818609E-02  0.1379984E+01
      -11   -1    0    0    0    0  0.00000000000E+00  0.00000000000E+00  0.35740347158E-01  0.35744000000E-01  0.51099999109E-03 0.  1.
       11   -1    0    0    0    0 -0.00000000000E+00 -0.00000000000E+00 -0.35740347158E-01  0.35744000000E-01  0.51099999109E-03 0. -1.
       22    1    1    2    0    0  0.25942716167E-02 -0.32976224968E-02  0.35489843977E-01  0.35737005818E-01  0.00000000000E+00 0.  1.
  9000001    1    1    2    0    0 -0.25942716167E-02  0.32976224968E-02 -0.35489843977E-01  0.35750994182E-01  0.10000000475E-02 0. -1.
</event>
<event>
 4   0  0.2441219E-02  0.9118800E+02  0.7818609E-02  0.1379984E+01
      -11   -1    0    0    0    0  0.00000000000E+00  0.00000000000E+00  0.35740347158E-01  0.35744000000E-01  0.51099999109E-03 0.  1.
       11   -1    0    0    0    0 -0.00000000000E+00 -0.00000000000E+00 -0.35740347158E-01  0.35744000000E-01  0.51099999109E-03 0. -1.
       22    1    1    2    0    0 -0.11193859390E-01 -0.40886448390E-02 -0.33691454112E-01  0.35737005818E-01  0.00000000000E+00 0. -1.
  9000001    1    1    2    0    0  0.11193859390E-01  0.40886448390E-02  0.33691454112E-01  0.35750994182E-01  0.10000000475E-02 0.  1.
</event>
<event>
 4   0  0.2441219E-02  0.9118800E+02  0.7818609E-02  0.1379984E+01
      -11   -1    0    0    0    0  0.00000000000E+00  0.00000000000E+00  0.35740347158E-01  0.35744000000E-01  0.51099999109E-03 0.  1.
       11   -1    0    0    0    0 -0.00000000000E+00 -0.00000000000E+00 -0.35740347158E-01  0.35744000000E-01  0.51099999109E-03 0. -1.
       22    1    1    2    0    0 -0.17527734107E-01  0.13570878999E-01  0.28031114232E-01  0.35737005818E-01  0.00000000000E+00 0.  1.
  9000001    1    1    2    0    0  0.17527734107E-01 -0.13570878999E-01 -0.28031114232E-01  0.35750994182E-01  0.10000000475E-02 0. -1.
</event>
<event>
 4   0  0.2441219E-02  0.9118800E+02  0.7818609E-02  0.1379984E+01
      -11   -1    0    0    0    0  0.00000000000E+00  0.00000000000E+00  0.35740347158E-01  0.35744000000E-01  0.51099999109E-03 0. -1.
       11   -1    0    0    0    0 -0.00000000000E+00 -0.00000000000E+00 -0.35740347158E-01  0.35744000000E-01  0.51099999109E-03 0.  1.
       22    1    1    2    0    0  0.13595189053E-01 -0.24637743498E-01  0.22029208220E-01  0.35737005818E-01  0.00000000000E+00 0. -1.
  9000001    1    1    2    0    0 -0.13595189053E-01  0.24637743498E-01 -0.22029208220E-01  0.35750994182E-01  0.10000000475E-02 0.  1.
</event>
<event>
 4   0  0.2441219E-02  0.9118800E+02  0.7818609E-02  0.1379984E+01
      -11   -1    0    0    0    0  0.00000000000E+00  0.00000000000E+00  0.35740347158E-01  0.35744000000E-01  0.51099999109E-03 0.  1.
       11   -1    0    0    0    0 -0.00000000000E+00 -0.00000000000E+00 -0.35740347158E-01  0.35744000000E-01  0.51099999109E-03 0. -1.
       22    1    1    2    0    0 -0.55243867102E-02  0.45280846062E-02  0.35015870490E-01  0.35737005818E-01  0.00000000000E+00 0.  1.
  9000001    1    1    2    0    0  0.55243867102E-02 -0.45280846062E-02 -0.35015870490E-01  0.35750994182E-01  0.10000000475E-02 0. -1.
</event>
<event>
 4   0  0.2441219E-02  0.9118800E+02  0.7818609E-02  0.1379984E+01
      -11   -1    0    0    0    0  0.00000000000E+00  0.00000000000E+00  0.35740347158E-01  0.35744000000E-01  0.51099999109E-03 0. -1.
       11   -1    0    0    0    0 -0.00000000000E+00 -0.00000000000E+00 -0.35740347158E-01  0.35744000000E-01  0.51099999109E-03 0.  1.
       22    1    1    2    0    0  0.12360863101E-01  0.93101383578E-02 -0.32212792056E-01  0.35737005818E-01  0.00000000000E+00 0.  1.
  9000001    1    1    2    0    0 -0.12360863101E-01 -0.93101383578E-02  0.32212792056E-01  0.35750994182E-01  0.10000000475E-02 0. -1.
</event>
<event>
 4   0  0.2441219E-02  0.9118800E+02  0.7818609E-02  0.1379984E+01
      -11   -1    0    0    0    0  0.00000000000E+00  0.00000000000E+00  0.35740347158E-01  0.35744000000E-01  0.51099999109E-03 0. -1.
       11   -1    0    0    0    0 -0.00000000000E+00 -0.00000000000E+00 -0.35740347158E-01  0.35744000000E-01  0.51099999109E-03 0.  1.
       22    1    1    2    0    0  0.30913368667E-01 -0.13157524848E-01 -0.12181000056E-01  0.35737005818E-01  0.00000000000E+00 0.  1.
  9000001    1    1    2    0    0 -0.30913368667E-01  0.13157524848E-01  0.12181000056E-01  0.35750994182E-01  0.10000000475E-02 0. -1.
</event>
<event>
 4   0  0.2441219E-02  0.9118800E+02  0.7818609E-02  0.1379984E+01
      -11   -1    0    0    0    0  0.00000000000E+00  0.00000000000E+00  0.35740347158E-01  0.35744000000E-01  0.51099999109E-03 0.  1.
       11   -1    0    0    0    0 -0.00000000000E+00 -0.00000000000E+00 -0.35740347158E-01  0.35744000000E-01  0.51099999109E-03 0. -1.
       22    1    1    2    0    0  0.76254963708E-02  0.79126974477E-02  0.34005508511E-01  0.35737005818E-01  0.00000000000E+00 0.  1.
  9000001    1    1    2    0    0 -0.76254963708E-02 -0.79126974477E-02 -0.34005508511E-01  0.35750994182E-01  0.10000000475E-02 0. -1.
</event>
<event>
 4   0  0.2441219E-02  0.9118800E+02  0.7818609E-02  0.1379984E+01
      -11   -1    0    0    0    0  0.00000000000E+00  0.00000000000E+00  0.35740347158E-01  0.35744000000E-01  0.51099999109E-03 0.  1.
       11   -1    0    0    0    0 -0.00000000000E+00 -0.00000000000E+00 -0.35740347158E-01  0.35744000000E-01  0.51099999109E-03 0. -1.
       22    1    1    2    0    0  0.60845351508E-02  0.81967882004E-02  0.34247987971E-01  0.35737005818E-01  0.00000000000E+00 0.  1.
  9000001    1    1    2    0    0 -0.60845351508E-02 -0.81967882004E-02 -0.34247987971E-01  0.35750994182E-01  0.10000000475E-02 0. -1.
</event>
<event>
 4   0  0.2441219E-02  0.9118800E+02  0.7818609E-02  0.1379984E+01
      -11   -1    0    0    0    0  0.00000000000E+00  0.00000000000E+00  0.35740347158E-01  0.35744000000E-01  0.51099999109E-03 0. -1.
       11   -1    0    0    0    0 -0.00000000000E+00 -0.00000000000E+00 -0.35740347158E-01  0.35744000000E-01  0.51099999109E-03 0.  1.
       22    1    1    2    0    0 -0.88370074380E-03 -0.65370558552E-02 -0.35122920702E-01  0.35737005818E-01  0.00000000000E+00 0.  1.
  9000001    1    1    2    0    0  0.88370074380E-03  0.65370558552E-02  0.35122920702E-01  0.35750994182E-01  0.10000000475E-02 0. -1.
</event>
<event>
 4   0  0.2441219E-02  0.9118800E+02  0.7818609E-02  0.1379984E+01
      -11   -1    0    0    0    0  0.00000000000E+00  0.00000000000E+00  0.35740347158E-01  0.35744000000E-01  0.51099999109E-03 0.  1.
       11   -1    0    0    0    0 -0.00000000000E+00 -0.00000000000E+00 -0.35740347158E-01  0.35744000000E-01  0.51099999109E-03 0. -1.
       22    1    1    2    0    0 -0.26098718290E-01  0.64476166731E-02 -0.23546097930E-01  0.35737005818E-01  0.00000000000E+00 0. -1.
  9000001    1    1    2    0    0  0.26098718290E-01 -0.64476166731E-02  0.23546097930E-01  0.35750994182E-01  0.10000000475E-02 0.  1.
</event>
<event>
 4   0  0.2441219E-02  0.9118800E+02  0.7818609E-02  0.1379984E+01
      -11   -1    0    0    0    0  0.00000000000E+00  0.00000000000E+00  0.35740347158E-01  0.35744000000E-01  0.51099999109E-03 0.  1.
       11   -1    0    0    0    0 -0.00000000000E+00 -0.00000000000E+00 -0.35740347158E-01  0.35744000000E-01  0.51099999109E-03 0. -1.
       22    1    1    2    0    0  0.13547964734E-01  0.85749238669E-02  0.31938329905E-01  0.35737005818E-01  0.00000000000E+00 0.  1.
  9000001    1    1    2    0    0 -0.13547964734E-01 -0.85749238669E-02 -0.31938329905E-01  0.35750994182E-01  0.10000000475E-02 0. -1.
</event>
<event>
 4   0  0.2441219E-02  0.9118800E+02  0.7818609E-02  0.1379984E+01
      -11   -1    0    0    0    0  0.00000000000E+00  0.00000000000E+00  0.35740347158E-01  0.35744000000E-01  0.51099999109E-03 0. -1.
       11   -1    0    0    0    0 -0.00000000000E+00 -0.00000000000E+00 -0.35740347158E-01  0.35744000000E-01  0.51099999109E-03 0.  1.
       22    1    1    2    0    0  0.46350703024E-02  0.20861383085E-01 -0.28643540353E-01  0.35737005818E-01  0.00000000000E+00 0.  1.
  9000001    1    1    2    0    0 -0.46350703024E-02 -0.20861383085E-01  0.28643540353E-01  0.35750994182E-01  0.10000000475E-02 0. -1.
</event>
<event>
 4   0  0.2441219E-02  0.9118800E+02  0.7818609E-02  0.1379984E+01
      -11   -1    0    0    0    0  0.00000000000E+00  0.00000000000E+00  0.35740347158E-01  0.35744000000E-01  0.51099999109E-03 0. -1.
       11   -1    0    0    0    0 -0.00000000000E+00 -0.00000000000E+00 -0.35740347158E-01  0.35744000000E-01  0.51099999109E-03 0.  1.
       22    1    1    2    0    0 -0.11753304921E-01  0.23894668521E-02 -0.33664281612E-01  0.35737005818E-01  0.00000000000E+00 0.  1.
  9000001    1    1    2    0    0  0.11753304921E-01 -0.23894668521E-02  0.33664281612E-01  0.35750994182E-01  0.10000000475E-02 0. -1.
</event>
<event>
 4   0  0.2441219E-02  0.9118800E+02  0.7818609E-02  0.1379984E+01
      -11   -1    0    0    0    0  0.00000000000E+00  0.00000000000E+00  0.35740347158E-01  0.35744000000E-01  0.51099999109E-03 0.  1.
       11   -1    0    0    0    0 -0.00000000000E+00 -0.00000000000E+00 -0.35740347158E-01  0.35744000000E-01  0.51099999109E-03 0. -1.
       22    1    1    2    0    0  0.13497533128E-02  0.10015320034E-01 -0.34278347619E-01  0.35737005818E-01  0.00000000000E+00 0. -1.
  9000001    1    1    2    0    0 -0.13497533128E-02 -0.10015320034E-01  0.34278347619E-01  0.35750994182E-01  0.10000000475E-02 0.  1.
</event>
<event>
 4   0  0.2441219E-02  0.9118800E+02  0.7818609E-02  0.1379984E+01
      -11   -1    0    0    0    0  0.00000000000E+00  0.00000000000E+00  0.35740347158E-01  0.35744000000E-01  0.51099999109E-03 0. -1.
       11   -1    0    0    0    0 -0.00000000000E+00 -0.00000000000E+00 -0.35740347158E-01  0.35744000000E-01  0.51099999109E-03 0.  1.
       22    1    1    2    0    0  0.58656826194E-02 -0.14301920682E-02  0.35223314763E-01  0.35737005818E-01  0.00000000000E+00 0. -1.
  9000001    1    1    2    0    0 -0.58656826194E-02  0.14301920682E-02 -0.35223314763E-01  0.35750994182E-01  0.10000000475E-02 0.  1.
</event>
<event>
 4   0  0.2441219E-02  0.9118800E+02  0.7818609E-02  0.1379984E+01
      -11   -1    0    0    0    0  0.00000000000E+00  0.00000000000E+00  0.35740347158E-01  0.35744000000E-01  0.51099999109E-03 0.  1.
       11   -1    0    0    0    0 -0.00000000000E+00 -0.00000000000E+00 -0.35740347158E-01  0.35744000000E-01  0.51099999109E-03 0. -1.
       22    1    1    2    0    0  0.15370329017E-01  0.10555764481E-01  0.30487085905E-01  0.35737005818E-01  0.00000000000E+00 0.  1.
  9000001    1    1    2    0    0 -0.15370329017E-01 -0.10555764481E-01 -0.30487085905E-01  0.35750994182E-01  0.10000000475E-02 0. -1.
</event>
<event>
 4   0  0.2441219E-02  0.9118800E+02  0.7818609E-02  0.1379984E+01
      -11   -1    0    0    0    0  0.00000000000E+00  0.00000000000E+00  0.35740347158E-01  0.35744000000E-01  0.51099999109E-03 0.  1.
       11   -1    0    0    0    0 -0.00000000000E+00 -0.00000000000E+00 -0.35740347158E-01  0.35744000000E-01  0.51099999109E-03 0. -1.
       22    1    1    2    0    0 -0.51409212818E-02 -0.95599559342E-02  0.34048667460E-01  0.35737005818E-01  0.00000000000E+00 0.  1.
  9000001    1    1    2    0    0  0.51409212818E-02  0.95599559342E-02 -0.34048667460E-01  0.35750994182E-01  0.10000000475E-02 0. -1.
</event>
<event>
 4   0  0.2441219E-02  0.9118800E+02  0.7818609E-02  0.1379984E+01
      -11   -1    0    0    0    0  0.00000000000E+00  0.00000000000E+00  0.35740347158E-01  0.35744000000E-01  0.51099999109E-03 0. -1.
       11   -1    0    0    0    0 -0.00000000000E+00 -0.00000000000E+00 -0.35740347158E-01  0.35744000000E-01  0.51099999109E-03 0.  1.
       22    1    1    2    0    0 -0.65817563441E-02  0.94986947397E-02  0.33816990797E-01  0.35737005818E-01  0.00000000000E+00 0. -1.
  9000001    1    1    2    0    0  0.65817563441E-02 -0.94986947397E-02 -0.33816990797E-01  0.35750994182E-01  0.10000000475E-02 0.  1.
</event>
<event>
 4   0  0.2441219E-02  0.9118800E+02  0.7818609E-02  0.1379984E+01
      -11   -1    0    0    0    0  0.00000000000E+00  0.00000000000E+00  0.35740347158E-01  0.35744000000E-01  0.51099999109E-03 0. -1.
       11   -1    0    0    0    0 -0.00000000000E+00 -0.00000000000E+00 -0.35740347158E-01  0.35744000000E-01  0.51099999109E-03 0.  1.
       22    1    1    2    0    0  0.16680567505E-01 -0.26306128362E-01 -0.17517986847E-01  0.35737005818E-01  0.00000000000E+00 0.  1.
  9000001    1    1    2    0    0 -0.16680567505E-01  0.26306128362E-01  0.17517986847E-01  0.35750994182E-01  0.10000000475E-02 0. -1.
</event>
<event>
 4   0  0.2441219E-02  0.9118800E+02  0.7818609E-02  0.1379984E+01
      -11   -1    0    0    0    0  0.00000000000E+00  0.00000000000E+00  0.35740347158E-01  0.35744000000E-01  0.51099999109E-03 0. -1.
       11   -1    0    0    0    0 -0.00000000000E+00 -0.00000000000E+00 -0.35740347158E-01  0.35744000000E-01  0.51099999109E-03 0.  1.
       22    1    1    2    0    0 -0.72824003068E-02  0.43430899156E-02 -0.34716534974E-01  0.35737005818E-01  0.00000000000E+00 0.  1.
  9000001    1    1    2    0    0  0.72824003068E-02 -0.43430899156E-02  0.34716534974E-01  0.35750994182E-01  0.10000000475E-02 0. -1.
</event>
<event>
 4   0  0.2441219E-02  0.9118800E+02  0.7818609E-02  0.1379984E+01
      -11   -1    0    0    0    0  0.00000000000E+00  0.00000000000E+00  0.35740347158E-01  0.35744000000E-01  0.51099999109E-03 0. -1.
       11   -1    0    0    0    0 -0.00000000000E+00 -0.00000000000E+00 -0.35740347158E-01  0.35744000000E-01  0.51099999109E-03 0.  1.
       22    1    1    2    0    0 -0.31468555033E-01  0.16936612151E-01 -0.12164655163E-03  0.35737005818E-01  0.00000000000E+00 0.  1.
  9000001    1    1    2    0    0  0.31468555033E-01 -0.16936612151E-01  0.12164655163E-03  0.35750994182E-01  0.10000000475E-02 0. -1.
</event>
<event>
 4   0  0.2441219E-02  0.9118800E+02  0.7818609E-02  0.1379984E+01
      -11   -1    0    0    0    0  0.00000000000E+00  0.00000000000E+00  0.35740347158E-01  0.35744000000E-01  0.51099999109E-03 0.  1.
       11   -1    0    0    0    0 -0.00000000000E+00 -0.00000000000E+00 -0.35740347158E-01  0.35744000000E-01  0.51099999109E-03 0. -1.
       22    1    1    2    0    0  0.54486750575E-04  0.50205467911E-02  0.35382548325E-01  0.35737005818E-01  0.00000000000E+00 0.  1.
  9000001    1    1    2    0    0 -0.54486750575E-04 -0.50205467911E-02 -0.35382548325E-01  0.35750994182E-01  0.10000000475E-02 0. -1.
</event>
<event>
 4   0  0.2441219E-02  0.9118800E+02  0.7818609E-02  0.1379984E+01
      -11   -1    0    0    0    0  0.00000000000E+00  0.00000000000E+00  0.35740347158E-01  0.35744000000E-01  0.51099999109E-03 0. -1.
       11   -1    0    0    0    0 -0.00000000000E+00 -0.00000000000E+00 -0.35740347158E-01  0.35744000000E-01  0.51099999109E-03 0.  1.
       22    1    1    2    0    0  0.79239366540E-02 -0.18599566783E-01 -0.29468643136E-01  0.35737005818E-01  0.00000000000E+00 0.  1.
  9000001    1    1    2    0    0 -0.79239366540E-02  0.18599566783E-01  0.29468643136E-01  0.35750994182E-01  0.10000000475E-02 0. -1.
</event>
<event>
 4   0  0.2441219E-02  0.9118800E+02  0.7818609E-02  0.1379984E+01
      -11   -1    0    0    0    0  0.00000000000E+00  0.00000000000E+00  0.35740347158E-01  0.35744000000E-01  0.51099999109E-03 0.  1.
       11   -1    0    0    0    0 -0.00000000000E+00 -0.00000000000E+00 -0.35740347158E-01  0.35744000000E-01  0.51099999109E-03 0. -1.
       22    1    1    2    0    0  0.78821645956E-02  0.74406648812E-02 -0.34053510425E-01  0.35737005818E-01  0.00000000000E+00 0. -1.
  9000001    1    1    2    0    0 -0.78821645956E-02 -0.74406648812E-02  0.34053510425E-01  0.35750994182E-01  0.10000000475E-02 0.  1.
</event>
<event>
 4   0  0.2441219E-02  0.9118800E+02  0.7818609E-02  0.1379984E+01
      -11   -1    0    0    0    0  0.00000000000E+00  0.00000000000E+00  0.35740347158E-01  0.35744000000E-01  0.51099999109E-03 0. -1.
       11   -1    0    0    0    0 -0.00000000000E+00 -0.00000000000E+00 -0.35740347158E-01  0.35744000000E-01  0.51099999109E-03 0.  1.
       22    1    1    2    0    0  0.50512615044E-03  0.76169495497E-02  0.34912182859E-01  0.35737005818E-01  0.00000000000E+00 0. -1.
  9000001    1    1    2    0    0 -0.50512615044E-03 -0.76169495497E-02 -0.34912182859E-01  0.35750994182E-01  0.10000000475E-02 0.  1.
</event>
<event>
 4   0  0.2441219E-02  0.9118800E+02  0.7818609E-02  0.1379984E+01
      -11   -1    0    0    0    0  0.00000000000E+00  0.00000000000E+00  0.35740347158E-01  0.35744000000E-01  0.51099999109E-03 0.  1.
       11   -1    0    0    0    0 -0.00000000000E+00 -0.00000000000E+00 -0.35740347158E-01  0.35744000000E-01  0.51099999109E-03 0. -1.
       22    1    1    2    0    0  0.66618184674E-02 -0.14327152142E-01 -0.32054429820E-01  0.35737005818E-01  0.00000000000E+00 0. -1.
  9000001    1    1    2    0    0 -0.66618184674E-02  0.14327152142E-01  0.32054429820E-01  0.35750994182E-01  0.10000000475E-02 0.  1.
</event>
<event>
 4   0  0.2441219E-02  0.9118800E+02  0.7818609E-02  0.1379984E+01
      -11   -1    0    0    0    0  0.00000000000E+00  0.00000000000E+00  0.35740347158E-01  0.35744000000E-01  0.51099999109E-03 0. -1.
       11   -1    0    0    0    0 -0.00000000000E+00 -0.00000000000E+00 -0.35740347158E-01  0.35744000000E-01  0.51099999109E-03 0. -1.
       22    1    1    2    0    0  0.20664406758E-02 -0.24049234208E-02  0.35596063703E-01  0.35737005818E-01  0.00000000000E+00 0. -1.
  9000001    1    1    2    0    0 -0.20664406758E-02  0.24049234208E-02 -0.35596063703E-01  0.35750994182E-01  0.10000000475E-02 0. -1.
</event>
<event>
 4   0  0.2441219E-02  0.9118800E+02  0.7818609E-02  0.1379984E+01
      -11   -1    0    0    0    0  0.00000000000E+00  0.00000000000E+00  0.35740347158E-01  0.35744000000E-01  0.51099999109E-03 0. -1.
       11   -1    0    0    0    0 -0.00000000000E+00 -0.00000000000E+00 -0.35740347158E-01  0.35744000000E-01  0.51099999109E-03 0.  1.
       22    1    1    2    0    0 -0.26862172171E-01 -0.16774888434E-01  0.16557789983E-01  0.35737005818E-01  0.00000000000E+00 0. -1.
  9000001    1    1    2    0    0  0.26862172171E-01  0.16774888434E-01 -0.16557789983E-01  0.35750994182E-01  0.10000000475E-02 0.  1.
</event>
<event>
 4   0  0.2441219E-02  0.9118800E+02  0.7818609E-02  0.1379984E+01
      -11   -1    0    0    0    0  0.00000000000E+00  0.00000000000E+00  0.35740347158E-01  0.35744000000E-01  0.51099999109E-03 0.  1.
       11   -1    0    0    0    0 -0.00000000000E+00 -0.00000000000E+00 -0.35740347158E-01  0.35744000000E-01  0.51099999109E-03 0. -1.
       22    1    1    2    0    0  0.16762441092E-03 -0.46791132038E-02 -0.35428962538E-01  0.35737005818E-01  0.00000000000E+00 0. -1.
  9000001    1    1    2    0    0 -0.16762441092E-03  0.46791132038E-02  0.35428962538E-01  0.35750994182E-01  0.10000000475E-02 0.  1.
</event>
<event>
 4   0  0.2441219E-02  0.9118800E+02  0.7818609E-02  0.1379984E+01
      -11   -1    0    0    0    0  0.00000000000E+00  0.00000000000E+00  0.35740347158E-01  0.35744000000E-01  0.51099999109E-03 0. -1.
       11   -1    0    0    0    0 -0.00000000000E+00 -0.00000000000E+00 -0.35740347158E-01  0.35744000000E-01  0.51099999109E-03 0.  1.
       22    1    1    2    0    0 -0.17873794665E-01  0.56991846525E-02  0.30416777335E-01  0.35737005818E-01  0.00000000000E+00 0. -1.
  9000001    1    1    2    0    0  0.17873794665E-01 -0.56991846525E-02 -0.30416777335E-01  0.35750994182E-01  0.10000000475E-02 0.  1.
</event>
<event>
 4   0  0.2441219E-02  0.9118800E+02  0.7818609E-02  0.1379984E+01
      -11   -1    0    0    0    0  0.00000000000E+00  0.00000000000E+00  0.35740347158E-01  0.35744000000E-01  0.51099999109E-03 0. -1.
       11   -1    0    0    0    0 -0.00000000000E+00 -0.00000000000E+00 -0.35740347158E-01  0.35744000000E-01  0.51099999109E-03 0.  1.
       22    1    1    2    0    0 -0.83221787586E-02  0.31848422624E-02  0.34608260652E-01  0.35737005818E-01  0.00000000000E+00 0. -1.
  9000001    1    1    2    0    0  0.83221787586E-02 -0.31848422624E-02 -0.34608260652E-01  0.35750994182E-01  0.10000000475E-02 0.  1.
</event>
<event>
 4   0  0.2441219E-02  0.9118800E+02  0.7818609E-02  0.1379984E+01
      -11   -1    0    0    0    0  0.00000000000E+00  0.00000000000E+00  0.35740347158E-01  0.35744000000E-01  0.51099999109E-03 0.  1.
       11   -1    0    0    0    0 -0.00000000000E+00 -0.00000000000E+00 -0.35740347158E-01  0.35744000000E-01  0.51099999109E-03 0. -1.
       22    1    1    2    0    0  0.12274408605E-01 -0.20072034094E-01 -0.26899552517E-01  0.35737005818E-01  0.00000000000E+00 0. -1.
  9000001    1    1    2    0    0 -0.12274408605E-01  0.20072034094E-01  0.26899552517E-01  0.35750994182E-01  0.10000000475E-02 0.  1.
</event>
<event>
 4   0  0.2441219E-02  0.9118800E+02  0.7818609E-02  0.1379984E+01
      -11   -1    0    0    0    0  0.00000000000E+00  0.00000000000E+00  0.35740347158E-01  0.35744000000E-01  0.51099999109E-03 0. -1.
       11   -1    0    0    0    0 -0.00000000000E+00 -0.00000000000E+00 -0.35740347158E-01  0.35744000000E-01  0.51099999109E-03 0.  1.
       22    1    1    2    0    0  0.13785347847E-02 -0.78615419984E-02 -0.34834313315E-01  0.35737005818E-01  0.00000000000E+00 0.  1.
  9000001    1    1    2    0    0 -0.13785347847E-02  0.78615419984E-02  0.34834313315E-01  0.35750994182E-01  0.10000000475E-02 0. -1.
</event>
<event>
 4   0  0.2441219E-02  0.9118800E+02  0.7818609E-02  0.1379984E+01
      -11   -1    0    0    0    0  0.00000000000E+00  0.00000000000E+00  0.35740347158E-01  0.35744000000E-01  0.51099999109E-03 0. -1.
       11   -1    0    0    0    0 -0.00000000000E+00 -0.00000000000E+00 -0.35740347158E-01  0.35744000000E-01  0.51099999109E-03 0.  1.
       22    1    1    2    0    0 -0.34747876546E-02  0.77511588709E-02 -0.34712807028E-01  0.35737005818E-01  0.00000000000E+00 0.  1.
  9000001    1    1    2    0    0  0.34747876546E-02 -0.77511588709E-02  0.34712807028E-01  0.35750994182E-01  0.10000000475E-02 0. -1.
</event>
<event>
 4   0  0.2441219E-02  0.9118800E+02  0.7818609E-02  0.1379984E+01
      -11   -1    0    0    0    0  0.00000000000E+00  0.00000000000E+00  0.35740347158E-01  0.35744000000E-01  0.51099999109E-03 0. -1.
       11   -1    0    0    0    0 -0.00000000000E+00 -0.00000000000E+00 -0.35740347158E-01  0.35744000000E-01  0.51099999109E-03 0.  1.
       22    1    1    2    0    0 -0.24094657081E-02  0.28664501729E-02 -0.35540280293E-01  0.35737005818E-01  0.00000000000E+00 0.  1.
  9000001    1    1    2    0    0  0.24094657081E-02 -0.28664501729E-02  0.35540280293E-01  0.35750994182E-01  0.10000000475E-02 0. -1.
</event>
<event>
 4   0  0.2441219E-02  0.9118800E+02  0.7818609E-02  0.1379984E+01
      -11   -1    0    0    0    0  0.00000000000E+00  0.00000000000E+00  0.35740347158E-01  0.35744000000E-01  0.51099999109E-03 0.  1.
       11   -1    0    0    0    0 -0.00000000000E+00 -0.00000000000E+00 -0.35740347158E-01  0.35744000000E-01  0.51099999109E-03 0. -1.
       22    1    1    2    0    0 -0.68554388312E-02 -0.12963853673E-01 -0.32589492805E-01  0.35737005818E-01  0.00000000000E+00 0. -1.
  9000001    1    1    2    0    0  0.68554388312E-02  0.12963853673E-01  0.32589492805E-01  0.35750994182E-01  0.10000000475E-02 0.  1.
</event>
<event>
 4   0  0.2441219E-02  0.9118800E+02  0.7818609E-02  0.1379984E+01
      -11   -1    0    0    0    0  0.00000000000E+00  0.00000000000E+00  0.35740347158E-01  0.35744000000E-01  0.51099999109E-03 0.  1.
       11   -1    0    0    0    0 -0.00000000000E+00 -0.00000000000E+00 -0.35740347158E-01  0.35744000000E-01  0.51099999109E-03 0. -1.
       22    1    1    2    0    0  0.47329912465E-02 -0.26216628011E-03 -0.35421231593E-01  0.35737005818E-01  0.00000000000E+00 0. -1.
  9000001    1    1    2    0    0 -0.47329912465E-02  0.26216628011E-03  0.35421231593E-01  0.35750994182E-01  0.10000000475E-02 0.  1.
</event>
<event>
 4   0  0.2441219E-02  0.9118800E+02  0.7818609E-02  0.1379984E+01
      -11   -1    0    0    0    0  0.00000000000E+00  0.00000000000E+00  0.35740347158E-01  0.35744000000E-01  0.51099999109E-03 0.  1.
       11   -1    0    0    0    0 -0.00000000000E+00 -0.00000000000E+00 -0.35740347158E-01  0.35744000000E-01  0.51099999109E-03 0. -1.
       22    1    1    2    0    0 -0.10120346756E-01 -0.35987764958E-02 -0.34084614919E-01  0.35737005818E-01  0.00000000000E+00 0. -1.
  9000001    1    1    2    0    0  0.10120346756E-01  0.35987764958E-02  0.34084614919E-01  0.35750994182E-01  0.10000000475E-02 0.  1.
</event>
<event>
 4   0  0.2441219E-02  0.9118800E+02  0.7818609E-02  0.1379984E+01
      -11   -1    0    0    0    0  0.00000000000E+00  0.00000000000E+00  0.35740347158E-01  0.35744000000E-01  0.51099999109E-03 0. -1.
       11   -1    0    0    0    0 -0.00000000000E+00 -0.00000000000E+00 -0.35740347158E-01  0.35744000000E-01  0.51099999109E-03 0.  1.
       22    1    1    2    0    0  0.27613657328E-01 -0.14720859085E-01 -0.17260238168E-01  0.35737005818E-01  0.00000000000E+00 0.  1.
  9000001    1    1    2    0    0 -0.27613657328E-01  0.14720859085E-01  0.17260238168E-01  0.35750994182E-01  0.10000000475E-02 0. -1.
</event>
<event>
 4   0  0.2441219E-02  0.9118800E+02  0.7818609E-02  0.1379984E+01
      -11   -1    0    0    0    0  0.00000000000E+00  0.00000000000E+00  0.35740347158E-01  0.35744000000E-01  0.51099999109E-03 0. -1.
       11   -1    0    0    0    0 -0.00000000000E+00 -0.00000000000E+00 -0.35740347158E-01  0.35744000000E-01  0.51099999109E-03 0.  1.
       22    1    1    2    0    0  0.23597126775E-01  0.40858685697E-03 -0.26835466264E-01  0.35737005818E-01  0.00000000000E+00 0. -1.
  9000001    1    1    2    0    0 -0.23597126775E-01 -0.40858685697E-03  0.26835466264E-01  0.35750994182E-01  0.10000000475E-02 0.  1.
</event>
<event>
 4   0  0.2441219E-02  0.9118800E+02  0.7818609E-02  0.1379984E+01
      -11   -1    0    0    0    0  0.00000000000E+00  0.00000000000E+00  0.35740347158E-01  0.35744000000E-01  0.51099999109E-03 0. -1.
       11   -1    0    0    0    0 -0.00000000000E+00 -0.00000000000E+00 -0.35740347158E-01  0.35744000000E-01  0.51099999109E-03 0.  1.
       22    1    1    2    0    0 -0.64712409531E-02  0.20521156646E-01 -0.28533116817E-01  0.35737005818E-01  0.00000000000E+00 0.  1.
  9000001    1    1    2    0    0  0.64712409531E-02 -0.20521156646E-01  0.28533116817E-01  0.35750994182E-01  0.10000000475E-02 0. -1.
</event>
<event>
 4   0  0.2441219E-02  0.9118800E+02  0.7818609E-02  0.1379984E+01
      -11   -1    0    0    0    0  0.00000000000E+00  0.00000000000E+00  0.35740347158E-01  0.35744000000E-01  0.51099999109E-03 0.  1.
       11   -1    0    0    0    0 -0.00000000000E+00 -0.00000000000E+00 -0.35740347158E-01  0.35744000000E-01  0.51099999109E-03 0. -1.
       22    1    1    2    0    0  0.31113279288E-01  0.57868719199E-02 -0.16601492408E-01  0.35737005818E-01  0.00000000000E+00 0. -1.
  9000001    1    1    2    0    0 -0.31113279288E-01 -0.57868719199E-02  0.16601492408E-01  0.35750994182E-01  0.10000000475E-02 0.  1.
</event>
<event>
 4   0  0.2441219E-02  0.9118800E+02  0.7818609E-02  0.1379984E+01
      -11   -1    0    0    0    0  0.00000000000E+00  0.00000000000E+00  0.35740347158E-01  0.35744000000E-01  0.51099999109E-03 0.  1.
       11   -1    0    0    0    0 -0.00000000000E+00 -0.00000000000E+00 -0.35740347158E-01  0.35744000000E-01  0.51099999109E-03 0. -1.
       22    1    1    2    0    0 -0.37359953938E-02  0.83856513498E-02 -0.34537758681E-01  0.35737005818E-01  0.00000000000E+00 0. -1.
  9000001    1    1    2    0    0  0.37359953938E-02 -0.83856513498E-02  0.34537758681E-01  0.35750994182E-01  0.10000000475E-02 0.  1.
</event>
<event>
 4   0  0.2441219E-02  0.9118800E+02  0.7818609E-02  0.1379984E+01
      -11   -1    0    0    0    0  0.00000000000E+00  0.00000000000E+00  0.35740347158E-01  0.35744000000E-01  0.51099999109E-03 0.  1.
       11   -1    0    0    0    0 -0.00000000000E+00 -0.00000000000E+00 -0.35740347158E-01  0.35744000000E-01  0.51099999109E-03 0. -1.
       22    1    1    2    0    0  0.24382125828E-02  0.26352781508E-02 -0.35556209209E-01  0.35737005818E-01  0.00000000000E+00 0. -1.
  9000001    1    1    2    0    0 -0.24382125828E-02 -0.26352781508E-02  0.35556209209E-01  0.35750994182E-01  0.10000000475E-02 0.  1.
</event>
<event>
 4   0  0.2441219E-02  0.9118800E+02  0.7818609E-02  0.1379984E+01
      -11   -1    0    0    0    0  0.00000000000E+00  0.00000000000E+00  0.35740347158E-01  0.35744000000E-01  0.51099999109E-03 0. -1.
       11   -1    0    0    0    0 -0.00000000000E+00 -0.00000000000E+00 -0.35740347158E-01  0.35744000000E-01  0.51099999109E-03 0.  1.
       22    1    1    2    0    0  0.13562615660E-01 -0.21025527264E-01 -0.25516979535E-01  0.35737005818E-01  0.00000000000E+00 0.  1.
  9000001    1    1    2    0    0 -0.13562615660E-01  0.21025527264E-01  0.25516979535E-01  0.35750994182E-01  0.10000000475E-02 0. -1.
</event>
<event>
 4   0  0.2441219E-02  0.9118800E+02  0.7818609E-02  0.1379984E+01
      -11   -1    0    0    0    0  0.00000000000E+00  0.00000000000E+00  0.35740347158E-01  0.35744000000E-01  0.51099999109E-03 0. -1.
       11   -1    0    0    0    0 -0.00000000000E+00 -0.00000000000E+00 -0.35740347158E-01  0.35744000000E-01  0.51099999109E-03 0.  1.
       22    1    1    2    0    0 -0.34222380815E-02 -0.68427221275E-02 -0.34908437737E-01  0.35737005818E-01  0.00000000000E+00 0.  1.
  9000001    1    1    2    0    0  0.34222380815E-02  0.68427221275E-02  0.34908437737E-01  0.35750994182E-01  0.10000000475E-02 0. -1.
</event>
<event>
 4   0  0.2441219E-02  0.9118800E+02  0.7818609E-02  0.1379984E+01
      -11   -1    0    0    0    0  0.00000000000E+00  0.00000000000E+00  0.35740347158E-01  0.35744000000E-01  0.51099999109E-03 0.  1.
       11   -1    0    0    0    0 -0.00000000000E+00 -0.00000000000E+00 -0.35740347158E-01  0.35744000000E-01  0.51099999109E-03 0. -1.
       22    1    1    2    0    0 -0.15561453986E-01  0.72758666955E-02 -0.31337461584E-01  0.35737005818E-01  0.00000000000E+00 0. -1.
  9000001    1    1    2    0    0  0.15561453986E-01 -0.72758666955E-02  0.31337461584E-01  0.35750994182E-01  0.10000000475E-02 0.  1.
</event>
<event>
 4   0  0.2441219E-02  0.9118800E+02  0.7818609E-02  0.1379984E+01
      -11   -1    0    0    0    0  0.00000000000E+00  0.00000000000E+00  0.35740347158E-01  0.35744000000E-01  0.51099999109E-03 0.  1.
       11   -1    0    0    0    0 -0.00000000000E+00 -0.00000000000E+00 -0.35740347158E-01  0.35744000000E-01  0.51099999109E-03 0. -1.
       22    1    1    2    0    0  0.23109590388E-01  0.27235825197E-01 -0.11358885544E-02  0.35737005818E-01  0.00000000000E+00 0. -1.
  9000001    1    1    2    0    0 -0.23109590388E-01 -0.27235825197E-01  0.11358885544E-02  0.35750994182E-01  0.10000000475E-02 0.  1.
</event>
<event>
 4   0  0.2441219E-02  0.9118800E+02  0.7818609E-02  0.1379984E+01
      -11   -1    0    0    0    0  0.00000000000E+00  0.00000000000E+00  0.35740347158E-01  0.35744000000E-01  0.51099999109E-03 0.  1.
       11   -1    0    0    0    0 -0.00000000000E+00 -0.00000000000E+00 -0.35740347158E-01  0.35744000000E-01  0.51099999109E-03 0. -1.
       22    1    1    2    0    0 -0.44097431397E-02  0.15695863952E-01  0.31801377409E-01  0.35737005818E-01  0.00000000000E+00 0.  1.
  9000001    1    1    2    0    0  0.44097431397E-02 -0.15695863952E-01 -0.31801377409E-01  0.35750994182E-01  0.10000000475E-02 0. -1.
</event>
<event>
 4   0  0.2441219E-02  0.9118800E+02  0.7818609E-02  0.1379984E+01
      -11   -1    0    0    0    0  0.00000000000E+00  0.00000000000E+00  0.35740347158E-01  0.35744000000E-01  0.51099999109E-03 0.  1.
       11   -1    0    0    0    0 -0.00000000000E+00 -0.00000000000E+00 -0.35740347158E-01  0.35744000000E-01  0.51099999109E-03 0. -1.
       22    1    1    2    0    0  0.12140158235E-01  0.61980277371E-02 -0.33035353715E-01  0.35737005818E-01  0.00000000000E+00 0. -1.
  9000001    1    1    2    0    0 -0.12140158235E-01 -0.61980277371E-02  0.33035353715E-01  0.35750994182E-01  0.10000000475E-02 0.  1.
</event>
<event>
 4   0  0.2441219E-02  0.9118800E+02  0.7818609E-02  0.1379984E+01
      -11   -1    0    0    0    0  0.00000000000E+00  0.00000000000E+00  0.35740347158E-01  0.35744000000E-01  0.51099999109E-03 0.  1.
       11   -1    0    0    0    0 -0.00000000000E+00 -0.00000000000E+00 -0.35740347158E-01  0.35744000000E-01  0.51099999109E-03 0. -1.
       22    1    1    2    0    0  0.28110252635E-02 -0.17646929151E-02  0.35582546013E-01  0.35737005818E-01  0.00000000000E+00 0.  1.
  9000001    1    1    2    0    0 -0.28110252635E-02  0.17646929151E-02 -0.35582546013E-01  0.35750994182E-01  0.10000000475E-02 0. -1.
</event>
<event>
 4   0  0.2441219E-02  0.9118800E+02  0.7818609E-02  0.1379984E+01
      -11   -1    0    0    0    0  0.00000000000E+00  0.00000000000E+00  0.35740347158E-01  0.35744000000E-01  0.51099999109E-03 0.  1.
       11   -1    0    0    0    0 -0.00000000000E+00 -0.00000000000E+00 -0.35740347158E-01  0.35744000000E-01  0.51099999109E-03 0. -1.
       22    1    1    2    0    0 -0.25188301459E-01  0.95208354149E-02  0.23495462274E-01  0.35737005818E-01  0.00000000000E+00 0. -1.
  9000001    1    1    2    0    0  0.25188301459E-01 -0.95208354149E-02 -0.23495462274E-01  0.35750994182E-01  0.10000000475E-02 0.  1.
</event>
<event>
 4   0  0.2441219E-02  0.9118800E+02  0.7818609E-02  0.1379984E+01
      -11   -1    0    0    0    0  0.00000000000E+00  0.00000000000E+00  0.35740347158E-01  0.35744000000E-01  0.51099999109E-03 0.  1.
       11   -1    0    0    0    0 -0.00000000000E+00 -0.00000000000E+00 -0.35740347158E-01  0.35744000000E-01  0.51099999109E-03 0. -1.
       22    1    1    2    0    0  0.34849005545E-01  0.70843552488E-02 -0.35344459409E-02  0.35737005818E-01  0.00000000000E+00 0. -1.
  9000001    1    1    2    0    0 -0.34849005545E-01 -0.70843552488E-02  0.35344459409E-02  0.35750994182E-01  0.10000000475E-02 0.  1.
</event>
<event>
 4   0  0.2441219E-02  0.9118800E+02  0.7818609E-02  0.1379984E+01
      -11   -1    0    0    0    0  0.00000000000E+00  0.00000000000E+00  0.35740347158E-01  0.35744000000E-01  0.51099999109E-03 0.  1.
       11   -1    0    0    0    0 -0.00000000000E+00 -0.00000000000E+00 -0.35740347158E-01  0.35744000000E-01  0.51099999109E-03 0. -1.
       22    1    1    2    0    0  0.10578784455E-01  0.10596768158E-02  0.34118909557E-01  0.35737005818E-01  0.00000000000E+00 0.  1.
  9000001    1    1    2    0    0 -0.10578784455E-01 -0.10596768158E-02 -0.34118909557E-01  0.35750994182E-01  0.10000000475E-02 0. -1.
</event>
<event>
 4   0  0.2441219E-02  0.9118800E+02  0.7818609E-02  0.1379984E+01
      -11   -1    0    0    0    0  0.00000000000E+00  0.00000000000E+00  0.35740347158E-01  0.35744000000E-01  0.51099999109E-03 0. -1.
       11   -1    0    0    0    0 -0.00000000000E+00 -0.00000000000E+00 -0.35740347158E-01  0.35744000000E-01  0.51099999109E-03 0.  1.
       22    1    1    2    0    0 -0.30006433771E-02 -0.30655866580E-02  0.35478611904E-01  0.35737005818E-01  0.00000000000E+00 0. -1.
  9000001    1    1    2    0    0  0.30006433771E-02  0.30655866580E-02 -0.35478611904E-01  0.35750994182E-01  0.10000000475E-02 0.  1.
</event>
<event>
 4   0  0.2441219E-02  0.9118800E+02  0.7818609E-02  0.1379984E+01
      -11   -1    0    0    0    0  0.00000000000E+00  0.00000000000E+00  0.35740347158E-01  0.35744000000E-01  0.51099999109E-03 0. -1.
       11   -1    0    0    0    0 -0.00000000000E+00 -0.00000000000E+00 -0.35740347158E-01  0.35744000000E-01  0.51099999109E-03 0.  1.
       22    1    1    2    0    0  0.40720457275E-02  0.24385174328E-01  0.25805334748E-01  0.35737005818E-01  0.00000000000E+00 0. -1.
  9000001    1    1    2    0    0 -0.40720457275E-02 -0.24385174328E-01 -0.25805334748E-01  0.35750994182E-01  0.10000000475E-02 0.  1.
</event>
<event>
 4   0  0.2441219E-02  0.9118800E+02  0.7818609E-02  0.1379984E+01
      -11   -1    0    0    0    0  0.00000000000E+00  0.00000000000E+00  0.35740347158E-01  0.35744000000E-01  0.51099999109E-03 0.  1.
       11   -1    0    0    0    0 -0.00000000000E+00 -0.00000000000E+00 -0.35740347158E-01  0.35744000000E-01  0.51099999109E-03 0. -1.
       22    1    1    2    0    0 -0.44129721220E-02 -0.67238439190E-02 -0.34820241023E-01  0.35737005818E-01  0.00000000000E+00 0. -1.
  9000001    1    1    2    0    0  0.44129721220E-02  0.67238439190E-02  0.34820241023E-01  0.35750994182E-01  0.10000000475E-02 0.  1.
</event>
<event>
 4   0  0.2441219E-02  0.9118800E+02  0.7818609E-02  0.1379984E+01
      -11   -1    0    0    0    0  0.00000000000E+00  0.00000000000E+00  0.35740347158E-01  0.35744000000E-01  0.51099999109E-03 0. -1.
       11   -1    0    0    0    0 -0.00000000000E+00 -0.00000000000E+00 -0.35740347158E-01  0.35744000000E-01  0.51099999109E-03 0.  1.
       22    1    1    2    0    0 -0.10566717756E-02  0.43599233484E-02  0.35454310006E-01  0.35737005818E-01  0.00000000000E+00 0. -1.
  9000001    1    1    2    0    0  0.10566717756E-02 -0.43599233484E-02 -0.35454310006E-01  0.35750994182E-01  0.10000000475E-02 0.  1.
</event>
<event>
 4   0  0.2441219E-02  0.9118800E+02  0.7818609E-02  0.1379984E+01
      -11   -1    0    0    0    0  0.00000000000E+00  0.00000000000E+00  0.35740347158E-01  0.35744000000E-01  0.51099999109E-03 0. -1.
       11   -1    0    0    0    0 -0.00000000000E+00 -0.00000000000E+00 -0.35740347158E-01  0.35744000000E-01  0.51099999109E-03 0.  1.
       22    1    1    2    0    0 -0.60490308659E-02 -0.15943688531E-01 -0.31406075948E-01  0.35737005818E-01  0.00000000000E+00 0.  1.
  9000001    1    1    2    0    0  0.60490308659E-02  0.15943688531E-01  0.31406075948E-01  0.35750994182E-01  0.10000000475E-02 0. -1.
</event>
<event>
 4   0  0.2441219E-02  0.9118800E+02  0.7818609E-02  0.1379984E+01
      -11   -1    0    0    0    0  0.00000000000E+00  0.00000000000E+00  0.35740347158E-01  0.35744000000E-01  0.51099999109E-03 0.  1.
       11   -1    0    0    0    0 -0.00000000000E+00 -0.00000000000E+00 -0.35740347158E-01  0.35744000000E-01  0.51099999109E-03 0. -1.
       22    1    1    2    0    0 -0.11473938816E-01 -0.56606061205E-02 -0.33368246152E-01  0.35737005818E-01  0.00000000000E+00 0. -1.
  9000001    1    1    2    0    0  0.11473938816E-01  0.56606061205E-02  0.33368246152E-01  0.35750994182E-01  0.10000000475E-02 0.  1.
</event>
<event>
 4   0  0.2441219E-02  0.9118800E+02  0.7818609E-02  0.1379984E+01
      -11   -1    0    0    0    0  0.00000000000E+00  0.00000000000E+00  0.35740347158E-01  0.35744000000E-01  0.51099999109E-03 0. -1.
       11   -1    0    0    0    0 -0.00000000000E+00 -0.00000000000E+00 -0.35740347158E-01  0.35744000000E-01  0.51099999109E-03 0.  1.
       22    1    1    2    0    0 -0.48740331388E-02 -0.45800805820E-02 -0.35105558644E-01  0.35737005818E-01  0.00000000000E+00 0.  1.
  9000001    1    1    2    0    0  0.48740331388E-02  0.45800805820E-02  0.35105558644E-01  0.35750994182E-01  0.10000000475E-02 0. -1.
</event>
<event>
 4   0  0.2441219E-02  0.9118800E+02  0.7818609E-02  0.1379984E+01
      -11   -1    0    0    0    0  0.00000000000E+00  0.00000000000E+00  0.35740347158E-01  0.35744000000E-01  0.51099999109E-03 0.  1.
       11   -1    0    0    0    0 -0.00000000000E+00 -0.00000000000E+00 -0.35740347158E-01  0.35744000000E-01  0.51099999109E-03 0. -1.
       22    1    1    2    0    0 -0.49454243826E-02  0.39516296426E-02 -0.35171877768E-01  0.35737005818E-01  0.00000000000E+00 0. -1.
  9000001    1    1    2    0    0  0.49454243826E-02 -0.39516296426E-02  0.35171877768E-01  0.35750994182E-01  0.10000000475E-02 0.  1.
</event>
<event>
 4   0  0.2441219E-02  0.9118800E+02  0.7818609E-02  0.1379984E+01
      -11   -1    0    0    0    0  0.00000000000E+00  0.00000000000E+00  0.35740347158E-01  0.35744000000E-01  0.51099999109E-03 0.  1.
       11   -1    0    0    0    0 -0.00000000000E+00 -0.00000000000E+00 -0.35740347158E-01  0.35744000000E-01  0.51099999109E-03 0. -1.
       22    1    1    2    0    0 -0.79022742053E-03  0.87377724701E-02 -0.34643332082E-01  0.35737005818E-01  0.00000000000E+00 0. -1.
  9000001    1    1    2    0    0  0.79022742053E-03 -0.87377724701E-02  0.34643332082E-01  0.35750994182E-01  0.10000000475E-02 0.  1.
</event>
<event>
 4   0  0.2441219E-02  0.9118800E+02  0.7818609E-02  0.1379984E+01
      -11   -1    0    0    0    0  0.00000000000E+00  0.00000000000E+00  0.35740347158E-01  0.35744000000E-01  0.51099999109E-03 0.  1.
       11   -1    0    0    0    0 -0.00000000000E+00 -0.00000000000E+00 -0.35740347158E-01  0.35744000000E-01  0.51099999109E-03 0. -1.
       22    1    1    2    0    0 -0.21231331745E-01  0.25154759274E-01 -0.13914101592E-01  0.35737005818E-01  0.00000000000E+00 0. -1.
  9000001    1    1    2    0    0  0.21231331745E-01 -0.25154759274E-01  0.13914101592E-01  0.35750994182E-01  0.10000000475E-02 0.  1.
</event>
<event>
 4   0  0.2441219E-02  0.9118800E+02  0.7818609E-02  0.1379984E+01
      -11   -1    0    0    0    0  0.00000000000E+00  0.00000000000E+00  0.35740347158E-01  0.35744000000E-01  0.51099999109E-03 0.  1.
       11   -1    0    0    0    0 -0.00000000000E+00 -0.00000000000E+00 -0.35740347158E-01  0.35744000000E-01  0.51099999109E-03 0. -1.
       22    1    1    2    0    0  0.11575311390E-01  0.16679899562E-01 -0.29409636205E-01  0.35737005818E-01  0.00000000000E+00 0. -1.
  9000001    1    1    2    0    0 -0.11575311390E-01 -0.16679899562E-01  0.29409636205E-01  0.35750994182E-01  0.10000000475E-02 0.  1.
</event>
<event>
 4   0  0.2441219E-02  0.9118800E+02  0.7818609E-02  0.1379984E+01
      -11   -1    0    0    0    0  0.00000000000E+00  0.00000000000E+00  0.35740347158E-01  0.35744000000E-01  0.51099999109E-03 0.  1.
       11   -1    0    0    0    0 -0.00000000000E+00 -0.00000000000E+00 -0.35740347158E-01  0.35744000000E-01  0.51099999109E-03 0. -1.
       22    1    1    2    0    0 -0.24479712412E-02  0.48495151417E-02 -0.35321710386E-01  0.35737005818E-01  0.00000000000E+00 0. -1.
  9000001    1    1    2    0    0  0.24479712412E-02 -0.48495151417E-02  0.35321710386E-01  0.35750994182E-01  0.10000000475E-02 0.  1.
</event>
<event>
 4   0  0.2441219E-02  0.9118800E+02  0.7818609E-02  0.1379984E+01
      -11   -1    0    0    0    0  0.00000000000E+00  0.00000000000E+00  0.35740347158E-01  0.35744000000E-01  0.51099999109E-03 0.  1.
       11   -1    0    0    0    0 -0.00000000000E+00 -0.00000000000E+00 -0.35740347158E-01  0.35744000000E-01  0.51099999109E-03 0. -1.
       22    1    1    2    0    0 -0.33842166704E-02 -0.44319081200E-02  0.35299275528E-01  0.35737005818E-01  0.00000000000E+00 0.  1.
  9000001    1    1    2    0    0  0.33842166704E-02  0.44319081200E-02 -0.35299275528E-01  0.35750994182E-01  0.10000000475E-02 0. -1.
</event>
<event>
 4   0  0.2441219E-02  0.9118800E+02  0.7818609E-02  0.1379984E+01
      -11   -1    0    0    0    0  0.00000000000E+00  0.00000000000E+00  0.35740347158E-01  0.35744000000E-01  0.51099999109E-03 0.  1.
       11   -1    0    0    0    0 -0.00000000000E+00 -0.00000000000E+00 -0.35740347158E-01  0.35744000000E-01  0.51099999109E-03 0. -1.
       22    1    1    2    0    0  0.39461988587E-02  0.38524539167E-02  0.35308918112E-01  0.35737005818E-01  0.00000000000E+00 0.  1.
  9000001    1    1    2    0    0 -0.39461988587E-02 -0.38524539167E-02 -0.35308918112E-01  0.35750994182E-01  0.10000000475E-02 0. -1.
</event>
<event>
 4   0  0.2441219E-02  0.9118800E+02  0.7818609E-02  0.1379984E+01
      -11   -1    0    0    0    0  0.00000000000E+00  0.00000000000E+00  0.35740347158E-01  0.35744000000E-01  0.51099999109E-03 0.  1.
       11   -1    0    0    0    0 -0.00000000000E+00 -0.00000000000E+00 -0.35740347158E-01  0.35744000000E-01  0.51099999109E-03 0. -1.
       22    1    1    2    0    0 -0.68470906794E-03  0.35269292251E-02 -0.35555949272E-01  0.35737005818E-01  0.00000000000E+00 0. -1.
  9000001    1    1    2    0    0  0.68470906794E-03 -0.35269292251E-02  0.35555949272E-01  0.35750994182E-01  0.10000000475E-02 0.  1.
</event>
<event>
 4   0  0.2441219E-02  0.9118800E+02  0.7818609E-02  0.1379984E+01
      -11   -1    0    0    0    0  0.00000000000E+00  0.00000000000E+00  0.35740347158E-01  0.35744000000E-01  0.51099999109E-03 0.  1.
       11   -1    0    0    0    0 -0.00000000000E+00 -0.00000000000E+00 -0.35740347158E-01  0.35744000000E-01  0.51099999109E-03 0. -1.
       22    1    1    2    0    0 -0.16605324728E-01 -0.24720102469E-01  0.19756348587E-01  0.35737005818E-01  0.00000000000E+00 0.  1.
  9000001    1    1    2    0    0  0.16605324728E-01  0.24720102469E-01 -0.19756348587E-01  0.35750994182E-01  0.10000000475E-02 0. -1.
</event>
<event>
 4   0  0.2441219E-02  0.9118800E+02  0.7818609E-02  0.1379984E+01
      -11   -1    0    0    0    0  0.00000000000E+00  0.00000000000E+00  0.35740347158E-01  0.35744000000E-01  0.51099999109E-03 0.  1.
       11   -1    0    0    0    0 -0.00000000000E+00 -0.00000000000E+00 -0.35740347158E-01  0.35744000000E-01  0.51099999109E-03 0. -1.
       22    1    1    2    0    0 -0.26935326099E-02  0.33974120723E-02  0.35473032830E-01  0.35737005818E-01  0.00000000000E+00 0.  1.
  9000001    1    1    2    0    0  0.26935326099E-02 -0.33974120723E-02 -0.35473032830E-01  0.35750994182E-01  0.10000000475E-02 0. -1.
</event>
<event>
 4   0  0.2441219E-02  0.9118800E+02  0.7818609E-02  0.1379984E+01
      -11   -1    0    0    0    0  0.00000000000E+00  0.00000000000E+00  0.35740347158E-01  0.35744000000E-01  0.51099999109E-03 0.  1.
       11   -1    0    0    0    0 -0.00000000000E+00 -0.00000000000E+00 -0.35740347158E-01  0.35744000000E-01  0.51099999109E-03 0. -1.
       22    1    1    2    0    0 -0.26823173615E-01  0.29848855895E-02 -0.23425229991E-01  0.35737005818E-01  0.00000000000E+00 0. -1.
  9000001    1    1    2    0    0  0.26823173615E-01 -0.29848855895E-02  0.23425229991E-01  0.35750994182E-01  0.10000000475E-02 0.  1.
</event>
<event>
 4   0  0.2441219E-02  0.9118800E+02  0.7818609E-02  0.1379984E+01
      -11   -1    0    0    0    0  0.00000000000E+00  0.00000000000E+00  0.35740347158E-01  0.35744000000E-01  0.51099999109E-03 0. -1.
       11   -1    0    0    0    0 -0.00000000000E+00 -0.00000000000E+00 -0.35740347158E-01  0.35744000000E-01  0.51099999109E-03 0.  1.
       22    1    1    2    0    0  0.98593573274E-02  0.54455222994E-02 -0.33915674029E-01  0.35737005818E-01  0.00000000000E+00 0.  1.
  9000001    1    1    2    0    0 -0.98593573274E-02 -0.54455222994E-02  0.33915674029E-01  0.35750994182E-01  0.10000000475E-02 0. -1.
</event>
<event>
 4   0  0.2441219E-02  0.9118800E+02  0.7818609E-02  0.1379984E+01
      -11   -1    0    0    0    0  0.00000000000E+00  0.00000000000E+00  0.35740347158E-01  0.35744000000E-01  0.51099999109E-03 0.  1.
       11   -1    0    0    0    0 -0.00000000000E+00 -0.00000000000E+00 -0.35740347158E-01  0.35744000000E-01  0.51099999109E-03 0. -1.
       22    1    1    2    0    0 -0.17280806514E-01 -0.29396819950E-01 -0.10692721259E-01  0.35737005818E-01  0.00000000000E+00 0.  1.
  9000001    1    1    2    0    0  0.17280806514E-01  0.29396819950E-01  0.10692721259E-01  0.35750994182E-01  0.10000000475E-02 0. -1.
</event>
<event>
 4   0  0.2441219E-02  0.9118800E+02  0.7818609E-02  0.1379984E+01
      -11   -1    0    0    0    0  0.00000000000E+00  0.00000000000E+00  0.35740347158E-01  0.35744000000E-01  0.51099999109E-03 0.  1.
       11   -1    0    0    0    0 -0.00000000000E+00 -0.00000000000E+00 -0.35740347158E-01  0.35744000000E-01  0.51099999109E-03 0. -1.
       22    1    1    2    0    0  0.98520229464E-02 -0.26944980978E-02 -0.34246326938E-01  0.35737005818E-01  0.00000000000E+00 0. -1.
  9000001    1    1    2    0    0 -0.98520229464E-02  0.26944980978E-02  0.34246326938E-01  0.35750994182E-01  0.10000000475E-02 0.  1.
</event>
<event>
 4   0  0.2441219E-02  0.9118800E+02  0.7818609E-02  0.1379984E+01
      -11   -1    0    0    0    0  0.00000000000E+00  0.00000000000E+00  0.35740347158E-01  0.35744000000E-01  0.51099999109E-03 0. -1.
       11   -1    0    0    0    0 -0.00000000000E+00 -0.00000000000E+00 -0.35740347158E-01  0.35744000000E-01  0.51099999109E-03 0.  1.
       22    1    1    2    0    0  0.36965118077E-02  0.30991583455E-01  0.17406640694E-01  0.35737005818E-01  0.00000000000E+00 0. -1.
  9000001    1    1    2    0    0 -0.36965118077E-02 -0.30991583455E-01 -0.17406640694E-01  0.35750994182E-01  0.10000000475E-02 0.  1.
</event>
<event>
 4   0  0.2441219E-02  0.9118800E+02  0.7818609E-02  0.1379984E+01
      -11   -1    0    0    0    0  0.00000000000E+00  0.00000000000E+00  0.35740347158E-01  0.35744000000E-01  0.51099999109E-03 0. -1.
       11   -1    0    0    0    0 -0.00000000000E+00 -0.00000000000E+00 -0.35740347158E-01  0.35744000000E-01  0.51099999109E-03 0.  1.
       22    1    1    2    0    0 -0.18903727614E-01 -0.13955732065E-01  0.26926199318E-01  0.35737005818E-01  0.00000000000E+00 0. -1.
  9000001    1    1    2    0    0  0.18903727614E-01  0.13955732065E-01 -0.26926199318E-01  0.35750994182E-01  0.10000000475E-02 0.  1.
</event>
<event>
 4   0  0.2441219E-02  0.9118800E+02  0.7818609E-02  0.1379984E+01
      -11   -1    0    0    0    0  0.00000000000E+00  0.00000000000E+00  0.35740347158E-01  0.35744000000E-01  0.51099999109E-03 0.  1.
       11   -1    0    0    0    0 -0.00000000000E+00 -0.00000000000E+00 -0.35740347158E-01  0.35744000000E-01  0.51099999109E-03 0. -1.
       22    1    1    2    0    0 -0.10551538995E-01  0.31949128667E-01  0.12043744731E-01  0.35737005818E-01  0.00000000000E+00 0.  1.
  9000001    1    1    2    0    0  0.10551538995E-01 -0.31949128667E-01 -0.12043744731E-01  0.35750994182E-01  0.10000000475E-02 0. -1.
</event>
<event>
 4   0  0.2441219E-02  0.9118800E+02  0.7818609E-02  0.1379984E+01
      -11   -1    0    0    0    0  0.00000000000E+00  0.00000000000E+00  0.35740347158E-01  0.35744000000E-01  0.51099999109E-03 0. -1.
       11   -1    0    0    0    0 -0.00000000000E+00 -0.00000000000E+00 -0.35740347158E-01  0.35744000000E-01  0.51099999109E-03 0.  1.
       22    1    1    2    0    0 -0.22638174392E-01 -0.98263842779E-02  0.25847414128E-01  0.35737005818E-01  0.00000000000E+00 0. -1.
  9000001    1    1    2    0    0  0.22638174392E-01  0.98263842779E-02 -0.25847414128E-01  0.35750994182E-01  0.10000000475E-02 0.  1.
</event>
<event>
 4   0  0.2441219E-02  0.9118800E+02  0.7818609E-02  0.1379984E+01
      -11   -1    0    0    0    0  0.00000000000E+00  0.00000000000E+00  0.35740347158E-01  0.35744000000E-01  0.51099999109E-03 0. -1.
       11   -1    0    0    0    0 -0.00000000000E+00 -0.00000000000E+00 -0.35740347158E-01  0.35744000000E-01  0.51099999109E-03 0.  1.
       22    1    1    2    0    0 -0.25412712043E-01 -0.41396194387E-02  0.24782881236E-01  0.35737005818E-01  0.00000000000E+00 0. -1.
  9000001    1    1    2    0    0  0.25412712043E-01  0.41396194387E-02 -0.24782881236E-01  0.35750994182E-01  0.10000000475E-02 0.  1.
</event>
<event>
 4   0  0.2441219E-02  0.9118800E+02  0.7818609E-02  0.1379984E+01
      -11   -1    0    0    0    0  0.00000000000E+00  0.00000000000E+00  0.35740347158E-01  0.35744000000E-01  0.51099999109E-03 0. -1.
       11   -1    0    0    0    0 -0.00000000000E+00 -0.00000000000E+00 -0.35740347158E-01  0.35744000000E-01  0.51099999109E-03 0.  1.
       22    1    1    2    0    0 -0.23607667521E-01 -0.10430509212E-01 -0.24718739788E-01  0.35737005818E-01  0.00000000000E+00 0.  1.
  9000001    1    1    2    0    0  0.23607667521E-01  0.10430509212E-01  0.24718739788E-01  0.35750994182E-01  0.10000000475E-02 0. -1.
</event>
<event>
 4   0  0.2441219E-02  0.9118800E+02  0.7818609E-02  0.1379984E+01
      -11   -1    0    0    0    0  0.00000000000E+00  0.00000000000E+00  0.35740347158E-01  0.35744000000E-01  0.51099999109E-03 0. -1.
       11   -1    0    0    0    0 -0.00000000000E+00 -0.00000000000E+00 -0.35740347158E-01  0.35744000000E-01  0.51099999109E-03 0.  1.
       22    1    1    2    0    0 -0.66925099873E-02  0.30366260971E-02  0.34973172531E-01  0.35737005818E-01  0.00000000000E+00 0. -1.
  9000001    1    1    2    0    0  0.66925099873E-02 -0.30366260971E-02 -0.34973172531E-01  0.35750994182E-01  0.10000000475E-02 0.  1.
</event>
<event>
 4   0  0.2441219E-02  0.9118800E+02  0.7818609E-02  0.1379984E+01
      -11   -1    0    0    0    0  0.00000000000E+00  0.00000000000E+00  0.35740347158E-01  0.35744000000E-01  0.51099999109E-03 0. -1.
       11   -1    0    0    0    0 -0.00000000000E+00 -0.00000000000E+00 -0.35740347158E-01  0.35744000000E-01  0.51099999109E-03 0.  1.
       22    1    1    2    0    0  0.74553276380E-02 -0.31171341451E-02 -0.34811422686E-01  0.35737005818E-01  0.00000000000E+00 0.  1.
  9000001    1    1    2    0    0 -0.74553276380E-02  0.31171341451E-02  0.34811422686E-01  0.35750994182E-01  0.10000000475E-02 0. -1.
</event>
<event>
 4   0  0.2441219E-02  0.9118800E+02  0.7818609E-02  0.1379984E+01
      -11   -1    0    0    0    0  0.00000000000E+00  0.00000000000E+00  0.35740347158E-01  0.35744000000E-01  0.51099999109E-03 0.  1.
       11   -1    0    0    0    0 -0.00000000000E+00 -0.00000000000E+00 -0.35740347158E-01  0.35744000000E-01  0.51099999109E-03 0. -1.
       22    1    1    2    0    0 -0.15410660784E-02  0.13759195120E-01 -0.32946065772E-01  0.35737005818E-01  0.00000000000E+00 0. -1.
  9000001    1    1    2    0    0  0.15410660784E-02 -0.13759195120E-01  0.32946065772E-01  0.35750994182E-01  0.10000000475E-02 0.  1.
</event>
<event>
 4   0  0.2441219E-02  0.9118800E+02  0.7818609E-02  0.1379984E+01
      -11   -1    0    0    0    0  0.00000000000E+00  0.00000000000E+00  0.35740347158E-01  0.35744000000E-01  0.51099999109E-03 0.  1.
       11   -1    0    0    0    0 -0.00000000000E+00 -0.00000000000E+00 -0.35740347158E-01  0.35744000000E-01  0.51099999109E-03 0. -1.
       22    1    1    2    0    0 -0.31824343352E-01  0.83468053096E-02  0.13952619691E-01  0.35737005818E-01  0.00000000000E+00 0.  1.
  9000001    1    1    2    0    0  0.31824343352E-01 -0.83468053096E-02 -0.13952619691E-01  0.35750994182E-01  0.10000000475E-02 0. -1.
</event>
<event>
 4   0  0.2441219E-02  0.9118800E+02  0.7818609E-02  0.1379984E+01
      -11   -1    0    0    0    0  0.00000000000E+00  0.00000000000E+00  0.35740347158E-01  0.35744000000E-01  0.51099999109E-03 0. -1.
       11   -1    0    0    0    0 -0.00000000000E+00 -0.00000000000E+00 -0.35740347158E-01  0.35744000000E-01  0.51099999109E-03 0.  1.
       22    1    1    2    0    0 -0.34206075955E-01  0.44063056708E-02 -0.93628213133E-02  0.35737005818E-01  0.00000000000E+00 0.  1.
  9000001    1    1    2    0    0  0.34206075955E-01 -0.44063056708E-02  0.93628213133E-02  0.35750994182E-01  0.10000000475E-02 0. -1.
</event>
<event>
 4   0  0.2441219E-02  0.9118800E+02  0.7818609E-02  0.1379984E+01
      -11   -1    0    0    0    0  0.00000000000E+00  0.00000000000E+00  0.35740347158E-01  0.35744000000E-01  0.51099999109E-03 0.  1.
       11   -1    0    0    0    0 -0.00000000000E+00 -0.00000000000E+00 -0.35740347158E-01  0.35744000000E-01  0.51099999109E-03 0. -1.
       22    1    1    2    0    0 -0.10902015956E-01  0.52269843204E-02  0.33629722982E-01  0.35737005818E-01  0.00000000000E+00 0.  1.
  9000001    1    1    2    0    0  0.10902015956E-01 -0.52269843204E-02 -0.33629722982E-01  0.35750994182E-01  0.10000000475E-02 0. -1.
</event>
<event>
 4   0  0.2441219E-02  0.9118800E+02  0.7818609E-02  0.1379984E+01
      -11   -1    0    0    0    0  0.00000000000E+00  0.00000000000E+00  0.35740347158E-01  0.35744000000E-01  0.51099999109E-03 0.  1.
       11   -1    0    0    0    0 -0.00000000000E+00 -0.00000000000E+00 -0.35740347158E-01  0.35744000000E-01  0.51099999109E-03 0. -1.
       22    1    1    2    0    0  0.59373431822E-02  0.17016440174E-01 -0.30859719775E-01  0.35737005818E-01  0.00000000000E+00 0. -1.
  9000001    1    1    2    0    0 -0.59373431822E-02 -0.17016440174E-01  0.30859719775E-01  0.35750994182E-01  0.10000000475E-02 0.  1.
</event>
<event>
 4   0  0.2441219E-02  0.9118800E+02  0.7818609E-02  0.1379984E+01
      -11   -1    0    0    0    0  0.00000000000E+00  0.00000000000E+00  0.35740347158E-01  0.35744000000E-01  0.51099999109E-03 0. -1.
       11   -1    0    0    0    0 -0.00000000000E+00 -0.00000000000E+00 -0.35740347158E-01  0.35744000000E-01  0.51099999109E-03 0.  1.
       22    1    1    2    0    0  0.14933226054E-01 -0.22505000576E-01 -0.23402078830E-01  0.35737005818E-01  0.00000000000E+00 0.  1.
  9000001    1    1    2    0    0 -0.14933226054E-01  0.22505000576E-01  0.23402078830E-01  0.35750994182E-01  0.10000000475E-02 0. -1.
</event>
<event>
 4   0  0.2441219E-02  0.9118800E+02  0.7818609E-02  0.1379984E+01
      -11   -1    0    0    0    0  0.00000000000E+00  0.00000000000E+00  0.35740347158E-01  0.35744000000E-01  0.51099999109E-03 0. -1.
       11   -1    0    0    0    0 -0.00000000000E+00 -0.00000000000E+00 -0.35740347158E-01  0.35744000000E-01  0.51099999109E-03 0.  1.
       22    1    1    2    0    0 -0.29657703830E-01 -0.14790348998E-01  0.13371602930E-01  0.35737005818E-01  0.00000000000E+00 0. -1.
  9000001    1    1    2    0    0  0.29657703830E-01  0.14790348998E-01 -0.13371602930E-01  0.35750994182E-01  0.10000000475E-02 0.  1.
</event>
<event>
 4   0  0.2441219E-02  0.9118800E+02  0.7818609E-02  0.1379984E+01
      -11   -1    0    0    0    0  0.00000000000E+00  0.00000000000E+00  0.35740347158E-01  0.35744000000E-01  0.51099999109E-03 0. -1.
       11   -1    0    0    0    0 -0.00000000000E+00 -0.00000000000E+00 -0.35740347158E-01  0.35744000000E-01  0.51099999109E-03 0.  1.
       22    1    1    2    0    0 -0.24269146765E-02 -0.27023978185E-02  0.35551943914E-01  0.35737005818E-01  0.00000000000E+00 0. -1.
  9000001    1    1    2    0    0  0.24269146765E-02  0.27023978185E-02 -0.35551943914E-01  0.35750994182E-01  0.10000000475E-02 0.  1.
</event>
<event>
 4   0  0.2441219E-02  0.9118800E+02  0.7818609E-02  0.1379984E+01
      -11   -1    0    0    0    0  0.00000000000E+00  0.00000000000E+00  0.35740347158E-01  0.35744000000E-01  0.51099999109E-03 0. -1.
       11   -1    0    0    0    0 -0.00000000000E+00 -0.00000000000E+00 -0.35740347158E-01  0.35744000000E-01  0.51099999109E-03 0.  1.
       22    1    1    2    0    0  0.67550998420E-03  0.79545508687E-02 -0.34833925871E-01  0.35737005818E-01  0.00000000000E+00 0.  1.
  9000001    1    1    2    0    0 -0.67550998420E-03 -0.79545508687E-02  0.34833925871E-01  0.35750994182E-01  0.10000000475E-02 0. -1.
</event>
<event>
 4   0  0.2441219E-02  0.9118800E+02  0.7818609E-02  0.1379984E+01
      -11   -1    0    0    0    0  0.00000000000E+00  0.00000000000E+00  0.35740347158E-01  0.35744000000E-01  0.51099999109E-03 0. -1.
       11   -1    0    0    0    0 -0.00000000000E+00 -0.00000000000E+00 -0.35740347158E-01  0.35744000000E-01  0.51099999109E-03 0.  1.
       22    1    1    2    0    0  0.41707770115E-03 -0.16748399485E-01  0.31566608081E-01  0.35737005818E-01  0.00000000000E+00 0. -1.
  9000001    1    1    2    0    0 -0.41707770115E-03  0.16748399485E-01 -0.31566608081E-01  0.35750994182E-01  0.10000000475E-02 0.  1.
</event>
<event>
 4   0  0.2441219E-02  0.9118800E+02  0.7818609E-02  0.1379984E+01
      -11   -1    0    0    0    0  0.00000000000E+00  0.00000000000E+00  0.35740347158E-01  0.35744000000E-01  0.51099999109E-03 0. -1.
       11   -1    0    0    0    0 -0.00000000000E+00 -0.00000000000E+00 -0.35740347158E-01  0.35744000000E-01  0.51099999109E-03 0.  1.
       22    1    1    2    0    0 -0.13952335849E-02 -0.38611771413E-02 -0.35500397451E-01  0.35737005818E-01  0.00000000000E+00 0.  1.
  9000001    1    1    2    0    0  0.13952335849E-02  0.38611771413E-02  0.35500397451E-01  0.35750994182E-01  0.10000000475E-02 0. -1.
</event>
<event>
 4   0  0.2441219E-02  0.9118800E+02  0.7818609E-02  0.1379984E+01
      -11   -1    0    0    0    0  0.00000000000E+00  0.00000000000E+00  0.35740347158E-01  0.35744000000E-01  0.51099999109E-03 0.  1.
       11   -1    0    0    0    0 -0.00000000000E+00 -0.00000000000E+00 -0.35740347158E-01  0.35744000000E-01  0.51099999109E-03 0. -1.
       22    1    1    2    0    0  0.11093520204E-01  0.71216629784E-02 -0.33216702286E-01  0.35737005818E-01  0.00000000000E+00 0. -1.
  9000001    1    1    2    0    0 -0.11093520204E-01 -0.71216629784E-02  0.33216702286E-01  0.35750994182E-01  0.10000000475E-02 0.  1.
</event>
<event>
 4   0  0.2441219E-02  0.9118800E+02  0.7818609E-02  0.1379984E+01
      -11   -1    0    0    0    0  0.00000000000E+00  0.00000000000E+00  0.35740347158E-01  0.35744000000E-01  0.51099999109E-03 0. -1.
       11   -1    0    0    0    0 -0.00000000000E+00 -0.00000000000E+00 -0.35740347158E-01  0.35744000000E-01  0.51099999109E-03 0.  1.
       22    1    1    2    0    0 -0.52428305330E-02  0.21050699771E-01  0.28399196327E-01  0.35737005818E-01  0.00000000000E+00 0. -1.
  9000001    1    1    2    0    0  0.52428305330E-02 -0.21050699771E-01 -0.28399196327E-01  0.35750994182E-01  0.10000000475E-02 0.  1.
</event>
<event>
 4   0  0.2441219E-02  0.9118800E+02  0.7818609E-02  0.1379984E+01
      -11   -1    0    0    0    0  0.00000000000E+00  0.00000000000E+00  0.35740347158E-01  0.35744000000E-01  0.51099999109E-03 0.  1.
       11   -1    0    0    0    0 -0.00000000000E+00 -0.00000000000E+00 -0.35740347158E-01  0.35744000000E-01  0.51099999109E-03 0. -1.
       22    1    1    2    0    0  0.20642223666E-01  0.28466385413E-01  0.63794269727E-02  0.35737005818E-01  0.00000000000E+00 0.  1.
  9000001    1    1    2    0    0 -0.20642223666E-01 -0.28466385413E-01 -0.63794269727E-02  0.35750994182E-01  0.10000000475E-02 0. -1.
</event>
<event>
 4   0  0.2441219E-02  0.9118800E+02  0.7818609E-02  0.1379984E+01
      -11   -1    0    0    0    0  0.00000000000E+00  0.00000000000E+00  0.35740347158E-01  0.35744000000E-01  0.51099999109E-03 0. -1.
       11   -1    0    0    0    0 -0.00000000000E+00 -0.00000000000E+00 -0.35740347158E-01  0.35744000000E-01  0.51099999109E-03 0.  1.
       22    1    1    2    0    0 -0.60598958294E-02 -0.15072895852E-01  0.31831102055E-01  0.35737005818E-01  0.00000000000E+00 0. -1.
  9000001    1    1    2    0    0  0.60598958294E-02  0.15072895852E-01 -0.31831102055E-01  0.35750994182E-01  0.10000000475E-02 0.  1.
</event>
<event>
 4   0  0.2441219E-02  0.9118800E+02  0.7818609E-02  0.1379984E+01
      -11   -1    0    0    0    0  0.00000000000E+00  0.00000000000E+00  0.35740347158E-01  0.35744000000E-01  0.51099999109E-03 0. -1.
       11   -1    0    0    0    0 -0.00000000000E+00 -0.00000000000E+00 -0.35740347158E-01  0.35744000000E-01  0.51099999109E-03 0.  1.
       22    1    1    2    0    0 -0.22770361127E-01  0.11013725982E-01 -0.25245634850E-01  0.35737005818E-01  0.00000000000E+00 0.  1.
  9000001    1    1    2    0    0  0.22770361127E-01 -0.11013725982E-01  0.25245634850E-01  0.35750994182E-01  0.10000000475E-02 0. -1.
</event>
<event>
 4   0  0.2441219E-02  0.9118800E+02  0.7818609E-02  0.1379984E+01
      -11   -1    0    0    0    0  0.00000000000E+00  0.00000000000E+00  0.35740347158E-01  0.35744000000E-01  0.51099999109E-03 0. -1.
       11   -1    0    0    0    0 -0.00000000000E+00 -0.00000000000E+00 -0.35740347158E-01  0.35744000000E-01  0.51099999109E-03 0.  1.
       22    1    1    2    0    0  0.28008158254E-03  0.34615025699E-02 -0.35567866666E-01  0.35737005818E-01  0.00000000000E+00 0.  1.
  9000001    1    1    2    0    0 -0.28008158254E-03 -0.34615025699E-02  0.35567866666E-01  0.35750994182E-01  0.10000000475E-02 0. -1.
</event>
<event>
 4   0  0.2441219E-02  0.9118800E+02  0.7818609E-02  0.1379984E+01
      -11   -1    0    0    0    0  0.00000000000E+00  0.00000000000E+00  0.35740347158E-01  0.35744000000E-01  0.51099999109E-03 0. -1.
       11   -1    0    0    0    0 -0.00000000000E+00 -0.00000000000E+00 -0.35740347158E-01  0.35744000000E-01  0.51099999109E-03 0.  1.
       22    1    1    2    0    0 -0.23403690523E-01 -0.11723836462E-01 -0.24330074257E-01  0.35737005818E-01  0.00000000000E+00 0.  1.
  9000001    1    1    2    0    0  0.23403690523E-01  0.11723836462E-01  0.24330074257E-01  0.35750994182E-01  0.10000000475E-02 0. -1.
</event>
<event>
 4   0  0.2441219E-02  0.9118800E+02  0.7818609E-02  0.1379984E+01
      -11   -1    0    0    0    0  0.00000000000E+00  0.00000000000E+00  0.35740347158E-01  0.35744000000E-01  0.51099999109E-03 0.  1.
       11   -1    0    0    0    0 -0.00000000000E+00 -0.00000000000E+00 -0.35740347158E-01  0.35744000000E-01  0.51099999109E-03 0. -1.
       22    1    1    2    0    0 -0.32271062774E-01  0.86408599632E-02  0.12690454341E-01  0.35737005818E-01  0.00000000000E+00 0.  1.
  9000001    1    1    2    0    0  0.32271062774E-01 -0.86408599632E-02 -0.12690454341E-01  0.35750994182E-01  0.10000000475E-02 0. -1.
</event>
<event>
 4   0  0.2441219E-02  0.9118800E+02  0.7818609E-02  0.1379984E+01
      -11   -1    0    0    0    0  0.00000000000E+00  0.00000000000E+00  0.35740347158E-01  0.35744000000E-01  0.51099999109E-03 0. -1.
       11   -1    0    0    0    0 -0.00000000000E+00 -0.00000000000E+00 -0.35740347158E-01  0.35744000000E-01  0.51099999109E-03 0.  1.
       22    1    1    2    0    0  0.44701280133E-02  0.20605479886E-02 -0.35396407761E-01  0.35737005818E-01  0.00000000000E+00 0.  1.
  9000001    1    1    2    0    0 -0.44701280133E-02 -0.20605479886E-02  0.35396407761E-01  0.35750994182E-01  0.10000000475E-02 0. -1.
</event>
<event>
 4   0  0.2441219E-02  0.9118800E+02  0.7818609E-02  0.1379984E+01
      -11   -1    0    0    0    0  0.00000000000E+00  0.00000000000E+00  0.35740347158E-01  0.35744000000E-01  0.51099999109E-03 0.  1.
       11   -1    0    0    0    0 -0.00000000000E+00 -0.00000000000E+00 -0.35740347158E-01  0.35744000000E-01  0.51099999109E-03 0. -1.
       22    1    1    2    0    0  0.24774172432E-01 -0.22383460198E-01  0.12741847384E-01  0.35737005818E-01  0.00000000000E+00 0.  1.
  9000001    1    1    2    0    0 -0.24774172432E-01  0.22383460198E-01 -0.12741847384E-01  0.35750994182E-01  0.10000000475E-02 0. -1.
</event>
<event>
 4   0  0.2441219E-02  0.9118800E+02  0.7818609E-02  0.1379984E+01
      -11   -1    0    0    0    0  0.00000000000E+00  0.00000000000E+00  0.35740347158E-01  0.35744000000E-01  0.51099999109E-03 0. -1.
       11   -1    0    0    0    0 -0.00000000000E+00 -0.00000000000E+00 -0.35740347158E-01  0.35744000000E-01  0.51099999109E-03 0.  1.
       22    1    1    2    0    0 -0.43224980873E-02  0.17226081954E-02 -0.35432784482E-01  0.35737005818E-01  0.00000000000E+00 0.  1.
  9000001    1    1    2    0    0  0.43224980873E-02 -0.17226081954E-02  0.35432784482E-01  0.35750994182E-01  0.10000000475E-02 0. -1.
</event>
<event>
 4   0  0.2441219E-02  0.9118800E+02  0.7818609E-02  0.1379984E+01
      -11   -1    0    0    0    0  0.00000000000E+00  0.00000000000E+00  0.35740347158E-01  0.35744000000E-01  0.51099999109E-03 0.  1.
       11   -1    0    0    0    0 -0.00000000000E+00 -0.00000000000E+00 -0.35740347158E-01  0.35744000000E-01  0.51099999109E-03 0. -1.
       22    1    1    2    0    0 -0.34448280979E-02 -0.11852803099E-01 -0.33537707181E-01  0.35737005818E-01  0.00000000000E+00 0. -1.
  9000001    1    1    2    0    0  0.34448280979E-02  0.11852803099E-01  0.33537707181E-01  0.35750994182E-01  0.10000000475E-02 0.  1.
</event>
<event>
 4   0  0.2441219E-02  0.9118800E+02  0.7818609E-02  0.1379984E+01
      -11   -1    0    0    0    0  0.00000000000E+00  0.00000000000E+00  0.35740347158E-01  0.35744000000E-01  0.51099999109E-03 0.  1.
       11   -1    0    0    0    0 -0.00000000000E+00 -0.00000000000E+00 -0.35740347158E-01  0.35744000000E-01  0.51099999109E-03 0. -1.
       22    1    1    2    0    0  0.25373042597E-01  0.10508779485E-01 -0.22867178401E-01  0.35737005818E-01  0.00000000000E+00 0. -1.
  9000001    1    1    2    0    0 -0.25373042597E-01 -0.10508779485E-01  0.22867178401E-01  0.35750994182E-01  0.10000000475E-02 0.  1.
</event>
<event>
 4   0  0.2441219E-02  0.9118800E+02  0.7818609E-02  0.1379984E+01
      -11   -1    0    0    0    0  0.00000000000E+00  0.00000000000E+00  0.35740347158E-01  0.35744000000E-01  0.51099999109E-03 0. -1.
       11   -1    0    0    0    0 -0.00000000000E+00 -0.00000000000E+00 -0.35740347158E-01  0.35744000000E-01  0.51099999109E-03 0.  1.
       22    1    1    2    0    0 -0.67524246425E-02 -0.50671736117E-02  0.34725525164E-01  0.35737005818E-01  0.00000000000E+00 0. -1.
  9000001    1    1    2    0    0  0.67524246425E-02  0.50671736117E-02 -0.34725525164E-01  0.35750994182E-01  0.10000000475E-02 0.  1.
</event>
<event>
 4   0  0.2441219E-02  0.9118800E+02  0.7818609E-02  0.1379984E+01
      -11   -1    0    0    0    0  0.00000000000E+00  0.00000000000E+00  0.35740347158E-01  0.35744000000E-01  0.51099999109E-03 0.  1.
       11   -1    0    0    0    0 -0.00000000000E+00 -0.00000000000E+00 -0.35740347158E-01  0.35744000000E-01  0.51099999109E-03 0. -1.
       22    1    1    2    0    0 -0.97418683023E-02 -0.12906133549E-02 -0.34359335035E-01  0.35737005818E-01  0.00000000000E+00 0. -1.
  9000001    1    1    2    0    0  0.97418683023E-02  0.12906133549E-02  0.34359335035E-01  0.35750994182E-01  0.10000000475E-02 0.  1.
</event>
<event>
 4   0  0.2441219E-02  0.9118800E+02  0.7818609E-02  0.1379984E+01
      -11   -1    0    0    0    0  0.00000000000E+00  0.00000000000E+00  0.35740347158E-01  0.35744000000E-01  0.51099999109E-03 0.  1.
       11   -1    0    0    0    0 -0.00000000000E+00 -0.00000000000E+00 -0.35740347158E-01  0.35744000000E-01  0.51099999109E-03 0. -1.
       22    1    1    2    0    0  0.68191449283E-02 -0.46030297357E-03  0.35077356920E-01  0.35737005818E-01  0.00000000000E+00 0.  1.
  9000001    1    1    2    0    0 -0.68191449283E-02  0.46030297357E-03 -0.35077356920E-01  0.35750994182E-01  0.10000000475E-02 0. -1.
</event>
<event>
 4   0  0.2441219E-02  0.9118800E+02  0.7818609E-02  0.1379984E+01
      -11   -1    0    0    0    0  0.00000000000E+00  0.00000000000E+00  0.35740347158E-01  0.35744000000E-01  0.51099999109E-03 0. -1.
       11   -1    0    0    0    0 -0.00000000000E+00 -0.00000000000E+00 -0.35740347158E-01  0.35744000000E-01  0.51099999109E-03 0.  1.
       22    1    1    2    0    0 -0.13423780848E-01 -0.27636249165E-01 -0.18253038780E-01  0.35737005818E-01  0.00000000000E+00 0.  1.
  9000001    1    1    2    0    0  0.13423780848E-01  0.27636249165E-01  0.18253038780E-01  0.35750994182E-01  0.10000000475E-02 0. -1.
</event>
<event>
 4   0  0.2441219E-02  0.9118800E+02  0.7818609E-02  0.1379984E+01
      -11   -1    0    0    0    0  0.00000000000E+00  0.00000000000E+00  0.35740347158E-01  0.35744000000E-01  0.51099999109E-03 0. -1.
       11   -1    0    0    0    0 -0.00000000000E+00 -0.00000000000E+00 -0.35740347158E-01  0.35744000000E-01  0.51099999109E-03 0.  1.
       22    1    1    2    0    0  0.21975306735E-01 -0.11556406741E-01 -0.25703481126E-01  0.35737005818E-01  0.00000000000E+00 0.  1.
  9000001    1    1    2    0    0 -0.21975306735E-01  0.11556406741E-01  0.25703481126E-01  0.35750994182E-01  0.10000000475E-02 0. -1.
</event>
<event>
 4   0  0.2441219E-02  0.9118800E+02  0.7818609E-02  0.1379984E+01
      -11   -1    0    0    0    0  0.00000000000E+00  0.00000000000E+00  0.35740347158E-01  0.35744000000E-01  0.51099999109E-03 0.  1.
       11   -1    0    0    0    0 -0.00000000000E+00 -0.00000000000E+00 -0.35740347158E-01  0.35744000000E-01  0.51099999109E-03 0. -1.
       22    1    1    2    0    0 -0.11460471249E-03 -0.38937702066E-02 -0.35524062327E-01  0.35737005818E-01  0.00000000000E+00 0. -1.
  9000001    1    1    2    0    0  0.11460471249E-03  0.38937702066E-02  0.35524062327E-01  0.35750994182E-01  0.10000000475E-02 0.  1.
</event>
<event>
 4   0  0.2441219E-02  0.9118800E+02  0.7818609E-02  0.1379984E+01
      -11   -1    0    0    0    0  0.00000000000E+00  0.00000000000E+00  0.35740347158E-01  0.35744000000E-01  0.51099999109E-03 0. -1.
       11   -1    0    0    0    0 -0.00000000000E+00 -0.00000000000E+00 -0.35740347158E-01  0.35744000000E-01  0.51099999109E-03 0.  1.
       22    1    1    2    0    0 -0.12624324151E-01 -0.64932374423E-02 -0.32796309124E-01  0.35737005818E-01  0.00000000000E+00 0.  1.
  9000001    1    1    2    0    0  0.12624324151E-01  0.64932374423E-02  0.32796309124E-01  0.35750994182E-01  0.10000000475E-02 0. -1.
</event>
<event>
 4   0  0.2441219E-02  0.9118800E+02  0.7818609E-02  0.1379984E+01
      -11   -1    0    0    0    0  0.00000000000E+00  0.00000000000E+00  0.35740347158E-01  0.35744000000E-01  0.51099999109E-03 0.  1.
       11   -1    0    0    0    0 -0.00000000000E+00 -0.00000000000E+00 -0.35740347158E-01  0.35744000000E-01  0.51099999109E-03 0. -1.
       22    1    1    2    0    0  0.99502208480E-03 -0.51112486599E-02  0.35355602852E-01  0.35737005818E-01  0.00000000000E+00 0.  1.
  9000001    1    1    2    0    0 -0.99502208480E-03  0.51112486599E-02 -0.35355602852E-01  0.35750994182E-01  0.10000000475E-02 0. -1.
</event>
<event>
 4   0  0.2441219E-02  0.9118800E+02  0.7818609E-02  0.1379984E+01
      -11   -1    0    0    0    0  0.00000000000E+00  0.00000000000E+00  0.35740347158E-01  0.35744000000E-01  0.51099999109E-03 0. -1.
       11   -1    0    0    0    0 -0.00000000000E+00 -0.00000000000E+00 -0.35740347158E-01  0.35744000000E-01  0.51099999109E-03 0.  1.
       22    1    1    2    0    0 -0.62522576582E-02 -0.14283221993E-02 -0.35156830840E-01  0.35737005818E-01  0.00000000000E+00 0.  1.
  9000001    1    1    2    0    0  0.62522576582E-02  0.14283221993E-02  0.35156830840E-01  0.35750994182E-01  0.10000000475E-02 0. -1.
</event>
<event>
 4   0  0.2441219E-02  0.9118800E+02  0.7818609E-02  0.1379984E+01
      -11   -1    0    0    0    0  0.00000000000E+00  0.00000000000E+00  0.35740347158E-01  0.35744000000E-01  0.51099999109E-03 0. -1.
       11   -1    0    0    0    0 -0.00000000000E+00 -0.00000000000E+00 -0.35740347158E-01  0.35744000000E-01  0.51099999109E-03 0.  1.
       22    1    1    2    0    0  0.39309882051E-02  0.52009957903E-02 -0.35137310076E-01  0.35737005818E-01  0.00000000000E+00 0.  1.
  9000001    1    1    2    0    0 -0.39309882051E-02 -0.52009957903E-02  0.35137310076E-01  0.35750994182E-01  0.10000000475E-02 0. -1.
</event>
<event>
 4   0  0.2441219E-02  0.9118800E+02  0.7818609E-02  0.1379984E+01
      -11   -1    0    0    0    0  0.00000000000E+00  0.00000000000E+00  0.35740347158E-01  0.35744000000E-01  0.51099999109E-03 0. -1.
       11   -1    0    0    0    0 -0.00000000000E+00 -0.00000000000E+00 -0.35740347158E-01  0.35744000000E-01  0.51099999109E-03 0.  1.
       22    1    1    2    0    0  0.99070466616E-02  0.73685087095E-03  0.34328429357E-01  0.35737005818E-01  0.00000000000E+00 0. -1.
  9000001    1    1    2    0    0 -0.99070466616E-02 -0.73685087095E-03 -0.34328429357E-01  0.35750994182E-01  0.10000000475E-02 0.  1.
</event>
<event>
 4   0  0.2441219E-02  0.9118800E+02  0.7818609E-02  0.1379984E+01
      -11   -1    0    0    0    0  0.00000000000E+00  0.00000000000E+00  0.35740347158E-01  0.35744000000E-01  0.51099999109E-03 0.  1.
       11   -1    0    0    0    0 -0.00000000000E+00 -0.00000000000E+00 -0.35740347158E-01  0.35744000000E-01  0.51099999109E-03 0. -1.
       22    1    1    2    0    0  0.52608066474E-02 -0.96411739230E-02  0.34007429536E-01  0.35737005818E-01  0.00000000000E+00 0.  1.
  9000001    1    1    2    0    0 -0.52608066474E-02  0.96411739230E-02 -0.34007429536E-01  0.35750994182E-01  0.10000000475E-02 0. -1.
</event>
<event>
 4   0  0.2441219E-02  0.9118800E+02  0.7818609E-02  0.1379984E+01
      -11   -1    0    0    0    0  0.00000000000E+00  0.00000000000E+00  0.35740347158E-01  0.35744000000E-01  0.51099999109E-03 0. -1.
       11   -1    0    0    0    0 -0.00000000000E+00 -0.00000000000E+00 -0.35740347158E-01  0.35744000000E-01  0.51099999109E-03 0.  1.
       22    1    1    2    0    0  0.16579157455E-01 -0.15884208781E-02  0.31618697666E-01  0.35737005818E-01  0.00000000000E+00 0. -1.
  9000001    1    1    2    0    0 -0.16579157455E-01  0.15884208781E-02 -0.31618697666E-01  0.35750994182E-01  0.10000000475E-02 0.  1.
</event>
<event>
 4   0  0.2441219E-02  0.9118800E+02  0.7818609E-02  0.1379984E+01
      -11   -1    0    0    0    0  0.00000000000E+00  0.00000000000E+00  0.35740347158E-01  0.35744000000E-01  0.51099999109E-03 0. -1.
       11   -1    0    0    0    0 -0.00000000000E+00 -0.00000000000E+00 -0.35740347158E-01  0.35744000000E-01  0.51099999109E-03 0.  1.
       22    1    1    2    0    0 -0.34434611059E-02  0.21176634042E-01  0.28580173742E-01  0.35737005818E-01  0.00000000000E+00 0. -1.
  9000001    1    1    2    0    0  0.34434611059E-02 -0.21176634042E-01 -0.28580173742E-01  0.35750994182E-01  0.10000000475E-02 0.  1.
</event>
<event>
 4   0  0.2441219E-02  0.9118800E+02  0.7818609E-02  0.1379984E+01
      -11   -1    0    0    0    0  0.00000000000E+00  0.00000000000E+00  0.35740347158E-01  0.35744000000E-01  0.51099999109E-03 0.  1.
       11   -1    0    0    0    0 -0.00000000000E+00 -0.00000000000E+00 -0.35740347158E-01  0.35744000000E-01  0.51099999109E-03 0. -1.
       22    1    1    2    0    0 -0.76845882951E-02  0.76794102872E-02  0.34045665587E-01  0.35737005818E-01  0.00000000000E+00 0.  1.
  9000001    1    1    2    0    0  0.76845882951E-02 -0.76794102872E-02 -0.34045665587E-01  0.35750994182E-01  0.10000000475E-02 0. -1.
</event>
<event>
 4   0  0.2441219E-02  0.9118800E+02  0.7818609E-02  0.1379984E+01
      -11   -1    0    0    0    0  0.00000000000E+00  0.00000000000E+00  0.35740347158E-01  0.35744000000E-01  0.51099999109E-03 0.  1.
       11   -1    0    0    0    0 -0.00000000000E+00 -0.00000000000E+00 -0.35740347158E-01  0.35744000000E-01  0.51099999109E-03 0. -1.
       22    1    1    2    0    0 -0.31074850578E-01  0.31141727338E-02  0.17372080319E-01  0.35737005818E-01  0.00000000000E+00 0.  1.
  9000001    1    1    2    0    0  0.31074850578E-01 -0.31141727338E-02 -0.17372080319E-01  0.35750994182E-01  0.10000000475E-02 0. -1.
</event>
<event>
 4   0  0.2441219E-02  0.9118800E+02  0.7818609E-02  0.1379984E+01
      -11   -1    0    0    0    0  0.00000000000E+00  0.00000000000E+00  0.35740347158E-01  0.35744000000E-01  0.51099999109E-03 0. -1.
       11   -1    0    0    0    0 -0.00000000000E+00 -0.00000000000E+00 -0.35740347158E-01  0.35744000000E-01  0.51099999109E-03 0.  1.
       22    1    1    2    0    0 -0.10942047036E-01 -0.16825544927E-01 -0.29568669728E-01  0.35737005818E-01  0.00000000000E+00 0.  1.
  9000001    1    1    2    0    0  0.10942047036E-01  0.16825544927E-01  0.29568669728E-01  0.35750994182E-01  0.10000000475E-02 0. -1.
</event>
<event>
 4   0  0.2441219E-02  0.9118800E+02  0.7818609E-02  0.1379984E+01
      -11   -1    0    0    0    0  0.00000000000E+00  0.00000000000E+00  0.35740347158E-01  0.35744000000E-01  0.51099999109E-03 0.  1.
       11   -1    0    0    0    0 -0.00000000000E+00 -0.00000000000E+00 -0.35740347158E-01  0.35744000000E-01  0.51099999109E-03 0. -1.
       22    1    1    2    0    0  0.51203672317E-02 -0.43626897300E-02  0.35098181756E-01  0.35737005818E-01  0.00000000000E+00 0.  1.
  9000001    1    1    2    0    0 -0.51203672317E-02  0.43626897300E-02 -0.35098181756E-01  0.35750994182E-01  0.10000000475E-02 0. -1.
</event>
<event>
 4   0  0.2441219E-02  0.9118800E+02  0.7818609E-02  0.1379984E+01
      -11   -1    0    0    0    0  0.00000000000E+00  0.00000000000E+00  0.35740347158E-01  0.35744000000E-01  0.51099999109E-03 0.  1.
       11   -1    0    0    0    0 -0.00000000000E+00 -0.00000000000E+00 -0.35740347158E-01  0.35744000000E-01  0.51099999109E-03 0. -1.
       22    1    1    2    0    0  0.86854213503E-03  0.30097742001E-02 -0.35599444921E-01  0.35737005818E-01  0.00000000000E+00 0. -1.
  9000001    1    1    2    0    0 -0.86854213503E-03 -0.30097742001E-02  0.35599444921E-01  0.35750994182E-01  0.10000000475E-02 0.  1.
</event>
<event>
 4   0  0.2441219E-02  0.9118800E+02  0.7818609E-02  0.1379984E+01
      -11   -1    0    0    0    0  0.00000000000E+00  0.00000000000E+00  0.35740347158E-01  0.35744000000E-01  0.51099999109E-03 0. -1.
       11   -1    0    0    0    0 -0.00000000000E+00 -0.00000000000E+00 -0.35740347158E-01  0.35744000000E-01  0.51099999109E-03 0.  1.
       22    1    1    2    0    0 -0.22573391689E-02  0.36243694820E-02  0.35481008309E-01  0.35737005818E-01  0.00000000000E+00 0. -1.
  9000001    1    1    2    0    0  0.22573391689E-02 -0.36243694820E-02 -0.35481008309E-01  0.35750994182E-01  0.10000000475E-02 0.  1.
</event>
<event>
 4   0  0.2441219E-02  0.9118800E+02  0.7818609E-02  0.1379984E+01
      -11   -1    0    0    0    0  0.00000000000E+00  0.00000000000E+00  0.35740347158E-01  0.35744000000E-01  0.51099999109E-03 0.  1.
       11   -1    0    0    0    0 -0.00000000000E+00 -0.00000000000E+00 -0.35740347158E-01  0.35744000000E-01  0.51099999109E-03 0. -1.
       22    1    1    2    0    0 -0.99394158548E-02 -0.18415836059E-01  0.28968924377E-01  0.35737005818E-01  0.00000000000E+00 0.  1.
  9000001    1    1    2    0    0  0.99394158548E-02  0.18415836059E-01 -0.28968924377E-01  0.35750994182E-01  0.10000000475E-02 0. -1.
</event>
<event>
 4   0  0.2441219E-02  0.9118800E+02  0.7818609E-02  0.1379984E+01
      -11   -1    0    0    0    0  0.00000000000E+00  0.00000000000E+00  0.35740347158E-01  0.35744000000E-01  0.51099999109E-03 0. -1.
       11   -1    0    0    0    0 -0.00000000000E+00 -0.00000000000E+00 -0.35740347158E-01  0.35744000000E-01  0.51099999109E-03 0.  1.
       22    1    1    2    0    0 -0.32328900540E-02  0.47272600906E-02  0.35275133151E-01  0.35737005818E-01  0.00000000000E+00 0. -1.
  9000001    1    1    2    0    0  0.32328900540E-02 -0.47272600906E-02 -0.35275133151E-01  0.35750994182E-01  0.10000000475E-02 0.  1.
</event>
<event>
 4   0  0.2441219E-02  0.9118800E+02  0.7818609E-02  0.1379984E+01
      -11   -1    0    0    0    0  0.00000000000E+00  0.00000000000E+00  0.35740347158E-01  0.35744000000E-01  0.51099999109E-03 0. -1.
       11   -1    0    0    0    0 -0.00000000000E+00 -0.00000000000E+00 -0.35740347158E-01  0.35744000000E-01  0.51099999109E-03 0.  1.
       22    1    1    2    0    0 -0.35588457164E-02 -0.11566222829E-01 -0.33625744475E-01  0.35737005818E-01  0.00000000000E+00 0.  1.
  9000001    1    1    2    0    0  0.35588457164E-02  0.11566222829E-01  0.33625744475E-01  0.35750994182E-01  0.10000000475E-02 0. -1.
</event>
<event>
 4   0  0.2441219E-02  0.9118800E+02  0.7818609E-02  0.1379984E+01
      -11   -1    0    0    0    0  0.00000000000E+00  0.00000000000E+00  0.35740347158E-01  0.35744000000E-01  0.51099999109E-03 0.  1.
       11   -1    0    0    0    0 -0.00000000000E+00 -0.00000000000E+00 -0.35740347158E-01  0.35744000000E-01  0.51099999109E-03 0. -1.
       22    1    1    2    0    0 -0.26827920047E-02 -0.17382354227E-02 -0.35593745933E-01  0.35737005818E-01  0.00000000000E+00 0. -1.
  9000001    1    1    2    0    0  0.26827920047E-02  0.17382354227E-02  0.35593745933E-01  0.35750994182E-01  0.10000000475E-02 0.  1.
</event>
<event>
 4   0  0.2441219E-02  0.9118800E+02  0.7818609E-02  0.1379984E+01
      -11   -1    0    0    0    0  0.00000000000E+00  0.00000000000E+00  0.35740347158E-01  0.35744000000E-01  0.51099999109E-03 0.  1.
       11   -1    0    0    0    0 -0.00000000000E+00 -0.00000000000E+00 -0.35740347158E-01  0.35744000000E-01  0.51099999109E-03 0.  1.
       22    1    1    2    0    0 -0.26024318187E-02  0.45972641968E-02 -0.35344392701E-01  0.35737005818E-01  0.00000000000E+00 0.  1.
  9000001    1    1    2    0    0  0.26024318187E-02 -0.45972641968E-02  0.35344392701E-01  0.35750994182E-01  0.10000000475E-02 0.  1.
</event>
<event>
 4   0  0.2441219E-02  0.9118800E+02  0.7818609E-02  0.1379984E+01
      -11   -1    0    0    0    0  0.00000000000E+00  0.00000000000E+00  0.35740347158E-01  0.35744000000E-01  0.51099999109E-03 0. -1.
       11   -1    0    0    0    0 -0.00000000000E+00 -0.00000000000E+00 -0.35740347158E-01  0.35744000000E-01  0.51099999109E-03 0.  1.
       22    1    1    2    0    0 -0.18036568812E-01 -0.19799815199E-01 -0.23659735595E-01  0.35737005818E-01  0.00000000000E+00 0.  1.
  9000001    1    1    2    0    0  0.18036568812E-01  0.19799815199E-01  0.23659735595E-01  0.35750994182E-01  0.10000000475E-02 0. -1.
</event>
<event>
 4   0  0.2441219E-02  0.9118800E+02  0.7818609E-02  0.1379984E+01
      -11   -1    0    0    0    0  0.00000000000E+00  0.00000000000E+00  0.35740347158E-01  0.35744000000E-01  0.51099999109E-03 0. -1.
       11   -1    0    0    0    0 -0.00000000000E+00 -0.00000000000E+00 -0.35740347158E-01  0.35744000000E-01  0.51099999109E-03 0.  1.
       22    1    1    2    0    0  0.26812317107E-01 -0.38040327562E-02  0.23318717182E-01  0.35737005818E-01  0.00000000000E+00 0. -1.
  9000001    1    1    2    0    0 -0.26812317107E-01  0.38040327562E-02 -0.23318717182E-01  0.35750994182E-01  0.10000000475E-02 0.  1.
</event>
<event>
 4   0  0.2441219E-02  0.9118800E+02  0.7818609E-02  0.1379984E+01
      -11   -1    0    0    0    0  0.00000000000E+00  0.00000000000E+00  0.35740347158E-01  0.35744000000E-01  0.51099999109E-03 0. -1.
       11   -1    0    0    0    0 -0.00000000000E+00 -0.00000000000E+00 -0.35740347158E-01  0.35744000000E-01  0.51099999109E-03 0.  1.
       22    1    1    2    0    0  0.23014016553E-01 -0.19312646944E-01 -0.19352268471E-01  0.35737005818E-01  0.00000000000E+00 0.  1.
  9000001    1    1    2    0    0 -0.23014016553E-01  0.19312646944E-01  0.19352268471E-01  0.35750994182E-01  0.10000000475E-02 0. -1.
</event>
<event>
 4   0  0.2441219E-02  0.9118800E+02  0.7818609E-02  0.1379984E+01
      -11   -1    0    0    0    0  0.00000000000E+00  0.00000000000E+00  0.35740347158E-01  0.35744000000E-01  0.51099999109E-03 0.  1.
       11   -1    0    0    0    0 -0.00000000000E+00 -0.00000000000E+00 -0.35740347158E-01  0.35744000000E-01  0.51099999109E-03 0. -1.
       22    1    1    2    0    0  0.71818013374E-03 -0.30791953495E-02 -0.35596858824E-01  0.35737005818E-01  0.00000000000E+00 0. -1.
  9000001    1    1    2    0    0 -0.71818013374E-03  0.30791953495E-02  0.35596858824E-01  0.35750994182E-01  0.10000000475E-02 0.  1.
</event>
<event>
 4   0  0.2441219E-02  0.9118800E+02  0.7818609E-02  0.1379984E+01
      -11   -1    0    0    0    0  0.00000000000E+00  0.00000000000E+00  0.35740347158E-01  0.35744000000E-01  0.51099999109E-03 0. -1.
       11   -1    0    0    0    0 -0.00000000000E+00 -0.00000000000E+00 -0.35740347158E-01  0.35744000000E-01  0.51099999109E-03 0.  1.
       22    1    1    2    0    0  0.21600867243E-01  0.18720643464E-01 -0.21449326971E-01  0.35737005818E-01  0.00000000000E+00 0.  1.
  9000001    1    1    2    0    0 -0.21600867243E-01 -0.18720643464E-01  0.21449326971E-01  0.35750994182E-01  0.10000000475E-02 0. -1.
</event>
<event>
 4   0  0.2441219E-02  0.9118800E+02  0.7818609E-02  0.1379984E+01
      -11   -1    0    0    0    0  0.00000000000E+00  0.00000000000E+00  0.35740347158E-01  0.35744000000E-01  0.51099999109E-03 0. -1.
       11   -1    0    0    0    0 -0.00000000000E+00 -0.00000000000E+00 -0.35740347158E-01  0.35744000000E-01  0.51099999109E-03 0.  1.
       22    1    1    2    0    0 -0.97936056787E-02  0.23992739569E-01 -0.24608277482E-01  0.35737005818E-01  0.00000000000E+00 0.  1.
  9000001    1    1    2    0    0  0.97936056787E-02 -0.23992739569E-01  0.24608277482E-01  0.35750994182E-01  0.10000000475E-02 0. -1.
</event>
<event>
 4   0  0.2441219E-02  0.9118800E+02  0.7818609E-02  0.1379984E+01
      -11   -1    0    0    0    0  0.00000000000E+00  0.00000000000E+00  0.35740347158E-01  0.35744000000E-01  0.51099999109E-03 0.  1.
       11   -1    0    0    0    0 -0.00000000000E+00 -0.00000000000E+00 -0.35740347158E-01  0.35744000000E-01  0.51099999109E-03 0. -1.
       22    1    1    2    0    0 -0.37009189471E-03  0.13155228122E-01 -0.33225541229E-01  0.35737005818E-01  0.00000000000E+00 0. -1.
  9000001    1    1    2    0    0  0.37009189471E-03 -0.13155228122E-01  0.33225541229E-01  0.35750994182E-01  0.10000000475E-02 0.  1.
</event>
<event>
 4   0  0.2441219E-02  0.9118800E+02  0.7818609E-02  0.1379984E+01
      -11   -1    0    0    0    0  0.00000000000E+00  0.00000000000E+00  0.35740347158E-01  0.35744000000E-01  0.51099999109E-03 0. -1.
       11   -1    0    0    0    0 -0.00000000000E+00 -0.00000000000E+00 -0.35740347158E-01  0.35744000000E-01  0.51099999109E-03 0.  1.
       22    1    1    2    0    0 -0.64742758491E-02 -0.15684636353E-01 -0.31451701378E-01  0.35737005818E-01  0.00000000000E+00 0.  1.
  9000001    1    1    2    0    0  0.64742758491E-02  0.15684636353E-01  0.31451701378E-01  0.35750994182E-01  0.10000000475E-02 0. -1.
</event>
<event>
 4   0  0.2441219E-02  0.9118800E+02  0.7818609E-02  0.1379984E+01
      -11   -1    0    0    0    0  0.00000000000E+00  0.00000000000E+00  0.35740347158E-01  0.35744000000E-01  0.51099999109E-03 0. -1.
       11   -1    0    0    0    0 -0.00000000000E+00 -0.00000000000E+00 -0.35740347158E-01  0.35744000000E-01  0.51099999109E-03 0.  1.
       22    1    1    2    0    0 -0.29770495231E-02 -0.65045546098E-02  0.35013733453E-01  0.35737005818E-01  0.00000000000E+00 0. -1.
  9000001    1    1    2    0    0  0.29770495231E-02  0.65045546098E-02 -0.35013733453E-01  0.35750994182E-01  0.10000000475E-02 0.  1.
</event>
<event>
 4   0  0.2441219E-02  0.9118800E+02  0.7818609E-02  0.1379984E+01
      -11   -1    0    0    0    0  0.00000000000E+00  0.00000000000E+00  0.35740347158E-01  0.35744000000E-01  0.51099999109E-03 0.  1.
       11   -1    0    0    0    0 -0.00000000000E+00 -0.00000000000E+00 -0.35740347158E-01  0.35744000000E-01  0.51099999109E-03 0. -1.
       22    1    1    2    0    0 -0.34409920984E-02  0.26133970309E-02  0.35474826486E-01  0.35737005818E-01  0.00000000000E+00 0.  1.
  9000001    1    1    2    0    0  0.34409920984E-02 -0.26133970309E-02 -0.35474826486E-01  0.35750994182E-01  0.10000000475E-02 0. -1.
</event>
<event>
 4   0  0.2441219E-02  0.9118800E+02  0.7818609E-02  0.1379984E+01
      -11   -1    0    0    0    0  0.00000000000E+00  0.00000000000E+00  0.35740347158E-01  0.35744000000E-01  0.51099999109E-03 0.  1.
       11   -1    0    0    0    0 -0.00000000000E+00 -0.00000000000E+00 -0.35740347158E-01  0.35744000000E-01  0.51099999109E-03 0. -1.
       22    1    1    2    0    0 -0.14534229547E-01  0.94427131082E-02 -0.31252598700E-01  0.35737005818E-01  0.00000000000E+00 0. -1.
  9000001    1    1    2    0    0  0.14534229547E-01 -0.94427131082E-02  0.31252598700E-01  0.35750994182E-01  0.10000000475E-02 0.  1.
</event>
<event>
 4   0  0.2441219E-02  0.9118800E+02  0.7818609E-02  0.1379984E+01
      -11   -1    0    0    0    0  0.00000000000E+00  0.00000000000E+00  0.35740347158E-01  0.35744000000E-01  0.51099999109E-03 0. -1.
       11   -1    0    0    0    0 -0.00000000000E+00 -0.00000000000E+00 -0.35740347158E-01  0.35744000000E-01  0.51099999109E-03 0.  1.
       22    1    1    2    0    0  0.25810661857E-02 -0.10667731988E-01 -0.34009868809E-01  0.35737005818E-01  0.00000000000E+00 0.  1.
  9000001    1    1    2    0    0 -0.25810661857E-02  0.10667731988E-01  0.34009868809E-01  0.35750994182E-01  0.10000000475E-02 0. -1.
</event>
<event>
 4   0  0.2441219E-02  0.9118800E+02  0.7818609E-02  0.1379984E+01
      -11   -1    0    0    0    0  0.00000000000E+00  0.00000000000E+00  0.35740347158E-01  0.35744000000E-01  0.51099999109E-03 0. -1.
       11   -1    0    0    0    0 -0.00000000000E+00 -0.00000000000E+00 -0.35740347158E-01  0.35744000000E-01  0.51099999109E-03 0.  1.
       22    1    1    2    0    0  0.25154115500E-01  0.58356637972E-02  0.24705244106E-01  0.35737005818E-01  0.00000000000E+00 0.  1.
  9000001    1    1    2    0    0 -0.25154115500E-01 -0.58356637972E-02 -0.24705244106E-01  0.35750994182E-01  0.10000000475E-02 0. -1.
</event>
<event>
 4   0  0.2441219E-02  0.9118800E+02  0.7818609E-02  0.1379984E+01
      -11   -1    0    0    0    0  0.00000000000E+00  0.00000000000E+00  0.35740347158E-01  0.35744000000E-01  0.51099999109E-03 0. -1.
       11   -1    0    0    0    0 -0.00000000000E+00 -0.00000000000E+00 -0.35740347158E-01  0.35744000000E-01  0.51099999109E-03 0.  1.
       22    1    1    2    0    0  0.11619056481E-01  0.89682942901E-02 -0.32583750688E-01  0.35737005818E-01  0.00000000000E+00 0.  1.
  9000001    1    1    2    0    0 -0.11619056481E-01 -0.89682942901E-02  0.32583750688E-01  0.35750994182E-01  0.10000000475E-02 0. -1.
</event>
<event>
 4   0  0.2441219E-02  0.9118800E+02  0.7818609E-02  0.1379984E+01
      -11   -1    0    0    0    0  0.00000000000E+00  0.00000000000E+00  0.35740347158E-01  0.35744000000E-01  0.51099999109E-03 0. -1.
       11   -1    0    0    0    0 -0.00000000000E+00 -0.00000000000E+00 -0.35740347158E-01  0.35744000000E-01  0.51099999109E-03 0.  1.
       22    1    1    2    0    0 -0.28008352245E-01  0.20647477309E-01 -0.81453956420E-02  0.35737005818E-01  0.00000000000E+00 0.  1.
  9000001    1    1    2    0    0  0.28008352245E-01 -0.20647477309E-01  0.81453956420E-02  0.35750994182E-01  0.10000000475E-02 0. -1.
</event>
<event>
 4   0  0.2441219E-02  0.9118800E+02  0.7818609E-02  0.1379984E+01
      -11   -1    0    0    0    0  0.00000000000E+00  0.00000000000E+00  0.35740347158E-01  0.35744000000E-01  0.51099999109E-03 0. -1.
       11   -1    0    0    0    0 -0.00000000000E+00 -0.00000000000E+00 -0.35740347158E-01  0.35744000000E-01  0.51099999109E-03 0.  1.
       22    1    1    2    0    0 -0.16355604304E-01 -0.42059666517E-02  0.31495041471E-01  0.35737005818E-01  0.00000000000E+00 0. -1.
  9000001    1    1    2    0    0  0.16355604304E-01  0.42059666517E-02 -0.31495041471E-01  0.35750994182E-01  0.10000000475E-02 0.  1.
</event>
<event>
 4   0  0.2441219E-02  0.9118800E+02  0.7818609E-02  0.1379984E+01
      -11   -1    0    0    0    0  0.00000000000E+00  0.00000000000E+00  0.35740347158E-01  0.35744000000E-01  0.51099999109E-03 0.  1.
       11   -1    0    0    0    0 -0.00000000000E+00 -0.00000000000E+00 -0.35740347158E-01  0.35744000000E-01  0.51099999109E-03 0. -1.
       22    1    1    2    0    0 -0.18408732223E-02 -0.39752704794E-02 -0.35467477994E-01  0.35737005818E-01  0.00000000000E+00 0. -1.
  9000001    1    1    2    0    0  0.18408732223E-02  0.39752704794E-02  0.35467477994E-01  0.35750994182E-01  0.10000000475E-02 0.  1.
</event>
<event>
 4   0  0.2441219E-02  0.9118800E+02  0.7818609E-02  0.1379984E+01
      -11   -1    0    0    0    0  0.00000000000E+00  0.00000000000E+00  0.35740347158E-01  0.35744000000E-01  0.51099999109E-03 0.  1.
       11   -1    0    0    0    0 -0.00000000000E+00 -0.00000000000E+00 -0.35740347158E-01  0.35744000000E-01  0.51099999109E-03 0. -1.
       22    1    1    2    0    0  0.18373618942E-01 -0.23673099959E-01  0.19471210805E-01  0.35737005818E-01  0.00000000000E+00 0.  1.
  9000001    1    1    2    0    0 -0.18373618942E-01  0.23673099959E-01 -0.19471210805E-01  0.35750994182E-01  0.10000000475E-02 0. -1.
</event>
<event>
 4   0  0.2441219E-02  0.9118800E+02  0.7818609E-02  0.1379984E+01
      -11   -1    0    0    0    0  0.00000000000E+00  0.00000000000E+00  0.35740347158E-01  0.35744000000E-01  0.51099999109E-03 0. -1.
       11   -1    0    0    0    0 -0.00000000000E+00 -0.00000000000E+00 -0.35740347158E-01  0.35744000000E-01  0.51099999109E-03 0.  1.
       22    1    1    2    0    0 -0.10183976962E-01 -0.16799364750E-01 -0.29852998880E-01  0.35737005818E-01  0.00000000000E+00 0.  1.
  9000001    1    1    2    0    0  0.10183976962E-01  0.16799364750E-01  0.29852998880E-01  0.35750994182E-01  0.10000000475E-02 0. -1.
</event>
<event>
 4   0  0.2441219E-02  0.9118800E+02  0.7818609E-02  0.1379984E+01
      -11   -1    0    0    0    0  0.00000000000E+00  0.00000000000E+00  0.35740347158E-01  0.35744000000E-01  0.51099999109E-03 0. -1.
       11   -1    0    0    0    0 -0.00000000000E+00 -0.00000000000E+00 -0.35740347158E-01  0.35744000000E-01  0.51099999109E-03 0.  1.
       22    1    1    2    0    0  0.49064874224E-02 -0.53549421229E-02 -0.34991206908E-01  0.35737005818E-01  0.00000000000E+00 0.  1.
  9000001    1    1    2    0    0 -0.49064874224E-02  0.53549421229E-02  0.34991206908E-01  0.35750994182E-01  0.10000000475E-02 0. -1.
</event>
<event>
 4   0  0.2441219E-02  0.9118800E+02  0.7818609E-02  0.1379984E+01
      -11   -1    0    0    0    0  0.00000000000E+00  0.00000000000E+00  0.35740347158E-01  0.35744000000E-01  0.51099999109E-03 0.  1.
       11   -1    0    0    0    0 -0.00000000000E+00 -0.00000000000E+00 -0.35740347158E-01  0.35744000000E-01  0.51099999109E-03 0. -1.
       22    1    1    2    0    0 -0.27935294513E-02  0.15620623466E-02  0.35593394602E-01  0.35737005818E-01  0.00000000000E+00 0.  1.
  9000001    1    1    2    0    0  0.27935294513E-02 -0.15620623466E-02 -0.35593394602E-01  0.35750994182E-01  0.10000000475E-02 0. -1.
</event>
<event>
 4   0  0.2441219E-02  0.9118800E+02  0.7818609E-02  0.1379984E+01
      -11   -1    0    0    0    0  0.00000000000E+00  0.00000000000E+00  0.35740347158E-01  0.35744000000E-01  0.51099999109E-03 0. -1.
       11   -1    0    0    0    0 -0.00000000000E+00 -0.00000000000E+00 -0.35740347158E-01  0.35744000000E-01  0.51099999109E-03 0.  1.
       22    1    1    2    0    0  0.12538692617E-03  0.63223916999E-02 -0.35173075302E-01  0.35737005818E-01  0.00000000000E+00 0.  1.
  9000001    1    1    2    0    0 -0.12538692617E-03 -0.63223916999E-02  0.35173075302E-01  0.35750994182E-01  0.10000000475E-02 0. -1.
</event>
<event>
 4   0  0.2441219E-02  0.9118800E+02  0.7818609E-02  0.1379984E+01
      -11   -1    0    0    0    0  0.00000000000E+00  0.00000000000E+00  0.35740347158E-01  0.35744000000E-01  0.51099999109E-03 0. -1.
       11   -1    0    0    0    0 -0.00000000000E+00 -0.00000000000E+00 -0.35740347158E-01  0.35744000000E-01  0.51099999109E-03 0.  1.
       22    1    1    2    0    0  0.25686130255E-02  0.12704691006E-01 -0.33303552940E-01  0.35737005818E-01  0.00000000000E+00 0.  1.
  9000001    1    1    2    0    0 -0.25686130255E-02 -0.12704691006E-01  0.33303552940E-01  0.35750994182E-01  0.10000000475E-02 0. -1.
</event>
<event>
 4   0  0.2441219E-02  0.9118800E+02  0.7818609E-02  0.1379984E+01
      -11   -1    0    0    0    0  0.00000000000E+00  0.00000000000E+00  0.35740347158E-01  0.35744000000E-01  0.51099999109E-03 0. -1.
       11   -1    0    0    0    0 -0.00000000000E+00 -0.00000000000E+00 -0.35740347158E-01  0.35744000000E-01  0.51099999109E-03 0.  1.
       22    1    1    2    0    0 -0.34031418423E-02 -0.13298262582E-01 -0.32995581868E-01  0.35737005818E-01  0.00000000000E+00 0.  1.
  9000001    1    1    2    0    0  0.34031418423E-02  0.13298262582E-01  0.32995581868E-01  0.35750994182E-01  0.10000000475E-02 0. -1.
</event>
<event>
 4   0  0.2441219E-02  0.9118800E+02  0.7818609E-02  0.1379984E+01
      -11   -1    0    0    0    0  0.00000000000E+00  0.00000000000E+00  0.35740347158E-01  0.35744000000E-01  0.51099999109E-03 0. -1.
       11   -1    0    0    0    0 -0.00000000000E+00 -0.00000000000E+00 -0.35740347158E-01  0.35744000000E-01  0.51099999109E-03 0.  1.
       22    1    1    2    0    0  0.36687578361E-03 -0.31720170419E-01  0.16456906623E-01  0.35737005818E-01  0.00000000000E+00 0. -1.
  9000001    1    1    2    0    0 -0.36687578361E-03  0.31720170419E-01 -0.16456906623E-01  0.35750994182E-01  0.10000000475E-02 0.  1.
</event>
<event>
 4   0  0.2441219E-02  0.9118800E+02  0.7818609E-02  0.1379984E+01
      -11   -1    0    0    0    0  0.00000000000E+00  0.00000000000E+00  0.35740347158E-01  0.35744000000E-01  0.51099999109E-03 0.  1.
       11   -1    0    0    0    0 -0.00000000000E+00 -0.00000000000E+00 -0.35740347158E-01  0.35744000000E-01  0.51099999109E-03 0. -1.
       22    1    1    2    0    0  0.59573788552E-02  0.88683558601E-02 -0.34102719633E-01  0.35737005818E-01  0.00000000000E+00 0. -1.
  9000001    1    1    2    0    0 -0.59573788552E-02 -0.88683558601E-02  0.34102719633E-01  0.35750994182E-01  0.10000000475E-02 0.  1.
</event>
<event>
 4   0  0.2441219E-02  0.9118800E+02  0.7818609E-02  0.1379984E+01
      -11   -1    0    0    0    0  0.00000000000E+00  0.00000000000E+00  0.35740347158E-01  0.35744000000E-01  0.51099999109E-03 0.  1.
       11   -1    0    0    0    0 -0.00000000000E+00 -0.00000000000E+00 -0.35740347158E-01  0.35744000000E-01  0.51099999109E-03 0. -1.
       22    1    1    2    0    0  0.19452434006E-02 -0.32171070333E-02 -0.35538708971E-01  0.35737005818E-01  0.00000000000E+00 0. -1.
  9000001    1    1    2    0    0 -0.19452434006E-02  0.32171070333E-02  0.35538708971E-01  0.35750994182E-01  0.10000000475E-02 0.  1.
</event>
<event>
 4   0  0.2441219E-02  0.9118800E+02  0.7818609E-02  0.1379984E+01
      -11   -1    0    0    0    0  0.00000000000E+00  0.00000000000E+00  0.35740347158E-01  0.35744000000E-01  0.51099999109E-03 0. -1.
       11   -1    0    0    0    0 -0.00000000000E+00 -0.00000000000E+00 -0.35740347158E-01  0.35744000000E-01  0.51099999109E-03 0.  1.
       22    1    1    2    0    0 -0.59545851715E-02 -0.63413394457E-03 -0.35231723978E-01  0.35737005818E-01  0.00000000000E+00 0.  1.
  9000001    1    1    2    0    0  0.59545851715E-02  0.63413394457E-03  0.35231723978E-01  0.35750994182E-01  0.10000000475E-02 0. -1.
</event>
<event>
 4   0  0.2441219E-02  0.9118800E+02  0.7818609E-02  0.1379984E+01
      -11   -1    0    0    0    0  0.00000000000E+00  0.00000000000E+00  0.35740347158E-01  0.35744000000E-01  0.51099999109E-03 0. -1.
       11   -1    0    0    0    0 -0.00000000000E+00 -0.00000000000E+00 -0.35740347158E-01  0.35744000000E-01  0.51099999109E-03 0.  1.
       22    1    1    2    0    0 -0.22379743489E-03 -0.44537143159E-02 -0.35457692090E-01  0.35737005818E-01  0.00000000000E+00 0.  1.
  9000001    1    1    2    0    0  0.22379743489E-03  0.44537143159E-02  0.35457692090E-01  0.35750994182E-01  0.10000000475E-02 0. -1.
</event>
<event>
 4   0  0.2441219E-02  0.9118800E+02  0.7818609E-02  0.1379984E+01
      -11   -1    0    0    0    0  0.00000000000E+00  0.00000000000E+00  0.35740347158E-01  0.35744000000E-01  0.51099999109E-03 0.  1.
       11   -1    0    0    0    0 -0.00000000000E+00 -0.00000000000E+00 -0.35740347158E-01  0.35744000000E-01  0.51099999109E-03 0. -1.
       22    1    1    2    0    0  0.78050831436E-02  0.81165055993E-02  0.33916612432E-01  0.35737005818E-01  0.00000000000E+00 0.  1.
  9000001    1    1    2    0    0 -0.78050831436E-02 -0.81165055993E-02 -0.33916612432E-01  0.35750994182E-01  0.10000000475E-02 0. -1.
</event>
<event>
 4   0  0.2441219E-02  0.9118800E+02  0.7818609E-02  0.1379984E+01
      -11   -1    0    0    0    0  0.00000000000E+00  0.00000000000E+00  0.35740347158E-01  0.35744000000E-01  0.51099999109E-03 0. -1.
       11   -1    0    0    0    0 -0.00000000000E+00 -0.00000000000E+00 -0.35740347158E-01  0.35744000000E-01  0.51099999109E-03 0.  1.
       22    1    1    2    0    0  0.36532155624E-02  0.42861187124E-02 -0.35290463121E-01  0.35737005818E-01  0.00000000000E+00 0.  1.
  9000001    1    1    2    0    0 -0.36532155624E-02 -0.42861187124E-02  0.35290463121E-01  0.35750994182E-01  0.10000000475E-02 0. -1.
</event>
<event>
 4   0  0.2441219E-02  0.9118800E+02  0.7818609E-02  0.1379984E+01
      -11   -1    0    0    0    0  0.00000000000E+00  0.00000000000E+00  0.35740347158E-01  0.35744000000E-01  0.51099999109E-03 0. -1.
       11   -1    0    0    0    0 -0.00000000000E+00 -0.00000000000E+00 -0.35740347158E-01  0.35744000000E-01  0.51099999109E-03 0.  1.
       22    1    1    2    0    0 -0.20780505964E-01  0.74140170358E-02  0.28112924219E-01  0.35737005818E-01  0.00000000000E+00 0. -1.
  9000001    1    1    2    0    0  0.20780505964E-01 -0.74140170358E-02 -0.28112924219E-01  0.35750994182E-01  0.10000000475E-02 0.  1.
</event>
<event>
 4   0  0.2441219E-02  0.9118800E+02  0.7818609E-02  0.1379984E+01
      -11   -1    0    0    0    0  0.00000000000E+00  0.00000000000E+00  0.35740347158E-01  0.35744000000E-01  0.51099999109E-03 0. -1.
       11   -1    0    0    0    0 -0.00000000000E+00 -0.00000000000E+00 -0.35740347158E-01  0.35744000000E-01  0.51099999109E-03 0.  1.
       22    1    1    2    0    0  0.15858599670E-01  0.21999523754E-01  0.23273576346E-01  0.35737005818E-01  0.00000000000E+00 0. -1.
  9000001    1    1    2    0    0 -0.15858599670E-01 -0.21999523754E-01 -0.23273576346E-01  0.35750994182E-01  0.10000000475E-02 0.  1.
</event>
<event>
 4   0  0.2441219E-02  0.9118800E+02  0.7818609E-02  0.1379984E+01
      -11   -1    0    0    0    0  0.00000000000E+00  0.00000000000E+00  0.35740347158E-01  0.35744000000E-01  0.51099999109E-03 0. -1.
       11   -1    0    0    0    0 -0.00000000000E+00 -0.00000000000E+00 -0.35740347158E-01  0.35744000000E-01  0.51099999109E-03 0.  1.
       22    1    1    2    0    0 -0.35136279922E-02  0.15285318482E-01  0.32111478355E-01  0.35737005818E-01  0.00000000000E+00 0. -1.
  9000001    1    1    2    0    0  0.35136279922E-02 -0.15285318482E-01 -0.32111478355E-01  0.35750994182E-01  0.10000000475E-02 0.  1.
</event>
<event>
 4   0  0.2441219E-02  0.9118800E+02  0.7818609E-02  0.1379984E+01
      -11   -1    0    0    0    0  0.00000000000E+00  0.00000000000E+00  0.35740347158E-01  0.35744000000E-01  0.51099999109E-03 0.  1.
       11   -1    0    0    0    0 -0.00000000000E+00 -0.00000000000E+00 -0.35740347158E-01  0.35744000000E-01  0.51099999109E-03 0. -1.
       22    1    1    2    0    0 -0.10777875403E-01  0.17466228506E-02  0.34028227919E-01  0.35737005818E-01  0.00000000000E+00 0.  1.
  9000001    1    1    2    0    0  0.10777875403E-01 -0.17466228506E-02 -0.34028227919E-01  0.35750994182E-01  0.10000000475E-02 0. -1.
</event>
<event>
 4   0  0.2441219E-02  0.9118800E+02  0.7818609E-02  0.1379984E+01
      -11   -1    0    0    0    0  0.00000000000E+00  0.00000000000E+00  0.35740347158E-01  0.35744000000E-01  0.51099999109E-03 0. -1.
       11   -1    0    0    0    0 -0.00000000000E+00 -0.00000000000E+00 -0.35740347158E-01  0.35744000000E-01  0.51099999109E-03 0.  1.
       22    1    1    2    0    0 -0.91936953136E-02  0.16891802341E-01 -0.30121031938E-01  0.35737005818E-01  0.00000000000E+00 0.  1.
  9000001    1    1    2    0    0  0.91936953136E-02 -0.16891802341E-01  0.30121031938E-01  0.35750994182E-01  0.10000000475E-02 0. -1.
</event>
<event>
 4   0  0.2441219E-02  0.9118800E+02  0.7818609E-02  0.1379984E+01
      -11   -1    0    0    0    0  0.00000000000E+00  0.00000000000E+00  0.35740347158E-01  0.35744000000E-01  0.51099999109E-03 0. -1.
       11   -1    0    0    0    0 -0.00000000000E+00 -0.00000000000E+00 -0.35740347158E-01  0.35744000000E-01  0.51099999109E-03 0.  1.
       22    1    1    2    0    0 -0.30937641514E-02 -0.57923879630E-03 -0.35598127629E-01  0.35737005818E-01  0.00000000000E+00 0.  1.
  9000001    1    1    2    0    0  0.30937641514E-02  0.57923879630E-03  0.35598127629E-01  0.35750994182E-01  0.10000000475E-02 0. -1.
</event>
<event>
 4   0  0.2441219E-02  0.9118800E+02  0.7818609E-02  0.1379984E+01
      -11   -1    0    0    0    0  0.00000000000E+00  0.00000000000E+00  0.35740347158E-01  0.35744000000E-01  0.51099999109E-03 0. -1.
       11   -1    0    0    0    0 -0.00000000000E+00 -0.00000000000E+00 -0.35740347158E-01  0.35744000000E-01  0.51099999109E-03 0.  1.
       22    1    1    2    0    0 -0.32337774158E-01  0.48856283874E-02  0.14405991207E-01  0.35737005818E-01  0.00000000000E+00 0. -1.
  9000001    1    1    2    0    0  0.32337774158E-01 -0.48856283874E-02 -0.14405991207E-01  0.35750994182E-01  0.10000000475E-02 0.  1.
</event>
<event>
 4   0  0.2441219E-02  0.9118800E+02  0.7818609E-02  0.1379984E+01
      -11   -1    0    0    0    0  0.00000000000E+00  0.00000000000E+00  0.35740347158E-01  0.35744000000E-01  0.51099999109E-03 0.  1.
       11   -1    0    0    0    0 -0.00000000000E+00 -0.00000000000E+00 -0.35740347158E-01  0.35744000000E-01  0.51099999109E-03 0. -1.
       22    1    1    2    0    0 -0.25171181014E-02  0.43707648843E-02 -0.35379289361E-01  0.35737005818E-01  0.00000000000E+00 0. -1.
  9000001    1    1    2    0    0  0.25171181014E-02 -0.43707648843E-02  0.35379289361E-01  0.35750994182E-01  0.10000000475E-02 0.  1.
</event>
<event>
 4   0  0.2441219E-02  0.9118800E+02  0.7818609E-02  0.1379984E+01
      -11   -1    0    0    0    0  0.00000000000E+00  0.00000000000E+00  0.35740347158E-01  0.35744000000E-01  0.51099999109E-03 0. -1.
       11   -1    0    0    0    0 -0.00000000000E+00 -0.00000000000E+00 -0.35740347158E-01  0.35744000000E-01  0.51099999109E-03 0.  1.
       22    1    1    2    0    0  0.23571323388E-02  0.42244886117E-02 -0.35408066990E-01  0.35737005818E-01  0.00000000000E+00 0.  1.
  9000001    1    1    2    0    0 -0.23571323388E-02 -0.42244886117E-02  0.35408066990E-01  0.35750994182E-01  0.10000000475E-02 0. -1.
</event>
<event>
 4   0  0.2441219E-02  0.9118800E+02  0.7818609E-02  0.1379984E+01
      -11   -1    0    0    0    0  0.00000000000E+00  0.00000000000E+00  0.35740347158E-01  0.35744000000E-01  0.51099999109E-03 0.  1.
       11   -1    0    0    0    0 -0.00000000000E+00 -0.00000000000E+00 -0.35740347158E-01  0.35744000000E-01  0.51099999109E-03 0. -1.
       22    1    1    2    0    0  0.26509450244E-02 -0.28190872548E-02 -0.35526874650E-01  0.35737005818E-01  0.00000000000E+00 0. -1.
  9000001    1    1    2    0    0 -0.26509450244E-02  0.28190872548E-02  0.35526874650E-01  0.35750994182E-01  0.10000000475E-02 0.  1.
</event>
<event>
 4   0  0.2441219E-02  0.9118800E+02  0.7818609E-02  0.1379984E+01
      -11   -1    0    0    0    0  0.00000000000E+00  0.00000000000E+00  0.35740347158E-01  0.35744000000E-01  0.51099999109E-03 0.  1.
       11   -1    0    0    0    0 -0.00000000000E+00 -0.00000000000E+00 -0.35740347158E-01  0.35744000000E-01  0.51099999109E-03 0. -1.
       22    1    1    2    0    0  0.19750097114E-01  0.21053766382E-01  0.21066707620E-01  0.35737005818E-01  0.00000000000E+00 0.  1.
  9000001    1    1    2    0    0 -0.19750097114E-01 -0.21053766382E-01 -0.21066707620E-01  0.35750994182E-01  0.10000000475E-02 0. -1.
</event>
<event>
 4   0  0.2441219E-02  0.9118800E+02  0.7818609E-02  0.1379984E+01
      -11   -1    0    0    0    0  0.00000000000E+00  0.00000000000E+00  0.35740347158E-01  0.35744000000E-01  0.51099999109E-03 0.  1.
       11   -1    0    0    0    0 -0.00000000000E+00 -0.00000000000E+00 -0.35740347158E-01  0.35744000000E-01  0.51099999109E-03 0. -1.
       22    1    1    2    0    0 -0.24343215985E-01 -0.13948046607E-02  0.26126537091E-01  0.35737005818E-01  0.00000000000E+00 0.  1.
  9000001    1    1    2    0    0  0.24343215985E-01  0.13948046607E-02 -0.26126537091E-01  0.35750994182E-01  0.10000000475E-02 0. -1.
</event>
<event>
 4   0  0.2441219E-02  0.9118800E+02  0.7818609E-02  0.1379984E+01
      -11   -1    0    0    0    0  0.00000000000E+00  0.00000000000E+00  0.35740347158E-01  0.35744000000E-01  0.51099999109E-03 0. -1.
       11   -1    0    0    0    0 -0.00000000000E+00 -0.00000000000E+00 -0.35740347158E-01  0.35744000000E-01  0.51099999109E-03 0.  1.
       22    1    1    2    0    0  0.26881531529E-01 -0.10289041208E-02  0.23525692420E-01  0.35737005818E-01  0.00000000000E+00 0. -1.
  9000001    1    1    2    0    0 -0.26881531529E-01  0.10289041208E-02 -0.23525692420E-01  0.35750994182E-01  0.10000000475E-02 0.  1.
</event>
<event>
 4   0  0.2441219E-02  0.9118800E+02  0.7818609E-02  0.1379984E+01
      -11   -1    0    0    0    0  0.00000000000E+00  0.00000000000E+00  0.35740347158E-01  0.35744000000E-01  0.51099999109E-03 0. -1.
       11   -1    0    0    0    0 -0.00000000000E+00 -0.00000000000E+00 -0.35740347158E-01  0.35744000000E-01  0.51099999109E-03 0.  1.
       22    1    1    2    0    0  0.22633900411E-01  0.20183363798E-02  0.27581995130E-01  0.35737005818E-01  0.00000000000E+00 0. -1.
  9000001    1    1    2    0    0 -0.22633900411E-01 -0.20183363798E-02 -0.27581995130E-01  0.35750994182E-01  0.10000000475E-02 0.  1.
</event>
<event>
 4   0  0.2441219E-02  0.9118800E+02  0.7818609E-02  0.1379984E+01
      -11   -1    0    0    0    0  0.00000000000E+00  0.00000000000E+00  0.35740347158E-01  0.35744000000E-01  0.51099999109E-03 0.  1.
       11   -1    0    0    0    0 -0.00000000000E+00 -0.00000000000E+00 -0.35740347158E-01  0.35744000000E-01  0.51099999109E-03 0. -1.
       22    1    1    2    0    0  0.55637200097E-02 -0.29207780241E-02 -0.35180216888E-01  0.35737005818E-01  0.00000000000E+00 0. -1.
  9000001    1    1    2    0    0 -0.55637200097E-02  0.29207780241E-02  0.35180216888E-01  0.35750994182E-01  0.10000000475E-02 0.  1.
</event>
<event>
 4   0  0.2441219E-02  0.9118800E+02  0.7818609E-02  0.1379984E+01
      -11   -1    0    0    0    0  0.00000000000E+00  0.00000000000E+00  0.35740347158E-01  0.35744000000E-01  0.51099999109E-03 0. -1.
       11   -1    0    0    0    0 -0.00000000000E+00 -0.00000000000E+00 -0.35740347158E-01  0.35744000000E-01  0.51099999109E-03 0.  1.
       22    1    1    2    0    0  0.26497779295E-02 -0.17115322128E-01  0.31259846613E-01  0.35737005818E-01  0.00000000000E+00 0. -1.
  9000001    1    1    2    0    0 -0.26497779295E-02  0.17115322128E-01 -0.31259846613E-01  0.35750994182E-01  0.10000000475E-02 0.  1.
</event>
<event>
 4   0  0.2441219E-02  0.9118800E+02  0.7818609E-02  0.1379984E+01
      -11   -1    0    0    0    0  0.00000000000E+00  0.00000000000E+00  0.35740347158E-01  0.35744000000E-01  0.51099999109E-03 0. -1.
       11   -1    0    0    0    0 -0.00000000000E+00 -0.00000000000E+00 -0.35740347158E-01  0.35744000000E-01  0.51099999109E-03 0.  1.
       22    1    1    2    0    0 -0.74914751365E-02  0.23547202959E-01 -0.25817447937E-01  0.35737005818E-01  0.00000000000E+00 0.  1.
  9000001    1    1    2    0    0  0.74914751365E-02 -0.23547202959E-01  0.25817447937E-01  0.35750994182E-01  0.10000000475E-02 0. -1.
</event>
<event>
 4   0  0.2441219E-02  0.9118800E+02  0.7818609E-02  0.1379984E+01
      -11   -1    0    0    0    0  0.00000000000E+00  0.00000000000E+00  0.35740347158E-01  0.35744000000E-01  0.51099999109E-03 0.  1.
       11   -1    0    0    0    0 -0.00000000000E+00 -0.00000000000E+00 -0.35740347158E-01  0.35744000000E-01  0.51099999109E-03 0. -1.
       22    1    1    2    0    0 -0.31662330031E-01 -0.90845686047E-02  0.13860052493E-01  0.35737005818E-01  0.00000000000E+00 0.  1.
  9000001    1    1    2    0    0  0.31662330031E-01  0.90845686047E-02 -0.13860052493E-01  0.35750994182E-01  0.10000000475E-02 0. -1.
</event>
<event>
 4   0  0.2441219E-02  0.9118800E+02  0.7818609E-02  0.1379984E+01
      -11   -1    0    0    0    0  0.00000000000E+00  0.00000000000E+00  0.35740347158E-01  0.35744000000E-01  0.51099999109E-03 0. -1.
       11   -1    0    0    0    0 -0.00000000000E+00 -0.00000000000E+00 -0.35740347158E-01  0.35744000000E-01  0.51099999109E-03 0.  1.
       22    1    1    2    0    0  0.87507533561E-03  0.70684278072E-02  0.35020067909E-01  0.35737005818E-01  0.00000000000E+00 0. -1.
  9000001    1    1    2    0    0 -0.87507533561E-03 -0.70684278072E-02 -0.35020067909E-01  0.35750994182E-01  0.10000000475E-02 0.  1.
</event>
<event>
 4   0  0.2441219E-02  0.9118800E+02  0.7818609E-02  0.1379984E+01
      -11   -1    0    0    0    0  0.00000000000E+00  0.00000000000E+00  0.35740347158E-01  0.35744000000E-01  0.51099999109E-03 0. -1.
       11   -1    0    0    0    0 -0.00000000000E+00 -0.00000000000E+00 -0.35740347158E-01  0.35744000000E-01  0.51099999109E-03 0.  1.
       22    1    1    2    0    0  0.36966818172E-02  0.96802688084E-02 -0.34201762004E-01  0.35737005818E-01  0.00000000000E+00 0.  1.
  9000001    1    1    2    0    0 -0.36966818172E-02 -0.96802688084E-02  0.34201762004E-01  0.35750994182E-01  0.10000000475E-02 0. -1.
</event>
<event>
 4   0  0.2441219E-02  0.9118800E+02  0.7818609E-02  0.1379984E+01
      -11   -1    0    0    0    0  0.00000000000E+00  0.00000000000E+00  0.35740347158E-01  0.35744000000E-01  0.51099999109E-03 0. -1.
       11   -1    0    0    0    0 -0.00000000000E+00 -0.00000000000E+00 -0.35740347158E-01  0.35744000000E-01  0.51099999109E-03 0.  1.
       22    1    1    2    0    0 -0.86483907560E-02  0.70717302567E-02 -0.33945979930E-01  0.35737005818E-01  0.00000000000E+00 0.  1.
  9000001    1    1    2    0    0  0.86483907560E-02 -0.70717302567E-02  0.33945979930E-01  0.35750994182E-01  0.10000000475E-02 0. -1.
</event>
<event>
 4   0  0.2441219E-02  0.9118800E+02  0.7818609E-02  0.1379984E+01
      -11   -1    0    0    0    0  0.00000000000E+00  0.00000000000E+00  0.35740347158E-01  0.35744000000E-01  0.51099999109E-03 0. -1.
       11   -1    0    0    0    0 -0.00000000000E+00 -0.00000000000E+00 -0.35740347158E-01  0.35744000000E-01  0.51099999109E-03 0.  1.
       22    1    1    2    0    0  0.24995576001E-02 -0.20962947775E-02 -0.35587797696E-01  0.35737005818E-01  0.00000000000E+00 0.  1.
  9000001    1    1    2    0    0 -0.24995576001E-02  0.20962947775E-02  0.35587797696E-01  0.35750994182E-01  0.10000000475E-02 0. -1.
</event>
<event>
 4   0  0.2441219E-02  0.9118800E+02  0.7818609E-02  0.1379984E+01
      -11   -1    0    0    0    0  0.00000000000E+00  0.00000000000E+00  0.35740347158E-01  0.35744000000E-01  0.51099999109E-03 0.  1.
       11   -1    0    0    0    0 -0.00000000000E+00 -0.00000000000E+00 -0.35740347158E-01  0.35744000000E-01  0.51099999109E-03 0. -1.
       22    1    1    2    0    0  0.25264685336E-01 -0.12589357862E-01  0.21916599379E-01  0.35737005818E-01  0.00000000000E+00 0.  1.
  9000001    1    1    2    0    0 -0.25264685336E-01  0.12589357862E-01 -0.21916599379E-01  0.35750994182E-01  0.10000000475E-02 0. -1.
</event>
<event>
 4   0  0.2441219E-02  0.9118800E+02  0.7818609E-02  0.1379984E+01
      -11   -1    0    0    0    0  0.00000000000E+00  0.00000000000E+00  0.35740347158E-01  0.35744000000E-01  0.51099999109E-03 0.  1.
       11   -1    0    0    0    0 -0.00000000000E+00 -0.00000000000E+00 -0.35740347158E-01  0.35744000000E-01  0.51099999109E-03 0. -1.
       22    1    1    2    0    0  0.68955271475E-02  0.50077919810E-02  0.34706012587E-01  0.35737005818E-01  0.00000000000E+00 0.  1.
  9000001    1    1    2    0    0 -0.68955271475E-02 -0.50077919810E-02 -0.34706012587E-01  0.35750994182E-01  0.10000000475E-02 0. -1.
</event>
<event>
 4   0  0.2441219E-02  0.9118800E+02  0.7818609E-02  0.1379984E+01
      -11   -1    0    0    0    0  0.00000000000E+00  0.00000000000E+00  0.35740347158E-01  0.35744000000E-01  0.51099999109E-03 0.  1.
       11   -1    0    0    0    0 -0.00000000000E+00 -0.00000000000E+00 -0.35740347158E-01  0.35744000000E-01  0.51099999109E-03 0. -1.
       22    1    1    2    0    0 -0.23373240539E-01  0.14710389997E-01  0.22681041372E-01  0.35737005818E-01  0.00000000000E+00 0.  1.
  9000001    1    1    2    0    0  0.23373240539E-01 -0.14710389997E-01 -0.22681041372E-01  0.35750994182E-01  0.10000000475E-02 0. -1.
</event>
<event>
 4   0  0.2441219E-02  0.9118800E+02  0.7818609E-02  0.1379984E+01
      -11   -1    0    0    0    0  0.00000000000E+00  0.00000000000E+00  0.35740347158E-01  0.35744000000E-01  0.51099999109E-03 0. -1.
       11   -1    0    0    0    0 -0.00000000000E+00 -0.00000000000E+00 -0.35740347158E-01  0.35744000000E-01  0.51099999109E-03 0.  1.
       22    1    1    2    0    0 -0.31268892909E-02  0.70215638747E-03  0.35593020729E-01  0.35737005818E-01  0.00000000000E+00 0. -1.
  9000001    1    1    2    0    0  0.31268892909E-02 -0.70215638747E-03 -0.35593020729E-01  0.35750994182E-01  0.10000000475E-02 0.  1.
</event>
<event>
 4   0  0.2441219E-02  0.9118800E+02  0.7818609E-02  0.1379984E+01
      -11   -1    0    0    0    0  0.00000000000E+00  0.00000000000E+00  0.35740347158E-01  0.35744000000E-01  0.51099999109E-03 0.  1.
       11   -1    0    0    0    0 -0.00000000000E+00 -0.00000000000E+00 -0.35740347158E-01  0.35744000000E-01  0.51099999109E-03 0. -1.
       22    1    1    2    0    0 -0.45735159903E-02  0.12590391136E-02 -0.35420775780E-01  0.35737005818E-01  0.00000000000E+00 0. -1.
  9000001    1    1    2    0    0  0.45735159903E-02 -0.12590391136E-02  0.35420775780E-01  0.35750994182E-01  0.10000000475E-02 0.  1.
</event>
<event>
 4   0  0.2441219E-02  0.9118800E+02  0.7818609E-02  0.1379984E+01
      -11   -1    0    0    0    0  0.00000000000E+00  0.00000000000E+00  0.35740347158E-01  0.35744000000E-01  0.51099999109E-03 0.  1.
       11   -1    0    0    0    0 -0.00000000000E+00 -0.00000000000E+00 -0.35740347158E-01  0.35744000000E-01  0.51099999109E-03 0. -1.
       22    1    1    2    0    0 -0.81752186665E-03 -0.44805379373E-02 -0.35445592429E-01  0.35737005818E-01  0.00000000000E+00 0. -1.
  9000001    1    1    2    0    0  0.81752186665E-03  0.44805379373E-02  0.35445592429E-01  0.35750994182E-01  0.10000000475E-02 0.  1.
</event>
<event>
 4   0  0.2441219E-02  0.9118800E+02  0.7818609E-02  0.1379984E+01
      -11   -1    0    0    0    0  0.00000000000E+00  0.00000000000E+00  0.35740347158E-01  0.35744000000E-01  0.51099999109E-03 0. -1.
       11   -1    0    0    0    0 -0.00000000000E+00 -0.00000000000E+00 -0.35740347158E-01  0.35744000000E-01  0.51099999109E-03 0.  1.
       22    1    1    2    0    0 -0.32621960346E-01  0.77040326841E-02 -0.12393109717E-01  0.35737005818E-01  0.00000000000E+00 0. -1.
  9000001    1    1    2    0    0  0.32621960346E-01 -0.77040326841E-02  0.12393109717E-01  0.35750994182E-01  0.10000000475E-02 0.  1.
</event>
<event>
 4   0  0.2441219E-02  0.9118800E+02  0.7818609E-02  0.1379984E+01
      -11   -1    0    0    0    0  0.00000000000E+00  0.00000000000E+00  0.35740347158E-01  0.35744000000E-01  0.51099999109E-03 0.  1.
       11   -1    0    0    0    0 -0.00000000000E+00 -0.00000000000E+00 -0.35740347158E-01  0.35744000000E-01  0.51099999109E-03 0. -1.
       22    1    1    2    0    0  0.80445332935E-02  0.51517975859E-03  0.34815997168E-01  0.35737005818E-01  0.00000000000E+00 0.  1.
  9000001    1    1    2    0    0 -0.80445332935E-02 -0.51517975859E-03 -0.34815997168E-01  0.35750994182E-01  0.10000000475E-02 0. -1.
</event>
<event>
 4   0  0.2441219E-02  0.9118800E+02  0.7818609E-02  0.1379984E+01
      -11   -1    0    0    0    0  0.00000000000E+00  0.00000000000E+00  0.35740347158E-01  0.35744000000E-01  0.51099999109E-03 0.  1.
       11   -1    0    0    0    0 -0.00000000000E+00 -0.00000000000E+00 -0.35740347158E-01  0.35744000000E-01  0.51099999109E-03 0. -1.
       22    1    1    2    0    0 -0.58213929521E-03  0.33345457400E-02 -0.35576333474E-01  0.35737005818E-01  0.00000000000E+00 0. -1.
  9000001    1    1    2    0    0  0.58213929521E-03 -0.33345457400E-02  0.35576333474E-01  0.35750994182E-01  0.10000000475E-02 0.  1.
</event>
<event>
 4   0  0.2441219E-02  0.9118800E+02  0.7818609E-02  0.1379984E+01
      -11   -1    0    0    0    0  0.00000000000E+00  0.00000000000E+00  0.35740347158E-01  0.35744000000E-01  0.51099999109E-03 0. -1.
       11   -1    0    0    0    0 -0.00000000000E+00 -0.00000000000E+00 -0.35740347158E-01  0.35744000000E-01  0.51099999109E-03 0.  1.
       22    1    1    2    0    0  0.11960060299E-02  0.30678821937E-01 -0.18289697620E-01  0.35737005818E-01  0.00000000000E+00 0.  1.
  9000001    1    1    2    0    0 -0.11960060299E-02 -0.30678821937E-01  0.18289697620E-01  0.35750994182E-01  0.10000000475E-02 0. -1.
</event>
<event>
 4   0  0.2441219E-02  0.9118800E+02  0.7818609E-02  0.1379984E+01
      -11   -1    0    0    0    0  0.00000000000E+00  0.00000000000E+00  0.35740347158E-01  0.35744000000E-01  0.51099999109E-03 0. -1.
       11   -1    0    0    0    0 -0.00000000000E+00 -0.00000000000E+00 -0.35740347158E-01  0.35744000000E-01  0.51099999109E-03 0.  1.
       22    1    1    2    0    0 -0.10037756909E-02 -0.57917748773E-02 -0.35250267559E-01  0.35737005818E-01  0.00000000000E+00 0.  1.
  9000001    1    1    2    0    0  0.10037756909E-02  0.57917748773E-02  0.35250267559E-01  0.35750994182E-01  0.10000000475E-02 0. -1.
</event>
<event>
 4   0  0.2441219E-02  0.9118800E+02  0.7818609E-02  0.1379984E+01
      -11   -1    0    0    0    0  0.00000000000E+00  0.00000000000E+00  0.35740347158E-01  0.35744000000E-01  0.51099999109E-03 0. -1.
       11   -1    0    0    0    0 -0.00000000000E+00 -0.00000000000E+00 -0.35740347158E-01  0.35744000000E-01  0.51099999109E-03 0.  1.
       22    1    1    2    0    0 -0.94501652915E-03 -0.96730135530E-02 -0.34390017991E-01  0.35737005818E-01  0.00000000000E+00 0.  1.
  9000001    1    1    2    0    0  0.94501652915E-03  0.96730135530E-02  0.34390017991E-01  0.35750994182E-01  0.10000000475E-02 0. -1.
</event>
<event>
 4   0  0.2441219E-02  0.9118800E+02  0.7818609E-02  0.1379984E+01
      -11   -1    0    0    0    0  0.00000000000E+00  0.00000000000E+00  0.35740347158E-01  0.35744000000E-01  0.51099999109E-03 0. -1.
       11   -1    0    0    0    0 -0.00000000000E+00 -0.00000000000E+00 -0.35740347158E-01  0.35744000000E-01  0.51099999109E-03 0.  1.
       22    1    1    2    0    0 -0.72422451656E-02 -0.13175761314E-01  0.32420406901E-01  0.35737005818E-01  0.00000000000E+00 0. -1.
  9000001    1    1    2    0    0  0.72422451656E-02  0.13175761314E-01 -0.32420406901E-01  0.35750994182E-01  0.10000000475E-02 0.  1.
</event>
<event>
 4   0  0.2441219E-02  0.9118800E+02  0.7818609E-02  0.1379984E+01
      -11   -1    0    0    0    0  0.00000000000E+00  0.00000000000E+00  0.35740347158E-01  0.35744000000E-01  0.51099999109E-03 0. -1.
       11   -1    0    0    0    0 -0.00000000000E+00 -0.00000000000E+00 -0.35740347158E-01  0.35744000000E-01  0.51099999109E-03 0.  1.
       22    1    1    2    0    0 -0.87989503722E-02  0.28009237420E-02 -0.34523425140E-01  0.35737005818E-01  0.00000000000E+00 0.  1.
  9000001    1    1    2    0    0  0.87989503722E-02 -0.28009237420E-02  0.34523425140E-01  0.35750994182E-01  0.10000000475E-02 0. -1.
</event>
<event>
 4   0  0.2441219E-02  0.9118800E+02  0.7818609E-02  0.1379984E+01
      -11   -1    0    0    0    0  0.00000000000E+00  0.00000000000E+00  0.35740347158E-01  0.35744000000E-01  0.51099999109E-03 0. -1.
       11   -1    0    0    0    0 -0.00000000000E+00 -0.00000000000E+00 -0.35740347158E-01  0.35744000000E-01  0.51099999109E-03 0.  1.
       22    1    1    2    0    0  0.11601409965E-02  0.40040016950E-02  0.35493036333E-01  0.35737005818E-01  0.00000000000E+00 0. -1.
  9000001    1    1    2    0    0 -0.11601409965E-02 -0.40040016950E-02 -0.35493036333E-01  0.35750994182E-01  0.10000000475E-02 0.  1.
</event>
<event>
 4   0  0.2441219E-02  0.9118800E+02  0.7818609E-02  0.1379984E+01
      -11   -1    0    0    0    0  0.00000000000E+00  0.00000000000E+00  0.35740347158E-01  0.35744000000E-01  0.51099999109E-03 0. -1.
       11   -1    0    0    0    0 -0.00000000000E+00 -0.00000000000E+00 -0.35740347158E-01  0.35744000000E-01  0.51099999109E-03 0.  1.
       22    1    1    2    0    0  0.66123009451E-02 -0.34670366450E-01 -0.56014954547E-02  0.35737005818E-01  0.00000000000E+00 0.  1.
  9000001    1    1    2    0    0 -0.66123009451E-02  0.34670366450E-01  0.56014954547E-02  0.35750994182E-01  0.10000000475E-02 0. -1.
</event>
<event>
 4   0  0.2441219E-02  0.9118800E+02  0.7818609E-02  0.1379984E+01
      -11   -1    0    0    0    0  0.00000000000E+00  0.00000000000E+00  0.35740347158E-01  0.35744000000E-01  0.51099999109E-03 0. -1.
       11   -1    0    0    0    0 -0.00000000000E+00 -0.00000000000E+00 -0.35740347158E-01  0.35744000000E-01  0.51099999109E-03 0.  1.
       22    1    1    2    0    0  0.86082676519E-02  0.21592681639E-02  0.34617464868E-01  0.35737005818E-01  0.00000000000E+00 0. -1.
  9000001    1    1    2    0    0 -0.86082676519E-02 -0.21592681639E-02 -0.34617464868E-01  0.35750994182E-01  0.10000000475E-02 0.  1.
</event>
<event>
 4   0  0.2441219E-02  0.9118800E+02  0.7818609E-02  0.1379984E+01
      -11   -1    0    0    0    0  0.00000000000E+00  0.00000000000E+00  0.35740347158E-01  0.35744000000E-01  0.51099999109E-03 0.  1.
       11   -1    0    0    0    0 -0.00000000000E+00 -0.00000000000E+00 -0.35740347158E-01  0.35744000000E-01  0.51099999109E-03 0. -1.
       22    1    1    2    0    0 -0.48704586013E-03  0.49964944774E-02  0.35382642837E-01  0.35737005818E-01  0.00000000000E+00 0.  1.
  9000001    1    1    2    0    0  0.48704586013E-03 -0.49964944774E-02 -0.35382642837E-01  0.35750994182E-01  0.10000000475E-02 0. -1.
</event>
<event>
 4   0  0.2441219E-02  0.9118800E+02  0.7818609E-02  0.1379984E+01
      -11   -1    0    0    0    0  0.00000000000E+00  0.00000000000E+00  0.35740347158E-01  0.35744000000E-01  0.51099999109E-03 0.  1.
       11   -1    0    0    0    0 -0.00000000000E+00 -0.00000000000E+00 -0.35740347158E-01  0.35744000000E-01  0.51099999109E-03 0. -1.
       22    1    1    2    0    0  0.21492425937E-01 -0.25521970898E-01 -0.12799930223E-01  0.35737005818E-01  0.00000000000E+00 0. -1.
  9000001    1    1    2    0    0 -0.21492425937E-01  0.25521970898E-01  0.12799930223E-01  0.35750994182E-01  0.10000000475E-02 0.  1.
</event>
<event>
 4   0  0.2441219E-02  0.9118800E+02  0.7818609E-02  0.1379984E+01
      -11   -1    0    0    0    0  0.00000000000E+00  0.00000000000E+00  0.35740347158E-01  0.35744000000E-01  0.51099999109E-03 0. -1.
       11   -1    0    0    0    0 -0.00000000000E+00 -0.00000000000E+00 -0.35740347158E-01  0.35744000000E-01  0.51099999109E-03 0.  1.
       22    1    1    2    0    0  0.55332716630E-02  0.32927954287E-02 -0.35152154811E-01  0.35737005818E-01  0.00000000000E+00 0.  1.
  9000001    1    1    2    0    0 -0.55332716630E-02 -0.32927954287E-02  0.35152154811E-01  0.35750994182E-01  0.10000000475E-02 0. -1.
</event>
<event>
 4   0  0.2441219E-02  0.9118800E+02  0.7818609E-02  0.1379984E+01
      -11   -1    0    0    0    0  0.00000000000E+00  0.00000000000E+00  0.35740347158E-01  0.35744000000E-01  0.51099999109E-03 0.  1.
       11   -1    0    0    0    0 -0.00000000000E+00 -0.00000000000E+00 -0.35740347158E-01  0.35744000000E-01  0.51099999109E-03 0. -1.
       22    1    1    2    0    0 -0.87455568285E-03 -0.89800290909E-02  0.34579297488E-01  0.35737005818E-01  0.00000000000E+00 0.  1.
  9000001    1    1    2    0    0  0.87455568285E-03  0.89800290909E-02 -0.34579297488E-01  0.35750994182E-01  0.10000000475E-02 0. -1.
</event>
<event>
 4   0  0.2441219E-02  0.9118800E+02  0.7818609E-02  0.1379984E+01
      -11   -1    0    0    0    0  0.00000000000E+00  0.00000000000E+00  0.35740347158E-01  0.35744000000E-01  0.51099999109E-03 0.  1.
       11   -1    0    0    0    0 -0.00000000000E+00 -0.00000000000E+00 -0.35740347158E-01  0.35744000000E-01  0.51099999109E-03 0. -1.
       22    1    1    2    0    0  0.47247757486E-02  0.21849587667E-02 -0.35355848656E-01  0.35737005818E-01  0.00000000000E+00 0. -1.
  9000001    1    1    2    0    0 -0.47247757486E-02 -0.21849587667E-02  0.35355848656E-01  0.35750994182E-01  0.10000000475E-02 0.  1.
</event>
<event>
 4   0  0.2441219E-02  0.9118800E+02  0.7818609E-02  0.1379984E+01
      -11   -1    0    0    0    0  0.00000000000E+00  0.00000000000E+00  0.35740347158E-01  0.35744000000E-01  0.51099999109E-03 0. -1.
       11   -1    0    0    0    0 -0.00000000000E+00 -0.00000000000E+00 -0.35740347158E-01  0.35744000000E-01  0.51099999109E-03 0.  1.
       22    1    1    2    0    0 -0.15369985573E-02 -0.17567419291E-01  0.31083066125E-01  0.35737005818E-01  0.00000000000E+00 0. -1.
  9000001    1    1    2    0    0  0.15369985573E-02  0.17567419291E-01 -0.31083066125E-01  0.35750994182E-01  0.10000000475E-02 0.  1.
</event>
<event>
 4   0  0.2441219E-02  0.9118800E+02  0.7818609E-02  0.1379984E+01
      -11   -1    0    0    0    0  0.00000000000E+00  0.00000000000E+00  0.35740347158E-01  0.35744000000E-01  0.51099999109E-03 0. -1.
       11   -1    0    0    0    0 -0.00000000000E+00 -0.00000000000E+00 -0.35740347158E-01  0.35744000000E-01  0.51099999109E-03 0.  1.
       22    1    1    2    0    0 -0.78503640514E-02  0.47923005712E-02  0.34533161228E-01  0.35737005818E-01  0.00000000000E+00 0. -1.
  9000001    1    1    2    0    0  0.78503640514E-02 -0.47923005712E-02 -0.34533161228E-01  0.35750994182E-01  0.10000000475E-02 0.  1.
</event>
<event>
 4   0  0.2441219E-02  0.9118800E+02  0.7818609E-02  0.1379984E+01
      -11   -1    0    0    0    0  0.00000000000E+00  0.00000000000E+00  0.35740347158E-01  0.35744000000E-01  0.51099999109E-03 0. -1.
       11   -1    0    0    0    0 -0.00000000000E+00 -0.00000000000E+00 -0.35740347158E-01  0.35744000000E-01  0.51099999109E-03 0.  1.
       22    1    1    2    0    0 -0.15167013159E-01  0.31666969082E-01 -0.66557017572E-02  0.35737005818E-01  0.00000000000E+00 0.  1.
  9000001    1    1    2    0    0  0.15167013159E-01 -0.31666969082E-01  0.66557017572E-02  0.35750994182E-01  0.10000000475E-02 0. -1.
</event>
<event>
 4   0  0.2441219E-02  0.9118800E+02  0.7818609E-02  0.1379984E+01
      -11   -1    0    0    0    0  0.00000000000E+00  0.00000000000E+00  0.35740347158E-01  0.35744000000E-01  0.51099999109E-03 0. -1.
       11   -1    0    0    0    0 -0.00000000000E+00 -0.00000000000E+00 -0.35740347158E-01  0.35744000000E-01  0.51099999109E-03 0.  1.
       22    1    1    2    0    0 -0.57703961659E-02  0.21544621859E-01  0.27922488820E-01  0.35737005818E-01  0.00000000000E+00 0. -1.
  9000001    1    1    2    0    0  0.57703961659E-02 -0.21544621859E-01 -0.27922488820E-01  0.35750994182E-01  0.10000000475E-02 0.  1.
</event>
<event>
 4   0  0.2441219E-02  0.9118800E+02  0.7818609E-02  0.1379984E+01
      -11   -1    0    0    0    0  0.00000000000E+00  0.00000000000E+00  0.35740347158E-01  0.35744000000E-01  0.51099999109E-03 0.  1.
       11   -1    0    0    0    0 -0.00000000000E+00 -0.00000000000E+00 -0.35740347158E-01  0.35744000000E-01  0.51099999109E-03 0. -1.
       22    1    1    2    0    0 -0.98503090760E-02 -0.30511874345E-03  0.34351301264E-01  0.35737005818E-01  0.00000000000E+00 0.  1.
  9000001    1    1    2    0    0  0.98503090760E-02  0.30511874345E-03 -0.34351301264E-01  0.35750994182E-01  0.10000000475E-02 0. -1.
</event>
<event>
 4   0  0.2441219E-02  0.9118800E+02  0.7818609E-02  0.1379984E+01
      -11   -1    0    0    0    0  0.00000000000E+00  0.00000000000E+00  0.35740347158E-01  0.35744000000E-01  0.51099999109E-03 0.  1.
       11   -1    0    0    0    0 -0.00000000000E+00 -0.00000000000E+00 -0.35740347158E-01  0.35744000000E-01  0.51099999109E-03 0. -1.
       22    1    1    2    0    0 -0.87313575167E-02 -0.17007737877E-01  0.30193274633E-01  0.35737005818E-01  0.00000000000E+00 0.  1.
  9000001    1    1    2    0    0  0.87313575167E-02  0.17007737877E-01 -0.30193274633E-01  0.35750994182E-01  0.10000000475E-02 0. -1.
</event>
<event>
 4   0  0.2441219E-02  0.9118800E+02  0.7818609E-02  0.1379984E+01
      -11   -1    0    0    0    0  0.00000000000E+00  0.00000000000E+00  0.35740347158E-01  0.35744000000E-01  0.51099999109E-03 0. -1.
       11   -1    0    0    0    0 -0.00000000000E+00 -0.00000000000E+00 -0.35740347158E-01  0.35744000000E-01  0.51099999109E-03 0. -1.
       22    1    1    2    0    0  0.61737318363E-02  0.41378769131E-03  0.35197264096E-01  0.35737005818E-01  0.00000000000E+00 0. -1.
  9000001    1    1    2    0    0 -0.61737318363E-02 -0.41378769131E-03 -0.35197264096E-01  0.35750994182E-01  0.10000000475E-02 0. -1.
</event>
<event>
 4   0  0.2441219E-02  0.9118800E+02  0.7818609E-02  0.1379984E+01
      -11   -1    0    0    0    0  0.00000000000E+00  0.00000000000E+00  0.35740347158E-01  0.35744000000E-01  0.51099999109E-03 0.  1.
       11   -1    0    0    0    0 -0.00000000000E+00 -0.00000000000E+00 -0.35740347158E-01  0.35744000000E-01  0.51099999109E-03 0. -1.
       22    1    1    2    0    0  0.89129072114E-02 -0.13111593864E-01  0.32027796931E-01  0.35737005818E-01  0.00000000000E+00 0.  1.
  9000001    1    1    2    0    0 -0.89129072114E-02  0.13111593864E-01 -0.32027796931E-01  0.35750994182E-01  0.10000000475E-02 0. -1.
</event>
<event>
 4   0  0.2441219E-02  0.9118800E+02  0.7818609E-02  0.1379984E+01
      -11   -1    0    0    0    0  0.00000000000E+00  0.00000000000E+00  0.35740347158E-01  0.35744000000E-01  0.51099999109E-03 0.  1.
       11   -1    0    0    0    0 -0.00000000000E+00 -0.00000000000E+00 -0.35740347158E-01  0.35744000000E-01  0.51099999109E-03 0. -1.
       22    1    1    2    0    0 -0.35731565815E-02  0.16890553962E-02 -0.35517787498E-01  0.35737005818E-01  0.00000000000E+00 0. -1.
  9000001    1    1    2    0    0  0.35731565815E-02 -0.16890553962E-02  0.35517787498E-01  0.35750994182E-01  0.10000000475E-02 0.  1.
</event>
<event>
 4   0  0.2441219E-02  0.9118800E+02  0.7818609E-02  0.1379984E+01
      -11   -1    0    0    0    0  0.00000000000E+00  0.00000000000E+00  0.35740347158E-01  0.35744000000E-01  0.51099999109E-03 0.  1.
       11   -1    0    0    0    0 -0.00000000000E+00 -0.00000000000E+00 -0.35740347158E-01  0.35744000000E-01  0.51099999109E-03 0. -1.
       22    1    1    2    0    0 -0.12281945741E-01 -0.81876969349E-02  0.32546105951E-01  0.35737005818E-01  0.00000000000E+00 0.  1.
  9000001    1    1    2    0    0  0.12281945741E-01  0.81876969349E-02 -0.32546105951E-01  0.35750994182E-01  0.10000000475E-02 0. -1.
</event>
<event>
 4   0  0.2441219E-02  0.9118800E+02  0.7818609E-02  0.1379984E+01
      -11   -1    0    0    0    0  0.00000000000E+00  0.00000000000E+00  0.35740347158E-01  0.35744000000E-01  0.51099999109E-03 0. -1.
       11   -1    0    0    0    0 -0.00000000000E+00 -0.00000000000E+00 -0.35740347158E-01  0.35744000000E-01  0.51099999109E-03 0.  1.
       22    1    1    2    0    0  0.35142353167E-01 -0.31663949708E-02  0.56676751538E-02  0.35737005818E-01  0.00000000000E+00 0. -1.
  9000001    1    1    2    0    0 -0.35142353167E-01  0.31663949708E-02 -0.56676751538E-02  0.35750994182E-01  0.10000000475E-02 0.  1.
</event>
<event>
 4   0  0.2441219E-02  0.9118800E+02  0.7818609E-02  0.1379984E+01
      -11   -1    0    0    0    0  0.00000000000E+00  0.00000000000E+00  0.35740347158E-01  0.35744000000E-01  0.51099999109E-03 0.  1.
       11   -1    0    0    0    0 -0.00000000000E+00 -0.00000000000E+00 -0.35740347158E-01  0.35744000000E-01  0.51099999109E-03 0. -1.
       22    1    1    2    0    0 -0.14917894926E-01 -0.25246600452E-01 -0.20425453764E-01  0.35737005818E-01  0.00000000000E+00 0. -1.
  9000001    1    1    2    0    0  0.14917894926E-01  0.25246600452E-01  0.20425453764E-01  0.35750994182E-01  0.10000000475E-02 0.  1.
</event>
<event>
 4   0  0.2441219E-02  0.9118800E+02  0.7818609E-02  0.1379984E+01
      -11   -1    0    0    0    0  0.00000000000E+00  0.00000000000E+00  0.35740347158E-01  0.35744000000E-01  0.51099999109E-03 0. -1.
       11   -1    0    0    0    0 -0.00000000000E+00 -0.00000000000E+00 -0.35740347158E-01  0.35744000000E-01  0.51099999109E-03 0.  1.
       22    1    1    2    0    0 -0.14365329073E-01  0.27456263054E-01 -0.17802374127E-01  0.35737005818E-01  0.00000000000E+00 0.  1.
  9000001    1    1    2    0    0  0.14365329073E-01 -0.27456263054E-01  0.17802374127E-01  0.35750994182E-01  0.10000000475E-02 0. -1.
</event>
<event>
 4   0  0.2441219E-02  0.9118800E+02  0.7818609E-02  0.1379984E+01
      -11   -1    0    0    0    0  0.00000000000E+00  0.00000000000E+00  0.35740347158E-01  0.35744000000E-01  0.51099999109E-03 0.  1.
       11   -1    0    0    0    0 -0.00000000000E+00 -0.00000000000E+00 -0.35740347158E-01  0.35744000000E-01  0.51099999109E-03 0. -1.
       22    1    1    2    0    0  0.94193494036E-03  0.48578009607E-02  0.35392769223E-01  0.35737005818E-01  0.00000000000E+00 0.  1.
  9000001    1    1    2    0    0 -0.94193494036E-03 -0.48578009607E-02 -0.35392769223E-01  0.35750994182E-01  0.10000000475E-02 0. -1.
</event>
<event>
 4   0  0.2441219E-02  0.9118800E+02  0.7818609E-02  0.1379984E+01
      -11   -1    0    0    0    0  0.00000000000E+00  0.00000000000E+00  0.35740347158E-01  0.35744000000E-01  0.51099999109E-03 0. -1.
       11   -1    0    0    0    0 -0.00000000000E+00 -0.00000000000E+00 -0.35740347158E-01  0.35744000000E-01  0.51099999109E-03 0.  1.
       22    1    1    2    0    0 -0.23101490337E-01 -0.27160107027E-01  0.24048524586E-02  0.35737005818E-01  0.00000000000E+00 0.  1.
  9000001    1    1    2    0    0  0.23101490337E-01  0.27160107027E-01 -0.24048524586E-02  0.35750994182E-01  0.10000000475E-02 0. -1.
</event>
<event>
 4   0  0.2441219E-02  0.9118800E+02  0.7818609E-02  0.1379984E+01
      -11   -1    0    0    0    0  0.00000000000E+00  0.00000000000E+00  0.35740347158E-01  0.35744000000E-01  0.51099999109E-03 0.  1.
       11   -1    0    0    0    0 -0.00000000000E+00 -0.00000000000E+00 -0.35740347158E-01  0.35744000000E-01  0.51099999109E-03 0. -1.
       22    1    1    2    0    0 -0.14242084361E-01  0.15399957272E-01  0.28933336032E-01  0.35737005818E-01  0.00000000000E+00 0.  1.
  9000001    1    1    2    0    0  0.14242084361E-01 -0.15399957272E-01 -0.28933336032E-01  0.35750994182E-01  0.10000000475E-02 0. -1.
</event>
<event>
 4   0  0.2441219E-02  0.9118800E+02  0.7818609E-02  0.1379984E+01
      -11   -1    0    0    0    0  0.00000000000E+00  0.00000000000E+00  0.35740347158E-01  0.35744000000E-01  0.51099999109E-03 0.  1.
       11   -1    0    0    0    0 -0.00000000000E+00 -0.00000000000E+00 -0.35740347158E-01  0.35744000000E-01  0.51099999109E-03 0. -1.
       22    1    1    2    0    0  0.35203231394E-01  0.29117659267E-02  0.54210426536E-02  0.35737005818E-01  0.00000000000E+00 0.  1.
  9000001    1    1    2    0    0 -0.35203231394E-01 -0.29117659267E-02 -0.54210426536E-02  0.35750994182E-01  0.10000000475E-02 0. -1.
</event>
<event>
 4   0  0.2441219E-02  0.9118800E+02  0.7818609E-02  0.1379984E+01
      -11   -1    0    0    0    0  0.00000000000E+00  0.00000000000E+00  0.35740347158E-01  0.35744000000E-01  0.51099999109E-03 0.  1.
       11   -1    0    0    0    0 -0.00000000000E+00 -0.00000000000E+00 -0.35740347158E-01  0.35744000000E-01  0.51099999109E-03 0. -1.
       22    1    1    2    0    0 -0.19120826140E-01  0.25477965783E-01 -0.16198791688E-01  0.35737005818E-01  0.00000000000E+00 0. -1.
  9000001    1    1    2    0    0  0.19120826140E-01 -0.25477965783E-01  0.16198791688E-01  0.35750994182E-01  0.10000000475E-02 0.  1.
</event>
<event>
 4   0  0.2441219E-02  0.9118800E+02  0.7818609E-02  0.1379984E+01
      -11   -1    0    0    0    0  0.00000000000E+00  0.00000000000E+00  0.35740347158E-01  0.35744000000E-01  0.51099999109E-03 0.  1.
       11   -1    0    0    0    0 -0.00000000000E+00 -0.00000000000E+00 -0.35740347158E-01  0.35744000000E-01  0.51099999109E-03 0. -1.
       22    1    1    2    0    0  0.18308602269E-02  0.27071575091E-02 -0.35587256623E-01  0.35737005818E-01  0.00000000000E+00 0. -1.
  9000001    1    1    2    0    0 -0.18308602269E-02 -0.27071575091E-02  0.35587256623E-01  0.35750994182E-01  0.10000000475E-02 0.  1.
</event>
<event>
 4   0  0.2441219E-02  0.9118800E+02  0.7818609E-02  0.1379984E+01
      -11   -1    0    0    0    0  0.00000000000E+00  0.00000000000E+00  0.35740347158E-01  0.35744000000E-01  0.51099999109E-03 0.  1.
       11   -1    0    0    0    0 -0.00000000000E+00 -0.00000000000E+00 -0.35740347158E-01  0.35744000000E-01  0.51099999109E-03 0. -1.
       22    1    1    2    0    0 -0.39488048865E-02 -0.32896642322E-03  0.35516648292E-01  0.35737005818E-01  0.00000000000E+00 0.  1.
  9000001    1    1    2    0    0  0.39488048865E-02  0.32896642322E-03 -0.35516648292E-01  0.35750994182E-01  0.10000000475E-02 0. -1.
</event>
<event>
 4   0  0.2441219E-02  0.9118800E+02  0.7818609E-02  0.1379984E+01
      -11   -1    0    0    0    0  0.00000000000E+00  0.00000000000E+00  0.35740347158E-01  0.35744000000E-01  0.51099999109E-03 0. -1.
       11   -1    0    0    0    0 -0.00000000000E+00 -0.00000000000E+00 -0.35740347158E-01  0.35744000000E-01  0.51099999109E-03 0.  1.
       22    1    1    2    0    0  0.88149048016E-02  0.16481223380E-02  0.34593564878E-01  0.35737005818E-01  0.00000000000E+00 0. -1.
  9000001    1    1    2    0    0 -0.88149048016E-02 -0.16481223380E-02 -0.34593564878E-01  0.35750994182E-01  0.10000000475E-02 0.  1.
</event>
<event>
 4   0  0.2441219E-02  0.9118800E+02  0.7818609E-02  0.1379984E+01
      -11   -1    0    0    0    0  0.00000000000E+00  0.00000000000E+00  0.35740347158E-01  0.35744000000E-01  0.51099999109E-03 0.  1.
       11   -1    0    0    0    0 -0.00000000000E+00 -0.00000000000E+00 -0.35740347158E-01  0.35744000000E-01  0.51099999109E-03 0. -1.
       22    1    1    2    0    0  0.14980603373E-01 -0.40170513110E-02  0.32195937728E-01  0.35737005818E-01  0.00000000000E+00 0.  1.
  9000001    1    1    2    0    0 -0.14980603373E-01  0.40170513110E-02 -0.32195937728E-01  0.35750994182E-01  0.10000000475E-02 0. -1.
</event>
<event>
 4   0  0.2441219E-02  0.9118800E+02  0.7818609E-02  0.1379984E+01
      -11   -1    0    0    0    0  0.00000000000E+00  0.00000000000E+00  0.35740347158E-01  0.35744000000E-01  0.51099999109E-03 0. -1.
       11   -1    0    0    0    0 -0.00000000000E+00 -0.00000000000E+00 -0.35740347158E-01  0.35744000000E-01  0.51099999109E-03 0.  1.
       22    1    1    2    0    0 -0.25162230693E-01  0.19380112644E-01 -0.16383130511E-01  0.35737005818E-01  0.00000000000E+00 0.  1.
  9000001    1    1    2    0    0  0.25162230693E-01 -0.19380112644E-01  0.16383130511E-01  0.35750994182E-01  0.10000000475E-02 0. -1.
</event>
<event>
 4   0  0.2441219E-02  0.9118800E+02  0.7818609E-02  0.1379984E+01
      -11   -1    0    0    0    0  0.00000000000E+00  0.00000000000E+00  0.35740347158E-01  0.35744000000E-01  0.51099999109E-03 0.  1.
       11   -1    0    0    0    0 -0.00000000000E+00 -0.00000000000E+00 -0.35740347158E-01  0.35744000000E-01  0.51099999109E-03 0. -1.
       22    1    1    2    0    0 -0.10632499456E-01 -0.28454763110E-02 -0.33999805952E-01  0.35737005818E-01  0.00000000000E+00 0. -1.
  9000001    1    1    2    0    0  0.10632499456E-01  0.28454763110E-02  0.33999805952E-01  0.35750994182E-01  0.10000000475E-02 0.  1.
</event>
<event>
 4   0  0.2441219E-02  0.9118800E+02  0.7818609E-02  0.1379984E+01
      -11   -1    0    0    0    0  0.00000000000E+00  0.00000000000E+00  0.35740347158E-01  0.35744000000E-01  0.51099999109E-03 0.  1.
       11   -1    0    0    0    0 -0.00000000000E+00 -0.00000000000E+00 -0.35740347158E-01  0.35744000000E-01  0.51099999109E-03 0. -1.
       22    1    1    2    0    0 -0.42280270139E-02  0.22016270650E-02 -0.35417653941E-01  0.35737005818E-01  0.00000000000E+00 0. -1.
  9000001    1    1    2    0    0  0.42280270139E-02 -0.22016270650E-02  0.35417653941E-01  0.35750994182E-01  0.10000000475E-02 0.  1.
</event>
<event>
 4   0  0.2441219E-02  0.9118800E+02  0.7818609E-02  0.1379984E+01
      -11   -1    0    0    0    0  0.00000000000E+00  0.00000000000E+00  0.35740347158E-01  0.35744000000E-01  0.51099999109E-03 0.  1.
       11   -1    0    0    0    0 -0.00000000000E+00 -0.00000000000E+00 -0.35740347158E-01  0.35744000000E-01  0.51099999109E-03 0. -1.
       22    1    1    2    0    0  0.54584079601E-02  0.31551001392E-02  0.35176479507E-01  0.35737005818E-01  0.00000000000E+00 0.  1.
  9000001    1    1    2    0    0 -0.54584079601E-02 -0.31551001392E-02 -0.35176479507E-01  0.35750994182E-01  0.10000000475E-02 0. -1.
</event>
<event>
 4   0  0.2441219E-02  0.9118800E+02  0.7818609E-02  0.1379984E+01
      -11   -1    0    0    0    0  0.00000000000E+00  0.00000000000E+00  0.35740347158E-01  0.35744000000E-01  0.51099999109E-03 0. -1.
       11   -1    0    0    0    0 -0.00000000000E+00 -0.00000000000E+00 -0.35740347158E-01  0.35744000000E-01  0.51099999109E-03 0.  1.
       22    1    1    2    0    0 -0.60004578886E-02  0.70418778408E-02 -0.34518691262E-01  0.35737005818E-01  0.00000000000E+00 0.  1.
  9000001    1    1    2    0    0  0.60004578886E-02 -0.70418778408E-02  0.34518691262E-01  0.35750994182E-01  0.10000000475E-02 0. -1.
</event>
<event>
 4   0  0.2441219E-02  0.9118800E+02  0.7818609E-02  0.1379984E+01
      -11   -1    0    0    0    0  0.00000000000E+00  0.00000000000E+00  0.35740347158E-01  0.35744000000E-01  0.51099999109E-03 0. -1.
       11   -1    0    0    0    0 -0.00000000000E+00 -0.00000000000E+00 -0.35740347158E-01  0.35744000000E-01  0.51099999109E-03 0.  1.
       22    1    1    2    0    0  0.53508734991E-03 -0.46286202973E-02  0.35431950843E-01  0.35737005818E-01  0.00000000000E+00 0. -1.
  9000001    1    1    2    0    0 -0.53508734991E-03  0.46286202973E-02 -0.35431950843E-01  0.35750994182E-01  0.10000000475E-02 0.  1.
</event>
<event>
 4   0  0.2441219E-02  0.9118800E+02  0.7818609E-02  0.1379984E+01
      -11   -1    0    0    0    0  0.00000000000E+00  0.00000000000E+00  0.35740347158E-01  0.35744000000E-01  0.51099999109E-03 0.  1.
       11   -1    0    0    0    0 -0.00000000000E+00 -0.00000000000E+00 -0.35740347158E-01  0.35744000000E-01  0.51099999109E-03 0. -1.
       22    1    1    2    0    0 -0.24253892860E-01 -0.64476331589E-02  0.25442293384E-01  0.35737005818E-01  0.00000000000E+00 0.  1.
  9000001    1    1    2    0    0  0.24253892860E-01  0.64476331589E-02 -0.25442293384E-01  0.35750994182E-01  0.10000000475E-02 0. -1.
</event>
<event>
 4   0  0.2441219E-02  0.9118800E+02  0.7818609E-02  0.1379984E+01
      -11   -1    0    0    0    0  0.00000000000E+00  0.00000000000E+00  0.35740347158E-01  0.35744000000E-01  0.51099999109E-03 0. -1.
       11   -1    0    0    0    0 -0.00000000000E+00 -0.00000000000E+00 -0.35740347158E-01  0.35744000000E-01  0.51099999109E-03 0.  1.
       22    1    1    2    0    0 -0.23387727468E-02 -0.20809894479E-02 -0.35599623732E-01  0.35737005818E-01  0.00000000000E+00 0.  1.
  9000001    1    1    2    0    0  0.23387727468E-02  0.20809894479E-02  0.35599623732E-01  0.35750994182E-01  0.10000000475E-02 0. -1.
</event>
<event>
 4   0  0.2441219E-02  0.9118800E+02  0.7818609E-02  0.1379984E+01
      -11   -1    0    0    0    0  0.00000000000E+00  0.00000000000E+00  0.35740347158E-01  0.35744000000E-01  0.51099999109E-03 0.  1.
       11   -1    0    0    0    0 -0.00000000000E+00 -0.00000000000E+00 -0.35740347158E-01  0.35744000000E-01  0.51099999109E-03 0. -1.
       22    1    1    2    0    0 -0.29247894639E-01 -0.29330966403E-02  0.20324644847E-01  0.35737005818E-01  0.00000000000E+00 0.  1.
  9000001    1    1    2    0    0  0.29247894639E-01  0.29330966403E-02 -0.20324644847E-01  0.35750994182E-01  0.10000000475E-02 0. -1.
</event>
<event>
 4   0  0.2441219E-02  0.9118800E+02  0.7818609E-02  0.1379984E+01
      -11   -1    0    0    0    0  0.00000000000E+00  0.00000000000E+00  0.35740347158E-01  0.35744000000E-01  0.51099999109E-03 0.  1.
       11   -1    0    0    0    0 -0.00000000000E+00 -0.00000000000E+00 -0.35740347158E-01  0.35744000000E-01  0.51099999109E-03 0. -1.
       22    1    1    2    0    0  0.31665801225E-01 -0.10624167587E-01  0.12709747469E-01  0.35737005818E-01  0.00000000000E+00 0.  1.
  9000001    1    1    2    0    0 -0.31665801225E-01  0.10624167587E-01 -0.12709747469E-01  0.35750994182E-01  0.10000000475E-02 0. -1.
</event>
<event>
 4   0  0.2441219E-02  0.9118800E+02  0.7818609E-02  0.1379984E+01
      -11   -1    0    0    0    0  0.00000000000E+00  0.00000000000E+00  0.35740347158E-01  0.35744000000E-01  0.51099999109E-03 0.  1.
       11   -1    0    0    0    0 -0.00000000000E+00 -0.00000000000E+00 -0.35740347158E-01  0.35744000000E-01  0.51099999109E-03 0. -1.
       22    1    1    2    0    0  0.14482333285E-02 -0.21769708873E-01 -0.28303992310E-01  0.35737005818E-01  0.00000000000E+00 0. -1.
  9000001    1    1    2    0    0 -0.14482333285E-02  0.21769708873E-01  0.28303992310E-01  0.35750994182E-01  0.10000000475E-02 0.  1.
</event>
<event>
 4   0  0.2441219E-02  0.9118800E+02  0.7818609E-02  0.1379984E+01
      -11   -1    0    0    0    0  0.00000000000E+00  0.00000000000E+00  0.35740347158E-01  0.35744000000E-01  0.51099999109E-03 0.  1.
       11   -1    0    0    0    0 -0.00000000000E+00 -0.00000000000E+00 -0.35740347158E-01  0.35744000000E-01  0.51099999109E-03 0. -1.
       22    1    1    2    0    0 -0.11734879345E-01 -0.15375013522E-02  0.33720354109E-01  0.35737005818E-01  0.00000000000E+00 0.  1.
  9000001    1    1    2    0    0  0.11734879345E-01  0.15375013522E-02 -0.33720354109E-01  0.35750994182E-01  0.10000000475E-02 0. -1.
</event>
<event>
 4   0  0.2441219E-02  0.9118800E+02  0.7818609E-02  0.1379984E+01
      -11   -1    0    0    0    0  0.00000000000E+00  0.00000000000E+00  0.35740347158E-01  0.35744000000E-01  0.51099999109E-03 0. -1.
       11   -1    0    0    0    0 -0.00000000000E+00 -0.00000000000E+00 -0.35740347158E-01  0.35744000000E-01  0.51099999109E-03 0.  1.
       22    1    1    2    0    0 -0.47405621438E-02  0.38004139392E-03  0.35419150526E-01  0.35737005818E-01  0.00000000000E+00 0. -1.
  9000001    1    1    2    0    0  0.47405621438E-02 -0.38004139392E-03 -0.35419150526E-01  0.35750994182E-01  0.10000000475E-02 0.  1.
</event>
<event>
 4   0  0.2441219E-02  0.9118800E+02  0.7818609E-02  0.1379984E+01
      -11   -1    0    0    0    0  0.00000000000E+00  0.00000000000E+00  0.35740347158E-01  0.35744000000E-01  0.51099999109E-03 0. -1.
       11   -1    0    0    0    0 -0.00000000000E+00 -0.00000000000E+00 -0.35740347158E-01  0.35744000000E-01  0.51099999109E-03 0.  1.
       22    1    1    2    0    0  0.28446429650E-01  0.20463615066E-01  0.70124662916E-02  0.35737005818E-01  0.00000000000E+00 0. -1.
  9000001    1    1    2    0    0 -0.28446429650E-01 -0.20463615066E-01 -0.70124662916E-02  0.35750994182E-01  0.10000000475E-02 0.  1.
</event>
<event>
 4   0  0.2441219E-02  0.9118800E+02  0.7818609E-02  0.1379984E+01
      -11   -1    0    0    0    0  0.00000000000E+00  0.00000000000E+00  0.35740347158E-01  0.35744000000E-01  0.51099999109E-03 0. -1.
       11   -1    0    0    0    0 -0.00000000000E+00 -0.00000000000E+00 -0.35740347158E-01  0.35744000000E-01  0.51099999109E-03 0.  1.
       22    1    1    2    0    0  0.11837306127E-03  0.32302571946E-02  0.35590518557E-01  0.35737005818E-01  0.00000000000E+00 0. -1.
  9000001    1    1    2    0    0 -0.11837306127E-03 -0.32302571946E-02 -0.35590518557E-01  0.35750994182E-01  0.10000000475E-02 0.  1.
</event>
<event>
 4   0  0.2441219E-02  0.9118800E+02  0.7818609E-02  0.1379984E+01
      -11   -1    0    0    0    0  0.00000000000E+00  0.00000000000E+00  0.35740347158E-01  0.35744000000E-01  0.51099999109E-03 0.  1.
       11   -1    0    0    0    0 -0.00000000000E+00 -0.00000000000E+00 -0.35740347158E-01  0.35744000000E-01  0.51099999109E-03 0. -1.
       22    1    1    2    0    0  0.34747592210E-01  0.58084171587E-02 -0.60000592135E-02  0.35737005818E-01  0.00000000000E+00 0. -1.
  9000001    1    1    2    0    0 -0.34747592210E-01 -0.58084171587E-02  0.60000592135E-02  0.35750994182E-01  0.10000000475E-02 0.  1.
</event>
<event>
 4   0  0.2441219E-02  0.9118800E+02  0.7818609E-02  0.1379984E+01
      -11   -1    0    0    0    0  0.00000000000E+00  0.00000000000E+00  0.35740347158E-01  0.35744000000E-01  0.51099999109E-03 0. -1.
       11   -1    0    0    0    0 -0.00000000000E+00 -0.00000000000E+00 -0.35740347158E-01  0.35744000000E-01  0.51099999109E-03 0.  1.
       22    1    1    2    0    0 -0.61499524698E-02  0.54643354010E-02  0.34777186604E-01  0.35737005818E-01  0.00000000000E+00 0. -1.
  9000001    1    1    2    0    0  0.61499524698E-02 -0.54643354010E-02 -0.34777186604E-01  0.35750994182E-01  0.10000000475E-02 0.  1.
</event>
<event>
 4   0  0.2441219E-02  0.9118800E+02  0.7818609E-02  0.1379984E+01
      -11   -1    0    0    0    0  0.00000000000E+00  0.00000000000E+00  0.35740347158E-01  0.35744000000E-01  0.51099999109E-03 0. -1.
       11   -1    0    0    0    0 -0.00000000000E+00 -0.00000000000E+00 -0.35740347158E-01  0.35744000000E-01  0.51099999109E-03 0.  1.
       22    1    1    2    0    0 -0.94193038177E-03  0.53089811850E-02  0.35327907818E-01  0.35737005818E-01  0.00000000000E+00 0. -1.
  9000001    1    1    2    0    0  0.94193038177E-03 -0.53089811850E-02 -0.35327907818E-01  0.35750994182E-01  0.10000000475E-02 0.  1.
</event>
<event>
 4   0  0.2441219E-02  0.9118800E+02  0.7818609E-02  0.1379984E+01
      -11   -1    0    0    0    0  0.00000000000E+00  0.00000000000E+00  0.35740347158E-01  0.35744000000E-01  0.51099999109E-03 0. -1.
       11   -1    0    0    0    0 -0.00000000000E+00 -0.00000000000E+00 -0.35740347158E-01  0.35744000000E-01  0.51099999109E-03 0.  1.
       22    1    1    2    0    0  0.23983709732E-02  0.12533602146E-01 -0.33380985887E-01  0.35737005818E-01  0.00000000000E+00 0.  1.
  9000001    1    1    2    0    0 -0.23983709732E-02 -0.12533602146E-01  0.33380985887E-01  0.35750994182E-01  0.10000000475E-02 0. -1.
</event>
<event>
 4   0  0.2441219E-02  0.9118800E+02  0.7818609E-02  0.1379984E+01
      -11   -1    0    0    0    0  0.00000000000E+00  0.00000000000E+00  0.35740347158E-01  0.35744000000E-01  0.51099999109E-03 0.  1.
       11   -1    0    0    0    0 -0.00000000000E+00 -0.00000000000E+00 -0.35740347158E-01  0.35744000000E-01  0.51099999109E-03 0. -1.
       22    1    1    2    0    0  0.82467199708E-02  0.16302702272E-01 -0.30713956001E-01  0.35737005818E-01  0.00000000000E+00 0. -1.
  9000001    1    1    2    0    0 -0.82467199708E-02 -0.16302702272E-01  0.30713956001E-01  0.35750994182E-01  0.10000000475E-02 0.  1.
</event>
<event>
 4   0  0.2441219E-02  0.9118800E+02  0.7818609E-02  0.1379984E+01
      -11   -1    0    0    0    0  0.00000000000E+00  0.00000000000E+00  0.35740347158E-01  0.35744000000E-01  0.51099999109E-03 0.  1.
       11   -1    0    0    0    0 -0.00000000000E+00 -0.00000000000E+00 -0.35740347158E-01  0.35744000000E-01  0.51099999109E-03 0. -1.
       22    1    1    2    0    0  0.83364706445E-02  0.21986866521E-02  0.34681444882E-01  0.35737005818E-01  0.00000000000E+00 0.  1.
  9000001    1    1    2    0    0 -0.83364706445E-02 -0.21986866521E-02 -0.34681444882E-01  0.35750994182E-01  0.10000000475E-02 0. -1.
</event>
<event>
 4   0  0.2441219E-02  0.9118800E+02  0.7818609E-02  0.1379984E+01
      -11   -1    0    0    0    0  0.00000000000E+00  0.00000000000E+00  0.35740347158E-01  0.35744000000E-01  0.51099999109E-03 0.  1.
       11   -1    0    0    0    0 -0.00000000000E+00 -0.00000000000E+00 -0.35740347158E-01  0.35744000000E-01  0.51099999109E-03 0. -1.
       22    1    1    2    0    0 -0.29251244143E-02 -0.42935986610E-02  0.35357350616E-01  0.35737005818E-01  0.00000000000E+00 0.  1.
  9000001    1    1    2    0    0  0.29251244143E-02  0.42935986610E-02 -0.35357350616E-01  0.35750994182E-01  0.10000000475E-02 0. -1.
</event>
<event>
 4   0  0.2441219E-02  0.9118800E+02  0.7818609E-02  0.1379984E+01
      -11   -1    0    0    0    0  0.00000000000E+00  0.00000000000E+00  0.35740347158E-01  0.35744000000E-01  0.51099999109E-03 0.  1.
       11   -1    0    0    0    0 -0.00000000000E+00 -0.00000000000E+00 -0.35740347158E-01  0.35744000000E-01  0.51099999109E-03 0. -1.
       22    1    1    2    0    0 -0.42072276103E-02  0.46107491228E-02  0.35187694060E-01  0.35737005818E-01  0.00000000000E+00 0.  1.
  9000001    1    1    2    0    0  0.42072276103E-02 -0.46107491228E-02 -0.35187694060E-01  0.35750994182E-01  0.10000000475E-02 0. -1.
</event>
<event>
 4   0  0.2441219E-02  0.9118800E+02  0.7818609E-02  0.1379984E+01
      -11   -1    0    0    0    0  0.00000000000E+00  0.00000000000E+00  0.35740347158E-01  0.35744000000E-01  0.51099999109E-03 0.  1.
       11   -1    0    0    0    0 -0.00000000000E+00 -0.00000000000E+00 -0.35740347158E-01  0.35744000000E-01  0.51099999109E-03 0. -1.
       22    1    1    2    0    0  0.14476954464E-01  0.77632130282E-02  0.31737736179E-01  0.35737005818E-01  0.00000000000E+00 0.  1.
  9000001    1    1    2    0    0 -0.14476954464E-01 -0.77632130282E-02 -0.31737736179E-01  0.35750994182E-01  0.10000000475E-02 0. -1.
</event>
<event>
 4   0  0.2441219E-02  0.9118800E+02  0.7818609E-02  0.1379984E+01
      -11   -1    0    0    0    0  0.00000000000E+00  0.00000000000E+00  0.35740347158E-01  0.35744000000E-01  0.51099999109E-03 0. -1.
       11   -1    0    0    0    0 -0.00000000000E+00 -0.00000000000E+00 -0.35740347158E-01  0.35744000000E-01  0.51099999109E-03 0.  1.
       22    1    1    2    0    0 -0.17366041667E-01 -0.59971659013E-02  0.30652702701E-01  0.35737005818E-01  0.00000000000E+00 0. -1.
  9000001    1    1    2    0    0  0.17366041667E-01  0.59971659013E-02 -0.30652702701E-01  0.35750994182E-01  0.10000000475E-02 0.  1.
</event>
<event>
 4   0  0.2441219E-02  0.9118800E+02  0.7818609E-02  0.1379984E+01
      -11   -1    0    0    0    0  0.00000000000E+00  0.00000000000E+00  0.35740347158E-01  0.35744000000E-01  0.51099999109E-03 0. -1.
       11   -1    0    0    0    0 -0.00000000000E+00 -0.00000000000E+00 -0.35740347158E-01  0.35744000000E-01  0.51099999109E-03 0.  1.
       22    1    1    2    0    0 -0.50691801422E-02 -0.81061009834E-02  0.34434403210E-01  0.35737005818E-01  0.00000000000E+00 0. -1.
  9000001    1    1    2    0    0  0.50691801422E-02  0.81061009834E-02 -0.34434403210E-01  0.35750994182E-01  0.10000000475E-02 0.  1.
</event>
<event>
 4   0  0.2441219E-02  0.9118800E+02  0.7818609E-02  0.1379984E+01
      -11   -1    0    0    0    0  0.00000000000E+00  0.00000000000E+00  0.35740347158E-01  0.35744000000E-01  0.51099999109E-03 0.  1.
       11   -1    0    0    0    0 -0.00000000000E+00 -0.00000000000E+00 -0.35740347158E-01  0.35744000000E-01  0.51099999109E-03 0. -1.
       22    1    1    2    0    0  0.65397202184E-02  0.28219493435E-01 -0.20929066740E-01  0.35737005818E-01  0.00000000000E+00 0. -1.
  9000001    1    1    2    0    0 -0.65397202184E-02 -0.28219493435E-01  0.20929066740E-01  0.35750994182E-01  0.10000000475E-02 0.  1.
</event>
<event>
 4   0  0.2441219E-02  0.9118800E+02  0.7818609E-02  0.1379984E+01
      -11   -1    0    0    0    0  0.00000000000E+00  0.00000000000E+00  0.35740347158E-01  0.35744000000E-01  0.51099999109E-03 0. -1.
       11   -1    0    0    0    0 -0.00000000000E+00 -0.00000000000E+00 -0.35740347158E-01  0.35744000000E-01  0.51099999109E-03 0.  1.
       22    1    1    2    0    0 -0.31566819981E-02  0.75605936732E-02  0.34785145780E-01  0.35737005818E-01  0.00000000000E+00 0. -1.
  9000001    1    1    2    0    0  0.31566819981E-02 -0.75605936732E-02 -0.34785145780E-01  0.35750994182E-01  0.10000000475E-02 0.  1.
</event>
<event>
 4   0  0.2441219E-02  0.9118800E+02  0.7818609E-02  0.1379984E+01
      -11   -1    0    0    0    0  0.00000000000E+00  0.00000000000E+00  0.35740347158E-01  0.35744000000E-01  0.51099999109E-03 0. -1.
       11   -1    0    0    0    0 -0.00000000000E+00 -0.00000000000E+00 -0.35740347158E-01  0.35744000000E-01  0.51099999109E-03 0.  1.
       22    1    1    2    0    0  0.85643144165E-02  0.16828337905E-02 -0.34654785728E-01  0.35737005818E-01  0.00000000000E+00 0.  1.
  9000001    1    1    2    0    0 -0.85643144165E-02 -0.16828337905E-02  0.34654785728E-01  0.35750994182E-01  0.10000000475E-02 0. -1.
</event>
<event>
 4   0  0.2441219E-02  0.9118800E+02  0.7818609E-02  0.1379984E+01
      -11   -1    0    0    0    0  0.00000000000E+00  0.00000000000E+00  0.35740347158E-01  0.35744000000E-01  0.51099999109E-03 0.  1.
       11   -1    0    0    0    0 -0.00000000000E+00 -0.00000000000E+00 -0.35740347158E-01  0.35744000000E-01  0.51099999109E-03 0. -1.
       22    1    1    2    0    0 -0.95174678782E-02 -0.23185148740E-01 -0.25475483665E-01  0.35737005818E-01  0.00000000000E+00 0. -1.
  9000001    1    1    2    0    0  0.95174678782E-02  0.23185148740E-01  0.25475483665E-01  0.35750994182E-01  0.10000000475E-02 0.  1.
</event>
<event>
 4   0  0.2441219E-02  0.9118800E+02  0.7818609E-02  0.1379984E+01
      -11   -1    0    0    0    0  0.00000000000E+00  0.00000000000E+00  0.35740347158E-01  0.35744000000E-01  0.51099999109E-03 0.  1.
       11   -1    0    0    0    0 -0.00000000000E+00 -0.00000000000E+00 -0.35740347158E-01  0.35744000000E-01  0.51099999109E-03 0. -1.
       22    1    1    2    0    0 -0.18862347724E-01  0.29541456652E-01 -0.69747947710E-02  0.35737005818E-01  0.00000000000E+00 0.  1.
  9000001    1    1    2    0    0  0.18862347724E-01 -0.29541456652E-01  0.69747947710E-02  0.35750994182E-01  0.10000000475E-02 0. -1.
</event>
<event>
 4   0  0.2441219E-02  0.9118800E+02  0.7818609E-02  0.1379984E+01
      -11   -1    0    0    0    0  0.00000000000E+00  0.00000000000E+00  0.35740347158E-01  0.35744000000E-01  0.51099999109E-03 0.  1.
       11   -1    0    0    0    0 -0.00000000000E+00 -0.00000000000E+00 -0.35740347158E-01  0.35744000000E-01  0.51099999109E-03 0. -1.
       22    1    1    2    0    0  0.14170343391E-02 -0.74727130935E-02 -0.34918249635E-01  0.35737005818E-01  0.00000000000E+00 0. -1.
  9000001    1    1    2    0    0 -0.14170343391E-02  0.74727130935E-02  0.34918249635E-01  0.35750994182E-01  0.10000000475E-02 0.  1.
</event>
<event>
 4   0  0.2441219E-02  0.9118800E+02  0.7818609E-02  0.1379984E+01
      -11   -1    0    0    0    0  0.00000000000E+00  0.00000000000E+00  0.35740347158E-01  0.35744000000E-01  0.51099999109E-03 0. -1.
       11   -1    0    0    0    0 -0.00000000000E+00 -0.00000000000E+00 -0.35740347158E-01  0.35744000000E-01  0.51099999109E-03 0.  1.
       22    1    1    2    0    0 -0.10143081872E-01  0.34832293462E-02 -0.34089860491E-01  0.35737005818E-01  0.00000000000E+00 0.  1.
  9000001    1    1    2    0    0  0.10143081872E-01 -0.34832293462E-02  0.34089860491E-01  0.35750994182E-01  0.10000000475E-02 0. -1.
</event>
<event>
 4   0  0.2441219E-02  0.9118800E+02  0.7818609E-02  0.1379984E+01
      -11   -1    0    0    0    0  0.00000000000E+00  0.00000000000E+00  0.35740347158E-01  0.35744000000E-01  0.51099999109E-03 0. -1.
       11   -1    0    0    0    0 -0.00000000000E+00 -0.00000000000E+00 -0.35740347158E-01  0.35744000000E-01  0.51099999109E-03 0.  1.
       22    1    1    2    0    0  0.54690787693E-02  0.65941207871E-02 -0.34694961210E-01  0.35737005818E-01  0.00000000000E+00 0.  1.
  9000001    1    1    2    0    0 -0.54690787693E-02 -0.65941207871E-02  0.34694961210E-01  0.35750994182E-01  0.10000000475E-02 0. -1.
</event>
<event>
 4   0  0.2441219E-02  0.9118800E+02  0.7818609E-02  0.1379984E+01
      -11   -1    0    0    0    0  0.00000000000E+00  0.00000000000E+00  0.35740347158E-01  0.35744000000E-01  0.51099999109E-03 0. -1.
       11   -1    0    0    0    0 -0.00000000000E+00 -0.00000000000E+00 -0.35740347158E-01  0.35744000000E-01  0.51099999109E-03 0.  1.
       22    1    1    2    0    0  0.36620177474E-02  0.38759818743E-04  0.35548863675E-01  0.35737005818E-01  0.00000000000E+00 0. -1.
  9000001    1    1    2    0    0 -0.36620177474E-02 -0.38759818743E-04 -0.35548863675E-01  0.35750994182E-01  0.10000000475E-02 0.  1.
</event>
<event>
 4   0  0.2441219E-02  0.9118800E+02  0.7818609E-02  0.1379984E+01
      -11   -1    0    0    0    0  0.00000000000E+00  0.00000000000E+00  0.35740347158E-01  0.35744000000E-01  0.51099999109E-03 0. -1.
       11   -1    0    0    0    0 -0.00000000000E+00 -0.00000000000E+00 -0.35740347158E-01  0.35744000000E-01  0.51099999109E-03 0.  1.
       22    1    1    2    0    0 -0.12494506755E-01 -0.83790024134E-02 -0.32416249080E-01  0.35737005818E-01  0.00000000000E+00 0.  1.
  9000001    1    1    2    0    0  0.12494506755E-01  0.83790024134E-02  0.32416249080E-01  0.35750994182E-01  0.10000000475E-02 0. -1.
</event>
<event>
 4   0  0.2441219E-02  0.9118800E+02  0.7818609E-02  0.1379984E+01
      -11   -1    0    0    0    0  0.00000000000E+00  0.00000000000E+00  0.35740347158E-01  0.35744000000E-01  0.51099999109E-03 0. -1.
       11   -1    0    0    0    0 -0.00000000000E+00 -0.00000000000E+00 -0.35740347158E-01  0.35744000000E-01  0.51099999109E-03 0.  1.
       22    1    1    2    0    0  0.12628945205E-01  0.13964693363E-01 -0.30374836085E-01  0.35737005818E-01  0.00000000000E+00 0.  1.
  9000001    1    1    2    0    0 -0.12628945205E-01 -0.13964693363E-01  0.30374836085E-01  0.35750994182E-01  0.10000000475E-02 0. -1.
</event>
<event>
 4   0  0.2441219E-02  0.9118800E+02  0.7818609E-02  0.1379984E+01
      -11   -1    0    0    0    0  0.00000000000E+00  0.00000000000E+00  0.35740347158E-01  0.35744000000E-01  0.51099999109E-03 0.  1.
       11   -1    0    0    0    0 -0.00000000000E+00 -0.00000000000E+00 -0.35740347158E-01  0.35744000000E-01  0.51099999109E-03 0. -1.
       22    1    1    2    0    0  0.13940228480E-02 -0.12027827787E-01 -0.33623230718E-01  0.35737005818E-01  0.00000000000E+00 0. -1.
  9000001    1    1    2    0    0 -0.13940228480E-02  0.12027827787E-01  0.33623230718E-01  0.35750994182E-01  0.10000000475E-02 0.  1.
</event>
<event>
 4   0  0.2441219E-02  0.9118800E+02  0.7818609E-02  0.1379984E+01
      -11   -1    0    0    0    0  0.00000000000E+00  0.00000000000E+00  0.35740347158E-01  0.35744000000E-01  0.51099999109E-03 0.  1.
       11   -1    0    0    0    0 -0.00000000000E+00 -0.00000000000E+00 -0.35740347158E-01  0.35744000000E-01  0.51099999109E-03 0. -1.
       22    1    1    2    0    0 -0.40729885233E-02 -0.11777013770E-01  0.33493974026E-01  0.35737005818E-01  0.00000000000E+00 0.  1.
  9000001    1    1    2    0    0  0.40729885233E-02  0.11777013770E-01 -0.33493974026E-01  0.35750994182E-01  0.10000000475E-02 0. -1.
</event>
<event>
 4   0  0.2441219E-02  0.9118800E+02  0.7818609E-02  0.1379984E+01
      -11   -1    0    0    0    0  0.00000000000E+00  0.00000000000E+00  0.35740347158E-01  0.35744000000E-01  0.51099999109E-03 0.  1.
       11   -1    0    0    0    0 -0.00000000000E+00 -0.00000000000E+00 -0.35740347158E-01  0.35744000000E-01  0.51099999109E-03 0. -1.
       22    1    1    2    0    0 -0.11151157888E-01 -0.12613350820E-01 -0.31522827343E-01  0.35737005818E-01  0.00000000000E+00 0. -1.
  9000001    1    1    2    0    0  0.11151157888E-01  0.12613350820E-01  0.31522827343E-01  0.35750994182E-01  0.10000000475E-02 0.  1.
</event>
<event>
 4   0  0.2441219E-02  0.9118800E+02  0.7818609E-02  0.1379984E+01
      -11   -1    0    0    0    0  0.00000000000E+00  0.00000000000E+00  0.35740347158E-01  0.35744000000E-01  0.51099999109E-03 0.  1.
       11   -1    0    0    0    0 -0.00000000000E+00 -0.00000000000E+00 -0.35740347158E-01  0.35744000000E-01  0.51099999109E-03 0. -1.
       22    1    1    2    0    0 -0.10264936963E-01 -0.12310097467E-01 -0.31940979233E-01  0.35737005818E-01  0.00000000000E+00 0. -1.
  9000001    1    1    2    0    0  0.10264936963E-01  0.12310097467E-01  0.31940979233E-01  0.35750994182E-01  0.10000000475E-02 0.  1.
</event>
<event>
 4   0  0.2441219E-02  0.9118800E+02  0.7818609E-02  0.1379984E+01
      -11   -1    0    0    0    0  0.00000000000E+00  0.00000000000E+00  0.35740347158E-01  0.35744000000E-01  0.51099999109E-03 0.  1.
       11   -1    0    0    0    0 -0.00000000000E+00 -0.00000000000E+00 -0.35740347158E-01  0.35744000000E-01  0.51099999109E-03 0. -1.
       22    1    1    2    0    0 -0.78099644923E-03 -0.36040231917E-02  0.35546232518E-01  0.35737005818E-01  0.00000000000E+00 0.  1.
  9000001    1    1    2    0    0  0.78099644923E-03  0.36040231917E-02 -0.35546232518E-01  0.35750994182E-01  0.10000000475E-02 0. -1.
</event>
<event>
 4   0  0.2441219E-02  0.9118800E+02  0.7818609E-02  0.1379984E+01
      -11   -1    0    0    0    0  0.00000000000E+00  0.00000000000E+00  0.35740347158E-01  0.35744000000E-01  0.51099999109E-03 0.  1.
       11   -1    0    0    0    0 -0.00000000000E+00 -0.00000000000E+00 -0.35740347158E-01  0.35744000000E-01  0.51099999109E-03 0. -1.
       22    1    1    2    0    0  0.25555689147E-01 -0.24414918495E-01  0.52869737989E-02  0.35737005818E-01  0.00000000000E+00 0. -1.
  9000001    1    1    2    0    0 -0.25555689147E-01  0.24414918495E-01 -0.52869737989E-02  0.35750994182E-01  0.10000000475E-02 0.  1.
</event>
<event>
 4   0  0.2441219E-02  0.9118800E+02  0.7818609E-02  0.1379984E+01
      -11   -1    0    0    0    0  0.00000000000E+00  0.00000000000E+00  0.35740347158E-01  0.35744000000E-01  0.51099999109E-03 0. -1.
       11   -1    0    0    0    0 -0.00000000000E+00 -0.00000000000E+00 -0.35740347158E-01  0.35744000000E-01  0.51099999109E-03 0.  1.
       22    1    1    2    0    0  0.17951095983E-01 -0.13136930643E-01 -0.27969855044E-01  0.35737005818E-01  0.00000000000E+00 0.  1.
  9000001    1    1    2    0    0 -0.17951095983E-01  0.13136930643E-01  0.27969855044E-01  0.35750994182E-01  0.10000000475E-02 0. -1.
</event>
<event>
 4   0  0.2441219E-02  0.9118800E+02  0.7818609E-02  0.1379984E+01
      -11   -1    0    0    0    0  0.00000000000E+00  0.00000000000E+00  0.35740347158E-01  0.35744000000E-01  0.51099999109E-03 0.  1.
       11   -1    0    0    0    0 -0.00000000000E+00 -0.00000000000E+00 -0.35740347158E-01  0.35744000000E-01  0.51099999109E-03 0. -1.
       22    1    1    2    0    0 -0.89925670466E-03  0.34583475648E-02 -0.35557907058E-01  0.35737005818E-01  0.00000000000E+00 0. -1.
  9000001    1    1    2    0    0  0.89925670466E-03 -0.34583475648E-02  0.35557907058E-01  0.35750994182E-01  0.10000000475E-02 0.  1.
</event>
<event>
 4   0  0.2441219E-02  0.9118800E+02  0.7818609E-02  0.1379984E+01
      -11   -1    0    0    0    0  0.00000000000E+00  0.00000000000E+00  0.35740347158E-01  0.35744000000E-01  0.51099999109E-03 0.  1.
       11   -1    0    0    0    0 -0.00000000000E+00 -0.00000000000E+00 -0.35740347158E-01  0.35744000000E-01  0.51099999109E-03 0. -1.
       22    1    1    2    0    0 -0.35189037811E-02  0.49861771119E-02  0.35212056726E-01  0.35737005818E-01  0.00000000000E+00 0.  1.
  9000001    1    1    2    0    0  0.35189037811E-02 -0.49861771119E-02 -0.35212056726E-01  0.35750994182E-01  0.10000000475E-02 0. -1.
</event>
<event>
 4   0  0.2441219E-02  0.9118800E+02  0.7818609E-02  0.1379984E+01
      -11   -1    0    0    0    0  0.00000000000E+00  0.00000000000E+00  0.35740347158E-01  0.35744000000E-01  0.51099999109E-03 0.  1.
       11   -1    0    0    0    0 -0.00000000000E+00 -0.00000000000E+00 -0.35740347158E-01  0.35744000000E-01  0.51099999109E-03 0. -1.
       22    1    1    2    0    0 -0.12637758335E-01  0.79533754665E-02  0.32467899036E-01  0.35737005818E-01  0.00000000000E+00 0.  1.
  9000001    1    1    2    0    0  0.12637758335E-01 -0.79533754665E-02 -0.32467899036E-01  0.35750994182E-01  0.10000000475E-02 0. -1.
</event>
<event>
 4   0  0.2441219E-02  0.9118800E+02  0.7818609E-02  0.1379984E+01
      -11   -1    0    0    0    0  0.00000000000E+00  0.00000000000E+00  0.35740347158E-01  0.35744000000E-01  0.51099999109E-03 0.  1.
       11   -1    0    0    0    0 -0.00000000000E+00 -0.00000000000E+00 -0.35740347158E-01  0.35744000000E-01  0.51099999109E-03 0. -1.
       22    1    1    2    0    0  0.74996408138E-02 -0.87102399336E-02  0.33838154395E-01  0.35737005818E-01  0.00000000000E+00 0.  1.
  9000001    1    1    2    0    0 -0.74996408138E-02  0.87102399336E-02 -0.33838154395E-01  0.35750994182E-01  0.10000000475E-02 0. -1.
</event>
<event>
 4   0  0.2441219E-02  0.9118800E+02  0.7818609E-02  0.1379984E+01
      -11   -1    0    0    0    0  0.00000000000E+00  0.00000000000E+00  0.35740347158E-01  0.35744000000E-01  0.51099999109E-03 0. -1.
       11   -1    0    0    0    0 -0.00000000000E+00 -0.00000000000E+00 -0.35740347158E-01  0.35744000000E-01  0.51099999109E-03 0.  1.
       22    1    1    2    0    0  0.84225141176E-02 -0.79097238358E-02  0.33817615375E-01  0.35737005818E-01  0.00000000000E+00 0. -1.
  9000001    1    1    2    0    0 -0.84225141176E-02  0.79097238358E-02 -0.33817615375E-01  0.35750994182E-01  0.10000000475E-02 0.  1.
</event>
<event>
 4   0  0.2441219E-02  0.9118800E+02  0.7818609E-02  0.1379984E+01
      -11   -1    0    0    0    0  0.00000000000E+00  0.00000000000E+00  0.35740347158E-01  0.35744000000E-01  0.51099999109E-03 0. -1.
       11   -1    0    0    0    0 -0.00000000000E+00 -0.00000000000E+00 -0.35740347158E-01  0.35744000000E-01  0.51099999109E-03 0.  1.
       22    1    1    2    0    0  0.16397037792E-01  0.28929586949E-01 -0.13090062471E-01  0.35737005818E-01  0.00000000000E+00 0.  1.
  9000001    1    1    2    0    0 -0.16397037792E-01 -0.28929586949E-01  0.13090062471E-01  0.35750994182E-01  0.10000000475E-02 0. -1.
</event>
<event>
 4   0  0.2441219E-02  0.9118800E+02  0.7818609E-02  0.1379984E+01
      -11   -1    0    0    0    0  0.00000000000E+00  0.00000000000E+00  0.35740347158E-01  0.35744000000E-01  0.51099999109E-03 0. -1.
       11   -1    0    0    0    0 -0.00000000000E+00 -0.00000000000E+00 -0.35740347158E-01  0.35744000000E-01  0.51099999109E-03 0.  1.
       22    1    1    2    0    0 -0.38172624631E-02 -0.44245137643E-02 -0.35256003320E-01  0.35737005818E-01  0.00000000000E+00 0.  1.
  9000001    1    1    2    0    0  0.38172624631E-02  0.44245137643E-02  0.35256003320E-01  0.35750994182E-01  0.10000000475E-02 0. -1.
</event>
<event>
 4   0  0.2441219E-02  0.9118800E+02  0.7818609E-02  0.1379984E+01
      -11   -1    0    0    0    0  0.00000000000E+00  0.00000000000E+00  0.35740347158E-01  0.35744000000E-01  0.51099999109E-03 0. -1.
       11   -1    0    0    0    0 -0.00000000000E+00 -0.00000000000E+00 -0.35740347158E-01  0.35744000000E-01  0.51099999109E-03 0.  1.
       22    1    1    2    0    0  0.33219713310E-02  0.31375864973E-01  0.16782526286E-01  0.35737005818E-01  0.00000000000E+00 0. -1.
  9000001    1    1    2    0    0 -0.33219713310E-02 -0.31375864973E-01 -0.16782526286E-01  0.35750994182E-01  0.10000000475E-02 0.  1.
</event>
<event>
 4   0  0.2441219E-02  0.9118800E+02  0.7818609E-02  0.1379984E+01
      -11   -1    0    0    0    0  0.00000000000E+00  0.00000000000E+00  0.35740347158E-01  0.35744000000E-01  0.51099999109E-03 0.  1.
       11   -1    0    0    0    0 -0.00000000000E+00 -0.00000000000E+00 -0.35740347158E-01  0.35744000000E-01  0.51099999109E-03 0. -1.
       22    1    1    2    0    0 -0.20623150965E-02  0.24874063347E-01  0.25576579403E-01  0.35737005818E-01  0.00000000000E+00 0.  1.
  9000001    1    1    2    0    0  0.20623150965E-02 -0.24874063347E-01 -0.25576579403E-01  0.35750994182E-01  0.10000000475E-02 0. -1.
</event>
<event>
 4   0  0.2441219E-02  0.9118800E+02  0.7818609E-02  0.1379984E+01
      -11   -1    0    0    0    0  0.00000000000E+00  0.00000000000E+00  0.35740347158E-01  0.35744000000E-01  0.51099999109E-03 0.  1.
       11   -1    0    0    0    0 -0.00000000000E+00 -0.00000000000E+00 -0.35740347158E-01  0.35744000000E-01  0.51099999109E-03 0. -1.
       22    1    1    2    0    0 -0.82496158796E-02 -0.11674613389E-02 -0.34752186359E-01  0.35737005818E-01  0.00000000000E+00 0. -1.
  9000001    1    1    2    0    0  0.82496158796E-02  0.11674613389E-02  0.34752186359E-01  0.35750994182E-01  0.10000000475E-02 0.  1.
</event>
<event>
 4   0  0.2441219E-02  0.9118800E+02  0.7818609E-02  0.1379984E+01
      -11   -1    0    0    0    0  0.00000000000E+00  0.00000000000E+00  0.35740347158E-01  0.35744000000E-01  0.51099999109E-03 0. -1.
       11   -1    0    0    0    0 -0.00000000000E+00 -0.00000000000E+00 -0.35740347158E-01  0.35744000000E-01  0.51099999109E-03 0.  1.
       22    1    1    2    0    0  0.62142063054E-03 -0.36184862211E-02 -0.35547911032E-01  0.35737005818E-01  0.00000000000E+00 0.  1.
  9000001    1    1    2    0    0 -0.62142063054E-03  0.36184862211E-02  0.35547911032E-01  0.35750994182E-01  0.10000000475E-02 0. -1.
</event>
<event>
 4   0  0.2441219E-02  0.9118800E+02  0.7818609E-02  0.1379984E+01
      -11   -1    0    0    0    0  0.00000000000E+00  0.00000000000E+00  0.35740347158E-01  0.35744000000E-01  0.51099999109E-03 0.  1.
       11   -1    0    0    0    0 -0.00000000000E+00 -0.00000000000E+00 -0.35740347158E-01  0.35744000000E-01  0.51099999109E-03 0. -1.
       22    1    1    2    0    0 -0.96381062086E-02 -0.70778892755E-03  0.34405515959E-01  0.35737005818E-01  0.00000000000E+00 0.  1.
  9000001    1    1    2    0    0  0.96381062086E-02  0.70778892755E-03 -0.34405515959E-01  0.35750994182E-01  0.10000000475E-02 0. -1.
</event>
<event>
 4   0  0.2441219E-02  0.9118800E+02  0.7818609E-02  0.1379984E+01
      -11   -1    0    0    0    0  0.00000000000E+00  0.00000000000E+00  0.35740347158E-01  0.35744000000E-01  0.51099999109E-03 0. -1.
       11   -1    0    0    0    0 -0.00000000000E+00 -0.00000000000E+00 -0.35740347158E-01  0.35744000000E-01  0.51099999109E-03 0.  1.
       22    1    1    2    0    0  0.55514628994E-02  0.12447763375E-01  0.33035859781E-01  0.35737005818E-01  0.00000000000E+00 0. -1.
  9000001    1    1    2    0    0 -0.55514628994E-02 -0.12447763375E-01 -0.33035859781E-01  0.35750994182E-01  0.10000000475E-02 0.  1.
</event>
<event>
 4   0  0.2441219E-02  0.9118800E+02  0.7818609E-02  0.1379984E+01
      -11   -1    0    0    0    0  0.00000000000E+00  0.00000000000E+00  0.35740347158E-01  0.35744000000E-01  0.51099999109E-03 0. -1.
       11   -1    0    0    0    0 -0.00000000000E+00 -0.00000000000E+00 -0.35740347158E-01  0.35744000000E-01  0.51099999109E-03 0.  1.
       22    1    1    2    0    0  0.62492833840E-02 -0.31394516119E-03  0.35184960999E-01  0.35737005818E-01  0.00000000000E+00 0. -1.
  9000001    1    1    2    0    0 -0.62492833840E-02  0.31394516119E-03 -0.35184960999E-01  0.35750994182E-01  0.10000000475E-02 0.  1.
</event>
<event>
 4   0  0.2441219E-02  0.9118800E+02  0.7818609E-02  0.1379984E+01
      -11   -1    0    0    0    0  0.00000000000E+00  0.00000000000E+00  0.35740347158E-01  0.35744000000E-01  0.51099999109E-03 0.  1.
       11   -1    0    0    0    0 -0.00000000000E+00 -0.00000000000E+00 -0.35740347158E-01  0.35744000000E-01  0.51099999109E-03 0. -1.
       22    1    1    2    0    0  0.71111534749E-02 -0.19924260806E-01  0.28802585170E-01  0.35737005818E-01  0.00000000000E+00 0. -1.
  9000001    1    1    2    0    0 -0.71111534749E-02  0.19924260806E-01 -0.28802585170E-01  0.35750994182E-01  0.10000000475E-02 0.  1.
</event>
<event>
 4   0  0.2441219E-02  0.9118800E+02  0.7818609E-02  0.1379984E+01
      -11   -1    0    0    0    0  0.00000000000E+00  0.00000000000E+00  0.35740347158E-01  0.35744000000E-01  0.51099999109E-03 0.  1.
       11   -1    0    0    0    0 -0.00000000000E+00 -0.00000000000E+00 -0.35740347158E-01  0.35744000000E-01  0.51099999109E-03 0. -1.
       22    1    1    2    0    0  0.97609338763E-02  0.62577461056E-02  0.33803821802E-01  0.35737005818E-01  0.00000000000E+00 0.  1.
  9000001    1    1    2    0    0 -0.97609338763E-02 -0.62577461056E-02 -0.33803821802E-01  0.35750994182E-01  0.10000000475E-02 0. -1.
</event>
<event>
 4   0  0.2441219E-02  0.9118800E+02  0.7818609E-02  0.1379984E+01
      -11   -1    0    0    0    0  0.00000000000E+00  0.00000000000E+00  0.35740347158E-01  0.35744000000E-01  0.51099999109E-03 0.  1.
       11   -1    0    0    0    0 -0.00000000000E+00 -0.00000000000E+00 -0.35740347158E-01  0.35744000000E-01  0.51099999109E-03 0. -1.
       22    1    1    2    0    0  0.17829778430E-01  0.88175651229E-02 -0.29689781598E-01  0.35737005818E-01  0.00000000000E+00 0. -1.
  9000001    1    1    2    0    0 -0.17829778430E-01 -0.88175651229E-02  0.29689781598E-01  0.35750994182E-01  0.10000000475E-02 0.  1.
</event>
<event>
 4   0  0.2441219E-02  0.9118800E+02  0.7818609E-02  0.1379984E+01
      -11   -1    0    0    0    0  0.00000000000E+00  0.00000000000E+00  0.35740347158E-01  0.35744000000E-01  0.51099999109E-03 0.  1.
       11   -1    0    0    0    0 -0.00000000000E+00 -0.00000000000E+00 -0.35740347158E-01  0.35744000000E-01  0.51099999109E-03 0. -1.
       22    1    1    2    0    0 -0.55288115784E-02  0.35205223807E-01 -0.26754521352E-02  0.35737005818E-01  0.00000000000E+00 0. -1.
  9000001    1    1    2    0    0  0.55288115784E-02 -0.35205223807E-01  0.26754521352E-02  0.35750994182E-01  0.10000000475E-02 0.  1.
</event>
<event>
 4   0  0.2441219E-02  0.9118800E+02  0.7818609E-02  0.1379984E+01
      -11   -1    0    0    0    0  0.00000000000E+00  0.00000000000E+00  0.35740347158E-01  0.35744000000E-01  0.51099999109E-03 0.  1.
       11   -1    0    0    0    0 -0.00000000000E+00 -0.00000000000E+00 -0.35740347158E-01  0.35744000000E-01  0.51099999109E-03 0. -1.
       22    1    1    2    0    0  0.28866884758E-02  0.20141638706E-01 -0.29378818981E-01  0.35737005818E-01  0.00000000000E+00 0. -1.
  9000001    1    1    2    0    0 -0.28866884758E-02 -0.20141638706E-01  0.29378818981E-01  0.35750994182E-01  0.10000000475E-02 0.  1.
</event>
<event>
 4   0  0.2441219E-02  0.9118800E+02  0.7818609E-02  0.1379984E+01
      -11   -1    0    0    0    0  0.00000000000E+00  0.00000000000E+00  0.35740347158E-01  0.35744000000E-01  0.51099999109E-03 0.  1.
       11   -1    0    0    0    0 -0.00000000000E+00 -0.00000000000E+00 -0.35740347158E-01  0.35744000000E-01  0.51099999109E-03 0. -1.
       22    1    1    2    0    0 -0.79287700065E-03  0.14607266131E-01  0.32605715865E-01  0.35737005818E-01  0.00000000000E+00 0.  1.
  9000001    1    1    2    0    0  0.79287700065E-03 -0.14607266131E-01 -0.32605715865E-01  0.35750994182E-01  0.10000000475E-02 0. -1.
</event>
<event>
 4   0  0.2441219E-02  0.9118800E+02  0.7818609E-02  0.1379984E+01
      -11   -1    0    0    0    0  0.00000000000E+00  0.00000000000E+00  0.35740347158E-01  0.35744000000E-01  0.51099999109E-03 0. -1.
       11   -1    0    0    0    0 -0.00000000000E+00 -0.00000000000E+00 -0.35740347158E-01  0.35744000000E-01  0.51099999109E-03 0.  1.
       22    1    1    2    0    0  0.82802171455E-02 -0.24838266478E-02 -0.34675671501E-01  0.35737005818E-01  0.00000000000E+00 0.  1.
  9000001    1    1    2    0    0 -0.82802171455E-02  0.24838266478E-02  0.34675671501E-01  0.35750994182E-01  0.10000000475E-02 0. -1.
</event>
<event>
 4   0  0.2441219E-02  0.9118800E+02  0.7818609E-02  0.1379984E+01
      -11   -1    0    0    0    0  0.00000000000E+00  0.00000000000E+00  0.35740347158E-01  0.35744000000E-01  0.51099999109E-03 0.  1.
       11   -1    0    0    0    0 -0.00000000000E+00 -0.00000000000E+00 -0.35740347158E-01  0.35744000000E-01  0.51099999109E-03 0. -1.
       22    1    1    2    0    0  0.40449707987E-02  0.89405105806E-02  0.34363338992E-01  0.35737005818E-01  0.00000000000E+00 0.  1.
  9000001    1    1    2    0    0 -0.40449707987E-02 -0.89405105806E-02 -0.34363338992E-01  0.35750994182E-01  0.10000000475E-02 0. -1.
</event>
<event>
 4   0  0.2441219E-02  0.9118800E+02  0.7818609E-02  0.1379984E+01
      -11   -1    0    0    0    0  0.00000000000E+00  0.00000000000E+00  0.35740347158E-01  0.35744000000E-01  0.51099999109E-03 0. -1.
       11   -1    0    0    0    0 -0.00000000000E+00 -0.00000000000E+00 -0.35740347158E-01  0.35744000000E-01  0.51099999109E-03 0.  1.
       22    1    1    2    0    0  0.20032395375E-01 -0.34180818630E-02  0.29396486810E-01  0.35737005818E-01  0.00000000000E+00 0. -1.
  9000001    1    1    2    0    0 -0.20032395375E-01  0.34180818630E-02 -0.29396486810E-01  0.35750994182E-01  0.10000000475E-02 0.  1.
</event>
<event>
 4   0  0.2441219E-02  0.9118800E+02  0.7818609E-02  0.1379984E+01
      -11   -1    0    0    0    0  0.00000000000E+00  0.00000000000E+00  0.35740347158E-01  0.35744000000E-01  0.51099999109E-03 0. -1.
       11   -1    0    0    0    0 -0.00000000000E+00 -0.00000000000E+00 -0.35740347158E-01  0.35744000000E-01  0.51099999109E-03 0.  1.
       22    1    1    2    0    0  0.30361616813E-01  0.63810590127E-02  0.17736625814E-01  0.35737005818E-01  0.00000000000E+00 0.  1.
  9000001    1    1    2    0    0 -0.30361616813E-01 -0.63810590127E-02 -0.17736625814E-01  0.35750994182E-01  0.10000000475E-02 0. -1.
</event>
<event>
 4   0  0.2441219E-02  0.9118800E+02  0.7818609E-02  0.1379984E+01
      -11   -1    0    0    0    0  0.00000000000E+00  0.00000000000E+00  0.35740347158E-01  0.35744000000E-01  0.51099999109E-03 0.  1.
       11   -1    0    0    0    0 -0.00000000000E+00 -0.00000000000E+00 -0.35740347158E-01  0.35744000000E-01  0.51099999109E-03 0. -1.
       22    1    1    2    0    0  0.12640205808E-01  0.39483492015E-02  0.33192910698E-01  0.35737005818E-01  0.00000000000E+00 0.  1.
  9000001    1    1    2    0    0 -0.12640205808E-01 -0.39483492015E-02 -0.33192910698E-01  0.35750994182E-01  0.10000000475E-02 0. -1.
</event>
<event>
 4   0  0.2441219E-02  0.9118800E+02  0.7818609E-02  0.1379984E+01
      -11   -1    0    0    0    0  0.00000000000E+00  0.00000000000E+00  0.35740347158E-01  0.35744000000E-01  0.51099999109E-03 0. -1.
       11   -1    0    0    0    0 -0.00000000000E+00 -0.00000000000E+00 -0.35740347158E-01  0.35744000000E-01  0.51099999109E-03 0.  1.
       22    1    1    2    0    0  0.29991881917E-01 -0.19295450301E-01 -0.23035194000E-02  0.35737005818E-01  0.00000000000E+00 0.  1.
  9000001    1    1    2    0    0 -0.29991881917E-01  0.19295450301E-01  0.23035194000E-02  0.35750994182E-01  0.10000000475E-02 0. -1.
</event>
<event>
 4   0  0.2441219E-02  0.9118800E+02  0.7818609E-02  0.1379984E+01
      -11   -1    0    0    0    0  0.00000000000E+00  0.00000000000E+00  0.35740347158E-01  0.35744000000E-01  0.51099999109E-03 0. -1.
       11   -1    0    0    0    0 -0.00000000000E+00 -0.00000000000E+00 -0.35740347158E-01  0.35744000000E-01  0.51099999109E-03 0.  1.
       22    1    1    2    0    0 -0.21030063545E-02  0.62020516562E-02  0.35131830359E-01  0.35737005818E-01  0.00000000000E+00 0. -1.
  9000001    1    1    2    0    0  0.21030063545E-02 -0.62020516562E-02 -0.35131830359E-01  0.35750994182E-01  0.10000000475E-02 0.  1.
</event>
<event>
 4   0  0.2441219E-02  0.9118800E+02  0.7818609E-02  0.1379984E+01
      -11   -1    0    0    0    0  0.00000000000E+00  0.00000000000E+00  0.35740347158E-01  0.35744000000E-01  0.51099999109E-03 0.  1.
       11   -1    0    0    0    0 -0.00000000000E+00 -0.00000000000E+00 -0.35740347158E-01  0.35744000000E-01  0.51099999109E-03 0. -1.
       22    1    1    2    0    0  0.17649783371E-01  0.13332814010E-01  0.28068751351E-01  0.35737005818E-01  0.00000000000E+00 0.  1.
  9000001    1    1    2    0    0 -0.17649783371E-01 -0.13332814010E-01 -0.28068751351E-01  0.35750994182E-01  0.10000000475E-02 0. -1.
</event>
<event>
 4   0  0.2441219E-02  0.9118800E+02  0.7818609E-02  0.1379984E+01
      -11   -1    0    0    0    0  0.00000000000E+00  0.00000000000E+00  0.35740347158E-01  0.35744000000E-01  0.51099999109E-03 0.  1.
       11   -1    0    0    0    0 -0.00000000000E+00 -0.00000000000E+00 -0.35740347158E-01  0.35744000000E-01  0.51099999109E-03 0. -1.
       22    1    1    2    0    0  0.81202619676E-02 -0.13680167386E-01  0.32000749221E-01  0.35737005818E-01  0.00000000000E+00 0.  1.
  9000001    1    1    2    0    0 -0.81202619676E-02  0.13680167386E-01 -0.32000749221E-01  0.35750994182E-01  0.10000000475E-02 0. -1.
</event>
<event>
 4   0  0.2441219E-02  0.9118800E+02  0.7818609E-02  0.1379984E+01
      -11   -1    0    0    0    0  0.00000000000E+00  0.00000000000E+00  0.35740347158E-01  0.35744000000E-01  0.51099999109E-03 0.  1.
       11   -1    0    0    0    0 -0.00000000000E+00 -0.00000000000E+00 -0.35740347158E-01  0.35744000000E-01  0.51099999109E-03 0. -1.
       22    1    1    2    0    0  0.16674695080E-01 -0.11849265370E-01 -0.29303293997E-01  0.35737005818E-01  0.00000000000E+00 0. -1.
  9000001    1    1    2    0    0 -0.16674695080E-01  0.11849265370E-01  0.29303293997E-01  0.35750994182E-01  0.10000000475E-02 0.  1.
</event>
<event>
 4   0  0.2441219E-02  0.9118800E+02  0.7818609E-02  0.1379984E+01
      -11   -1    0    0    0    0  0.00000000000E+00  0.00000000000E+00  0.35740347158E-01  0.35744000000E-01  0.51099999109E-03 0. -1.
       11   -1    0    0    0    0 -0.00000000000E+00 -0.00000000000E+00 -0.35740347158E-01  0.35744000000E-01  0.51099999109E-03 0.  1.
       22    1    1    2    0    0  0.21588719446E-01  0.26877510069E-01 -0.94159561394E-02  0.35737005818E-01  0.00000000000E+00 0.  1.
  9000001    1    1    2    0    0 -0.21588719446E-01 -0.26877510069E-01  0.94159561394E-02  0.35750994182E-01  0.10000000475E-02 0. -1.
</event>
<event>
 4   0  0.2441219E-02  0.9118800E+02  0.7818609E-02  0.1379984E+01
      -11   -1    0    0    0    0  0.00000000000E+00  0.00000000000E+00  0.35740347158E-01  0.35744000000E-01  0.51099999109E-03 0.  1.
       11   -1    0    0    0    0 -0.00000000000E+00 -0.00000000000E+00 -0.35740347158E-01  0.35744000000E-01  0.51099999109E-03 0. -1.
       22    1    1    2    0    0 -0.76440511791E-02  0.20922759985E-01 -0.27945306959E-01  0.35737005818E-01  0.00000000000E+00 0. -1.
  9000001    1    1    2    0    0  0.76440511791E-02 -0.20922759985E-01  0.27945306959E-01  0.35750994182E-01  0.10000000475E-02 0.  1.
</event>
<event>
 4   0  0.2441219E-02  0.9118800E+02  0.7818609E-02  0.1379984E+01
      -11   -1    0    0    0    0  0.00000000000E+00  0.00000000000E+00  0.35740347158E-01  0.35744000000E-01  0.51099999109E-03 0. -1.
       11   -1    0    0    0    0 -0.00000000000E+00 -0.00000000000E+00 -0.35740347158E-01  0.35744000000E-01  0.51099999109E-03 0.  1.
       22    1    1    2    0    0 -0.22724071005E-02 -0.22654380787E-01  0.27545394933E-01  0.35737005818E-01  0.00000000000E+00 0. -1.
  9000001    1    1    2    0    0  0.22724071005E-02  0.22654380787E-01 -0.27545394933E-01  0.35750994182E-01  0.10000000475E-02 0.  1.
</event>
<event>
 4   0  0.2441219E-02  0.9118800E+02  0.7818609E-02  0.1379984E+01
      -11   -1    0    0    0    0  0.00000000000E+00  0.00000000000E+00  0.35740347158E-01  0.35744000000E-01  0.51099999109E-03 0. -1.
       11   -1    0    0    0    0 -0.00000000000E+00 -0.00000000000E+00 -0.35740347158E-01  0.35744000000E-01  0.51099999109E-03 0.  1.
       22    1    1    2    0    0 -0.37345380969E-02 -0.25518903404E-01  0.24738075494E-01  0.35737005818E-01  0.00000000000E+00 0. -1.
  9000001    1    1    2    0    0  0.37345380969E-02  0.25518903404E-01 -0.24738075494E-01  0.35750994182E-01  0.10000000475E-02 0.  1.
</event>
<event>
 4   0  0.2441219E-02  0.9118800E+02  0.7818609E-02  0.1379984E+01
      -11   -1    0    0    0    0  0.00000000000E+00  0.00000000000E+00  0.35740347158E-01  0.35744000000E-01  0.51099999109E-03 0. -1.
       11   -1    0    0    0    0 -0.00000000000E+00 -0.00000000000E+00 -0.35740347158E-01  0.35744000000E-01  0.51099999109E-03 0.  1.
       22    1    1    2    0    0 -0.32805065811E-02 -0.77933863914E-02  0.34722254967E-01  0.35737005818E-01  0.00000000000E+00 0. -1.
  9000001    1    1    2    0    0  0.32805065811E-02  0.77933863914E-02 -0.34722254967E-01  0.35750994182E-01  0.10000000475E-02 0.  1.
</event>
<event>
 4   0  0.2441219E-02  0.9118800E+02  0.7818609E-02  0.1379984E+01
      -11   -1    0    0    0    0  0.00000000000E+00  0.00000000000E+00  0.35740347158E-01  0.35744000000E-01  0.51099999109E-03 0. -1.
       11   -1    0    0    0    0 -0.00000000000E+00 -0.00000000000E+00 -0.35740347158E-01  0.35744000000E-01  0.51099999109E-03 0.  1.
       22    1    1    2    0    0  0.69773222436E-02 -0.14568006820E-01  0.31878264326E-01  0.35737005818E-01  0.00000000000E+00 0. -1.
  9000001    1    1    2    0    0 -0.69773222436E-02  0.14568006820E-01 -0.31878264326E-01  0.35750994182E-01  0.10000000475E-02 0.  1.
</event>
<event>
 4   0  0.2441219E-02  0.9118800E+02  0.7818609E-02  0.1379984E+01
      -11   -1    0    0    0    0  0.00000000000E+00  0.00000000000E+00  0.35740347158E-01  0.35744000000E-01  0.51099999109E-03 0. -1.
       11   -1    0    0    0    0 -0.00000000000E+00 -0.00000000000E+00 -0.35740347158E-01  0.35744000000E-01  0.51099999109E-03 0.  1.
       22    1    1    2    0    0 -0.24643453358E-01 -0.72837757183E-02  0.24835063977E-01  0.35737005818E-01  0.00000000000E+00 0. -1.
  9000001    1    1    2    0    0  0.24643453358E-01  0.72837757183E-02 -0.24835063977E-01  0.35750994182E-01  0.10000000475E-02 0.  1.
</event>
<event>
 4   0  0.2441219E-02  0.9118800E+02  0.7818609E-02  0.1379984E+01
      -11   -1    0    0    0    0  0.00000000000E+00  0.00000000000E+00  0.35740347158E-01  0.35744000000E-01  0.51099999109E-03 0.  1.
       11   -1    0    0    0    0 -0.00000000000E+00 -0.00000000000E+00 -0.35740347158E-01  0.35744000000E-01  0.51099999109E-03 0. -1.
       22    1    1    2    0    0  0.47383258325E-02 -0.53750530824E-02 -0.35011293286E-01  0.35737005818E-01  0.00000000000E+00 0. -1.
  9000001    1    1    2    0    0 -0.47383258325E-02  0.53750530824E-02  0.35011293286E-01  0.35750994182E-01  0.10000000475E-02 0.  1.
</event>
<event>
 4   0  0.2441219E-02  0.9118800E+02  0.7818609E-02  0.1379984E+01
      -11   -1    0    0    0    0  0.00000000000E+00  0.00000000000E+00  0.35740347158E-01  0.35744000000E-01  0.51099999109E-03 0.  1.
       11   -1    0    0    0    0 -0.00000000000E+00 -0.00000000000E+00 -0.35740347158E-01  0.35744000000E-01  0.51099999109E-03 0. -1.
       22    1    1    2    0    0  0.27946298650E-01 -0.16270960250E-01  0.15211634666E-01  0.35737005818E-01  0.00000000000E+00 0.  1.
  9000001    1    1    2    0    0 -0.27946298650E-01  0.16270960250E-01 -0.15211634666E-01  0.35750994182E-01  0.10000000475E-02 0. -1.
</event>
<event>
 4   0  0.2441219E-02  0.9118800E+02  0.7818609E-02  0.1379984E+01
      -11   -1    0    0    0    0  0.00000000000E+00  0.00000000000E+00  0.35740347158E-01  0.35744000000E-01  0.51099999109E-03 0.  1.
       11   -1    0    0    0    0 -0.00000000000E+00 -0.00000000000E+00 -0.35740347158E-01  0.35744000000E-01  0.51099999109E-03 0. -1.
       22    1    1    2    0    0 -0.83037111305E-02  0.31785955416E-02  0.34613270529E-01  0.35737005818E-01  0.00000000000E+00 0.  1.
  9000001    1    1    2    0    0  0.83037111305E-02 -0.31785955416E-02 -0.34613270529E-01  0.35750994182E-01  0.10000000475E-02 0. -1.
</event>
<event>
 4   0  0.2441219E-02  0.9118800E+02  0.7818609E-02  0.1379984E+01
      -11   -1    0    0    0    0  0.00000000000E+00  0.00000000000E+00  0.35740347158E-01  0.35744000000E-01  0.51099999109E-03 0. -1.
       11   -1    0    0    0    0 -0.00000000000E+00 -0.00000000000E+00 -0.35740347158E-01  0.35744000000E-01  0.51099999109E-03 0.  1.
       22    1    1    2    0    0 -0.62874264390E-02 -0.85054041019E-02  0.34135904188E-01  0.35737005818E-01  0.00000000000E+00 0. -1.
  9000001    1    1    2    0    0  0.62874264390E-02  0.85054041019E-02 -0.34135904188E-01  0.35750994182E-01  0.10000000475E-02 0.  1.
</event>
<event>
 4   0  0.2441219E-02  0.9118800E+02  0.7818609E-02  0.1379984E+01
      -11   -1    0    0    0    0  0.00000000000E+00  0.00000000000E+00  0.35740347158E-01  0.35744000000E-01  0.51099999109E-03 0. -1.
       11   -1    0    0    0    0 -0.00000000000E+00 -0.00000000000E+00 -0.35740347158E-01  0.35744000000E-01  0.51099999109E-03 0.  1.
       22    1    1    2    0    0  0.14543347598E-01 -0.44802802269E-02 -0.32334992108E-01  0.35737005818E-01  0.00000000000E+00 0.  1.
  9000001    1    1    2    0    0 -0.14543347598E-01  0.44802802269E-02  0.32334992108E-01  0.35750994182E-01  0.10000000475E-02 0. -1.
</event>
<event>
 4   0  0.2441219E-02  0.9118800E+02  0.7818609E-02  0.1379984E+01
      -11   -1    0    0    0    0  0.00000000000E+00  0.00000000000E+00  0.35740347158E-01  0.35744000000E-01  0.51099999109E-03 0. -1.
       11   -1    0    0    0    0 -0.00000000000E+00 -0.00000000000E+00 -0.35740347158E-01  0.35744000000E-01  0.51099999109E-03 0.  1.
       22    1    1    2    0    0 -0.63270268337E-02 -0.18604999732E-01 -0.29848891123E-01  0.35737005818E-01  0.00000000000E+00 0.  1.
  9000001    1    1    2    0    0  0.63270268337E-02  0.18604999732E-01  0.29848891123E-01  0.35750994182E-01  0.10000000475E-02 0. -1.
</event>
<event>
 4   0  0.2441219E-02  0.9118800E+02  0.7818609E-02  0.1379984E+01
      -11   -1    0    0    0    0  0.00000000000E+00  0.00000000000E+00  0.35740347158E-01  0.35744000000E-01  0.51099999109E-03 0.  1.
       11   -1    0    0    0    0 -0.00000000000E+00 -0.00000000000E+00 -0.35740347158E-01  0.35744000000E-01  0.51099999109E-03 0. -1.
       22    1    1    2    0    0 -0.31924040755E-02  0.18134805897E-02 -0.35547903303E-01  0.35737005818E-01  0.00000000000E+00 0. -1.
  9000001    1    1    2    0    0  0.31924040755E-02 -0.18134805897E-02  0.35547903303E-01  0.35750994182E-01  0.10000000475E-02 0.  1.
</event>
<event>
 4   0  0.2441219E-02  0.9118800E+02  0.7818609E-02  0.1379984E+01
      -11   -1    0    0    0    0  0.00000000000E+00  0.00000000000E+00  0.35740347158E-01  0.35744000000E-01  0.51099999109E-03 0.  1.
       11   -1    0    0    0    0 -0.00000000000E+00 -0.00000000000E+00 -0.35740347158E-01  0.35744000000E-01  0.51099999109E-03 0. -1.
       22    1    1    2    0    0  0.20723323003E-02 -0.68305665816E-02  0.35016887124E-01  0.35737005818E-01  0.00000000000E+00 0.  1.
  9000001    1    1    2    0    0 -0.20723323003E-02  0.68305665816E-02 -0.35016887124E-01  0.35750994182E-01  0.10000000475E-02 0. -1.
</event>
<event>
 4   0  0.2441219E-02  0.9118800E+02  0.7818609E-02  0.1379984E+01
      -11   -1    0    0    0    0  0.00000000000E+00  0.00000000000E+00  0.35740347158E-01  0.35744000000E-01  0.51099999109E-03 0.  1.
       11   -1    0    0    0    0 -0.00000000000E+00 -0.00000000000E+00 -0.35740347158E-01  0.35744000000E-01  0.51099999109E-03 0. -1.
       22    1    1    2    0    0  0.46322373594E-02 -0.22472458666E-03  0.35434805782E-01  0.35737005818E-01  0.00000000000E+00 0.  1.
  9000001    1    1    2    0    0 -0.46322373594E-02  0.22472458666E-03 -0.35434805782E-01  0.35750994182E-01  0.10000000475E-02 0. -1.
</event>
<event>
 4   0  0.2441219E-02  0.9118800E+02  0.7818609E-02  0.1379984E+01
      -11   -1    0    0    0    0  0.00000000000E+00  0.00000000000E+00  0.35740347158E-01  0.35744000000E-01  0.51099999109E-03 0.  1.
       11   -1    0    0    0    0 -0.00000000000E+00 -0.00000000000E+00 -0.35740347158E-01  0.35744000000E-01  0.51099999109E-03 0. -1.
       22    1    1    2    0    0  0.14158199400E-01  0.30180520557E-01 -0.12876923294E-01  0.35737005818E-01  0.00000000000E+00 0.  1.
  9000001    1    1    2    0    0 -0.14158199400E-01 -0.30180520557E-01  0.12876923294E-01  0.35750994182E-01  0.10000000475E-02 0. -1.
</event>
<event>
 4   0  0.2441219E-02  0.9118800E+02  0.7818609E-02  0.1379984E+01
      -11   -1    0    0    0    0  0.00000000000E+00  0.00000000000E+00  0.35740347158E-01  0.35744000000E-01  0.51099999109E-03 0. -1.
       11   -1    0    0    0    0 -0.00000000000E+00 -0.00000000000E+00 -0.35740347158E-01  0.35744000000E-01  0.51099999109E-03 0.  1.
       22    1    1    2    0    0  0.77062291770E-03  0.11200026666E-01  0.33927851801E-01  0.35737005818E-01  0.00000000000E+00 0. -1.
  9000001    1    1    2    0    0 -0.77062291770E-03 -0.11200026666E-01 -0.33927851801E-01  0.35750994182E-01  0.10000000475E-02 0.  1.
</event>
<event>
 4   0  0.2441219E-02  0.9118800E+02  0.7818609E-02  0.1379984E+01
      -11   -1    0    0    0    0  0.00000000000E+00  0.00000000000E+00  0.35740347158E-01  0.35744000000E-01  0.51099999109E-03 0. -1.
       11   -1    0    0    0    0 -0.00000000000E+00 -0.00000000000E+00 -0.35740347158E-01  0.35744000000E-01  0.51099999109E-03 0.  1.
       22    1    1    2    0    0 -0.28806270421E-01  0.22602894484E-03  0.21149025515E-01  0.35737005818E-01  0.00000000000E+00 0. -1.
  9000001    1    1    2    0    0  0.28806270421E-01 -0.22602894484E-03 -0.21149025515E-01  0.35750994182E-01  0.10000000475E-02 0.  1.
</event>
<event>
 4   0  0.2441219E-02  0.9118800E+02  0.7818609E-02  0.1379984E+01
      -11   -1    0    0    0    0  0.00000000000E+00  0.00000000000E+00  0.35740347158E-01  0.35744000000E-01  0.51099999109E-03 0.  1.
       11   -1    0    0    0    0 -0.00000000000E+00 -0.00000000000E+00 -0.35740347158E-01  0.35744000000E-01  0.51099999109E-03 0. -1.
       22    1    1    2    0    0  0.17402643618E-02  0.14301361240E-01  0.32704374807E-01  0.35737005818E-01  0.00000000000E+00 0.  1.
  9000001    1    1    2    0    0 -0.17402643618E-02 -0.14301361240E-01 -0.32704374807E-01  0.35750994182E-01  0.10000000475E-02 0. -1.
</event>
<event>
 4   0  0.2441219E-02  0.9118800E+02  0.7818609E-02  0.1379984E+01
      -11   -1    0    0    0    0  0.00000000000E+00  0.00000000000E+00  0.35740347158E-01  0.35744000000E-01  0.51099999109E-03 0.  1.
       11   -1    0    0    0    0 -0.00000000000E+00 -0.00000000000E+00 -0.35740347158E-01  0.35744000000E-01  0.51099999109E-03 0. -1.
       22    1    1    2    0    0 -0.44336098581E-02 -0.27441715214E-01 -0.22459495867E-01  0.35737005818E-01  0.00000000000E+00 0. -1.
  9000001    1    1    2    0    0  0.44336098581E-02  0.27441715214E-01  0.22459495867E-01  0.35750994182E-01  0.10000000475E-02 0.  1.
</event>
<event>
 4   0  0.2441219E-02  0.9118800E+02  0.7818609E-02  0.1379984E+01
      -11   -1    0    0    0    0  0.00000000000E+00  0.00000000000E+00  0.35740347158E-01  0.35744000000E-01  0.51099999109E-03 0.  1.
       11   -1    0    0    0    0 -0.00000000000E+00 -0.00000000000E+00 -0.35740347158E-01  0.35744000000E-01  0.51099999109E-03 0. -1.
       22    1    1    2    0    0 -0.46557020084E-02  0.22681033781E-02 -0.35359775604E-01  0.35737005818E-01  0.00000000000E+00 0. -1.
  9000001    1    1    2    0    0  0.46557020084E-02 -0.22681033781E-02  0.35359775604E-01  0.35750994182E-01  0.10000000475E-02 0.  1.
</event>
<event>
 4   0  0.2441219E-02  0.9118800E+02  0.7818609E-02  0.1379984E+01
      -11   -1    0    0    0    0  0.00000000000E+00  0.00000000000E+00  0.35740347158E-01  0.35744000000E-01  0.51099999109E-03 0. -1.
       11   -1    0    0    0    0 -0.00000000000E+00 -0.00000000000E+00 -0.35740347158E-01  0.35744000000E-01  0.51099999109E-03 0.  1.
       22    1    1    2    0    0 -0.32618838003E-02  0.11583685536E-02 -0.35568973576E-01  0.35737005818E-01  0.00000000000E+00 0.  1.
  9000001    1    1    2    0    0  0.32618838003E-02 -0.11583685536E-02  0.35568973576E-01  0.35750994182E-01  0.10000000475E-02 0. -1.
</event>
<event>
 4   0  0.2441219E-02  0.9118800E+02  0.7818609E-02  0.1379984E+01
      -11   -1    0    0    0    0  0.00000000000E+00  0.00000000000E+00  0.35740347158E-01  0.35744000000E-01  0.51099999109E-03 0. -1.
       11   -1    0    0    0    0 -0.00000000000E+00 -0.00000000000E+00 -0.35740347158E-01  0.35744000000E-01  0.51099999109E-03 0.  1.
       22    1    1    2    0    0  0.39542092359E-02  0.12628062912E-02  0.35495114234E-01  0.35737005818E-01  0.00000000000E+00 0. -1.
  9000001    1    1    2    0    0 -0.39542092359E-02 -0.12628062912E-02 -0.35495114234E-01  0.35750994182E-01  0.10000000475E-02 0.  1.
</event>
<event>
 4   0  0.2441219E-02  0.9118800E+02  0.7818609E-02  0.1379984E+01
      -11   -1    0    0    0    0  0.00000000000E+00  0.00000000000E+00  0.35740347158E-01  0.35744000000E-01  0.51099999109E-03 0. -1.
       11   -1    0    0    0    0 -0.00000000000E+00 -0.00000000000E+00 -0.35740347158E-01  0.35744000000E-01  0.51099999109E-03 0.  1.
       22    1    1    2    0    0 -0.34904459327E-03 -0.34041057073E-02 -0.35572796026E-01  0.35737005818E-01  0.00000000000E+00 0.  1.
  9000001    1    1    2    0    0  0.34904459327E-03  0.34041057073E-02  0.35572796026E-01  0.35750994182E-01  0.10000000475E-02 0. -1.
</event>
<event>
 4   0  0.2441219E-02  0.9118800E+02  0.7818609E-02  0.1379984E+01
      -11   -1    0    0    0    0  0.00000000000E+00  0.00000000000E+00  0.35740347158E-01  0.35744000000E-01  0.51099999109E-03 0.  1.
       11   -1    0    0    0    0 -0.00000000000E+00 -0.00000000000E+00 -0.35740347158E-01  0.35744000000E-01  0.51099999109E-03 0. -1.
       22    1    1    2    0    0  0.75827002331E-02 -0.30104736180E-02 -0.34793293760E-01  0.35737005818E-01  0.00000000000E+00 0. -1.
  9000001    1    1    2    0    0 -0.75827002331E-02  0.30104736180E-02  0.34793293760E-01  0.35750994182E-01  0.10000000475E-02 0.  1.
</event>
<event>
 4   0  0.2441219E-02  0.9118800E+02  0.7818609E-02  0.1379984E+01
      -11   -1    0    0    0    0  0.00000000000E+00  0.00000000000E+00  0.35740347158E-01  0.35744000000E-01  0.51099999109E-03 0.  1.
       11   -1    0    0    0    0 -0.00000000000E+00 -0.00000000000E+00 -0.35740347158E-01  0.35744000000E-01  0.51099999109E-03 0. -1.
       22    1    1    2    0    0  0.94652664112E-02 -0.13257536729E-01  0.31808490007E-01  0.35737005818E-01  0.00000000000E+00 0.  1.
  9000001    1    1    2    0    0 -0.94652664112E-02  0.13257536729E-01 -0.31808490007E-01  0.35750994182E-01  0.10000000475E-02 0. -1.
</event>
<event>
 4   0  0.2441219E-02  0.9118800E+02  0.7818609E-02  0.1379984E+01
      -11   -1    0    0    0    0  0.00000000000E+00  0.00000000000E+00  0.35740347158E-01  0.35744000000E-01  0.51099999109E-03 0.  1.
       11   -1    0    0    0    0 -0.00000000000E+00 -0.00000000000E+00 -0.35740347158E-01  0.35744000000E-01  0.51099999109E-03 0. -1.
       22    1    1    2    0    0 -0.12024924222E-01 -0.26465341557E-01  0.20787507754E-01  0.35737005818E-01  0.00000000000E+00 0. -1.
  9000001    1    1    2    0    0  0.12024924222E-01  0.26465341557E-01 -0.20787507754E-01  0.35750994182E-01  0.10000000475E-02 0.  1.
</event>
<event>
 4   0  0.2441219E-02  0.9118800E+02  0.7818609E-02  0.1379984E+01
      -11   -1    0    0    0    0  0.00000000000E+00  0.00000000000E+00  0.35740347158E-01  0.35744000000E-01  0.51099999109E-03 0. -1.
       11   -1    0    0    0    0 -0.00000000000E+00 -0.00000000000E+00 -0.35740347158E-01  0.35744000000E-01  0.51099999109E-03 0.  1.
       22    1    1    2    0    0 -0.48720167064E-02 -0.31848569013E-02 -0.35259803241E-01  0.35737005818E-01  0.00000000000E+00 0.  1.
  9000001    1    1    2    0    0  0.48720167064E-02  0.31848569013E-02  0.35259803241E-01  0.35750994182E-01  0.10000000475E-02 0. -1.
</event>
<event>
 4   0  0.2441219E-02  0.9118800E+02  0.7818609E-02  0.1379984E+01
      -11   -1    0    0    0    0  0.00000000000E+00  0.00000000000E+00  0.35740347158E-01  0.35744000000E-01  0.51099999109E-03 0. -1.
       11   -1    0    0    0    0 -0.00000000000E+00 -0.00000000000E+00 -0.35740347158E-01  0.35744000000E-01  0.51099999109E-03 0.  1.
       22    1    1    2    0    0  0.67671509722E-02 -0.21017361123E-02 -0.35027445780E-01  0.35737005818E-01  0.00000000000E+00 0.  1.
  9000001    1    1    2    0    0 -0.67671509722E-02  0.21017361123E-02  0.35027445780E-01  0.35750994182E-01  0.10000000475E-02 0. -1.
</event>
<event>
 4   0  0.2441219E-02  0.9118800E+02  0.7818609E-02  0.1379984E+01
      -11   -1    0    0    0    0  0.00000000000E+00  0.00000000000E+00  0.35740347158E-01  0.35744000000E-01  0.51099999109E-03 0.  1.
       11   -1    0    0    0    0 -0.00000000000E+00 -0.00000000000E+00 -0.35740347158E-01  0.35744000000E-01  0.51099999109E-03 0. -1.
       22    1    1    2    0    0 -0.35527190606E-01  0.35075685622E-02 -0.16276594586E-02  0.35737005818E-01  0.00000000000E+00 0. -1.
  9000001    1    1    2    0    0  0.35527190606E-01 -0.35075685622E-02  0.16276594586E-02  0.35750994182E-01  0.10000000475E-02 0.  1.
</event>
<event>
 4   0  0.2441219E-02  0.9118800E+02  0.7818609E-02  0.1379984E+01
      -11   -1    0    0    0    0  0.00000000000E+00  0.00000000000E+00  0.35740347158E-01  0.35744000000E-01  0.51099999109E-03 0.  1.
       11   -1    0    0    0    0 -0.00000000000E+00 -0.00000000000E+00 -0.35740347158E-01  0.35744000000E-01  0.51099999109E-03 0. -1.
       22    1    1    2    0    0 -0.97964481729E-03  0.38793595818E-02 -0.35512314063E-01  0.35737005818E-01  0.00000000000E+00 0. -1.
  9000001    1    1    2    0    0  0.97964481729E-03 -0.38793595818E-02  0.35512314063E-01  0.35750994182E-01  0.10000000475E-02 0.  1.
</event>
<event>
 4   0  0.2441219E-02  0.9118800E+02  0.7818609E-02  0.1379984E+01
      -11   -1    0    0    0    0  0.00000000000E+00  0.00000000000E+00  0.35740347158E-01  0.35744000000E-01  0.51099999109E-03 0.  1.
       11   -1    0    0    0    0 -0.00000000000E+00 -0.00000000000E+00 -0.35740347158E-01  0.35744000000E-01  0.51099999109E-03 0. -1.
       22    1    1    2    0    0  0.32722568956E-02 -0.13552468258E-01  0.32905265897E-01  0.35737005818E-01  0.00000000000E+00 0.  1.
  9000001    1    1    2    0    0 -0.32722568956E-02  0.13552468258E-01 -0.32905265897E-01  0.35750994182E-01  0.10000000475E-02 0. -1.
</event>
<event>
 4   0  0.2441219E-02  0.9118800E+02  0.7818609E-02  0.1379984E+01
      -11   -1    0    0    0    0  0.00000000000E+00  0.00000000000E+00  0.35740347158E-01  0.35744000000E-01  0.51099999109E-03 0.  1.
       11   -1    0    0    0    0 -0.00000000000E+00 -0.00000000000E+00 -0.35740347158E-01  0.35744000000E-01  0.51099999109E-03 0. -1.
       22    1    1    2    0    0 -0.14816843997E-02 -0.33630195433E-02  0.35547549786E-01  0.35737005818E-01  0.00000000000E+00 0.  1.
  9000001    1    1    2    0    0  0.14816843997E-02  0.33630195433E-02 -0.35547549786E-01  0.35750994182E-01  0.10000000475E-02 0. -1.
</event>
<event>
 4   0  0.2441219E-02  0.9118800E+02  0.7818609E-02  0.1379984E+01
      -11   -1    0    0    0    0  0.00000000000E+00  0.00000000000E+00  0.35740347158E-01  0.35744000000E-01  0.51099999109E-03 0.  1.
       11   -1    0    0    0    0 -0.00000000000E+00 -0.00000000000E+00 -0.35740347158E-01  0.35744000000E-01  0.51099999109E-03 0. -1.
       22    1    1    2    0    0  0.29584753103E-01  0.86121813353E-02  0.18102660062E-01  0.35737005818E-01  0.00000000000E+00 0.  1.
  9000001    1    1    2    0    0 -0.29584753103E-01 -0.86121813353E-02 -0.18102660062E-01  0.35750994182E-01  0.10000000475E-02 0. -1.
</event>
<event>
 4   0  0.2441219E-02  0.9118800E+02  0.7818609E-02  0.1379984E+01
      -11   -1    0    0    0    0  0.00000000000E+00  0.00000000000E+00  0.35740347158E-01  0.35744000000E-01  0.51099999109E-03 0. -1.
       11   -1    0    0    0    0 -0.00000000000E+00 -0.00000000000E+00 -0.35740347158E-01  0.35744000000E-01  0.51099999109E-03 0.  1.
       22    1    1    2    0    0  0.88780005338E-02 -0.15997839789E-01 -0.30698270529E-01  0.35737005818E-01  0.00000000000E+00 0.  1.
  9000001    1    1    2    0    0 -0.88780005338E-02  0.15997839789E-01  0.30698270529E-01  0.35750994182E-01  0.10000000475E-02 0. -1.
</event>
<event>
 4   0  0.2441219E-02  0.9118800E+02  0.7818609E-02  0.1379984E+01
      -11   -1    0    0    0    0  0.00000000000E+00  0.00000000000E+00  0.35740347158E-01  0.35744000000E-01  0.51099999109E-03 0. -1.
       11   -1    0    0    0    0 -0.00000000000E+00 -0.00000000000E+00 -0.35740347158E-01  0.35744000000E-01  0.51099999109E-03 0.  1.
       22    1    1    2    0    0  0.34004116929E-02 -0.53751976643E-02  0.35166433360E-01  0.35737005818E-01  0.00000000000E+00 0. -1.
  9000001    1    1    2    0    0 -0.34004116929E-02  0.53751976643E-02 -0.35166433360E-01  0.35750994182E-01  0.10000000475E-02 0.  1.
</event>
<event>
 4   0  0.2441219E-02  0.9118800E+02  0.7818609E-02  0.1379984E+01
      -11   -1    0    0    0    0  0.00000000000E+00  0.00000000000E+00  0.35740347158E-01  0.35744000000E-01  0.51099999109E-03 0.  1.
       11   -1    0    0    0    0 -0.00000000000E+00 -0.00000000000E+00 -0.35740347158E-01  0.35744000000E-01  0.51099999109E-03 0. -1.
       22    1    1    2    0    0 -0.43641421001E-02  0.33537336923E-03  0.35467948535E-01  0.35737005818E-01  0.00000000000E+00 0.  1.
  9000001    1    1    2    0    0  0.43641421001E-02 -0.33537336923E-03 -0.35467948535E-01  0.35750994182E-01  0.10000000475E-02 0. -1.
</event>
<event>
 4   0  0.2441219E-02  0.9118800E+02  0.7818609E-02  0.1379984E+01
      -11   -1    0    0    0    0  0.00000000000E+00  0.00000000000E+00  0.35740347158E-01  0.35744000000E-01  0.51099999109E-03 0. -1.
       11   -1    0    0    0    0 -0.00000000000E+00 -0.00000000000E+00 -0.35740347158E-01  0.35744000000E-01  0.51099999109E-03 0.  1.
       22    1    1    2    0    0 -0.33538536411E-02  0.21751759884E-02  0.35512728141E-01  0.35737005818E-01  0.00000000000E+00 0. -1.
  9000001    1    1    2    0    0  0.33538536411E-02 -0.21751759884E-02 -0.35512728141E-01  0.35750994182E-01  0.10000000475E-02 0.  1.
</event>
<event>
 4   0  0.2441219E-02  0.9118800E+02  0.7818609E-02  0.1379984E+01
      -11   -1    0    0    0    0  0.00000000000E+00  0.00000000000E+00  0.35740347158E-01  0.35744000000E-01  0.51099999109E-03 0.  1.
       11   -1    0    0    0    0 -0.00000000000E+00 -0.00000000000E+00 -0.35740347158E-01  0.35744000000E-01  0.51099999109E-03 0. -1.
       22    1    1    2    0    0  0.57049041078E-03  0.45690187489E-02  0.35439133641E-01  0.35737005818E-01  0.00000000000E+00 0.  1.
  9000001    1    1    2    0    0 -0.57049041078E-03 -0.45690187489E-02 -0.35439133641E-01  0.35750994182E-01  0.10000000475E-02 0. -1.
</event>
<event>
 4   0  0.2441219E-02  0.9118800E+02  0.7818609E-02  0.1379984E+01
      -11   -1    0    0    0    0  0.00000000000E+00  0.00000000000E+00  0.35740347158E-01  0.35744000000E-01  0.51099999109E-03 0. -1.
       11   -1    0    0    0    0 -0.00000000000E+00 -0.00000000000E+00 -0.35740347158E-01  0.35744000000E-01  0.51099999109E-03 0.  1.
       22    1    1    2    0    0 -0.70198554822E-04  0.13177337122E-01  0.33218766434E-01  0.35737005818E-01  0.00000000000E+00 0. -1.
  9000001    1    1    2    0    0  0.70198554822E-04 -0.13177337122E-01 -0.33218766434E-01  0.35750994182E-01  0.10000000475E-02 0.  1.
</event>
<event>
 4   0  0.2441219E-02  0.9118800E+02  0.7818609E-02  0.1379984E+01
      -11   -1    0    0    0    0  0.00000000000E+00  0.00000000000E+00  0.35740347158E-01  0.35744000000E-01  0.51099999109E-03 0.  1.
       11   -1    0    0    0    0 -0.00000000000E+00 -0.00000000000E+00 -0.35740347158E-01  0.35744000000E-01  0.51099999109E-03 0. -1.
       22    1    1    2    0    0  0.10625815249E-01 -0.22035373332E-01 -0.26051256348E-01  0.35737005818E-01  0.00000000000E+00 0. -1.
  9000001    1    1    2    0    0 -0.10625815249E-01  0.22035373332E-01  0.26051256348E-01  0.35750994182E-01  0.10000000475E-02 0.  1.
</event>
<event>
 4   0  0.2441219E-02  0.9118800E+02  0.7818609E-02  0.1379984E+01
      -11   -1    0    0    0    0  0.00000000000E+00  0.00000000000E+00  0.35740347158E-01  0.35744000000E-01  0.51099999109E-03 0. -1.
       11   -1    0    0    0    0 -0.00000000000E+00 -0.00000000000E+00 -0.35740347158E-01  0.35744000000E-01  0.51099999109E-03 0.  1.
       22    1    1    2    0    0  0.81099146306E-02 -0.71201354127E-02  0.34068556489E-01  0.35737005818E-01  0.00000000000E+00 0. -1.
  9000001    1    1    2    0    0 -0.81099146306E-02  0.71201354127E-02 -0.34068556489E-01  0.35750994182E-01  0.10000000475E-02 0.  1.
</event>
<event>
 4   0  0.2441219E-02  0.9118800E+02  0.7818609E-02  0.1379984E+01
      -11   -1    0    0    0    0  0.00000000000E+00  0.00000000000E+00  0.35740347158E-01  0.35744000000E-01  0.51099999109E-03 0.  1.
       11   -1    0    0    0    0 -0.00000000000E+00 -0.00000000000E+00 -0.35740347158E-01  0.35744000000E-01  0.51099999109E-03 0. -1.
       22    1    1    2    0    0 -0.32738704392E-02 -0.27215619297E-02  0.35482509182E-01  0.35737005818E-01  0.00000000000E+00 0.  1.
  9000001    1    1    2    0    0  0.32738704392E-02  0.27215619297E-02 -0.35482509182E-01  0.35750994182E-01  0.10000000475E-02 0. -1.
</event>
<event>
 4   0  0.2441219E-02  0.9118800E+02  0.7818609E-02  0.1379984E+01
      -11   -1    0    0    0    0  0.00000000000E+00  0.00000000000E+00  0.35740347158E-01  0.35744000000E-01  0.51099999109E-03 0.  1.
       11   -1    0    0    0    0 -0.00000000000E+00 -0.00000000000E+00 -0.35740347158E-01  0.35744000000E-01  0.51099999109E-03 0. -1.
       22    1    1    2    0    0 -0.14055930985E-01  0.11516389346E-01  0.30772344166E-01  0.35737005818E-01  0.00000000000E+00 0.  1.
  9000001    1    1    2    0    0  0.14055930985E-01 -0.11516389346E-01 -0.30772344166E-01  0.35750994182E-01  0.10000000475E-02 0. -1.
</event>
<event>
 4   0  0.2441219E-02  0.9118800E+02  0.7818609E-02  0.1379984E+01
      -11   -1    0    0    0    0  0.00000000000E+00  0.00000000000E+00  0.35740347158E-01  0.35744000000E-01  0.51099999109E-03 0.  1.
       11   -1    0    0    0    0 -0.00000000000E+00 -0.00000000000E+00 -0.35740347158E-01  0.35744000000E-01  0.51099999109E-03 0. -1.
       22    1    1    2    0    0  0.12881259396E-01 -0.27985522576E-01  0.18111246986E-01  0.35737005818E-01  0.00000000000E+00 0.  1.
  9000001    1    1    2    0    0 -0.12881259396E-01  0.27985522576E-01 -0.18111246986E-01  0.35750994182E-01  0.10000000475E-02 0. -1.
</event>
<event>
 4   0  0.2441219E-02  0.9118800E+02  0.7818609E-02  0.1379984E+01
      -11   -1    0    0    0    0  0.00000000000E+00  0.00000000000E+00  0.35740347158E-01  0.35744000000E-01  0.51099999109E-03 0.  1.
       11   -1    0    0    0    0 -0.00000000000E+00 -0.00000000000E+00 -0.35740347158E-01  0.35744000000E-01  0.51099999109E-03 0. -1.
       22    1    1    2    0    0 -0.31487049518E-02 -0.49946477794E-03 -0.35594518917E-01  0.35737005818E-01  0.00000000000E+00 0. -1.
  9000001    1    1    2    0    0  0.31487049518E-02  0.49946477794E-03  0.35594518917E-01  0.35750994182E-01  0.10000000475E-02 0.  1.
</event>
<event>
 4   0  0.2441219E-02  0.9118800E+02  0.7818609E-02  0.1379984E+01
      -11   -1    0    0    0    0  0.00000000000E+00  0.00000000000E+00  0.35740347158E-01  0.35744000000E-01  0.51099999109E-03 0.  1.
       11   -1    0    0    0    0 -0.00000000000E+00 -0.00000000000E+00 -0.35740347158E-01  0.35744000000E-01  0.51099999109E-03 0. -1.
       22    1    1    2    0    0 -0.30084343653E-02  0.29915818540E-02 -0.35484268987E-01  0.35737005818E-01  0.00000000000E+00 0. -1.
  9000001    1    1    2    0    0  0.30084343653E-02 -0.29915818540E-02  0.35484268987E-01  0.35750994182E-01  0.10000000475E-02 0.  1.
</event>
<event>
 4   0  0.2441219E-02  0.9118800E+02  0.7818609E-02  0.1379984E+01
      -11   -1    0    0    0    0  0.00000000000E+00  0.00000000000E+00  0.35740347158E-01  0.35744000000E-01  0.51099999109E-03 0.  1.
       11   -1    0    0    0    0 -0.00000000000E+00 -0.00000000000E+00 -0.35740347158E-01  0.35744000000E-01  0.51099999109E-03 0. -1.
       22    1    1    2    0    0 -0.13307982949E-01  0.60895941005E-03  0.33161126988E-01  0.35737005818E-01  0.00000000000E+00 0.  1.
  9000001    1    1    2    0    0  0.13307982949E-01 -0.60895941005E-03 -0.33161126988E-01  0.35750994182E-01  0.10000000475E-02 0. -1.
</event>
<event>
 4   0  0.2441219E-02  0.9118800E+02  0.7818609E-02  0.1379984E+01
      -11   -1    0    0    0    0  0.00000000000E+00  0.00000000000E+00  0.35740347158E-01  0.35744000000E-01  0.51099999109E-03 0.  1.
       11   -1    0    0    0    0 -0.00000000000E+00 -0.00000000000E+00 -0.35740347158E-01  0.35744000000E-01  0.51099999109E-03 0. -1.
       22    1    1    2    0    0 -0.20588278774E-01  0.13533201764E-01  0.25886460013E-01  0.35737005818E-01  0.00000000000E+00 0.  1.
  9000001    1    1    2    0    0  0.20588278774E-01 -0.13533201764E-01 -0.25886460013E-01  0.35750994182E-01  0.10000000475E-02 0. -1.
</event>
<event>
 4   0  0.2441219E-02  0.9118800E+02  0.7818609E-02  0.1379984E+01
      -11   -1    0    0    0    0  0.00000000000E+00  0.00000000000E+00  0.35740347158E-01  0.35744000000E-01  0.51099999109E-03 0. -1.
       11   -1    0    0    0    0 -0.00000000000E+00 -0.00000000000E+00 -0.35740347158E-01  0.35744000000E-01  0.51099999109E-03 0.  1.
       22    1    1    2    0    0  0.69578110256E-02  0.19545085476E-01  0.29098317552E-01  0.35737005818E-01  0.00000000000E+00 0. -1.
  9000001    1    1    2    0    0 -0.69578110256E-02 -0.19545085476E-01 -0.29098317552E-01  0.35750994182E-01  0.10000000475E-02 0.  1.
</event>
<event>
 4   0  0.2441219E-02  0.9118800E+02  0.7818609E-02  0.1379984E+01
      -11   -1    0    0    0    0  0.00000000000E+00  0.00000000000E+00  0.35740347158E-01  0.35744000000E-01  0.51099999109E-03 0.  1.
       11   -1    0    0    0    0 -0.00000000000E+00 -0.00000000000E+00 -0.35740347158E-01  0.35744000000E-01  0.51099999109E-03 0. -1.
       22    1    1    2    0    0  0.14135829739E-01 -0.28305274536E-02  0.32700153162E-01  0.35737005818E-01  0.00000000000E+00 0.  1.
  9000001    1    1    2    0    0 -0.14135829739E-01  0.28305274536E-02 -0.32700153162E-01  0.35750994182E-01  0.10000000475E-02 0. -1.
</event>
<event>
 4   0  0.2441219E-02  0.9118800E+02  0.7818609E-02  0.1379984E+01
      -11   -1    0    0    0    0  0.00000000000E+00  0.00000000000E+00  0.35740347158E-01  0.35744000000E-01  0.51099999109E-03 0. -1.
       11   -1    0    0    0    0 -0.00000000000E+00 -0.00000000000E+00 -0.35740347158E-01  0.35744000000E-01  0.51099999109E-03 0.  1.
       22    1    1    2    0    0 -0.14378851224E-01 -0.11578689303E-01  0.30599283919E-01  0.35737005818E-01  0.00000000000E+00 0. -1.
  9000001    1    1    2    0    0  0.14378851224E-01  0.11578689303E-01 -0.30599283919E-01  0.35750994182E-01  0.10000000475E-02 0.  1.
</event>
<event>
 4   0  0.2441219E-02  0.9118800E+02  0.7818609E-02  0.1379984E+01
      -11   -1    0    0    0    0  0.00000000000E+00  0.00000000000E+00  0.35740347158E-01  0.35744000000E-01  0.51099999109E-03 0. -1.
       11   -1    0    0    0    0 -0.00000000000E+00 -0.00000000000E+00 -0.35740347158E-01  0.35744000000E-01  0.51099999109E-03 0.  1.
       22    1    1    2    0    0 -0.53352239467E-02  0.70258910297E-02  0.34630995157E-01  0.35737005818E-01  0.00000000000E+00 0. -1.
  9000001    1    1    2    0    0  0.53352239467E-02 -0.70258910297E-02 -0.34630995157E-01  0.35750994182E-01  0.10000000475E-02 0.  1.
</event>
<event>
 4   0  0.2441219E-02  0.9118800E+02  0.7818609E-02  0.1379984E+01
      -11   -1    0    0    0    0  0.00000000000E+00  0.00000000000E+00  0.35740347158E-01  0.35744000000E-01  0.51099999109E-03 0. -1.
       11   -1    0    0    0    0 -0.00000000000E+00 -0.00000000000E+00 -0.35740347158E-01  0.35744000000E-01  0.51099999109E-03 0.  1.
       22    1    1    2    0    0 -0.96478915503E-02  0.22328658230E-01 -0.26181726359E-01  0.35737005818E-01  0.00000000000E+00 0.  1.
  9000001    1    1    2    0    0  0.96478915503E-02 -0.22328658230E-01  0.26181726359E-01  0.35750994182E-01  0.10000000475E-02 0. -1.
</event>
<event>
 4   0  0.2441219E-02  0.9118800E+02  0.7818609E-02  0.1379984E+01
      -11   -1    0    0    0    0  0.00000000000E+00  0.00000000000E+00  0.35740347158E-01  0.35744000000E-01  0.51099999109E-03 0.  1.
       11   -1    0    0    0    0 -0.00000000000E+00 -0.00000000000E+00 -0.35740347158E-01  0.35744000000E-01  0.51099999109E-03 0. -1.
       22    1    1    2    0    0  0.23517464249E-02 -0.34248289528E-02  0.35494695664E-01  0.35737005818E-01  0.00000000000E+00 0.  1.
  9000001    1    1    2    0    0 -0.23517464249E-02  0.34248289528E-02 -0.35494695664E-01  0.35750994182E-01  0.10000000475E-02 0. -1.
</event>
<event>
 4   0  0.2441219E-02  0.9118800E+02  0.7818609E-02  0.1379984E+01
      -11   -1    0    0    0    0  0.00000000000E+00  0.00000000000E+00  0.35740347158E-01  0.35744000000E-01  0.51099999109E-03 0. -1.
       11   -1    0    0    0    0 -0.00000000000E+00 -0.00000000000E+00 -0.35740347158E-01  0.35744000000E-01  0.51099999109E-03 0.  1.
       22    1    1    2    0    0  0.95190971569E-02  0.26587075493E-01 -0.21900862789E-01  0.35737005818E-01  0.00000000000E+00 0.  1.
  9000001    1    1    2    0    0 -0.95190971569E-02 -0.26587075493E-01  0.21900862789E-01  0.35750994182E-01  0.10000000475E-02 0. -1.
</event>
<event>
 4   0  0.2441219E-02  0.9118800E+02  0.7818609E-02  0.1379984E+01
      -11   -1    0    0    0    0  0.00000000000E+00  0.00000000000E+00  0.35740347158E-01  0.35744000000E-01  0.51099999109E-03 0.  1.
       11   -1    0    0    0    0 -0.00000000000E+00 -0.00000000000E+00 -0.35740347158E-01  0.35744000000E-01  0.51099999109E-03 0. -1.
       22    1    1    2    0    0  0.72197815132E-02  0.23121804383E-01 -0.26275283097E-01  0.35737005818E-01  0.00000000000E+00 0. -1.
  9000001    1    1    2    0    0 -0.72197815132E-02 -0.23121804383E-01  0.26275283097E-01  0.35750994182E-01  0.10000000475E-02 0.  1.
</event>
<event>
 4   0  0.2441219E-02  0.9118800E+02  0.7818609E-02  0.1379984E+01
      -11   -1    0    0    0    0  0.00000000000E+00  0.00000000000E+00  0.35740347158E-01  0.35744000000E-01  0.51099999109E-03 0.  1.
       11   -1    0    0    0    0 -0.00000000000E+00 -0.00000000000E+00 -0.35740347158E-01  0.35744000000E-01  0.51099999109E-03 0. -1.
       22    1    1    2    0    0  0.43383970103E-02 -0.60107699232E-03  0.35467599337E-01  0.35737005818E-01  0.00000000000E+00 0.  1.
  9000001    1    1    2    0    0 -0.43383970103E-02  0.60107699232E-03 -0.35467599337E-01  0.35750994182E-01  0.10000000475E-02 0. -1.
</event>
<event>
 4   0  0.2441219E-02  0.9118800E+02  0.7818609E-02  0.1379984E+01
      -11   -1    0    0    0    0  0.00000000000E+00  0.00000000000E+00  0.35740347158E-01  0.35744000000E-01  0.51099999109E-03 0.  1.
       11   -1    0    0    0    0 -0.00000000000E+00 -0.00000000000E+00 -0.35740347158E-01  0.35744000000E-01  0.51099999109E-03 0. -1.
       22    1    1    2    0    0 -0.17789646133E-01 -0.29634709018E-01 -0.90799833001E-02  0.35737005818E-01  0.00000000000E+00 0.  1.
  9000001    1    1    2    0    0  0.17789646133E-01  0.29634709018E-01  0.90799833001E-02  0.35750994182E-01  0.10000000475E-02 0. -1.
</event>
<event>
 4   0  0.2441219E-02  0.9118800E+02  0.7818609E-02  0.1379984E+01
      -11   -1    0    0    0    0  0.00000000000E+00  0.00000000000E+00  0.35740347158E-01  0.35744000000E-01  0.51099999109E-03 0. -1.
       11   -1    0    0    0    0 -0.00000000000E+00 -0.00000000000E+00 -0.35740347158E-01  0.35744000000E-01  0.51099999109E-03 0.  1.
       22    1    1    2    0    0 -0.10151964691E-02 -0.22787619794E-01 -0.27510495182E-01  0.35737005818E-01  0.00000000000E+00 0.  1.
  9000001    1    1    2    0    0  0.10151964691E-02  0.22787619794E-01  0.27510495182E-01  0.35750994182E-01  0.10000000475E-02 0. -1.
</event>
<event>
 4   0  0.2441219E-02  0.9118800E+02  0.7818609E-02  0.1379984E+01
      -11   -1    0    0    0    0  0.00000000000E+00  0.00000000000E+00  0.35740347158E-01  0.35744000000E-01  0.51099999109E-03 0. -1.
       11   -1    0    0    0    0 -0.00000000000E+00 -0.00000000000E+00 -0.35740347158E-01  0.35744000000E-01  0.51099999109E-03 0.  1.
       22    1    1    2    0    0  0.33893818884E-02 -0.38545954537E-02 -0.35366478043E-01  0.35737005818E-01  0.00000000000E+00 0.  1.
  9000001    1    1    2    0    0 -0.33893818884E-02  0.38545954537E-02  0.35366478043E-01  0.35750994182E-01  0.10000000475E-02 0. -1.
</event>
<event>
 4   0  0.2441219E-02  0.9118800E+02  0.7818609E-02  0.1379984E+01
      -11   -1    0    0    0    0  0.00000000000E+00  0.00000000000E+00  0.35740347158E-01  0.35744000000E-01  0.51099999109E-03 0. -1.
       11   -1    0    0    0    0 -0.00000000000E+00 -0.00000000000E+00 -0.35740347158E-01  0.35744000000E-01  0.51099999109E-03 0.  1.
       22    1    1    2    0    0 -0.43017714761E-02 -0.14409195620E-02 -0.35447878609E-01  0.35737005818E-01  0.00000000000E+00 0.  1.
  9000001    1    1    2    0    0  0.43017714761E-02  0.14409195620E-02  0.35447878609E-01  0.35750994182E-01  0.10000000475E-02 0. -1.
</event>
<event>
 4   0  0.2441219E-02  0.9118800E+02  0.7818609E-02  0.1379984E+01
      -11   -1    0    0    0    0  0.00000000000E+00  0.00000000000E+00  0.35740347158E-01  0.35744000000E-01  0.51099999109E-03 0. -1.
       11   -1    0    0    0    0 -0.00000000000E+00 -0.00000000000E+00 -0.35740347158E-01  0.35744000000E-01  0.51099999109E-03 0.  1.
       22    1    1    2    0    0 -0.53809063131E-02 -0.10510846141E-01  0.33729831685E-01  0.35737005818E-01  0.00000000000E+00 0. -1.
  9000001    1    1    2    0    0  0.53809063131E-02  0.10510846141E-01 -0.33729831685E-01  0.35750994182E-01  0.10000000475E-02 0.  1.
</event>
<event>
 4   0  0.2441219E-02  0.9118800E+02  0.7818609E-02  0.1379984E+01
      -11   -1    0    0    0    0  0.00000000000E+00  0.00000000000E+00  0.35740347158E-01  0.35744000000E-01  0.51099999109E-03 0.  1.
       11   -1    0    0    0    0 -0.00000000000E+00 -0.00000000000E+00 -0.35740347158E-01  0.35744000000E-01  0.51099999109E-03 0. -1.
       22    1    1    2    0    0 -0.10551455946E-01 -0.13867713225E-01  0.31200751469E-01  0.35737005818E-01  0.00000000000E+00 0.  1.
  9000001    1    1    2    0    0  0.10551455946E-01  0.13867713225E-01 -0.31200751469E-01  0.35750994182E-01  0.10000000475E-02 0. -1.
</event>
<event>
 4   0  0.2441219E-02  0.9118800E+02  0.7818609E-02  0.1379984E+01
      -11   -1    0    0    0    0  0.00000000000E+00  0.00000000000E+00  0.35740347158E-01  0.35744000000E-01  0.51099999109E-03 0.  1.
       11   -1    0    0    0    0 -0.00000000000E+00 -0.00000000000E+00 -0.35740347158E-01  0.35744000000E-01  0.51099999109E-03 0. -1.
       22    1    1    2    0    0  0.79354549132E-02 -0.25985912795E-01  0.23214100810E-01  0.35737005818E-01  0.00000000000E+00 0. -1.
  9000001    1    1    2    0    0 -0.79354549132E-02  0.25985912795E-01 -0.23214100810E-01  0.35750994182E-01  0.10000000475E-02 0.  1.
</event>
<event>
 4   0  0.2441219E-02  0.9118800E+02  0.7818609E-02  0.1379984E+01
      -11   -1    0    0    0    0  0.00000000000E+00  0.00000000000E+00  0.35740347158E-01  0.35744000000E-01  0.51099999109E-03 0.  1.
       11   -1    0    0    0    0 -0.00000000000E+00 -0.00000000000E+00 -0.35740347158E-01  0.35744000000E-01  0.51099999109E-03 0. -1.
       22    1    1    2    0    0  0.68450926212E-02  0.10786480065E-01  0.33375591975E-01  0.35737005818E-01  0.00000000000E+00 0.  1.
  9000001    1    1    2    0    0 -0.68450926212E-02 -0.10786480065E-01 -0.33375591975E-01  0.35750994182E-01  0.10000000475E-02 0. -1.
</event>
<event>
 4   0  0.2441219E-02  0.9118800E+02  0.7818609E-02  0.1379984E+01
      -11   -1    0    0    0    0  0.00000000000E+00  0.00000000000E+00  0.35740347158E-01  0.35744000000E-01  0.51099999109E-03 0. -1.
       11   -1    0    0    0    0 -0.00000000000E+00 -0.00000000000E+00 -0.35740347158E-01  0.35744000000E-01  0.51099999109E-03 0.  1.
       22    1    1    2    0    0 -0.19090281015E-01 -0.65034757943E-03  0.30203837565E-01  0.35737005818E-01  0.00000000000E+00 0. -1.
  9000001    1    1    2    0    0  0.19090281015E-01  0.65034757943E-03 -0.30203837565E-01  0.35750994182E-01  0.10000000475E-02 0.  1.
</event>
<event>
 4   0  0.2441219E-02  0.9118800E+02  0.7818609E-02  0.1379984E+01
      -11   -1    0    0    0    0  0.00000000000E+00  0.00000000000E+00  0.35740347158E-01  0.35744000000E-01  0.51099999109E-03 0.  1.
       11   -1    0    0    0    0 -0.00000000000E+00 -0.00000000000E+00 -0.35740347158E-01  0.35744000000E-01  0.51099999109E-03 0. -1.
       22    1    1    2    0    0  0.14965548609E-01  0.32427147945E-01  0.12829714805E-02  0.35737005818E-01  0.00000000000E+00 0.  1.
  9000001    1    1    2    0    0 -0.14965548609E-01 -0.32427147945E-01 -0.12829714805E-02  0.35750994182E-01  0.10000000475E-02 0. -1.
</event>
<event>
 4   0  0.2441219E-02  0.9118800E+02  0.7818609E-02  0.1379984E+01
      -11   -1    0    0    0    0  0.00000000000E+00  0.00000000000E+00  0.35740347158E-01  0.35744000000E-01  0.51099999109E-03 0. -1.
       11   -1    0    0    0    0 -0.00000000000E+00 -0.00000000000E+00 -0.35740347158E-01  0.35744000000E-01  0.51099999109E-03 0.  1.
       22    1    1    2    0    0 -0.12792830726E-01 -0.65919317850E-03  0.33362292056E-01  0.35737005818E-01  0.00000000000E+00 0. -1.
  9000001    1    1    2    0    0  0.12792830726E-01  0.65919317850E-03 -0.33362292056E-01  0.35750994182E-01  0.10000000475E-02 0.  1.
</event>
<event>
 4   0  0.2441219E-02  0.9118800E+02  0.7818609E-02  0.1379984E+01
      -11   -1    0    0    0    0  0.00000000000E+00  0.00000000000E+00  0.35740347158E-01  0.35744000000E-01  0.51099999109E-03 0. -1.
       11   -1    0    0    0    0 -0.00000000000E+00 -0.00000000000E+00 -0.35740347158E-01  0.35744000000E-01  0.51099999109E-03 0.  1.
       22    1    1    2    0    0 -0.81776670728E-02  0.34009012318E-02 -0.34622149225E-01  0.35737005818E-01  0.00000000000E+00 0.  1.
  9000001    1    1    2    0    0  0.81776670728E-02 -0.34009012318E-02  0.34622149225E-01  0.35750994182E-01  0.10000000475E-02 0. -1.
</event>
<event>
 4   0  0.2441219E-02  0.9118800E+02  0.7818609E-02  0.1379984E+01
      -11   -1    0    0    0    0  0.00000000000E+00  0.00000000000E+00  0.35740347158E-01  0.35744000000E-01  0.51099999109E-03 0. -1.
       11   -1    0    0    0    0 -0.00000000000E+00 -0.00000000000E+00 -0.35740347158E-01  0.35744000000E-01  0.51099999109E-03 0.  1.
       22    1    1    2    0    0  0.35857477362E-02 -0.12466987607E-02 -0.35534796190E-01  0.35737005818E-01  0.00000000000E+00 0.  1.
  9000001    1    1    2    0    0 -0.35857477362E-02  0.12466987607E-02  0.35534796190E-01  0.35750994182E-01  0.10000000475E-02 0. -1.
</event>
<event>
 4   0  0.2441219E-02  0.9118800E+02  0.7818609E-02  0.1379984E+01
      -11   -1    0    0    0    0  0.00000000000E+00  0.00000000000E+00  0.35740347158E-01  0.35744000000E-01  0.51099999109E-03 0.  1.
       11   -1    0    0    0    0 -0.00000000000E+00 -0.00000000000E+00 -0.35740347158E-01  0.35744000000E-01  0.51099999109E-03 0. -1.
       22    1    1    2    0    0  0.32101228245E-02  0.78568651849E-03 -0.35583864223E-01  0.35737005818E-01  0.00000000000E+00 0. -1.
  9000001    1    1    2    0    0 -0.32101228245E-02 -0.78568651849E-03  0.35583864223E-01  0.35750994182E-01  0.10000000475E-02 0.  1.
</event>
<event>
 4   0  0.2441219E-02  0.9118800E+02  0.7818609E-02  0.1379984E+01
      -11   -1    0    0    0    0  0.00000000000E+00  0.00000000000E+00  0.35740347158E-01  0.35744000000E-01  0.51099999109E-03 0.  1.
       11   -1    0    0    0    0 -0.00000000000E+00 -0.00000000000E+00 -0.35740347158E-01  0.35744000000E-01  0.51099999109E-03 0. -1.
       22    1    1    2    0    0 -0.11062652976E-01 -0.30576152215E-01 -0.14827346686E-01  0.35737005818E-01  0.00000000000E+00 0. -1.
  9000001    1    1    2    0    0  0.11062652976E-01  0.30576152215E-01  0.14827346686E-01  0.35750994182E-01  0.10000000475E-02 0.  1.
</event>
<event>
 4   0  0.2441219E-02  0.9118800E+02  0.7818609E-02  0.1379984E+01
      -11   -1    0    0    0    0  0.00000000000E+00  0.00000000000E+00  0.35740347158E-01  0.35744000000E-01  0.51099999109E-03 0.  1.
       11   -1    0    0    0    0 -0.00000000000E+00 -0.00000000000E+00 -0.35740347158E-01  0.35744000000E-01  0.51099999109E-03 0. -1.
       22    1    1    2    0    0 -0.17051547114E-01  0.28815467907E-01  0.12491882773E-01  0.35737005818E-01  0.00000000000E+00 0.  1.
  9000001    1    1    2    0    0  0.17051547114E-01 -0.28815467907E-01 -0.12491882773E-01  0.35750994182E-01  0.10000000475E-02 0. -1.
</event>
<event>
 4   0  0.2441219E-02  0.9118800E+02  0.7818609E-02  0.1379984E+01
      -11   -1    0    0    0    0  0.00000000000E+00  0.00000000000E+00  0.35740347158E-01  0.35744000000E-01  0.51099999109E-03 0. -1.
       11   -1    0    0    0    0 -0.00000000000E+00 -0.00000000000E+00 -0.35740347158E-01  0.35744000000E-01  0.51099999109E-03 0.  1.
       22    1    1    2    0    0 -0.14340409199E-01 -0.12054242104E-01  0.30433230130E-01  0.35737005818E-01  0.00000000000E+00 0. -1.
  9000001    1    1    2    0    0  0.14340409199E-01  0.12054242104E-01 -0.30433230130E-01  0.35750994182E-01  0.10000000475E-02 0.  1.
</event>
<event>
 4   0  0.2441219E-02  0.9118800E+02  0.7818609E-02  0.1379984E+01
      -11   -1    0    0    0    0  0.00000000000E+00  0.00000000000E+00  0.35740347158E-01  0.35744000000E-01  0.51099999109E-03 0. -1.
       11   -1    0    0    0    0 -0.00000000000E+00 -0.00000000000E+00 -0.35740347158E-01  0.35744000000E-01  0.51099999109E-03 0.  1.
       22    1    1    2    0    0  0.13178101927E-01  0.10419358867E-01  0.31542165038E-01  0.35737005818E-01  0.00000000000E+00 0. -1.
  9000001    1    1    2    0    0 -0.13178101927E-01 -0.10419358867E-01 -0.31542165038E-01  0.35750994182E-01  0.10000000475E-02 0.  1.
</event>
<event>
 4   0  0.2441219E-02  0.9118800E+02  0.7818609E-02  0.1379984E+01
      -11   -1    0    0    0    0  0.00000000000E+00  0.00000000000E+00  0.35740347158E-01  0.35744000000E-01  0.51099999109E-03 0. -1.
       11   -1    0    0    0    0 -0.00000000000E+00 -0.00000000000E+00 -0.35740347158E-01  0.35744000000E-01  0.51099999109E-03 0.  1.
       22    1    1    2    0    0  0.16025449383E-01  0.13634411774E-01 -0.28886352704E-01  0.35737005818E-01  0.00000000000E+00 0.  1.
  9000001    1    1    2    0    0 -0.16025449383E-01 -0.13634411774E-01  0.28886352704E-01  0.35750994182E-01  0.10000000475E-02 0. -1.
</event>
<event>
 4   0  0.2441219E-02  0.9118800E+02  0.7818609E-02  0.1379984E+01
      -11   -1    0    0    0    0  0.00000000000E+00  0.00000000000E+00  0.35740347158E-01  0.35744000000E-01  0.51099999109E-03 0.  1.
       11   -1    0    0    0    0 -0.00000000000E+00 -0.00000000000E+00 -0.35740347158E-01  0.35744000000E-01  0.51099999109E-03 0. -1.
       22    1    1    2    0    0  0.16166355833E-02  0.65677526577E-02  0.35091091452E-01  0.35737005818E-01  0.00000000000E+00 0.  1.
  9000001    1    1    2    0    0 -0.16166355833E-02 -0.65677526577E-02 -0.35091091452E-01  0.35750994182E-01  0.10000000475E-02 0. -1.
</event>
<event>
 4   0  0.2441219E-02  0.9118800E+02  0.7818609E-02  0.1379984E+01
      -11   -1    0    0    0    0  0.00000000000E+00  0.00000000000E+00  0.35740347158E-01  0.35744000000E-01  0.51099999109E-03 0. -1.
       11   -1    0    0    0    0 -0.00000000000E+00 -0.00000000000E+00 -0.35740347158E-01  0.35744000000E-01  0.51099999109E-03 0.  1.
       22    1    1    2    0    0 -0.41207551623E-02  0.11042611572E-01  0.33737422715E-01  0.35737005818E-01  0.00000000000E+00 0. -1.
  9000001    1    1    2    0    0  0.41207551623E-02 -0.11042611572E-01 -0.33737422715E-01  0.35750994182E-01  0.10000000475E-02 0.  1.
</event>
<event>
 4   0  0.2441219E-02  0.9118800E+02  0.7818609E-02  0.1379984E+01
      -11   -1    0    0    0    0  0.00000000000E+00  0.00000000000E+00  0.35740347158E-01  0.35744000000E-01  0.51099999109E-03 0. -1.
       11   -1    0    0    0    0 -0.00000000000E+00 -0.00000000000E+00 -0.35740347158E-01  0.35744000000E-01  0.51099999109E-03 0.  1.
       22    1    1    2    0    0  0.48944498358E-03  0.13667112154E-01 -0.33016724154E-01  0.35737005818E-01  0.00000000000E+00 0.  1.
  9000001    1    1    2    0    0 -0.48944498358E-03 -0.13667112154E-01  0.33016724154E-01  0.35750994182E-01  0.10000000475E-02 0. -1.
</event>
<event>
 4   0  0.2441219E-02  0.9118800E+02  0.7818609E-02  0.1379984E+01
      -11   -1    0    0    0    0  0.00000000000E+00  0.00000000000E+00  0.35740347158E-01  0.35744000000E-01  0.51099999109E-03 0. -1.
       11   -1    0    0    0    0 -0.00000000000E+00 -0.00000000000E+00 -0.35740347158E-01  0.35744000000E-01  0.51099999109E-03 0.  1.
       22    1    1    2    0    0 -0.22006511099E-01 -0.24836268206E-01 -0.13266756790E-01  0.35737005818E-01  0.00000000000E+00 0.  1.
  9000001    1    1    2    0    0  0.22006511099E-01  0.24836268206E-01  0.13266756790E-01  0.35750994182E-01  0.10000000475E-02 0. -1.
</event>
<event>
 4   0  0.2441219E-02  0.9118800E+02  0.7818609E-02  0.1379984E+01
      -11   -1    0    0    0    0  0.00000000000E+00  0.00000000000E+00  0.35740347158E-01  0.35744000000E-01  0.51099999109E-03 0. -1.
       11   -1    0    0    0    0 -0.00000000000E+00 -0.00000000000E+00 -0.35740347158E-01  0.35744000000E-01  0.51099999109E-03 0.  1.
       22    1    1    2    0    0  0.85004754703E-02  0.15158108447E-01 -0.31226707318E-01  0.35737005818E-01  0.00000000000E+00 0.  1.
  9000001    1    1    2    0    0 -0.85004754703E-02 -0.15158108447E-01  0.31226707318E-01  0.35750994182E-01  0.10000000475E-02 0. -1.
</event>
<event>
 4   0  0.2441219E-02  0.9118800E+02  0.7818609E-02  0.1379984E+01
      -11   -1    0    0    0    0  0.00000000000E+00  0.00000000000E+00  0.35740347158E-01  0.35744000000E-01  0.51099999109E-03 0.  1.
       11   -1    0    0    0    0 -0.00000000000E+00 -0.00000000000E+00 -0.35740347158E-01  0.35744000000E-01  0.51099999109E-03 0. -1.
       22    1    1    2    0    0 -0.30097508032E-02 -0.15410791702E-02 -0.35576678597E-01  0.35737005818E-01  0.00000000000E+00 0. -1.
  9000001    1    1    2    0    0  0.30097508032E-02  0.15410791702E-02  0.35576678597E-01  0.35750994182E-01  0.10000000475E-02 0.  1.
</event>
<event>
 4   0  0.2441219E-02  0.9118800E+02  0.7818609E-02  0.1379984E+01
      -11   -1    0    0    0    0  0.00000000000E+00  0.00000000000E+00  0.35740347158E-01  0.35744000000E-01  0.51099999109E-03 0. -1.
       11   -1    0    0    0    0 -0.00000000000E+00 -0.00000000000E+00 -0.35740347158E-01  0.35744000000E-01  0.51099999109E-03 0.  1.
       22    1    1    2    0    0  0.15048035794E-01 -0.14982133965E-01  0.28744144890E-01  0.35737005818E-01  0.00000000000E+00 0. -1.
  9000001    1    1    2    0    0 -0.15048035794E-01  0.14982133965E-01 -0.28744144890E-01  0.35750994182E-01  0.10000000475E-02 0.  1.
</event>
<event>
 4   0  0.2441219E-02  0.9118800E+02  0.7818609E-02  0.1379984E+01
      -11   -1    0    0    0    0  0.00000000000E+00  0.00000000000E+00  0.35740347158E-01  0.35744000000E-01  0.51099999109E-03 0.  1.
       11   -1    0    0    0    0 -0.00000000000E+00 -0.00000000000E+00 -0.35740347158E-01  0.35744000000E-01  0.51099999109E-03 0. -1.
       22    1    1    2    0    0 -0.32121857702E-01 -0.13442309359E-01  0.80389154563E-02  0.35737005818E-01  0.00000000000E+00 0. -1.
  9000001    1    1    2    0    0  0.32121857702E-01  0.13442309359E-01 -0.80389154563E-02  0.35750994182E-01  0.10000000475E-02 0.  1.
</event>
<event>
 4   0  0.2441219E-02  0.9118800E+02  0.7818609E-02  0.1379984E+01
      -11   -1    0    0    0    0  0.00000000000E+00  0.00000000000E+00  0.35740347158E-01  0.35744000000E-01  0.51099999109E-03 0.  1.
       11   -1    0    0    0    0 -0.00000000000E+00 -0.00000000000E+00 -0.35740347158E-01  0.35744000000E-01  0.51099999109E-03 0. -1.
       22    1    1    2    0    0  0.10624386061E-02  0.30553434688E-01  0.18506551214E-01  0.35737005818E-01  0.00000000000E+00 0.  1.
  9000001    1    1    2    0    0 -0.10624386061E-02 -0.30553434688E-01 -0.18506551214E-01  0.35750994182E-01  0.10000000475E-02 0. -1.
</event>
<event>
 4   0  0.2441219E-02  0.9118800E+02  0.7818609E-02  0.1379984E+01
      -11   -1    0    0    0    0  0.00000000000E+00  0.00000000000E+00  0.35740347158E-01  0.35744000000E-01  0.51099999109E-03 0.  1.
       11   -1    0    0    0    0 -0.00000000000E+00 -0.00000000000E+00 -0.35740347158E-01  0.35744000000E-01  0.51099999109E-03 0. -1.
       22    1    1    2    0    0  0.14584572986E-01  0.93405969099E-02 -0.31259831494E-01  0.35737005818E-01  0.00000000000E+00 0. -1.
  9000001    1    1    2    0    0 -0.14584572986E-01 -0.93405969099E-02  0.31259831494E-01  0.35750994182E-01  0.10000000475E-02 0.  1.
</event>
<event>
 4   0  0.2441219E-02  0.9118800E+02  0.7818609E-02  0.1379984E+01
      -11   -1    0    0    0    0  0.00000000000E+00  0.00000000000E+00  0.35740347158E-01  0.35744000000E-01  0.51099999109E-03 0.  1.
       11   -1    0    0    0    0 -0.00000000000E+00 -0.00000000000E+00 -0.35740347158E-01  0.35744000000E-01  0.51099999109E-03 0. -1.
       22    1    1    2    0    0  0.23087255054E-01  0.11342552911E-01 -0.24808440750E-01  0.35737005818E-01  0.00000000000E+00 0. -1.
  9000001    1    1    2    0    0 -0.23087255054E-01 -0.11342552911E-01  0.24808440750E-01  0.35750994182E-01  0.10000000475E-02 0.  1.
</event>
<event>
 4   0  0.2441219E-02  0.9118800E+02  0.7818609E-02  0.1379984E+01
      -11   -1    0    0    0    0  0.00000000000E+00  0.00000000000E+00  0.35740347158E-01  0.35744000000E-01  0.51099999109E-03 0. -1.
       11   -1    0    0    0    0 -0.00000000000E+00 -0.00000000000E+00 -0.35740347158E-01  0.35744000000E-01  0.51099999109E-03 0.  1.
       22    1    1    2    0    0  0.17164193643E-01  0.23288705371E-01 -0.20979996273E-01  0.35737005818E-01  0.00000000000E+00 0.  1.
  9000001    1    1    2    0    0 -0.17164193643E-01 -0.23288705371E-01  0.20979996273E-01  0.35750994182E-01  0.10000000475E-02 0. -1.
</event>
<event>
 4   0  0.2441219E-02  0.9118800E+02  0.7818609E-02  0.1379984E+01
      -11   -1    0    0    0    0  0.00000000000E+00  0.00000000000E+00  0.35740347158E-01  0.35744000000E-01  0.51099999109E-03 0. -1.
       11   -1    0    0    0    0 -0.00000000000E+00 -0.00000000000E+00 -0.35740347158E-01  0.35744000000E-01  0.51099999109E-03 0.  1.
       22    1    1    2    0    0 -0.40303036615E-02  0.25255021966E-03  0.35508118165E-01  0.35737005818E-01  0.00000000000E+00 0. -1.
  9000001    1    1    2    0    0  0.40303036615E-02 -0.25255021966E-03 -0.35508118165E-01  0.35750994182E-01  0.10000000475E-02 0.  1.
</event>
<event>
 4   0  0.2441219E-02  0.9118800E+02  0.7818609E-02  0.1379984E+01
      -11   -1    0    0    0    0  0.00000000000E+00  0.00000000000E+00  0.35740347158E-01  0.35744000000E-01  0.51099999109E-03 0.  1.
       11   -1    0    0    0    0 -0.00000000000E+00 -0.00000000000E+00 -0.35740347158E-01  0.35744000000E-01  0.51099999109E-03 0. -1.
       22    1    1    2    0    0 -0.50934997813E-02 -0.20750578958E-01 -0.28646174575E-01  0.35737005818E-01  0.00000000000E+00 0. -1.
  9000001    1    1    2    0    0  0.50934997813E-02  0.20750578958E-01  0.28646174575E-01  0.35750994182E-01  0.10000000475E-02 0.  1.
</event>
<event>
 4   0  0.2441219E-02  0.9118800E+02  0.7818609E-02  0.1379984E+01
      -11   -1    0    0    0    0  0.00000000000E+00  0.00000000000E+00  0.35740347158E-01  0.35744000000E-01  0.51099999109E-03 0.  1.
       11   -1    0    0    0    0 -0.00000000000E+00 -0.00000000000E+00 -0.35740347158E-01  0.35744000000E-01  0.51099999109E-03 0. -1.
       22    1    1    2    0    0 -0.11589178635E-01  0.32152824784E-01 -0.10441282576E-01  0.35737005818E-01  0.00000000000E+00 0. -1.
  9000001    1    1    2    0    0  0.11589178635E-01 -0.32152824784E-01  0.10441282576E-01  0.35750994182E-01  0.10000000475E-02 0.  1.
</event>
<event>
 4   0  0.2441219E-02  0.9118800E+02  0.7818609E-02  0.1379984E+01
      -11   -1    0    0    0    0  0.00000000000E+00  0.00000000000E+00  0.35740347158E-01  0.35744000000E-01  0.51099999109E-03 0.  1.
       11   -1    0    0    0    0 -0.00000000000E+00 -0.00000000000E+00 -0.35740347158E-01  0.35744000000E-01  0.51099999109E-03 0. -1.
       22    1    1    2    0    0  0.96889963606E-02 -0.17964129205E-01 -0.29335081324E-01  0.35737005818E-01  0.00000000000E+00 0. -1.
  9000001    1    1    2    0    0 -0.96889963606E-02  0.17964129205E-01  0.29335081324E-01  0.35750994182E-01  0.10000000475E-02 0.  1.
</event>
<event>
 4   0  0.2441219E-02  0.9118800E+02  0.7818609E-02  0.1379984E+01
      -11   -1    0    0    0    0  0.00000000000E+00  0.00000000000E+00  0.35740347158E-01  0.35744000000E-01  0.51099999109E-03 0.  1.
       11   -1    0    0    0    0 -0.00000000000E+00 -0.00000000000E+00 -0.35740347158E-01  0.35744000000E-01  0.51099999109E-03 0. -1.
       22    1    1    2    0    0  0.10030711271E-02  0.31044670902E-02 -0.35587774829E-01  0.35737005818E-01  0.00000000000E+00 0. -1.
  9000001    1    1    2    0    0 -0.10030711271E-02 -0.31044670902E-02  0.35587774829E-01  0.35750994182E-01  0.10000000475E-02 0.  1.
</event>
<event>
 4   0  0.2441219E-02  0.9118800E+02  0.7818609E-02  0.1379984E+01
      -11   -1    0    0    0    0  0.00000000000E+00  0.00000000000E+00  0.35740347158E-01  0.35744000000E-01  0.51099999109E-03 0.  1.
       11   -1    0    0    0    0 -0.00000000000E+00 -0.00000000000E+00 -0.35740347158E-01  0.35744000000E-01  0.51099999109E-03 0. -1.
       22    1    1    2    0    0 -0.84360730991E-02  0.38653289516E-02 -0.34511237121E-01  0.35737005818E-01  0.00000000000E+00 0. -1.
  9000001    1    1    2    0    0  0.84360730991E-02 -0.38653289516E-02  0.34511237121E-01  0.35750994182E-01  0.10000000475E-02 0.  1.
</event>
<event>
 4   0  0.2441219E-02  0.9118800E+02  0.7818609E-02  0.1379984E+01
      -11   -1    0    0    0    0  0.00000000000E+00  0.00000000000E+00  0.35740347158E-01  0.35744000000E-01  0.51099999109E-03 0. -1.
       11   -1    0    0    0    0 -0.00000000000E+00 -0.00000000000E+00 -0.35740347158E-01  0.35744000000E-01  0.51099999109E-03 0.  1.
       22    1    1    2    0    0 -0.48436020045E-03 -0.30848381513E-02  0.35600319572E-01  0.35737005818E-01  0.00000000000E+00 0. -1.
  9000001    1    1    2    0    0  0.48436020045E-03  0.30848381513E-02 -0.35600319572E-01  0.35750994182E-01  0.10000000475E-02 0.  1.
</event>
<event>
 4   0  0.2441219E-02  0.9118800E+02  0.7818609E-02  0.1379984E+01
      -11   -1    0    0    0    0  0.00000000000E+00  0.00000000000E+00  0.35740347158E-01  0.35744000000E-01  0.51099999109E-03 0.  1.
       11   -1    0    0    0    0 -0.00000000000E+00 -0.00000000000E+00 -0.35740347158E-01  0.35744000000E-01  0.51099999109E-03 0. -1.
       22    1    1    2    0    0 -0.64773624136E-02  0.10949582653E-01 -0.33395868019E-01  0.35737005818E-01  0.00000000000E+00 0. -1.
  9000001    1    1    2    0    0  0.64773624136E-02 -0.10949582653E-01  0.33395868019E-01  0.35750994182E-01  0.10000000475E-02 0.  1.
</event>
<event>
 4   0  0.2441219E-02  0.9118800E+02  0.7818609E-02  0.1379984E+01
      -11   -1    0    0    0    0  0.00000000000E+00  0.00000000000E+00  0.35740347158E-01  0.35744000000E-01  0.51099999109E-03 0.  1.
       11   -1    0    0    0    0 -0.00000000000E+00 -0.00000000000E+00 -0.35740347158E-01  0.35744000000E-01  0.51099999109E-03 0. -1.
       22    1    1    2    0    0 -0.45438402994E-02 -0.18071370121E-01 -0.30494469698E-01  0.35737005818E-01  0.00000000000E+00 0. -1.
  9000001    1    1    2    0    0  0.45438402994E-02  0.18071370121E-01  0.30494469698E-01  0.35750994182E-01  0.10000000475E-02 0.  1.
</event>
<event>
 4   0  0.2441219E-02  0.9118800E+02  0.7818609E-02  0.1379984E+01
      -11   -1    0    0    0    0  0.00000000000E+00  0.00000000000E+00  0.35740347158E-01  0.35744000000E-01  0.51099999109E-03 0.  1.
       11   -1    0    0    0    0 -0.00000000000E+00 -0.00000000000E+00 -0.35740347158E-01  0.35744000000E-01  0.51099999109E-03 0. -1.
       22    1    1    2    0    0 -0.18022102601E-01  0.30615919272E-01  0.38733564076E-02  0.35737005818E-01  0.00000000000E+00 0.  1.
  9000001    1    1    2    0    0  0.18022102601E-01 -0.30615919272E-01 -0.38733564076E-02  0.35750994182E-01  0.10000000475E-02 0. -1.
</event>
<event>
 4   0  0.2441219E-02  0.9118800E+02  0.7818609E-02  0.1379984E+01
      -11   -1    0    0    0    0  0.00000000000E+00  0.00000000000E+00  0.35740347158E-01  0.35744000000E-01  0.51099999109E-03 0. -1.
       11   -1    0    0    0    0 -0.00000000000E+00 -0.00000000000E+00 -0.35740347158E-01  0.35744000000E-01  0.51099999109E-03 0.  1.
       22    1    1    2    0    0  0.26195565201E-02  0.31993005389E-02 -0.35496985570E-01  0.35737005818E-01  0.00000000000E+00 0.  1.
  9000001    1    1    2    0    0 -0.26195565201E-02 -0.31993005389E-02  0.35496985570E-01  0.35750994182E-01  0.10000000475E-02 0. -1.
</event>
<event>
 4   0  0.2441219E-02  0.9118800E+02  0.7818609E-02  0.1379984E+01
      -11   -1    0    0    0    0  0.00000000000E+00  0.00000000000E+00  0.35740347158E-01  0.35744000000E-01  0.51099999109E-03 0.  1.
       11   -1    0    0    0    0 -0.00000000000E+00 -0.00000000000E+00 -0.35740347158E-01  0.35744000000E-01  0.51099999109E-03 0. -1.
       22    1    1    2    0    0 -0.18376011459E-01 -0.26108969526E-01 -0.16055450725E-01  0.35737005818E-01  0.00000000000E+00 0. -1.
  9000001    1    1    2    0    0  0.18376011459E-01  0.26108969526E-01  0.16055450725E-01  0.35750994182E-01  0.10000000475E-02 0.  1.
</event>
<event>
 4   0  0.2441219E-02  0.9118800E+02  0.7818609E-02  0.1379984E+01
      -11   -1    0    0    0    0  0.00000000000E+00  0.00000000000E+00  0.35740347158E-01  0.35744000000E-01  0.51099999109E-03 0.  1.
       11   -1    0    0    0    0 -0.00000000000E+00 -0.00000000000E+00 -0.35740347158E-01  0.35744000000E-01  0.51099999109E-03 0. -1.
       22    1    1    2    0    0 -0.24954225206E-01 -0.24806396649E-01  0.62500331635E-02  0.35737005818E-01  0.00000000000E+00 0.  1.
  9000001    1    1    2    0    0  0.24954225206E-01  0.24806396649E-01 -0.62500331635E-02  0.35750994182E-01  0.10000000475E-02 0. -1.
</event>
<event>
 4   0  0.2441219E-02  0.9118800E+02  0.7818609E-02  0.1379984E+01
      -11   -1    0    0    0    0  0.00000000000E+00  0.00000000000E+00  0.35740347158E-01  0.35744000000E-01  0.51099999109E-03 0. -1.
       11   -1    0    0    0    0 -0.00000000000E+00 -0.00000000000E+00 -0.35740347158E-01  0.35744000000E-01  0.51099999109E-03 0.  1.
       22    1    1    2    0    0 -0.62098381126E-03 -0.24905675855E-01 -0.25621383144E-01  0.35737005818E-01  0.00000000000E+00 0.  1.
  9000001    1    1    2    0    0  0.62098381126E-03  0.24905675855E-01  0.25621383144E-01  0.35750994182E-01  0.10000000475E-02 0. -1.
</event>
<event>
 4   0  0.2441219E-02  0.9118800E+02  0.7818609E-02  0.1379984E+01
      -11   -1    0    0    0    0  0.00000000000E+00  0.00000000000E+00  0.35740347158E-01  0.35744000000E-01  0.51099999109E-03 0.  1.
       11   -1    0    0    0    0 -0.00000000000E+00 -0.00000000000E+00 -0.35740347158E-01  0.35744000000E-01  0.51099999109E-03 0. -1.
       22    1    1    2    0    0 -0.54073643165E-02 -0.10177992375E-01 -0.33827540071E-01  0.35737005818E-01  0.00000000000E+00 0. -1.
  9000001    1    1    2    0    0  0.54073643165E-02  0.10177992375E-01  0.33827540071E-01  0.35750994182E-01  0.10000000475E-02 0.  1.
</event>
<event>
 4   0  0.2441219E-02  0.9118800E+02  0.7818609E-02  0.1379984E+01
      -11   -1    0    0    0    0  0.00000000000E+00  0.00000000000E+00  0.35740347158E-01  0.35744000000E-01  0.51099999109E-03 0. -1.
       11   -1    0    0    0    0 -0.00000000000E+00 -0.00000000000E+00 -0.35740347158E-01  0.35744000000E-01  0.51099999109E-03 0.  1.
       22    1    1    2    0    0  0.35322882802E-02  0.35592305517E-02 -0.35383448140E-01  0.35737005818E-01  0.00000000000E+00 0.  1.
  9000001    1    1    2    0    0 -0.35322882802E-02 -0.35592305517E-02  0.35383448140E-01  0.35750994182E-01  0.10000000475E-02 0. -1.
</event>
<event>
 4   0  0.2441219E-02  0.9118800E+02  0.7818609E-02  0.1379984E+01
      -11   -1    0    0    0    0  0.00000000000E+00  0.00000000000E+00  0.35740347158E-01  0.35744000000E-01  0.51099999109E-03 0. -1.
       11   -1    0    0    0    0 -0.00000000000E+00 -0.00000000000E+00 -0.35740347158E-01  0.35744000000E-01  0.51099999109E-03 0.  1.
       22    1    1    2    0    0 -0.41989287025E-03 -0.58380971968E-02 -0.35254416687E-01  0.35737005818E-01  0.00000000000E+00 0.  1.
  9000001    1    1    2    0    0  0.41989287025E-03  0.58380971968E-02  0.35254416687E-01  0.35750994182E-01  0.10000000475E-02 0. -1.
</event>
<event>
 4   0  0.2441219E-02  0.9118800E+02  0.7818609E-02  0.1379984E+01
      -11   -1    0    0    0    0  0.00000000000E+00  0.00000000000E+00  0.35740347158E-01  0.35744000000E-01  0.51099999109E-03 0.  1.
       11   -1    0    0    0    0 -0.00000000000E+00 -0.00000000000E+00 -0.35740347158E-01  0.35744000000E-01  0.51099999109E-03 0. -1.
       22    1    1    2    0    0 -0.30988125737E-02  0.17101343073E-02 -0.35561304618E-01  0.35737005818E-01  0.00000000000E+00 0. -1.
  9000001    1    1    2    0    0  0.30988125737E-02 -0.17101343073E-02  0.35561304618E-01  0.35750994182E-01  0.10000000475E-02 0.  1.
</event>
<event>
 4   0  0.2441219E-02  0.9118800E+02  0.7818609E-02  0.1379984E+01
      -11   -1    0    0    0    0  0.00000000000E+00  0.00000000000E+00  0.35740347158E-01  0.35744000000E-01  0.51099999109E-03 0.  1.
       11   -1    0    0    0    0 -0.00000000000E+00 -0.00000000000E+00 -0.35740347158E-01  0.35744000000E-01  0.51099999109E-03 0. -1.
       22    1    1    2    0    0  0.16826466036E-01 -0.16022779154E-01  0.27152793112E-01  0.35737005818E-01  0.00000000000E+00 0.  1.
  9000001    1    1    2    0    0 -0.16826466036E-01  0.16022779154E-01 -0.27152793112E-01  0.35750994182E-01  0.10000000475E-02 0. -1.
</event>
<event>
 4   0  0.2441219E-02  0.9118800E+02  0.7818609E-02  0.1379984E+01
      -11   -1    0    0    0    0  0.00000000000E+00  0.00000000000E+00  0.35740347158E-01  0.35744000000E-01  0.51099999109E-03 0. -1.
       11   -1    0    0    0    0 -0.00000000000E+00 -0.00000000000E+00 -0.35740347158E-01  0.35744000000E-01  0.51099999109E-03 0.  1.
       22    1    1    2    0    0 -0.36617024471E-02  0.55137886961E-02 -0.35118708038E-01  0.35737005818E-01  0.00000000000E+00 0.  1.
  9000001    1    1    2    0    0  0.36617024471E-02 -0.55137886961E-02  0.35118708038E-01  0.35750994182E-01  0.10000000475E-02 0. -1.
</event>
<event>
 4   0  0.2441219E-02  0.9118800E+02  0.7818609E-02  0.1379984E+01
      -11   -1    0    0    0    0  0.00000000000E+00  0.00000000000E+00  0.35740347158E-01  0.35744000000E-01  0.51099999109E-03 0. -1.
       11   -1    0    0    0    0 -0.00000000000E+00 -0.00000000000E+00 -0.35740347158E-01  0.35744000000E-01  0.51099999109E-03 0.  1.
       22    1    1    2    0    0 -0.34992151598E-02 -0.10678304924E-01  0.33924370032E-01  0.35737005818E-01  0.00000000000E+00 0. -1.
  9000001    1    1    2    0    0  0.34992151598E-02  0.10678304924E-01 -0.33924370032E-01  0.35750994182E-01  0.10000000475E-02 0.  1.
</event>
<event>
 4   0  0.2441219E-02  0.9118800E+02  0.7818609E-02  0.1379984E+01
      -11   -1    0    0    0    0  0.00000000000E+00  0.00000000000E+00  0.35740347158E-01  0.35744000000E-01  0.51099999109E-03 0. -1.
       11   -1    0    0    0    0 -0.00000000000E+00 -0.00000000000E+00 -0.35740347158E-01  0.35744000000E-01  0.51099999109E-03 0.  1.
       22    1    1    2    0    0  0.11750621816E-01 -0.36203334575E-02 -0.33555173334E-01  0.35737005818E-01  0.00000000000E+00 0.  1.
  9000001    1    1    2    0    0 -0.11750621816E-01  0.36203334575E-02  0.33555173334E-01  0.35750994182E-01  0.10000000475E-02 0. -1.
</event>
<event>
 4   0  0.2441219E-02  0.9118800E+02  0.7818609E-02  0.1379984E+01
      -11   -1    0    0    0    0  0.00000000000E+00  0.00000000000E+00  0.35740347158E-01  0.35744000000E-01  0.51099999109E-03 0. -1.
       11   -1    0    0    0    0 -0.00000000000E+00 -0.00000000000E+00 -0.35740347158E-01  0.35744000000E-01  0.51099999109E-03 0.  1.
       22    1    1    2    0    0 -0.26044321277E-01 -0.51145491862E-02 -0.23930488936E-01  0.35737005818E-01  0.00000000000E+00 0.  1.
  9000001    1    1    2    0    0  0.26044321277E-01  0.51145491862E-02  0.23930488936E-01  0.35750994182E-01  0.10000000475E-02 0. -1.
</event>
<event>
 4   0  0.2441219E-02  0.9118800E+02  0.7818609E-02  0.1379984E+01
      -11   -1    0    0    0    0  0.00000000000E+00  0.00000000000E+00  0.35740347158E-01  0.35744000000E-01  0.51099999109E-03 0.  1.
       11   -1    0    0    0    0 -0.00000000000E+00 -0.00000000000E+00 -0.35740347158E-01  0.35744000000E-01  0.51099999109E-03 0. -1.
       22    1    1    2    0    0 -0.80327134428E-02 -0.32864638436E-01 -0.11511934680E-01  0.35737005818E-01  0.00000000000E+00 0. -1.
  9000001    1    1    2    0    0  0.80327134428E-02  0.32864638436E-01  0.11511934680E-01  0.35750994182E-01  0.10000000475E-02 0.  1.
</event>
<event>
 4   0  0.2441219E-02  0.9118800E+02  0.7818609E-02  0.1379984E+01
      -11   -1    0    0    0    0  0.00000000000E+00  0.00000000000E+00  0.35740347158E-01  0.35744000000E-01  0.51099999109E-03 0. -1.
       11   -1    0    0    0    0 -0.00000000000E+00 -0.00000000000E+00 -0.35740347158E-01  0.35744000000E-01  0.51099999109E-03 0.  1.
       22    1    1    2    0    0 -0.70900591230E-02  0.23964954401E-02  0.34944548303E-01  0.35737005818E-01  0.00000000000E+00 0. -1.
  9000001    1    1    2    0    0  0.70900591230E-02 -0.23964954401E-02 -0.34944548303E-01  0.35750994182E-01  0.10000000475E-02 0.  1.
</event>
<event>
 4   0  0.2441219E-02  0.9118800E+02  0.7818609E-02  0.1379984E+01
      -11   -1    0    0    0    0  0.00000000000E+00  0.00000000000E+00  0.35740347158E-01  0.35744000000E-01  0.51099999109E-03 0. -1.
       11   -1    0    0    0    0 -0.00000000000E+00 -0.00000000000E+00 -0.35740347158E-01  0.35744000000E-01  0.51099999109E-03 0.  1.
       22    1    1    2    0    0  0.16694621290E-01  0.12506981091E-01 -0.29017212630E-01  0.35737005818E-01  0.00000000000E+00 0.  1.
  9000001    1    1    2    0    0 -0.16694621290E-01 -0.12506981091E-01  0.29017212630E-01  0.35750994182E-01  0.10000000475E-02 0. -1.
</event>
<event>
 4   0  0.2441219E-02  0.9118800E+02  0.7818609E-02  0.1379984E+01
      -11   -1    0    0    0    0  0.00000000000E+00  0.00000000000E+00  0.35740347158E-01  0.35744000000E-01  0.51099999109E-03 0. -1.
       11   -1    0    0    0    0 -0.00000000000E+00 -0.00000000000E+00 -0.35740347158E-01  0.35744000000E-01  0.51099999109E-03 0.  1.
       22    1    1    2    0    0  0.54822932068E-02 -0.27294090597E-02  0.35208356568E-01  0.35737005818E-01  0.00000000000E+00 0. -1.
  9000001    1    1    2    0    0 -0.54822932068E-02  0.27294090597E-02 -0.35208356568E-01  0.35750994182E-01  0.10000000475E-02 0.  1.
</event>
<event>
 4   0  0.2441219E-02  0.9118800E+02  0.7818609E-02  0.1379984E+01
      -11   -1    0    0    0    0  0.00000000000E+00  0.00000000000E+00  0.35740347158E-01  0.35744000000E-01  0.51099999109E-03 0. -1.
       11   -1    0    0    0    0 -0.00000000000E+00 -0.00000000000E+00 -0.35740347158E-01  0.35744000000E-01  0.51099999109E-03 0.  1.
       22    1    1    2    0    0  0.14034242950E-01 -0.31762457735E-01 -0.84451103215E-02  0.35737005818E-01  0.00000000000E+00 0.  1.
  9000001    1    1    2    0    0 -0.14034242950E-01  0.31762457735E-01  0.84451103215E-02  0.35750994182E-01  0.10000000475E-02 0. -1.
</event>
<event>
 4   0  0.2441219E-02  0.9118800E+02  0.7818609E-02  0.1379984E+01
      -11   -1    0    0    0    0  0.00000000000E+00  0.00000000000E+00  0.35740347158E-01  0.35744000000E-01  0.51099999109E-03 0. -1.
       11   -1    0    0    0    0 -0.00000000000E+00 -0.00000000000E+00 -0.35740347158E-01  0.35744000000E-01  0.51099999109E-03 0.  1.
       22    1    1    2    0    0  0.66399039120E-03 -0.13319888196E-01  0.33155290378E-01  0.35737005818E-01  0.00000000000E+00 0. -1.
  9000001    1    1    2    0    0 -0.66399039120E-03  0.13319888196E-01 -0.33155290378E-01  0.35750994182E-01  0.10000000475E-02 0.  1.
</event>
<event>
 4   0  0.2441219E-02  0.9118800E+02  0.7818609E-02  0.1379984E+01
      -11   -1    0    0    0    0  0.00000000000E+00  0.00000000000E+00  0.35740347158E-01  0.35744000000E-01  0.51099999109E-03 0.  1.
       11   -1    0    0    0    0 -0.00000000000E+00 -0.00000000000E+00 -0.35740347158E-01  0.35744000000E-01  0.51099999109E-03 0. -1.
       22    1    1    2    0    0 -0.25240565221E-02 -0.13186999134E-01  0.33118964015E-01  0.35737005818E-01  0.00000000000E+00 0.  1.
  9000001    1    1    2    0    0  0.25240565221E-02  0.13186999134E-01 -0.33118964015E-01  0.35750994182E-01  0.10000000475E-02 0. -1.
</event>
<event>
 4   0  0.2441219E-02  0.9118800E+02  0.7818609E-02  0.1379984E+01
      -11   -1    0    0    0    0  0.00000000000E+00  0.00000000000E+00  0.35740347158E-01  0.35744000000E-01  0.51099999109E-03 0. -1.
       11   -1    0    0    0    0 -0.00000000000E+00 -0.00000000000E+00 -0.35740347158E-01  0.35744000000E-01  0.51099999109E-03 0.  1.
       22    1    1    2    0    0 -0.33721896124E-02  0.57629901494E-02  0.35107689566E-01  0.35737005818E-01  0.00000000000E+00 0. -1.
  9000001    1    1    2    0    0  0.33721896124E-02 -0.57629901494E-02 -0.35107689566E-01  0.35750994182E-01  0.10000000475E-02 0.  1.
</event>
<event>
 4   0  0.2441219E-02  0.9118800E+02  0.7818609E-02  0.1379984E+01
      -11   -1    0    0    0    0  0.00000000000E+00  0.00000000000E+00  0.35740347158E-01  0.35744000000E-01  0.51099999109E-03 0.  1.
       11   -1    0    0    0    0 -0.00000000000E+00 -0.00000000000E+00 -0.35740347158E-01  0.35744000000E-01  0.51099999109E-03 0. -1.
       22    1    1    2    0    0  0.21490960951E-01 -0.28411259193E-01  0.28412203983E-02  0.35737005818E-01  0.00000000000E+00 0. -1.
  9000001    1    1    2    0    0 -0.21490960951E-01  0.28411259193E-01 -0.28412203983E-02  0.35750994182E-01  0.10000000475E-02 0.  1.
</event>
<event>
 4   0  0.2441219E-02  0.9118800E+02  0.7818609E-02  0.1379984E+01
      -11   -1    0    0    0    0  0.00000000000E+00  0.00000000000E+00  0.35740347158E-01  0.35744000000E-01  0.51099999109E-03 0. -1.
       11   -1    0    0    0    0 -0.00000000000E+00 -0.00000000000E+00 -0.35740347158E-01  0.35744000000E-01  0.51099999109E-03 0.  1.
       22    1    1    2    0    0  0.16437169010E-01  0.13284573140E-01 -0.28817931506E-01  0.35737005818E-01  0.00000000000E+00 0.  1.
  9000001    1    1    2    0    0 -0.16437169010E-01 -0.13284573140E-01  0.28817931506E-01  0.35750994182E-01  0.10000000475E-02 0. -1.
</event>
<event>
 4   0  0.2441219E-02  0.9118800E+02  0.7818609E-02  0.1379984E+01
      -11   -1    0    0    0    0  0.00000000000E+00  0.00000000000E+00  0.35740347158E-01  0.35744000000E-01  0.51099999109E-03 0. -1.
       11   -1    0    0    0    0 -0.00000000000E+00 -0.00000000000E+00 -0.35740347158E-01  0.35744000000E-01  0.51099999109E-03 0.  1.
       22    1    1    2    0    0  0.60583528222E-02  0.15628139966E-01  0.31562496529E-01  0.35737005818E-01  0.00000000000E+00 0. -1.
  9000001    1    1    2    0    0 -0.60583528222E-02 -0.15628139966E-01 -0.31562496529E-01  0.35750994182E-01  0.10000000475E-02 0.  1.
</event>
<event>
 4   0  0.2441219E-02  0.9118800E+02  0.7818609E-02  0.1379984E+01
      -11   -1    0    0    0    0  0.00000000000E+00  0.00000000000E+00  0.35740347158E-01  0.35744000000E-01  0.51099999109E-03 0.  1.
       11   -1    0    0    0    0 -0.00000000000E+00 -0.00000000000E+00 -0.35740347158E-01  0.35744000000E-01  0.51099999109E-03 0. -1.
       22    1    1    2    0    0 -0.25703511973E-01 -0.46016005986E-02 -0.24398531288E-01  0.35737005818E-01  0.00000000000E+00 0. -1.
  9000001    1    1    2    0    0  0.25703511973E-01  0.46016005986E-02  0.24398531288E-01  0.35750994182E-01  0.10000000475E-02 0.  1.
</event>
<event>
 4   0  0.2441219E-02  0.9118800E+02  0.7818609E-02  0.1379984E+01
      -11   -1    0    0    0    0  0.00000000000E+00  0.00000000000E+00  0.35740347158E-01  0.35744000000E-01  0.51099999109E-03 0. -1.
       11   -1    0    0    0    0 -0.00000000000E+00 -0.00000000000E+00 -0.35740347158E-01  0.35744000000E-01  0.51099999109E-03 0.  1.
       22    1    1    2    0    0 -0.11974113341E-02 -0.84043159105E-02 -0.34714078773E-01  0.35737005818E-01  0.00000000000E+00 0.  1.
  9000001    1    1    2    0    0  0.11974113341E-02  0.84043159105E-02  0.34714078773E-01  0.35750994182E-01  0.10000000475E-02 0. -1.
</event>
<event>
 4   0  0.2441219E-02  0.9118800E+02  0.7818609E-02  0.1379984E+01
      -11   -1    0    0    0    0  0.00000000000E+00  0.00000000000E+00  0.35740347158E-01  0.35744000000E-01  0.51099999109E-03 0.  1.
       11   -1    0    0    0    0 -0.00000000000E+00 -0.00000000000E+00 -0.35740347158E-01  0.35744000000E-01  0.51099999109E-03 0. -1.
       22    1    1    2    0    0 -0.48405570746E-02  0.13434306087E-02  0.35382167631E-01  0.35737005818E-01  0.00000000000E+00 0.  1.
  9000001    1    1    2    0    0  0.48405570746E-02 -0.13434306087E-02 -0.35382167631E-01  0.35750994182E-01  0.10000000475E-02 0. -1.
</event>
<event>
 4   0  0.2441219E-02  0.9118800E+02  0.7818609E-02  0.1379984E+01
      -11   -1    0    0    0    0  0.00000000000E+00  0.00000000000E+00  0.35740347158E-01  0.35744000000E-01  0.51099999109E-03 0.  1.
       11   -1    0    0    0    0 -0.00000000000E+00 -0.00000000000E+00 -0.35740347158E-01  0.35744000000E-01  0.51099999109E-03 0. -1.
       22    1    1    2    0    0 -0.97976331626E-02  0.90382714452E-03  0.34355830157E-01  0.35737005818E-01  0.00000000000E+00 0.  1.
  9000001    1    1    2    0    0  0.97976331626E-02 -0.90382714452E-03 -0.34355830157E-01  0.35750994182E-01  0.10000000475E-02 0. -1.
</event>
<event>
 4   0  0.2441219E-02  0.9118800E+02  0.7818609E-02  0.1379984E+01
      -11   -1    0    0    0    0  0.00000000000E+00  0.00000000000E+00  0.35740347158E-01  0.35744000000E-01  0.51099999109E-03 0. -1.
       11   -1    0    0    0    0 -0.00000000000E+00 -0.00000000000E+00 -0.35740347158E-01  0.35744000000E-01  0.51099999109E-03 0.  1.
       22    1    1    2    0    0 -0.43760232244E-03  0.12493178413E-01 -0.33479285868E-01  0.35737005818E-01  0.00000000000E+00 0.  1.
  9000001    1    1    2    0    0  0.43760232244E-03 -0.12493178413E-01  0.33479285868E-01  0.35750994182E-01  0.10000000475E-02 0. -1.
</event>
<event>
 4   0  0.2441219E-02  0.9118800E+02  0.7818609E-02  0.1379984E+01
      -11   -1    0    0    0    0  0.00000000000E+00  0.00000000000E+00  0.35740347158E-01  0.35744000000E-01  0.51099999109E-03 0.  1.
       11   -1    0    0    0    0 -0.00000000000E+00 -0.00000000000E+00 -0.35740347158E-01  0.35744000000E-01  0.51099999109E-03 0. -1.
       22    1    1    2    0    0 -0.27138569946E-01 -0.16232590135E-01  0.16647360863E-01  0.35737005818E-01  0.00000000000E+00 0.  1.
  9000001    1    1    2    0    0  0.27138569946E-01  0.16232590135E-01 -0.16647360863E-01  0.35750994182E-01  0.10000000475E-02 0. -1.
</event>
<event>
 4   0  0.2441219E-02  0.9118800E+02  0.7818609E-02  0.1379984E+01
      -11   -1    0    0    0    0  0.00000000000E+00  0.00000000000E+00  0.35740347158E-01  0.35744000000E-01  0.51099999109E-03 0. -1.
       11   -1    0    0    0    0 -0.00000000000E+00 -0.00000000000E+00 -0.35740347158E-01  0.35744000000E-01  0.51099999109E-03 0.  1.
       22    1    1    2    0    0 -0.58907583570E-02 -0.97907269446E-03  0.35234556440E-01  0.35737005818E-01  0.00000000000E+00 0. -1.
  9000001    1    1    2    0    0  0.58907583570E-02  0.97907269446E-03 -0.35234556440E-01  0.35750994182E-01  0.10000000475E-02 0.  1.
</event>
<event>
 4   0  0.2441219E-02  0.9118800E+02  0.7818609E-02  0.1379984E+01
      -11   -1    0    0    0    0  0.00000000000E+00  0.00000000000E+00  0.35740347158E-01  0.35744000000E-01  0.51099999109E-03 0. -1.
       11   -1    0    0    0    0 -0.00000000000E+00 -0.00000000000E+00 -0.35740347158E-01  0.35744000000E-01  0.51099999109E-03 0.  1.
       22    1    1    2    0    0  0.14634157718E-01 -0.10285912362E-01 -0.30938245258E-01  0.35737005818E-01  0.00000000000E+00 0.  1.
  9000001    1    1    2    0    0 -0.14634157718E-01  0.10285912362E-01  0.30938245258E-01  0.35750994182E-01  0.10000000475E-02 0. -1.
</event>
<event>
 4   0  0.2441219E-02  0.9118800E+02  0.7818609E-02  0.1379984E+01
      -11   -1    0    0    0    0  0.00000000000E+00  0.00000000000E+00  0.35740347158E-01  0.35744000000E-01  0.51099999109E-03 0.  1.
       11   -1    0    0    0    0 -0.00000000000E+00 -0.00000000000E+00 -0.35740347158E-01  0.35744000000E-01  0.51099999109E-03 0. -1.
       22    1    1    2    0    0  0.62613689726E-03  0.15850573465E-01 -0.32023442324E-01  0.35737005818E-01  0.00000000000E+00 0. -1.
  9000001    1    1    2    0    0 -0.62613689726E-03 -0.15850573465E-01  0.32023442324E-01  0.35750994182E-01  0.10000000475E-02 0.  1.
</event>
<event>
 4   0  0.2441219E-02  0.9118800E+02  0.7818609E-02  0.1379984E+01
      -11   -1    0    0    0    0  0.00000000000E+00  0.00000000000E+00  0.35740347158E-01  0.35744000000E-01  0.51099999109E-03 0.  1.
       11   -1    0    0    0    0 -0.00000000000E+00 -0.00000000000E+00 -0.35740347158E-01  0.35744000000E-01  0.51099999109E-03 0. -1.
       22    1    1    2    0    0  0.11993751573E-02 -0.64390137000E-02 -0.35131669284E-01  0.35737005818E-01  0.00000000000E+00 0. -1.
  9000001    1    1    2    0    0 -0.11993751573E-02  0.64390137000E-02  0.35131669284E-01  0.35750994182E-01  0.10000000475E-02 0.  1.
</event>
<event>
 4   0  0.2441219E-02  0.9118800E+02  0.7818609E-02  0.1379984E+01
      -11   -1    0    0    0    0  0.00000000000E+00  0.00000000000E+00  0.35740347158E-01  0.35744000000E-01  0.51099999109E-03 0.  1.
       11   -1    0    0    0    0 -0.00000000000E+00 -0.00000000000E+00 -0.35740347158E-01  0.35744000000E-01  0.51099999109E-03 0. -1.
       22    1    1    2    0    0 -0.99607681353E-02  0.27010051430E-01  0.21174838955E-01  0.35737005818E-01  0.00000000000E+00 0.  1.
  9000001    1    1    2    0    0  0.99607681353E-02 -0.27010051430E-01 -0.21174838955E-01  0.35750994182E-01  0.10000000475E-02 0. -1.
</event>
<event>
 4   0  0.2441219E-02  0.9118800E+02  0.7818609E-02  0.1379984E+01
      -11   -1    0    0    0    0  0.00000000000E+00  0.00000000000E+00  0.35740347158E-01  0.35744000000E-01  0.51099999109E-03 0.  1.
       11   -1    0    0    0    0 -0.00000000000E+00 -0.00000000000E+00 -0.35740347158E-01  0.35744000000E-01  0.51099999109E-03 0. -1.
       22    1    1    2    0    0 -0.22804132579E-02 -0.12483125672E-01  0.33408155796E-01  0.35737005818E-01  0.00000000000E+00 0.  1.
  9000001    1    1    2    0    0  0.22804132579E-02  0.12483125672E-01 -0.33408155796E-01  0.35750994182E-01  0.10000000475E-02 0. -1.
</event>
<event>
 4   0  0.2441219E-02  0.9118800E+02  0.7818609E-02  0.1379984E+01
      -11   -1    0    0    0    0  0.00000000000E+00  0.00000000000E+00  0.35740347158E-01  0.35744000000E-01  0.51099999109E-03 0. -1.
       11   -1    0    0    0    0 -0.00000000000E+00 -0.00000000000E+00 -0.35740347158E-01  0.35744000000E-01  0.51099999109E-03 0.  1.
       22    1    1    2    0    0  0.81104686756E-02 -0.70947712345E-02  0.34073715733E-01  0.35737005818E-01  0.00000000000E+00 0. -1.
  9000001    1    1    2    0    0 -0.81104686756E-02  0.70947712345E-02 -0.34073715733E-01  0.35750994182E-01  0.10000000475E-02 0.  1.
</event>
<event>
 4   0  0.2441219E-02  0.9118800E+02  0.7818609E-02  0.1379984E+01
      -11   -1    0    0    0    0  0.00000000000E+00  0.00000000000E+00  0.35740347158E-01  0.35744000000E-01  0.51099999109E-03 0. -1.
       11   -1    0    0    0    0 -0.00000000000E+00 -0.00000000000E+00 -0.35740347158E-01  0.35744000000E-01  0.51099999109E-03 0.  1.
       22    1    1    2    0    0 -0.12102080091E-01 -0.50061261979E-02  0.33250743493E-01  0.35737005818E-01  0.00000000000E+00 0. -1.
  9000001    1    1    2    0    0  0.12102080091E-01  0.50061261979E-02 -0.33250743493E-01  0.35750994182E-01  0.10000000475E-02 0.  1.
</event>
<event>
 4   0  0.2441219E-02  0.9118800E+02  0.7818609E-02  0.1379984E+01
      -11   -1    0    0    0    0  0.00000000000E+00  0.00000000000E+00  0.35740347158E-01  0.35744000000E-01  0.51099999109E-03 0.  1.
       11   -1    0    0    0    0 -0.00000000000E+00 -0.00000000000E+00 -0.35740347158E-01  0.35744000000E-01  0.51099999109E-03 0. -1.
       22    1    1    2    0    0  0.56704194589E-02 -0.62106955937E-02  0.34733372832E-01  0.35737005818E-01  0.00000000000E+00 0.  1.
  9000001    1    1    2    0    0 -0.56704194589E-02  0.62106955937E-02 -0.34733372832E-01  0.35750994182E-01  0.10000000475E-02 0. -1.
</event>
<event>
 4   0  0.2441219E-02  0.9118800E+02  0.7818609E-02  0.1379984E+01
      -11   -1    0    0    0    0  0.00000000000E+00  0.00000000000E+00  0.35740347158E-01  0.35744000000E-01  0.51099999109E-03 0. -1.
       11   -1    0    0    0    0 -0.00000000000E+00 -0.00000000000E+00 -0.35740347158E-01  0.35744000000E-01  0.51099999109E-03 0.  1.
       22    1    1    2    0    0 -0.13736007260E-01  0.67368818335E-02  0.32296595991E-01  0.35737005818E-01  0.00000000000E+00 0. -1.
  9000001    1    1    2    0    0  0.13736007260E-01 -0.67368818335E-02 -0.32296595991E-01  0.35750994182E-01  0.10000000475E-02 0.  1.
</event>
<event>
 4   0  0.2441219E-02  0.9118800E+02  0.7818609E-02  0.1379984E+01
      -11   -1    0    0    0    0  0.00000000000E+00  0.00000000000E+00  0.35740347158E-01  0.35744000000E-01  0.51099999109E-03 0. -1.
       11   -1    0    0    0    0 -0.00000000000E+00 -0.00000000000E+00 -0.35740347158E-01  0.35744000000E-01  0.51099999109E-03 0.  1.
       22    1    1    2    0    0  0.66248820714E-02  0.17645028357E-01  0.30362764971E-01  0.35737005818E-01  0.00000000000E+00 0. -1.
  9000001    1    1    2    0    0 -0.66248820714E-02 -0.17645028357E-01 -0.30362764971E-01  0.35750994182E-01  0.10000000475E-02 0.  1.
</event>
<event>
 4   0  0.2441219E-02  0.9118800E+02  0.7818609E-02  0.1379984E+01
      -11   -1    0    0    0    0  0.00000000000E+00  0.00000000000E+00  0.35740347158E-01  0.35744000000E-01  0.51099999109E-03 0.  1.
       11   -1    0    0    0    0 -0.00000000000E+00 -0.00000000000E+00 -0.35740347158E-01  0.35744000000E-01  0.51099999109E-03 0. -1.
       22    1    1    2    0    0 -0.13957503322E-01  0.60738001554E-02  0.32333119824E-01  0.35737005818E-01  0.00000000000E+00 0.  1.
  9000001    1    1    2    0    0  0.13957503322E-01 -0.60738001554E-02 -0.32333119824E-01  0.35750994182E-01  0.10000000475E-02 0. -1.
</event>
<event>
 4   0  0.2441219E-02  0.9118800E+02  0.7818609E-02  0.1379984E+01
      -11   -1    0    0    0    0  0.00000000000E+00  0.00000000000E+00  0.35740347158E-01  0.35744000000E-01  0.51099999109E-03 0. -1.
       11   -1    0    0    0    0 -0.00000000000E+00 -0.00000000000E+00 -0.35740347158E-01  0.35744000000E-01  0.51099999109E-03 0.  1.
       22    1    1    2    0    0  0.11023553684E-01  0.16901698696E-01 -0.29494871253E-01  0.35737005818E-01  0.00000000000E+00 0.  1.
  9000001    1    1    2    0    0 -0.11023553684E-01 -0.16901698696E-01  0.29494871253E-01  0.35750994182E-01  0.10000000475E-02 0. -1.
</event>
<event>
 4   0  0.2441219E-02  0.9118800E+02  0.7818609E-02  0.1379984E+01
      -11   -1    0    0    0    0  0.00000000000E+00  0.00000000000E+00  0.35740347158E-01  0.35744000000E-01  0.51099999109E-03 0.  1.
       11   -1    0    0    0    0 -0.00000000000E+00 -0.00000000000E+00 -0.35740347158E-01  0.35744000000E-01  0.51099999109E-03 0. -1.
       22    1    1    2    0    0  0.93369889856E-02 -0.79353851436E-02 -0.33570580635E-01  0.35737005818E-01  0.00000000000E+00 0. -1.
  9000001    1    1    2    0    0 -0.93369889856E-02  0.79353851436E-02  0.33570580635E-01  0.35750994182E-01  0.10000000475E-02 0.  1.
</event>
<event>
 4   0  0.2441219E-02  0.9118800E+02  0.7818609E-02  0.1379984E+01
      -11   -1    0    0    0    0  0.00000000000E+00  0.00000000000E+00  0.35740347158E-01  0.35744000000E-01  0.51099999109E-03 0. -1.
       11   -1    0    0    0    0 -0.00000000000E+00 -0.00000000000E+00 -0.35740347158E-01  0.35744000000E-01  0.51099999109E-03 0.  1.
       22    1    1    2    0    0  0.27955764514E-02 -0.11489563835E-02  0.35608962866E-01  0.35737005818E-01  0.00000000000E+00 0. -1.
  9000001    1    1    2    0    0 -0.27955764514E-02  0.11489563835E-02 -0.35608962866E-01  0.35750994182E-01  0.10000000475E-02 0.  1.
</event>
<event>
 4   0  0.2441219E-02  0.9118800E+02  0.7818609E-02  0.1379984E+01
      -11   -1    0    0    0    0  0.00000000000E+00  0.00000000000E+00  0.35740347158E-01  0.35744000000E-01  0.51099999109E-03 0.  1.
       11   -1    0    0    0    0 -0.00000000000E+00 -0.00000000000E+00 -0.35740347158E-01  0.35744000000E-01  0.51099999109E-03 0. -1.
       22    1    1    2    0    0  0.60887019094E-02 -0.52957329019E-02 -0.34814027445E-01  0.35737005818E-01  0.00000000000E+00 0. -1.
  9000001    1    1    2    0    0 -0.60887019094E-02  0.52957329019E-02  0.34814027445E-01  0.35750994182E-01  0.10000000475E-02 0.  1.
</event>
<event>
 4   0  0.2441219E-02  0.9118800E+02  0.7818609E-02  0.1379984E+01
      -11   -1    0    0    0    0  0.00000000000E+00  0.00000000000E+00  0.35740347158E-01  0.35744000000E-01  0.51099999109E-03 0. -1.
       11   -1    0    0    0    0 -0.00000000000E+00 -0.00000000000E+00 -0.35740347158E-01  0.35744000000E-01  0.51099999109E-03 0.  1.
       22    1    1    2    0    0  0.77396994652E-03 -0.40792193896E-02 -0.35494992951E-01  0.35737005818E-01  0.00000000000E+00 0.  1.
  9000001    1    1    2    0    0 -0.77396994652E-03  0.40792193896E-02  0.35494992951E-01  0.35750994182E-01  0.10000000475E-02 0. -1.
</event>
<event>
 4   0  0.2441219E-02  0.9118800E+02  0.7818609E-02  0.1379984E+01
      -11   -1    0    0    0    0  0.00000000000E+00  0.00000000000E+00  0.35740347158E-01  0.35744000000E-01  0.51099999109E-03 0.  1.
       11   -1    0    0    0    0 -0.00000000000E+00 -0.00000000000E+00 -0.35740347158E-01  0.35744000000E-01  0.51099999109E-03 0. -1.
       22    1    1    2    0    0  0.13782949646E-01  0.16070023927E-01 -0.28790939806E-01  0.35737005818E-01  0.00000000000E+00 0. -1.
  9000001    1    1    2    0    0 -0.13782949646E-01 -0.16070023927E-01  0.28790939806E-01  0.35750994182E-01  0.10000000475E-02 0.  1.
</event>
<event>
 4   0  0.2441219E-02  0.9118800E+02  0.7818609E-02  0.1379984E+01
      -11   -1    0    0    0    0  0.00000000000E+00  0.00000000000E+00  0.35740347158E-01  0.35744000000E-01  0.51099999109E-03 0.  1.
       11   -1    0    0    0    0 -0.00000000000E+00 -0.00000000000E+00 -0.35740347158E-01  0.35744000000E-01  0.51099999109E-03 0. -1.
       22    1    1    2    0    0 -0.53411138958E-02  0.55006507214E-02  0.34904855377E-01  0.35737005818E-01  0.00000000000E+00 0.  1.
  9000001    1    1    2    0    0  0.53411138958E-02 -0.55006507214E-02 -0.34904855377E-01  0.35750994182E-01  0.10000000475E-02 0. -1.
</event>
<event>
 4   0  0.2441219E-02  0.9118800E+02  0.7818609E-02  0.1379984E+01
      -11   -1    0    0    0    0  0.00000000000E+00  0.00000000000E+00  0.35740347158E-01  0.35744000000E-01  0.51099999109E-03 0.  1.
       11   -1    0    0    0    0 -0.00000000000E+00 -0.00000000000E+00 -0.35740347158E-01  0.35744000000E-01  0.51099999109E-03 0. -1.
       22    1    1    2    0    0  0.30051171630E-01  0.91507834361E-02  0.17038891720E-01  0.35737005818E-01  0.00000000000E+00 0.  1.
  9000001    1    1    2    0    0 -0.30051171630E-01 -0.91507834361E-02 -0.17038891720E-01  0.35750994182E-01  0.10000000475E-02 0. -1.
</event>
<event>
 4   0  0.2441219E-02  0.9118800E+02  0.7818609E-02  0.1379984E+01
      -11   -1    0    0    0    0  0.00000000000E+00  0.00000000000E+00  0.35740347158E-01  0.35744000000E-01  0.51099999109E-03 0. -1.
       11   -1    0    0    0    0 -0.00000000000E+00 -0.00000000000E+00 -0.35740347158E-01  0.35744000000E-01  0.51099999109E-03 0.  1.
       22    1    1    2    0    0  0.20737695198E-02  0.51124285391E-02  0.35308584498E-01  0.35737005818E-01  0.00000000000E+00 0. -1.
  9000001    1    1    2    0    0 -0.20737695198E-02 -0.51124285391E-02 -0.35308584498E-01  0.35750994182E-01  0.10000000475E-02 0.  1.
</event>
<event>
 4   0  0.2441219E-02  0.9118800E+02  0.7818609E-02  0.1379984E+01
      -11   -1    0    0    0    0  0.00000000000E+00  0.00000000000E+00  0.35740347158E-01  0.35744000000E-01  0.51099999109E-03 0. -1.
       11   -1    0    0    0    0 -0.00000000000E+00 -0.00000000000E+00 -0.35740347158E-01  0.35744000000E-01  0.51099999109E-03 0.  1.
       22    1    1    2    0    0  0.51052991902E-02  0.13596981544E-01  0.32652589452E-01  0.35737005818E-01  0.00000000000E+00 0. -1.
  9000001    1    1    2    0    0 -0.51052991902E-02 -0.13596981544E-01 -0.32652589452E-01  0.35750994182E-01  0.10000000475E-02 0.  1.
</event>
<event>
 4   0  0.2441219E-02  0.9118800E+02  0.7818609E-02  0.1379984E+01
      -11   -1    0    0    0    0  0.00000000000E+00  0.00000000000E+00  0.35740347158E-01  0.35744000000E-01  0.51099999109E-03 0. -1.
       11   -1    0    0    0    0 -0.00000000000E+00 -0.00000000000E+00 -0.35740347158E-01  0.35744000000E-01  0.51099999109E-03 0.  1.
       22    1    1    2    0    0 -0.33962466671E-02  0.57172417396E-02 -0.35112850074E-01  0.35737005818E-01  0.00000000000E+00 0.  1.
  9000001    1    1    2    0    0  0.33962466671E-02 -0.57172417396E-02  0.35112850074E-01  0.35750994182E-01  0.10000000475E-02 0. -1.
</event>
<event>
 4   0  0.2441219E-02  0.9118800E+02  0.7818609E-02  0.1379984E+01
      -11   -1    0    0    0    0  0.00000000000E+00  0.00000000000E+00  0.35740347158E-01  0.35744000000E-01  0.51099999109E-03 0.  1.
       11   -1    0    0    0    0 -0.00000000000E+00 -0.00000000000E+00 -0.35740347158E-01  0.35744000000E-01  0.51099999109E-03 0. -1.
       22    1    1    2    0    0  0.10014037466E-01  0.13092275143E-02  0.34280294074E-01  0.35737005818E-01  0.00000000000E+00 0.  1.
  9000001    1    1    2    0    0 -0.10014037466E-01 -0.13092275143E-02 -0.34280294074E-01  0.35750994182E-01  0.10000000475E-02 0. -1.
</event>
<event>
 4   0  0.2441219E-02  0.9118800E+02  0.7818609E-02  0.1379984E+01
      -11   -1    0    0    0    0  0.00000000000E+00  0.00000000000E+00  0.35740347158E-01  0.35744000000E-01  0.51099999109E-03 0.  1.
       11   -1    0    0    0    0 -0.00000000000E+00 -0.00000000000E+00 -0.35740347158E-01  0.35744000000E-01  0.51099999109E-03 0. -1.
       22    1    1    2    0    0 -0.32442508317E-03 -0.18986516881E-01 -0.30274420060E-01  0.35737005818E-01  0.00000000000E+00 0. -1.
  9000001    1    1    2    0    0  0.32442508317E-03  0.18986516881E-01  0.30274420060E-01  0.35750994182E-01  0.10000000475E-02 0.  1.
</event>
<event>
 4   0  0.2441219E-02  0.9118800E+02  0.7818609E-02  0.1379984E+01
      -11   -1    0    0    0    0  0.00000000000E+00  0.00000000000E+00  0.35740347158E-01  0.35744000000E-01  0.51099999109E-03 0. -1.
       11   -1    0    0    0    0 -0.00000000000E+00 -0.00000000000E+00 -0.35740347158E-01  0.35744000000E-01  0.51099999109E-03 0.  1.
       22    1    1    2    0    0  0.60592687975E-02  0.13358349588E-02  0.35194238044E-01  0.35737005818E-01  0.00000000000E+00 0. -1.
  9000001    1    1    2    0    0 -0.60592687975E-02 -0.13358349588E-02 -0.35194238044E-01  0.35750994182E-01  0.10000000475E-02 0.  1.
</event>
<event>
 4   0  0.2441219E-02  0.9118800E+02  0.7818609E-02  0.1379984E+01
      -11   -1    0    0    0    0  0.00000000000E+00  0.00000000000E+00  0.35740347158E-01  0.35744000000E-01  0.51099999109E-03 0. -1.
       11   -1    0    0    0    0 -0.00000000000E+00 -0.00000000000E+00 -0.35740347158E-01  0.35744000000E-01  0.51099999109E-03 0.  1.
       22    1    1    2    0    0 -0.29690675885E-01 -0.16212661839E-01  0.11521586110E-01  0.35737005818E-01  0.00000000000E+00 0. -1.
  9000001    1    1    2    0    0  0.29690675885E-01  0.16212661839E-01 -0.11521586110E-01  0.35750994182E-01  0.10000000475E-02 0.  1.
</event>
<event>
 4   0  0.2441219E-02  0.9118800E+02  0.7818609E-02  0.1379984E+01
      -11   -1    0    0    0    0  0.00000000000E+00  0.00000000000E+00  0.35740347158E-01  0.35744000000E-01  0.51099999109E-03 0.  1.
       11   -1    0    0    0    0 -0.00000000000E+00 -0.00000000000E+00 -0.35740347158E-01  0.35744000000E-01  0.51099999109E-03 0. -1.
       22    1    1    2    0    0  0.85248821802E-02 -0.15545571964E-01  0.31028940701E-01  0.35737005818E-01  0.00000000000E+00 0.  1.
  9000001    1    1    2    0    0 -0.85248821802E-02  0.15545571964E-01 -0.31028940701E-01  0.35750994182E-01  0.10000000475E-02 0. -1.
</event>
<event>
 4   0  0.2441219E-02  0.9118800E+02  0.7818609E-02  0.1379984E+01
      -11   -1    0    0    0    0  0.00000000000E+00  0.00000000000E+00  0.35740347158E-01  0.35744000000E-01  0.51099999109E-03 0.  1.
       11   -1    0    0    0    0 -0.00000000000E+00 -0.00000000000E+00 -0.35740347158E-01  0.35744000000E-01  0.51099999109E-03 0. -1.
       22    1    1    2    0    0 -0.58655641013E-02 -0.67170528854E-03  0.35245957990E-01  0.35737005818E-01  0.00000000000E+00 0.  1.
  9000001    1    1    2    0    0  0.58655641013E-02  0.67170528854E-03 -0.35245957990E-01  0.35750994182E-01  0.10000000475E-02 0. -1.
</event>
<event>
 4   0  0.2441219E-02  0.9118800E+02  0.7818609E-02  0.1379984E+01
      -11   -1    0    0    0    0  0.00000000000E+00  0.00000000000E+00  0.35740347158E-01  0.35744000000E-01  0.51099999109E-03 0.  1.
       11   -1    0    0    0    0 -0.00000000000E+00 -0.00000000000E+00 -0.35740347158E-01  0.35744000000E-01  0.51099999109E-03 0. -1.
       22    1    1    2    0    0 -0.57584874945E-04 -0.63390235726E-02  0.35170258017E-01  0.35737005818E-01  0.00000000000E+00 0.  1.
  9000001    1    1    2    0    0  0.57584874945E-04  0.63390235726E-02 -0.35170258017E-01  0.35750994182E-01  0.10000000475E-02 0. -1.
</event>
<event>
 4   0  0.2441219E-02  0.9118800E+02  0.7818609E-02  0.1379984E+01
      -11   -1    0    0    0    0  0.00000000000E+00  0.00000000000E+00  0.35740347158E-01  0.35744000000E-01  0.51099999109E-03 0. -1.
       11   -1    0    0    0    0 -0.00000000000E+00 -0.00000000000E+00 -0.35740347158E-01  0.35744000000E-01  0.51099999109E-03 0.  1.
       22    1    1    2    0    0  0.40312036042E-02 -0.72495231684E-02  0.34761003959E-01  0.35737005818E-01  0.00000000000E+00 0. -1.
  9000001    1    1    2    0    0 -0.40312036042E-02  0.72495231684E-02 -0.34761003959E-01  0.35750994182E-01  0.10000000475E-02 0.  1.
</event>
<event>
 4   0  0.2441219E-02  0.9118800E+02  0.7818609E-02  0.1379984E+01
      -11   -1    0    0    0    0  0.00000000000E+00  0.00000000000E+00  0.35740347158E-01  0.35744000000E-01  0.51099999109E-03 0. -1.
       11   -1    0    0    0    0 -0.00000000000E+00 -0.00000000000E+00 -0.35740347158E-01  0.35744000000E-01  0.51099999109E-03 0.  1.
       22    1    1    2    0    0 -0.19184624975E-01 -0.23670207660E-01  0.18676322410E-01  0.35737005818E-01  0.00000000000E+00 0. -1.
  9000001    1    1    2    0    0  0.19184624975E-01  0.23670207660E-01 -0.18676322410E-01  0.35750994182E-01  0.10000000475E-02 0.  1.
</event>
<event>
 4   0  0.2441219E-02  0.9118800E+02  0.7818609E-02  0.1379984E+01
      -11   -1    0    0    0    0  0.00000000000E+00  0.00000000000E+00  0.35740347158E-01  0.35744000000E-01  0.51099999109E-03 0.  1.
       11   -1    0    0    0    0 -0.00000000000E+00 -0.00000000000E+00 -0.35740347158E-01  0.35744000000E-01  0.51099999109E-03 0. -1.
       22    1    1    2    0    0 -0.25986150351E-02  0.26565688640E-02 -0.35543261339E-01  0.35737005818E-01  0.00000000000E+00 0. -1.
  9000001    1    1    2    0    0  0.25986150351E-02 -0.26565688640E-02  0.35543261339E-01  0.35750994182E-01  0.10000000475E-02 0.  1.
</event>
<event>
 4   0  0.2441219E-02  0.9118800E+02  0.7818609E-02  0.1379984E+01
      -11   -1    0    0    0    0  0.00000000000E+00  0.00000000000E+00  0.35740347158E-01  0.35744000000E-01  0.51099999109E-03 0.  1.
       11   -1    0    0    0    0 -0.00000000000E+00 -0.00000000000E+00 -0.35740347158E-01  0.35744000000E-01  0.51099999109E-03 0. -1.
       22    1    1    2    0    0 -0.47087787776E-02  0.60456915499E-02  0.34905738797E-01  0.35737005818E-01  0.00000000000E+00 0.  1.
  9000001    1    1    2    0    0  0.47087787776E-02 -0.60456915499E-02 -0.34905738797E-01  0.35750994182E-01  0.10000000475E-02 0. -1.
</event>
<event>
 4   0  0.2441219E-02  0.9118800E+02  0.7818609E-02  0.1379984E+01
      -11   -1    0    0    0    0  0.00000000000E+00  0.00000000000E+00  0.35740347158E-01  0.35744000000E-01  0.51099999109E-03 0.  1.
       11   -1    0    0    0    0 -0.00000000000E+00 -0.00000000000E+00 -0.35740347158E-01  0.35744000000E-01  0.51099999109E-03 0. -1.
       22    1    1    2    0    0  0.57328612627E-02 -0.56635852297E-02  0.34816543323E-01  0.35737005818E-01  0.00000000000E+00 0.  1.
  9000001    1    1    2    0    0 -0.57328612627E-02  0.56635852297E-02 -0.34816543323E-01  0.35750994182E-01  0.10000000475E-02 0. -1.
</event>
<event>
 4   0  0.2441219E-02  0.9118800E+02  0.7818609E-02  0.1379984E+01
      -11   -1    0    0    0    0  0.00000000000E+00  0.00000000000E+00  0.35740347158E-01  0.35744000000E-01  0.51099999109E-03 0. -1.
       11   -1    0    0    0    0 -0.00000000000E+00 -0.00000000000E+00 -0.35740347158E-01  0.35744000000E-01  0.51099999109E-03 0.  1.
       22    1    1    2    0    0 -0.13911858093E-01 -0.30369857282E-01 -0.12699037678E-01  0.35737005818E-01  0.00000000000E+00 0.  1.
  9000001    1    1    2    0    0  0.13911858093E-01  0.30369857282E-01  0.12699037678E-01  0.35750994182E-01  0.10000000475E-02 0. -1.
</event>
<event>
 4   0  0.2441219E-02  0.9118800E+02  0.7818609E-02  0.1379984E+01
      -11   -1    0    0    0    0  0.00000000000E+00  0.00000000000E+00  0.35740347158E-01  0.35744000000E-01  0.51099999109E-03 0.  1.
       11   -1    0    0    0    0 -0.00000000000E+00 -0.00000000000E+00 -0.35740347158E-01  0.35744000000E-01  0.51099999109E-03 0. -1.
       22    1    1    2    0    0  0.69898069635E-02 -0.51075358237E-02 -0.34672601017E-01  0.35737005818E-01  0.00000000000E+00 0. -1.
  9000001    1    1    2    0    0 -0.69898069635E-02  0.51075358237E-02  0.34672601017E-01  0.35750994182E-01  0.10000000475E-02 0.  1.
</event>
<event>
 4   0  0.2441219E-02  0.9118800E+02  0.7818609E-02  0.1379984E+01
      -11   -1    0    0    0    0  0.00000000000E+00  0.00000000000E+00  0.35740347158E-01  0.35744000000E-01  0.51099999109E-03 0.  1.
       11   -1    0    0    0    0 -0.00000000000E+00 -0.00000000000E+00 -0.35740347158E-01  0.35744000000E-01  0.51099999109E-03 0. -1.
       22    1    1    2    0    0 -0.17537876112E-01  0.13803643684E-01  0.27910856443E-01  0.35737005818E-01  0.00000000000E+00 0.  1.
  9000001    1    1    2    0    0  0.17537876112E-01 -0.13803643684E-01 -0.27910856443E-01  0.35750994182E-01  0.10000000475E-02 0. -1.
</event>
<event>
 4   0  0.2441219E-02  0.9118800E+02  0.7818609E-02  0.1379984E+01
      -11   -1    0    0    0    0  0.00000000000E+00  0.00000000000E+00  0.35740347158E-01  0.35744000000E-01  0.51099999109E-03 0.  1.
       11   -1    0    0    0    0 -0.00000000000E+00 -0.00000000000E+00 -0.35740347158E-01  0.35744000000E-01  0.51099999109E-03 0. -1.
       22    1    1    2    0    0 -0.16812920643E-02  0.44863533165E-02 -0.35414396448E-01  0.35737005818E-01  0.00000000000E+00 0. -1.
  9000001    1    1    2    0    0  0.16812920643E-02 -0.44863533165E-02  0.35414396448E-01  0.35750994182E-01  0.10000000475E-02 0.  1.
</event>
<event>
 4   0  0.2441219E-02  0.9118800E+02  0.7818609E-02  0.1379984E+01
      -11   -1    0    0    0    0  0.00000000000E+00  0.00000000000E+00  0.35740347158E-01  0.35744000000E-01  0.51099999109E-03 0. -1.
       11   -1    0    0    0    0 -0.00000000000E+00 -0.00000000000E+00 -0.35740347158E-01  0.35744000000E-01  0.51099999109E-03 0.  1.
       22    1    1    2    0    0 -0.34147804700E-01  0.41283173570E-02 -0.96962887138E-02  0.35737005818E-01  0.00000000000E+00 0. -1.
  9000001    1    1    2    0    0  0.34147804700E-01 -0.41283173570E-02  0.96962887138E-02  0.35750994182E-01  0.10000000475E-02 0.  1.
</event>
<event>
 4   0  0.2441219E-02  0.9118800E+02  0.7818609E-02  0.1379984E+01
      -11   -1    0    0    0    0  0.00000000000E+00  0.00000000000E+00  0.35740347158E-01  0.35744000000E-01  0.51099999109E-03 0. -1.
       11   -1    0    0    0    0 -0.00000000000E+00 -0.00000000000E+00 -0.35740347158E-01  0.35744000000E-01  0.51099999109E-03 0.  1.
       22    1    1    2    0    0  0.26745024655E-01 -0.16076303641E-01  0.17418085496E-01  0.35737005818E-01  0.00000000000E+00 0.  1.
  9000001    1    1    2    0    0 -0.26745024655E-01  0.16076303641E-01 -0.17418085496E-01  0.35750994182E-01  0.10000000475E-02 0. -1.
</event>
<event>
 4   0  0.2441219E-02  0.9118800E+02  0.7818609E-02  0.1379984E+01
      -11   -1    0    0    0    0  0.00000000000E+00  0.00000000000E+00  0.35740347158E-01  0.35744000000E-01  0.51099999109E-03 0.  1.
       11   -1    0    0    0    0 -0.00000000000E+00 -0.00000000000E+00 -0.35740347158E-01  0.35744000000E-01  0.51099999109E-03 0. -1.
       22    1    1    2    0    0  0.15239505421E-01  0.15050225819E-01  0.28607372514E-01  0.35737005818E-01  0.00000000000E+00 0.  1.
  9000001    1    1    2    0    0 -0.15239505421E-01 -0.15050225819E-01 -0.28607372514E-01  0.35750994182E-01  0.10000000475E-02 0. -1.
</event>
<event>
 4   0  0.2441219E-02  0.9118800E+02  0.7818609E-02  0.1379984E+01
      -11   -1    0    0    0    0  0.00000000000E+00  0.00000000000E+00  0.35740347158E-01  0.35744000000E-01  0.51099999109E-03 0.  1.
       11   -1    0    0    0    0 -0.00000000000E+00 -0.00000000000E+00 -0.35740347158E-01  0.35744000000E-01  0.51099999109E-03 0. -1.
       22    1    1    2    0    0 -0.23194024326E-01  0.62488854510E-02  0.26459823337E-01  0.35737005818E-01  0.00000000000E+00 0.  1.
  9000001    1    1    2    0    0  0.23194024326E-01 -0.62488854510E-02 -0.26459823337E-01  0.35750994182E-01  0.10000000475E-02 0. -1.
</event>
<event>
 4   0  0.2441219E-02  0.9118800E+02  0.7818609E-02  0.1379984E+01
      -11   -1    0    0    0    0  0.00000000000E+00  0.00000000000E+00  0.35740347158E-01  0.35744000000E-01  0.51099999109E-03 0. -1.
       11   -1    0    0    0    0 -0.00000000000E+00 -0.00000000000E+00 -0.35740347158E-01  0.35744000000E-01  0.51099999109E-03 0.  1.
       22    1    1    2    0    0  0.11906619028E-01  0.42546746550E-02 -0.33425495535E-01  0.35737005818E-01  0.00000000000E+00 0.  1.
  9000001    1    1    2    0    0 -0.11906619028E-01 -0.42546746550E-02  0.33425495535E-01  0.35750994182E-01  0.10000000475E-02 0. -1.
</event>
<event>
 4   0  0.2441219E-02  0.9118800E+02  0.7818609E-02  0.1379984E+01
      -11   -1    0    0    0    0  0.00000000000E+00  0.00000000000E+00  0.35740347158E-01  0.35744000000E-01  0.51099999109E-03 0.  1.
       11   -1    0    0    0    0 -0.00000000000E+00 -0.00000000000E+00 -0.35740347158E-01  0.35744000000E-01  0.51099999109E-03 0. -1.
       22    1    1    2    0    0 -0.13032516608E-01  0.24376397638E-02 -0.33186518469E-01  0.35737005818E-01  0.00000000000E+00 0. -1.
  9000001    1    1    2    0    0  0.13032516608E-01 -0.24376397638E-02  0.33186518469E-01  0.35750994182E-01  0.10000000475E-02 0.  1.
</event>
<event>
 4   0  0.2441219E-02  0.9118800E+02  0.7818609E-02  0.1379984E+01
      -11   -1    0    0    0    0  0.00000000000E+00  0.00000000000E+00  0.35740347158E-01  0.35744000000E-01  0.51099999109E-03 0.  1.
       11   -1    0    0    0    0 -0.00000000000E+00 -0.00000000000E+00 -0.35740347158E-01  0.35744000000E-01  0.51099999109E-03 0. -1.
       22    1    1    2    0    0 -0.17649339633E-01 -0.10381625938E-01 -0.29289182957E-01  0.35737005818E-01  0.00000000000E+00 0. -1.
  9000001    1    1    2    0    0  0.17649339633E-01  0.10381625938E-01  0.29289182957E-01  0.35750994182E-01  0.10000000475E-02 0.  1.
</event>
<event>
 4   0  0.2441219E-02  0.9118800E+02  0.7818609E-02  0.1379984E+01
      -11   -1    0    0    0    0  0.00000000000E+00  0.00000000000E+00  0.35740347158E-01  0.35744000000E-01  0.51099999109E-03 0. -1.
       11   -1    0    0    0    0 -0.00000000000E+00 -0.00000000000E+00 -0.35740347158E-01  0.35744000000E-01  0.51099999109E-03 0.  1.
       22    1    1    2    0    0  0.10003100179E-01  0.12057932969E-02  0.34287280939E-01  0.35737005818E-01  0.00000000000E+00 0. -1.
  9000001    1    1    2    0    0 -0.10003100179E-01 -0.12057932969E-02 -0.34287280939E-01  0.35750994182E-01  0.10000000475E-02 0.  1.
</event>
<event>
 4   0  0.2441219E-02  0.9118800E+02  0.7818609E-02  0.1379984E+01
      -11   -1    0    0    0    0  0.00000000000E+00  0.00000000000E+00  0.35740347158E-01  0.35744000000E-01  0.51099999109E-03 0.  1.
       11   -1    0    0    0    0 -0.00000000000E+00 -0.00000000000E+00 -0.35740347158E-01  0.35744000000E-01  0.51099999109E-03 0. -1.
       22    1    1    2    0    0 -0.42856664370E-02  0.49705046258E-02  0.35129200558E-01  0.35737005818E-01  0.00000000000E+00 0.  1.
  9000001    1    1    2    0    0  0.42856664370E-02 -0.49705046258E-02 -0.35129200558E-01  0.35750994182E-01  0.10000000475E-02 0. -1.
</event>
<event>
 4   0  0.2441219E-02  0.9118800E+02  0.7818609E-02  0.1379984E+01
      -11   -1    0    0    0    0  0.00000000000E+00  0.00000000000E+00  0.35740347158E-01  0.35744000000E-01  0.51099999109E-03 0. -1.
       11   -1    0    0    0    0 -0.00000000000E+00 -0.00000000000E+00 -0.35740347158E-01  0.35744000000E-01  0.51099999109E-03 0.  1.
       22    1    1    2    0    0  0.24482469768E-01 -0.16344586374E-01 -0.20263187193E-01  0.35737005818E-01  0.00000000000E+00 0.  1.
  9000001    1    1    2    0    0 -0.24482469768E-01  0.16344586374E-01  0.20263187193E-01  0.35750994182E-01  0.10000000475E-02 0. -1.
</event>
<event>
 4   0  0.2441219E-02  0.9118800E+02  0.7818609E-02  0.1379984E+01
      -11   -1    0    0    0    0  0.00000000000E+00  0.00000000000E+00  0.35740347158E-01  0.35744000000E-01  0.51099999109E-03 0.  1.
       11   -1    0    0    0    0 -0.00000000000E+00 -0.00000000000E+00 -0.35740347158E-01  0.35744000000E-01  0.51099999109E-03 0. -1.
       22    1    1    2    0    0  0.22611538896E-02  0.41924754954E-02 -0.35418129781E-01  0.35737005818E-01  0.00000000000E+00 0. -1.
  9000001    1    1    2    0    0 -0.22611538896E-02 -0.41924754954E-02  0.35418129781E-01  0.35750994182E-01  0.10000000475E-02 0.  1.
</event>
<event>
 4   0  0.2441219E-02  0.9118800E+02  0.7818609E-02  0.1379984E+01
      -11   -1    0    0    0    0  0.00000000000E+00  0.00000000000E+00  0.35740347158E-01  0.35744000000E-01  0.51099999109E-03 0.  1.
       11   -1    0    0    0    0 -0.00000000000E+00 -0.00000000000E+00 -0.35740347158E-01  0.35744000000E-01  0.51099999109E-03 0. -1.
       22    1    1    2    0    0 -0.11695780206E-01  0.27331883376E-01 -0.19832056408E-01  0.35737005818E-01  0.00000000000E+00 0. -1.
  9000001    1    1    2    0    0  0.11695780206E-01 -0.27331883376E-01  0.19832056408E-01  0.35750994182E-01  0.10000000475E-02 0.  1.
</event>
<event>
 4   0  0.2441219E-02  0.9118800E+02  0.7818609E-02  0.1379984E+01
      -11   -1    0    0    0    0  0.00000000000E+00  0.00000000000E+00  0.35740347158E-01  0.35744000000E-01  0.51099999109E-03 0.  1.
       11   -1    0    0    0    0 -0.00000000000E+00 -0.00000000000E+00 -0.35740347158E-01  0.35744000000E-01  0.51099999109E-03 0. -1.
       22    1    1    2    0    0  0.71826995828E-02  0.15452175497E-01 -0.31412938162E-01  0.35737005818E-01  0.00000000000E+00 0. -1.
  9000001    1    1    2    0    0 -0.71826995828E-02 -0.15452175497E-01  0.31412938162E-01  0.35750994182E-01  0.10000000475E-02 0.  1.
</event>
<event>
 4   0  0.2441219E-02  0.9118800E+02  0.7818609E-02  0.1379984E+01
      -11   -1    0    0    0    0  0.00000000000E+00  0.00000000000E+00  0.35740347158E-01  0.35744000000E-01  0.51099999109E-03 0. -1.
       11   -1    0    0    0    0 -0.00000000000E+00 -0.00000000000E+00 -0.35740347158E-01  0.35744000000E-01  0.51099999109E-03 0.  1.
       22    1    1    2    0    0 -0.47946442492E-02  0.53024856707E-03  0.35409939394E-01  0.35737005818E-01  0.00000000000E+00 0. -1.
  9000001    1    1    2    0    0  0.47946442492E-02 -0.53024856707E-03 -0.35409939394E-01  0.35750994182E-01  0.10000000475E-02 0.  1.
</event>
<event>
 4   0  0.2441219E-02  0.9118800E+02  0.7818609E-02  0.1379984E+01
      -11   -1    0    0    0    0  0.00000000000E+00  0.00000000000E+00  0.35740347158E-01  0.35744000000E-01  0.51099999109E-03 0. -1.
       11   -1    0    0    0    0 -0.00000000000E+00 -0.00000000000E+00 -0.35740347158E-01  0.35744000000E-01  0.51099999109E-03 0.  1.
       22    1    1    2    0    0 -0.17119285614E-01  0.41021340088E-02  0.31100420279E-01  0.35737005818E-01  0.00000000000E+00 0. -1.
  9000001    1    1    2    0    0  0.17119285614E-01 -0.41021340088E-02 -0.31100420279E-01  0.35750994182E-01  0.10000000475E-02 0.  1.
</event>
<event>
 4   0  0.2441219E-02  0.9118800E+02  0.7818609E-02  0.1379984E+01
      -11   -1    0    0    0    0  0.00000000000E+00  0.00000000000E+00  0.35740347158E-01  0.35744000000E-01  0.51099999109E-03 0.  1.
       11   -1    0    0    0    0 -0.00000000000E+00 -0.00000000000E+00 -0.35740347158E-01  0.35744000000E-01  0.51099999109E-03 0. -1.
       22    1    1    2    0    0  0.16544771109E-01  0.74745164693E-03 -0.31667735155E-01  0.35737005818E-01  0.00000000000E+00 0. -1.
  9000001    1    1    2    0    0 -0.16544771109E-01 -0.74745164693E-03  0.31667735155E-01  0.35750994182E-01  0.10000000475E-02 0.  1.
</event>
<event>
 4   0  0.2441219E-02  0.9118800E+02  0.7818609E-02  0.1379984E+01
      -11   -1    0    0    0    0  0.00000000000E+00  0.00000000000E+00  0.35740347158E-01  0.35744000000E-01  0.51099999109E-03 0.  1.
       11   -1    0    0    0    0 -0.00000000000E+00 -0.00000000000E+00 -0.35740347158E-01  0.35744000000E-01  0.51099999109E-03 0. -1.
       22    1    1    2    0    0 -0.11149008360E-01  0.13985660907E-01 -0.30939206300E-01  0.35737005818E-01  0.00000000000E+00 0. -1.
  9000001    1    1    2    0    0  0.11149008360E-01 -0.13985660907E-01  0.30939206300E-01  0.35750994182E-01  0.10000000475E-02 0.  1.
</event>
<event>
 4   0  0.2441219E-02  0.9118800E+02  0.7818609E-02  0.1379984E+01
      -11   -1    0    0    0    0  0.00000000000E+00  0.00000000000E+00  0.35740347158E-01  0.35744000000E-01  0.51099999109E-03 0. -1.
       11   -1    0    0    0    0 -0.00000000000E+00 -0.00000000000E+00 -0.35740347158E-01  0.35744000000E-01  0.51099999109E-03 0.  1.
       22    1    1    2    0    0 -0.41636371944E-02 -0.92320884915E-03 -0.35481620532E-01  0.35737005818E-01  0.00000000000E+00 0.  1.
  9000001    1    1    2    0    0  0.41636371944E-02  0.92320884915E-03  0.35481620532E-01  0.35750994182E-01  0.10000000475E-02 0. -1.
</event>
<event>
 4   0  0.2441219E-02  0.9118800E+02  0.7818609E-02  0.1379984E+01
      -11   -1    0    0    0    0  0.00000000000E+00  0.00000000000E+00  0.35740347158E-01  0.35744000000E-01  0.51099999109E-03 0. -1.
       11   -1    0    0    0    0 -0.00000000000E+00 -0.00000000000E+00 -0.35740347158E-01  0.35744000000E-01  0.51099999109E-03 0.  1.
       22    1    1    2    0    0  0.16562181862E-02  0.32865893214E-02 -0.35546995046E-01  0.35737005818E-01  0.00000000000E+00 0.  1.
  9000001    1    1    2    0    0 -0.16562181862E-02 -0.32865893214E-02  0.35546995046E-01  0.35750994182E-01  0.10000000475E-02 0. -1.
</event>
<event>
 4   0  0.2441219E-02  0.9118800E+02  0.7818609E-02  0.1379984E+01
      -11   -1    0    0    0    0  0.00000000000E+00  0.00000000000E+00  0.35740347158E-01  0.35744000000E-01  0.51099999109E-03 0.  1.
       11   -1    0    0    0    0 -0.00000000000E+00 -0.00000000000E+00 -0.35740347158E-01  0.35744000000E-01  0.51099999109E-03 0. -1.
       22    1    1    2    0    0 -0.62070770912E-02  0.33111945845E-02 -0.35037719236E-01  0.35737005818E-01  0.00000000000E+00 0. -1.
  9000001    1    1    2    0    0  0.62070770912E-02 -0.33111945845E-02  0.35037719236E-01  0.35750994182E-01  0.10000000475E-02 0.  1.
</event>
<event>
 4   0  0.2441219E-02  0.9118800E+02  0.7818609E-02  0.1379984E+01
      -11   -1    0    0    0    0  0.00000000000E+00  0.00000000000E+00  0.35740347158E-01  0.35744000000E-01  0.51099999109E-03 0. -1.
       11   -1    0    0    0    0 -0.00000000000E+00 -0.00000000000E+00 -0.35740347158E-01  0.35744000000E-01  0.51099999109E-03 0.  1.
       22    1    1    2    0    0  0.30394624888E-01 -0.96060116396E-02 -0.16156265138E-01  0.35737005818E-01  0.00000000000E+00 0.  1.
  9000001    1    1    2    0    0 -0.30394624888E-01  0.96060116396E-02  0.16156265138E-01  0.35750994182E-01  0.10000000475E-02 0. -1.
</event>
<event>
 4   0  0.2441219E-02  0.9118800E+02  0.7818609E-02  0.1379984E+01
      -11   -1    0    0    0    0  0.00000000000E+00  0.00000000000E+00  0.35740347158E-01  0.35744000000E-01  0.51099999109E-03 0. -1.
       11   -1    0    0    0    0 -0.00000000000E+00 -0.00000000000E+00 -0.35740347158E-01  0.35744000000E-01  0.51099999109E-03 0.  1.
       22    1    1    2    0    0  0.75524930697E-02  0.97386817547E-02 -0.33544768757E-01  0.35737005818E-01  0.00000000000E+00 0.  1.
  9000001    1    1    2    0    0 -0.75524930697E-02 -0.97386817547E-02  0.33544768757E-01  0.35750994182E-01  0.10000000475E-02 0. -1.
</event>
<event>
 4   0  0.2441219E-02  0.9118800E+02  0.7818609E-02  0.1379984E+01
      -11   -1    0    0    0    0  0.00000000000E+00  0.00000000000E+00  0.35740347158E-01  0.35744000000E-01  0.51099999109E-03 0.  1.
       11   -1    0    0    0    0 -0.00000000000E+00 -0.00000000000E+00 -0.35740347158E-01  0.35744000000E-01  0.51099999109E-03 0. -1.
       22    1    1    2    0    0 -0.11139898076E-01  0.91117201622E-03 -0.33944160342E-01  0.35737005818E-01  0.00000000000E+00 0. -1.
  9000001    1    1    2    0    0  0.11139898076E-01 -0.91117201622E-03  0.33944160342E-01  0.35750994182E-01  0.10000000475E-02 0.  1.
</event>
<event>
 4   0  0.2441219E-02  0.9118800E+02  0.7818609E-02  0.1379984E+01
      -11   -1    0    0    0    0  0.00000000000E+00  0.00000000000E+00  0.35740347158E-01  0.35744000000E-01  0.51099999109E-03 0. -1.
       11   -1    0    0    0    0 -0.00000000000E+00 -0.00000000000E+00 -0.35740347158E-01  0.35744000000E-01  0.51099999109E-03 0.  1.
       22    1    1    2    0    0 -0.17835906268E-01 -0.24624032443E-01  0.18779538299E-01  0.35737005818E-01  0.00000000000E+00 0. -1.
  9000001    1    1    2    0    0  0.17835906268E-01  0.24624032443E-01 -0.18779538299E-01  0.35750994182E-01  0.10000000475E-02 0.  1.
</event>
<event>
 4   0  0.2441219E-02  0.9118800E+02  0.7818609E-02  0.1379984E+01
      -11   -1    0    0    0    0  0.00000000000E+00  0.00000000000E+00  0.35740347158E-01  0.35744000000E-01  0.51099999109E-03 0. -1.
       11   -1    0    0    0    0 -0.00000000000E+00 -0.00000000000E+00 -0.35740347158E-01  0.35744000000E-01  0.51099999109E-03 0.  1.
       22    1    1    2    0    0  0.12093601762E-01 -0.92152263605E-02  0.32341273698E-01  0.35737005818E-01  0.00000000000E+00 0. -1.
  9000001    1    1    2    0    0 -0.12093601762E-01  0.92152263605E-02 -0.32341273698E-01  0.35750994182E-01  0.10000000475E-02 0.  1.
</event>
<event>
 4   0  0.2441219E-02  0.9118800E+02  0.7818609E-02  0.1379984E+01
      -11   -1    0    0    0    0  0.00000000000E+00  0.00000000000E+00  0.35740347158E-01  0.35744000000E-01  0.51099999109E-03 0. -1.
       11   -1    0    0    0    0 -0.00000000000E+00 -0.00000000000E+00 -0.35740347158E-01  0.35744000000E-01  0.51099999109E-03 0.  1.
       22    1    1    2    0    0  0.31470635120E-01 -0.24999612341E-02 -0.16747623826E-01  0.35737005818E-01  0.00000000000E+00 0. -1.
  9000001    1    1    2    0    0 -0.31470635120E-01  0.24999612341E-02  0.16747623826E-01  0.35750994182E-01  0.10000000475E-02 0.  1.
</event>
<event>
 4   0  0.2441219E-02  0.9118800E+02  0.7818609E-02  0.1379984E+01
      -11   -1    0    0    0    0  0.00000000000E+00  0.00000000000E+00  0.35740347158E-01  0.35744000000E-01  0.51099999109E-03 0.  1.
       11   -1    0    0    0    0 -0.00000000000E+00 -0.00000000000E+00 -0.35740347158E-01  0.35744000000E-01  0.51099999109E-03 0. -1.
       22    1    1    2    0    0  0.59585203596E-03 -0.42090943639E-02  0.35483264645E-01  0.35737005818E-01  0.00000000000E+00 0.  1.
  9000001    1    1    2    0    0 -0.59585203596E-03  0.42090943639E-02 -0.35483264645E-01  0.35750994182E-01  0.10000000475E-02 0. -1.
</event>
<event>
 4   0  0.2441219E-02  0.9118800E+02  0.7818609E-02  0.1379984E+01
      -11   -1    0    0    0    0  0.00000000000E+00  0.00000000000E+00  0.35740347158E-01  0.35744000000E-01  0.51099999109E-03 0. -1.
       11   -1    0    0    0    0 -0.00000000000E+00 -0.00000000000E+00 -0.35740347158E-01  0.35744000000E-01  0.51099999109E-03 0.  1.
       22    1    1    2    0    0  0.17679903950E-01 -0.15847431869E-01  0.26709801279E-01  0.35737005818E-01  0.00000000000E+00 0. -1.
  9000001    1    1    2    0    0 -0.17679903950E-01  0.15847431869E-01 -0.26709801279E-01  0.35750994182E-01  0.10000000475E-02 0.  1.
</event>
<event>
 4   0  0.2441219E-02  0.9118800E+02  0.7818609E-02  0.1379984E+01
      -11   -1    0    0    0    0  0.00000000000E+00  0.00000000000E+00  0.35740347158E-01  0.35744000000E-01  0.51099999109E-03 0. -1.
       11   -1    0    0    0    0 -0.00000000000E+00 -0.00000000000E+00 -0.35740347158E-01  0.35744000000E-01  0.51099999109E-03 0.  1.
       22    1    1    2    0    0 -0.13518109118E-01 -0.19762287137E-01 -0.26530102108E-01  0.35737005818E-01  0.00000000000E+00 0.  1.
  9000001    1    1    2    0    0  0.13518109118E-01  0.19762287137E-01  0.26530102108E-01  0.35750994182E-01  0.10000000475E-02 0. -1.
</event>
<event>
 4   0  0.2441219E-02  0.9118800E+02  0.7818609E-02  0.1379984E+01
      -11   -1    0    0    0    0  0.00000000000E+00  0.00000000000E+00  0.35740347158E-01  0.35744000000E-01  0.51099999109E-03 0.  1.
       11   -1    0    0    0    0 -0.00000000000E+00 -0.00000000000E+00 -0.35740347158E-01  0.35744000000E-01  0.51099999109E-03 0. -1.
       22    1    1    2    0    0 -0.33377068728E-01 -0.11267732737E-01 -0.60119104263E-02  0.35737005818E-01  0.00000000000E+00 0. -1.
  9000001    1    1    2    0    0  0.33377068728E-01  0.11267732737E-01  0.60119104263E-02  0.35750994182E-01  0.10000000475E-02 0.  1.
</event>
<event>
 4   0  0.2441219E-02  0.9118800E+02  0.7818609E-02  0.1379984E+01
      -11   -1    0    0    0    0  0.00000000000E+00  0.00000000000E+00  0.35740347158E-01  0.35744000000E-01  0.51099999109E-03 0.  1.
       11   -1    0    0    0    0 -0.00000000000E+00 -0.00000000000E+00 -0.35740347158E-01  0.35744000000E-01  0.51099999109E-03 0. -1.
       22    1    1    2    0    0 -0.28474755215E-02  0.10297469025E-02 -0.35608497432E-01  0.35737005818E-01  0.00000000000E+00 0. -1.
  9000001    1    1    2    0    0  0.28474755215E-02 -0.10297469025E-02  0.35608497432E-01  0.35750994182E-01  0.10000000475E-02 0.  1.
</event>
<event>
 4   0  0.2441219E-02  0.9118800E+02  0.7818609E-02  0.1379984E+01
      -11   -1    0    0    0    0  0.00000000000E+00  0.00000000000E+00  0.35740347158E-01  0.35744000000E-01  0.51099999109E-03 0. -1.
       11   -1    0    0    0    0 -0.00000000000E+00 -0.00000000000E+00 -0.35740347158E-01  0.35744000000E-01  0.51099999109E-03 0.  1.
       22    1    1    2    0    0  0.28157343362E-01  0.14940217412E-01 -0.16158202356E-01  0.35737005818E-01  0.00000000000E+00 0.  1.
  9000001    1    1    2    0    0 -0.28157343362E-01 -0.14940217412E-01  0.16158202356E-01  0.35750994182E-01  0.10000000475E-02 0. -1.
</event>
<event>
 4   0  0.2441219E-02  0.9118800E+02  0.7818609E-02  0.1379984E+01
      -11   -1    0    0    0    0  0.00000000000E+00  0.00000000000E+00  0.35740347158E-01  0.35744000000E-01  0.51099999109E-03 0. -1.
       11   -1    0    0    0    0 -0.00000000000E+00 -0.00000000000E+00 -0.35740347158E-01  0.35744000000E-01  0.51099999109E-03 0.  1.
       22    1    1    2    0    0 -0.18414276207E-01 -0.16093850526E-01 -0.26058319053E-01  0.35737005818E-01  0.00000000000E+00 0.  1.
  9000001    1    1    2    0    0  0.18414276207E-01  0.16093850526E-01  0.26058319053E-01  0.35750994182E-01  0.10000000475E-02 0. -1.
</event>
<event>
 4   0  0.2441219E-02  0.9118800E+02  0.7818609E-02  0.1379984E+01
      -11   -1    0    0    0    0  0.00000000000E+00  0.00000000000E+00  0.35740347158E-01  0.35744000000E-01  0.51099999109E-03 0.  1.
       11   -1    0    0    0    0 -0.00000000000E+00 -0.00000000000E+00 -0.35740347158E-01  0.35744000000E-01  0.51099999109E-03 0. -1.
       22    1    1    2    0    0 -0.30611630602E-01 -0.20793360227E-02  0.18323155255E-01  0.35737005818E-01  0.00000000000E+00 0.  1.
  9000001    1    1    2    0    0  0.30611630602E-01  0.20793360227E-02 -0.18323155255E-01  0.35750994182E-01  0.10000000475E-02 0. -1.
</event>
<event>
 4   0  0.2441219E-02  0.9118800E+02  0.7818609E-02  0.1379984E+01
      -11   -1    0    0    0    0  0.00000000000E+00  0.00000000000E+00  0.35740347158E-01  0.35744000000E-01  0.51099999109E-03 0. -1.
       11   -1    0    0    0    0 -0.00000000000E+00 -0.00000000000E+00 -0.35740347158E-01  0.35744000000E-01  0.51099999109E-03 0.  1.
       22    1    1    2    0    0 -0.91081415703E-02 -0.12898963885E-01  0.32059196382E-01  0.35737005818E-01  0.00000000000E+00 0. -1.
  9000001    1    1    2    0    0  0.91081415703E-02  0.12898963885E-01 -0.32059196382E-01  0.35750994182E-01  0.10000000475E-02 0.  1.
</event>
<event>
 4   0  0.2441219E-02  0.9118800E+02  0.7818609E-02  0.1379984E+01
      -11   -1    0    0    0    0  0.00000000000E+00  0.00000000000E+00  0.35740347158E-01  0.35744000000E-01  0.51099999109E-03 0. -1.
       11   -1    0    0    0    0 -0.00000000000E+00 -0.00000000000E+00 -0.35740347158E-01  0.35744000000E-01  0.51099999109E-03 0.  1.
       22    1    1    2    0    0  0.36803219330E-02 -0.13304186119E-01  0.32963425900E-01  0.35737005818E-01  0.00000000000E+00 0. -1.
  9000001    1    1    2    0    0 -0.36803219330E-02  0.13304186119E-01 -0.32963425900E-01  0.35750994182E-01  0.10000000475E-02 0.  1.
</event>
<event>
 4   0  0.2441219E-02  0.9118800E+02  0.7818609E-02  0.1379984E+01
      -11   -1    0    0    0    0  0.00000000000E+00  0.00000000000E+00  0.35740347158E-01  0.35744000000E-01  0.51099999109E-03 0.  1.
       11   -1    0    0    0    0 -0.00000000000E+00 -0.00000000000E+00 -0.35740347158E-01  0.35744000000E-01  0.51099999109E-03 0. -1.
       22    1    1    2    0    0 -0.30569163053E-02 -0.80614166097E-02  0.34681441865E-01  0.35737005818E-01  0.00000000000E+00 0.  1.
  9000001    1    1    2    0    0  0.30569163053E-02  0.80614166097E-02 -0.34681441865E-01  0.35750994182E-01  0.10000000475E-02 0. -1.
</event>
<event>
 4   0  0.2441219E-02  0.9118800E+02  0.7818609E-02  0.1379984E+01
      -11   -1    0    0    0    0  0.00000000000E+00  0.00000000000E+00  0.35740347158E-01  0.35744000000E-01  0.51099999109E-03 0.  1.
       11   -1    0    0    0    0 -0.00000000000E+00 -0.00000000000E+00 -0.35740347158E-01  0.35744000000E-01  0.51099999109E-03 0. -1.
       22    1    1    2    0    0 -0.46699187278E-02 -0.10719591277E-02 -0.35414352282E-01  0.35737005818E-01  0.00000000000E+00 0. -1.
  9000001    1    1    2    0    0  0.46699187278E-02  0.10719591277E-02  0.35414352282E-01  0.35750994182E-01  0.10000000475E-02 0.  1.
</event>
<event>
 4   0  0.2441219E-02  0.9118800E+02  0.7818609E-02  0.1379984E+01
      -11   -1    0    0    0    0  0.00000000000E+00  0.00000000000E+00  0.35740347158E-01  0.35744000000E-01  0.51099999109E-03 0.  1.
       11   -1    0    0    0    0 -0.00000000000E+00 -0.00000000000E+00 -0.35740347158E-01  0.35744000000E-01  0.51099999109E-03 0. -1.
       22    1    1    2    0    0  0.20404577214E-01  0.19970344435E-01  0.21493537558E-01  0.35737005818E-01  0.00000000000E+00 0.  1.
  9000001    1    1    2    0    0 -0.20404577214E-01 -0.19970344435E-01 -0.21493537558E-01  0.35750994182E-01  0.10000000475E-02 0. -1.
</event>
<event>
 4   0  0.2441219E-02  0.9118800E+02  0.7818609E-02  0.1379984E+01
      -11   -1    0    0    0    0  0.00000000000E+00  0.00000000000E+00  0.35740347158E-01  0.35744000000E-01  0.51099999109E-03 0. -1.
       11   -1    0    0    0    0 -0.00000000000E+00 -0.00000000000E+00 -0.35740347158E-01  0.35744000000E-01  0.51099999109E-03 0.  1.
       22    1    1    2    0    0 -0.60875686358E-03 -0.80790357132E-02 -0.34806496260E-01  0.35737005818E-01  0.00000000000E+00 0.  1.
  9000001    1    1    2    0    0  0.60875686358E-03  0.80790357132E-02  0.34806496260E-01  0.35750994182E-01  0.10000000475E-02 0. -1.
</event>
<event>
 4   0  0.2441219E-02  0.9118800E+02  0.7818609E-02  0.1379984E+01
      -11   -1    0    0    0    0  0.00000000000E+00  0.00000000000E+00  0.35740347158E-01  0.35744000000E-01  0.51099999109E-03 0.  1.
       11   -1    0    0    0    0 -0.00000000000E+00 -0.00000000000E+00 -0.35740347158E-01  0.35744000000E-01  0.51099999109E-03 0. -1.
       22    1    1    2    0    0 -0.37489459326E-02 -0.61528255558E-03 -0.35534496150E-01  0.35737005818E-01  0.00000000000E+00 0. -1.
  9000001    1    1    2    0    0  0.37489459326E-02  0.61528255558E-03  0.35534496150E-01  0.35750994182E-01  0.10000000475E-02 0.  1.
</event>
<event>
 4   0  0.2441219E-02  0.9118800E+02  0.7818609E-02  0.1379984E+01
      -11   -1    0    0    0    0  0.00000000000E+00  0.00000000000E+00  0.35740347158E-01  0.35744000000E-01  0.51099999109E-03 0.  1.
       11   -1    0    0    0    0 -0.00000000000E+00 -0.00000000000E+00 -0.35740347158E-01  0.35744000000E-01  0.51099999109E-03 0. -1.
       22    1    1    2    0    0  0.76814054239E-02 -0.46692552470E-02  0.34587969744E-01  0.35737005818E-01  0.00000000000E+00 0.  1.
  9000001    1    1    2    0    0 -0.76814054239E-02  0.46692552470E-02 -0.34587969744E-01  0.35750994182E-01  0.10000000475E-02 0. -1.
</event>
<event>
 4   0  0.2441219E-02  0.9118800E+02  0.7818609E-02  0.1379984E+01
      -11   -1    0    0    0    0  0.00000000000E+00  0.00000000000E+00  0.35740347158E-01  0.35744000000E-01  0.51099999109E-03 0. -1.
       11   -1    0    0    0    0 -0.00000000000E+00 -0.00000000000E+00 -0.35740347158E-01  0.35744000000E-01  0.51099999109E-03 0.  1.
       22    1    1    2    0    0  0.14554675198E-02 -0.28465975110E-02 -0.35593708458E-01  0.35737005818E-01  0.00000000000E+00 0.  1.
  9000001    1    1    2    0    0 -0.14554675198E-02  0.28465975110E-02  0.35593708458E-01  0.35750994182E-01  0.10000000475E-02 0. -1.
</event>
<event>
 4   0  0.2441219E-02  0.9118800E+02  0.7818609E-02  0.1379984E+01
      -11   -1    0    0    0    0  0.00000000000E+00  0.00000000000E+00  0.35740347158E-01  0.35744000000E-01  0.51099999109E-03 0.  1.
       11   -1    0    0    0    0 -0.00000000000E+00 -0.00000000000E+00 -0.35740347158E-01  0.35744000000E-01  0.51099999109E-03 0. -1.
       22    1    1    2    0    0  0.52762578318E-03  0.47905791029E-02  0.35410528770E-01  0.35737005818E-01  0.00000000000E+00 0.  1.
  9000001    1    1    2    0    0 -0.52762578318E-03 -0.47905791029E-02 -0.35410528770E-01  0.35750994182E-01  0.10000000475E-02 0. -1.
</event>
<event>
 4   0  0.2441219E-02  0.9118800E+02  0.7818609E-02  0.1379984E+01
      -11   -1    0    0    0    0  0.00000000000E+00  0.00000000000E+00  0.35740347158E-01  0.35744000000E-01  0.51099999109E-03 0.  1.
       11   -1    0    0    0    0 -0.00000000000E+00 -0.00000000000E+00 -0.35740347158E-01  0.35744000000E-01  0.51099999109E-03 0. -1.
       22    1    1    2    0    0 -0.90620263009E-02 -0.96508767501E-02  0.33194485116E-01  0.35737005818E-01  0.00000000000E+00 0.  1.
  9000001    1    1    2    0    0  0.90620263009E-02  0.96508767501E-02 -0.33194485116E-01  0.35750994182E-01  0.10000000475E-02 0. -1.
</event>
<event>
 4   0  0.2441219E-02  0.9118800E+02  0.7818609E-02  0.1379984E+01
      -11   -1    0    0    0    0  0.00000000000E+00  0.00000000000E+00  0.35740347158E-01  0.35744000000E-01  0.51099999109E-03 0. -1.
       11   -1    0    0    0    0 -0.00000000000E+00 -0.00000000000E+00 -0.35740347158E-01  0.35744000000E-01  0.51099999109E-03 0.  1.
       22    1    1    2    0    0  0.69607388164E-02 -0.18140134422E-01  0.29993619707E-01  0.35737005818E-01  0.00000000000E+00 0. -1.
  9000001    1    1    2    0    0 -0.69607388164E-02  0.18140134422E-01 -0.29993619707E-01  0.35750994182E-01  0.10000000475E-02 0.  1.
</event>
<event>
 4   0  0.2441219E-02  0.9118800E+02  0.7818609E-02  0.1379984E+01
      -11   -1    0    0    0    0  0.00000000000E+00  0.00000000000E+00  0.35740347158E-01  0.35744000000E-01  0.51099999109E-03 0.  1.
       11   -1    0    0    0    0 -0.00000000000E+00 -0.00000000000E+00 -0.35740347158E-01  0.35744000000E-01  0.51099999109E-03 0. -1.
       22    1    1    2    0    0 -0.87157535759E-02  0.62442912906E-02 -0.34090732623E-01  0.35737005818E-01  0.00000000000E+00 0. -1.
  9000001    1    1    2    0    0  0.87157535759E-02 -0.62442912906E-02  0.34090732623E-01  0.35750994182E-01  0.10000000475E-02 0.  1.
</event>
<event>
 4   0  0.2441219E-02  0.9118800E+02  0.7818609E-02  0.1379984E+01
      -11   -1    0    0    0    0  0.00000000000E+00  0.00000000000E+00  0.35740347158E-01  0.35744000000E-01  0.51099999109E-03 0.  1.
       11   -1    0    0    0    0 -0.00000000000E+00 -0.00000000000E+00 -0.35740347158E-01  0.35744000000E-01  0.51099999109E-03 0. -1.
       22    1    1    2    0    0 -0.11690613026E-02 -0.47800942851E-02 -0.35396575811E-01  0.35737005818E-01  0.00000000000E+00 0. -1.
  9000001    1    1    2    0    0  0.11690613026E-02  0.47800942851E-02  0.35396575811E-01  0.35750994182E-01  0.10000000475E-02 0.  1.
</event>
<event>
 4   0  0.2441219E-02  0.9118800E+02  0.7818609E-02  0.1379984E+01
      -11   -1    0    0    0    0  0.00000000000E+00  0.00000000000E+00  0.35740347158E-01  0.35744000000E-01  0.51099999109E-03 0. -1.
       11   -1    0    0    0    0 -0.00000000000E+00 -0.00000000000E+00 -0.35740347158E-01  0.35744000000E-01  0.51099999109E-03 0.  1.
       22    1    1    2    0    0 -0.11722922437E-02  0.28247586756E-02  0.35605899149E-01  0.35737005818E-01  0.00000000000E+00 0. -1.
  9000001    1    1    2    0    0  0.11722922437E-02 -0.28247586756E-02 -0.35605899149E-01  0.35750994182E-01  0.10000000475E-02 0.  1.
</event>
<event>
 4   0  0.2441219E-02  0.9118800E+02  0.7818609E-02  0.1379984E+01
      -11   -1    0    0    0    0  0.00000000000E+00  0.00000000000E+00  0.35740347158E-01  0.35744000000E-01  0.51099999109E-03 0. -1.
       11   -1    0    0    0    0 -0.00000000000E+00 -0.00000000000E+00 -0.35740347158E-01  0.35744000000E-01  0.51099999109E-03 0.  1.
       22    1    1    2    0    0  0.30772625198E-02 -0.11830727623E-02  0.35584608739E-01  0.35737005818E-01  0.00000000000E+00 0. -1.
  9000001    1    1    2    0    0 -0.30772625198E-02  0.11830727623E-02 -0.35584608739E-01  0.35750994182E-01  0.10000000475E-02 0.  1.
</event>
<event>
 4   0  0.2441219E-02  0.9118800E+02  0.7818609E-02  0.1379984E+01
      -11   -1    0    0    0    0  0.00000000000E+00  0.00000000000E+00  0.35740347158E-01  0.35744000000E-01  0.51099999109E-03 0. -1.
       11   -1    0    0    0    0 -0.00000000000E+00 -0.00000000000E+00 -0.35740347158E-01  0.35744000000E-01  0.51099999109E-03 0.  1.
       22    1    1    2    0    0 -0.18691100893E-01 -0.10665615065E-01 -0.28531053040E-01  0.35737005818E-01  0.00000000000E+00 0.  1.
  9000001    1    1    2    0    0  0.18691100893E-01  0.10665615065E-01  0.28531053040E-01  0.35750994182E-01  0.10000000475E-02 0. -1.
</event>
<event>
 4   0  0.2441219E-02  0.9118800E+02  0.7818609E-02  0.1379984E+01
      -11   -1    0    0    0    0  0.00000000000E+00  0.00000000000E+00  0.35740347158E-01  0.35744000000E-01  0.51099999109E-03 0. -1.
       11   -1    0    0    0    0 -0.00000000000E+00 -0.00000000000E+00 -0.35740347158E-01  0.35744000000E-01  0.51099999109E-03 0.  1.
       22    1    1    2    0    0 -0.73215118683E-02  0.53773269292E-02 -0.34563179887E-01  0.35737005818E-01  0.00000000000E+00 0.  1.
  9000001    1    1    2    0    0  0.73215118683E-02 -0.53773269292E-02  0.34563179887E-01  0.35750994182E-01  0.10000000475E-02 0. -1.
</event>
<event>
 4   0  0.2441219E-02  0.9118800E+02  0.7818609E-02  0.1379984E+01
      -11   -1    0    0    0    0  0.00000000000E+00  0.00000000000E+00  0.35740347158E-01  0.35744000000E-01  0.51099999109E-03 0. -1.
       11   -1    0    0    0    0 -0.00000000000E+00 -0.00000000000E+00 -0.35740347158E-01  0.35744000000E-01  0.51099999109E-03 0.  1.
       22    1    1    2    0    0 -0.29086321379E-02 -0.12715291066E-01 -0.33271531631E-01  0.35737005818E-01  0.00000000000E+00 0.  1.
  9000001    1    1    2    0    0  0.29086321379E-02  0.12715291066E-01  0.33271531631E-01  0.35750994182E-01  0.10000000475E-02 0. -1.
</event>
<event>
 4   0  0.2441219E-02  0.9118800E+02  0.7818609E-02  0.1379984E+01
      -11   -1    0    0    0    0  0.00000000000E+00  0.00000000000E+00  0.35740347158E-01  0.35744000000E-01  0.51099999109E-03 0.  1.
       11   -1    0    0    0    0 -0.00000000000E+00 -0.00000000000E+00 -0.35740347158E-01  0.35744000000E-01  0.51099999109E-03 0. -1.
       22    1    1    2    0    0 -0.15590670724E-01  0.58769577189E-02 -0.31615280154E-01  0.35737005818E-01  0.00000000000E+00 0. -1.
  9000001    1    1    2    0    0  0.15590670724E-01 -0.58769577189E-02  0.31615280154E-01  0.35750994182E-01  0.10000000475E-02 0.  1.
</event>
<event>
 4   0  0.2441219E-02  0.9118800E+02  0.7818609E-02  0.1379984E+01
      -11   -1    0    0    0    0  0.00000000000E+00  0.00000000000E+00  0.35740347158E-01  0.35744000000E-01  0.51099999109E-03 0.  1.
       11   -1    0    0    0    0 -0.00000000000E+00 -0.00000000000E+00 -0.35740347158E-01  0.35744000000E-01  0.51099999109E-03 0. -1.
       22    1    1    2    0    0 -0.34432885982E-02 -0.12994942557E-03  0.35570499879E-01  0.35737005818E-01  0.00000000000E+00 0.  1.
  9000001    1    1    2    0    0  0.34432885982E-02  0.12994942557E-03 -0.35570499879E-01  0.35750994182E-01  0.10000000475E-02 0. -1.
</event>
<event>
 4   0  0.2441219E-02  0.9118800E+02  0.7818609E-02  0.1379984E+01
      -11   -1    0    0    0    0  0.00000000000E+00  0.00000000000E+00  0.35740347158E-01  0.35744000000E-01  0.51099999109E-03 0.  1.
       11   -1    0    0    0    0 -0.00000000000E+00 -0.00000000000E+00 -0.35740347158E-01  0.35744000000E-01  0.51099999109E-03 0. -1.
       22    1    1    2    0    0 -0.98927762173E-02  0.13092662299E-01 -0.31746633798E-01  0.35737005818E-01  0.00000000000E+00 0. -1.
  9000001    1    1    2    0    0  0.98927762173E-02 -0.13092662299E-01  0.31746633798E-01  0.35750994182E-01  0.10000000475E-02 0.  1.
</event>
<event>
 4   0  0.2441219E-02  0.9118800E+02  0.7818609E-02  0.1379984E+01
      -11   -1    0    0    0    0  0.00000000000E+00  0.00000000000E+00  0.35740347158E-01  0.35744000000E-01  0.51099999109E-03 0. -1.
       11   -1    0    0    0    0 -0.00000000000E+00 -0.00000000000E+00 -0.35740347158E-01  0.35744000000E-01  0.51099999109E-03 0.  1.
       22    1    1    2    0    0  0.74969894871E-02 -0.60591360042E-02 -0.34412433863E-01  0.35737005818E-01  0.00000000000E+00 0.  1.
  9000001    1    1    2    0    0 -0.74969894871E-02  0.60591360042E-02  0.34412433863E-01  0.35750994182E-01  0.10000000475E-02 0. -1.
</event>
<event>
 4   0  0.2441219E-02  0.9118800E+02  0.7818609E-02  0.1379984E+01
      -11   -1    0    0    0    0  0.00000000000E+00  0.00000000000E+00  0.35740347158E-01  0.35744000000E-01  0.51099999109E-03 0.  1.
       11   -1    0    0    0    0 -0.00000000000E+00 -0.00000000000E+00 -0.35740347158E-01  0.35744000000E-01  0.51099999109E-03 0. -1.
       22    1    1    2    0    0 -0.24497833597E-01  0.12747548477E-01 -0.22682366318E-01  0.35737005818E-01  0.00000000000E+00 0. -1.
  9000001    1    1    2    0    0  0.24497833597E-01 -0.12747548477E-01  0.22682366318E-01  0.35750994182E-01  0.10000000475E-02 0.  1.
</event>
<event>
 4   0  0.2441219E-02  0.9118800E+02  0.7818609E-02  0.1379984E+01
      -11   -1    0    0    0    0  0.00000000000E+00  0.00000000000E+00  0.35740347158E-01  0.35744000000E-01  0.51099999109E-03 0. -1.
       11   -1    0    0    0    0 -0.00000000000E+00 -0.00000000000E+00 -0.35740347158E-01  0.35744000000E-01  0.51099999109E-03 0.  1.
       22    1    1    2    0    0  0.41881251970E-02 -0.23645523386E-03 -0.35489960286E-01  0.35737005818E-01  0.00000000000E+00 0.  1.
  9000001    1    1    2    0    0 -0.41881251970E-02  0.23645523386E-03  0.35489960286E-01  0.35750994182E-01  0.10000000475E-02 0. -1.
</event>
<event>
 4   0  0.2441219E-02  0.9118800E+02  0.7818609E-02  0.1379984E+01
      -11   -1    0    0    0    0  0.00000000000E+00  0.00000000000E+00  0.35740347158E-01  0.35744000000E-01  0.51099999109E-03 0.  1.
       11   -1    0    0    0    0 -0.00000000000E+00 -0.00000000000E+00 -0.35740347158E-01  0.35744000000E-01  0.51099999109E-03 0. -1.
       22    1    1    2    0    0  0.31836950204E-01 -0.16158527986E-01 -0.15633809270E-02  0.35737005818E-01  0.00000000000E+00 0. -1.
  9000001    1    1    2    0    0 -0.31836950204E-01  0.16158527986E-01  0.15633809270E-02  0.35750994182E-01  0.10000000475E-02 0.  1.
</event>
<event>
 4   0  0.2441219E-02  0.9118800E+02  0.7818609E-02  0.1379984E+01
      -11   -1    0    0    0    0  0.00000000000E+00  0.00000000000E+00  0.35740347158E-01  0.35744000000E-01  0.51099999109E-03 0. -1.
       11   -1    0    0    0    0 -0.00000000000E+00 -0.00000000000E+00 -0.35740347158E-01  0.35744000000E-01  0.51099999109E-03 0.  1.
       22    1    1    2    0    0  0.11806666566E-02 -0.45924540172E-02  0.35421024508E-01  0.35737005818E-01  0.00000000000E+00 0. -1.
  9000001    1    1    2    0    0 -0.11806666566E-02  0.45924540172E-02 -0.35421024508E-01  0.35750994182E-01  0.10000000475E-02 0.  1.
</event>
<event>
 4   0  0.2441219E-02  0.9118800E+02  0.7818609E-02  0.1379984E+01
      -11   -1    0    0    0    0  0.00000000000E+00  0.00000000000E+00  0.35740347158E-01  0.35744000000E-01  0.51099999109E-03 0. -1.
       11   -1    0    0    0    0 -0.00000000000E+00 -0.00000000000E+00 -0.35740347158E-01  0.35744000000E-01  0.51099999109E-03 0.  1.
       22    1    1    2    0    0  0.18236667412E-01 -0.29213933149E-01 -0.95448235482E-02  0.35737005818E-01  0.00000000000E+00 0.  1.
  9000001    1    1    2    0    0 -0.18236667412E-01  0.29213933149E-01  0.95448235482E-02  0.35750994182E-01  0.10000000475E-02 0. -1.
</event>
<event>
 4   0  0.2441219E-02  0.9118800E+02  0.7818609E-02  0.1379984E+01
      -11   -1    0    0    0    0  0.00000000000E+00  0.00000000000E+00  0.35740347158E-01  0.35744000000E-01  0.51099999109E-03 0.  1.
       11   -1    0    0    0    0 -0.00000000000E+00 -0.00000000000E+00 -0.35740347158E-01  0.35744000000E-01  0.51099999109E-03 0. -1.
       22    1    1    2    0    0  0.19605278754E-02 -0.27420658840E-02  0.35577675444E-01  0.35737005818E-01  0.00000000000E+00 0.  1.
  9000001    1    1    2    0    0 -0.19605278754E-02  0.27420658840E-02 -0.35577675444E-01  0.35750994182E-01  0.10000000475E-02 0. -1.
</event>
<event>
 4   0  0.2441219E-02  0.9118800E+02  0.7818609E-02  0.1379984E+01
      -11   -1    0    0    0    0  0.00000000000E+00  0.00000000000E+00  0.35740347158E-01  0.35744000000E-01  0.51099999109E-03 0. -1.
       11   -1    0    0    0    0 -0.00000000000E+00 -0.00000000000E+00 -0.35740347158E-01  0.35744000000E-01  0.51099999109E-03 0.  1.
       22    1    1    2    0    0 -0.87715826279E-02  0.39024127749E-02  0.34423307476E-01  0.35737005818E-01  0.00000000000E+00 0. -1.
  9000001    1    1    2    0    0  0.87715826279E-02 -0.39024127749E-02 -0.34423307476E-01  0.35750994182E-01  0.10000000475E-02 0.  1.
</event>
<event>
 4   0  0.2441219E-02  0.9118800E+02  0.7818609E-02  0.1379984E+01
      -11   -1    0    0    0    0  0.00000000000E+00  0.00000000000E+00  0.35740347158E-01  0.35744000000E-01  0.51099999109E-03 0.  1.
       11   -1    0    0    0    0 -0.00000000000E+00 -0.00000000000E+00 -0.35740347158E-01  0.35744000000E-01  0.51099999109E-03 0. -1.
       22    1    1    2    0    0 -0.11285693251E-01  0.15587716852E-01  0.30112950637E-01  0.35737005818E-01  0.00000000000E+00 0.  1.
  9000001    1    1    2    0    0  0.11285693251E-01 -0.15587716852E-01 -0.30112950637E-01  0.35750994182E-01  0.10000000475E-02 0. -1.
</event>
<event>
 4   0  0.2441219E-02  0.9118800E+02  0.7818609E-02  0.1379984E+01
      -11   -1    0    0    0    0  0.00000000000E+00  0.00000000000E+00  0.35740347158E-01  0.35744000000E-01  0.51099999109E-03 0. -1.
       11   -1    0    0    0    0 -0.00000000000E+00 -0.00000000000E+00 -0.35740347158E-01  0.35744000000E-01  0.51099999109E-03 0.  1.
       22    1    1    2    0    0 -0.12053167640E-01  0.13687306679E-01 -0.30732919981E-01  0.35737005818E-01  0.00000000000E+00 0.  1.
  9000001    1    1    2    0    0  0.12053167640E-01 -0.13687306679E-01  0.30732919981E-01  0.35750994182E-01  0.10000000475E-02 0. -1.
</event>
<event>
 4   0  0.2441219E-02  0.9118800E+02  0.7818609E-02  0.1379984E+01
      -11   -1    0    0    0    0  0.00000000000E+00  0.00000000000E+00  0.35740347158E-01  0.35744000000E-01  0.51099999109E-03 0. -1.
       11   -1    0    0    0    0 -0.00000000000E+00 -0.00000000000E+00 -0.35740347158E-01  0.35744000000E-01  0.51099999109E-03 0.  1.
       22    1    1    2    0    0  0.91610616941E-03  0.35129129532E-02  0.35552127601E-01  0.35737005818E-01  0.00000000000E+00 0. -1.
  9000001    1    1    2    0    0 -0.91610616941E-03 -0.35129129532E-02 -0.35552127601E-01  0.35750994182E-01  0.10000000475E-02 0.  1.
</event>
<event>
 4   0  0.2441219E-02  0.9118800E+02  0.7818609E-02  0.1379984E+01
      -11   -1    0    0    0    0  0.00000000000E+00  0.00000000000E+00  0.35740347158E-01  0.35744000000E-01  0.51099999109E-03 0. -1.
       11   -1    0    0    0    0 -0.00000000000E+00 -0.00000000000E+00 -0.35740347158E-01  0.35744000000E-01  0.51099999109E-03 0.  1.
       22    1    1    2    0    0 -0.19108511798E-01  0.30059970983E-01  0.28976725613E-02  0.35737005818E-01  0.00000000000E+00 0. -1.
  9000001    1    1    2    0    0  0.19108511798E-01 -0.30059970983E-01 -0.28976725613E-02  0.35750994182E-01  0.10000000475E-02 0.  1.
</event>
<event>
 4   0  0.2441219E-02  0.9118800E+02  0.7818609E-02  0.1379984E+01
      -11   -1    0    0    0    0  0.00000000000E+00  0.00000000000E+00  0.35740347158E-01  0.35744000000E-01  0.51099999109E-03 0.  1.
       11   -1    0    0    0    0 -0.00000000000E+00 -0.00000000000E+00 -0.35740347158E-01  0.35744000000E-01  0.51099999109E-03 0. -1.
       22    1    1    2    0    0 -0.16578897156E-01 -0.58322717344E-03  0.31653334738E-01  0.35737005818E-01  0.00000000000E+00 0.  1.
  9000001    1    1    2    0    0  0.16578897156E-01  0.58322717344E-03 -0.31653334738E-01  0.35750994182E-01  0.10000000475E-02 0. -1.
</event>
<event>
 4   0  0.2441219E-02  0.9118800E+02  0.7818609E-02  0.1379984E+01
      -11   -1    0    0    0    0  0.00000000000E+00  0.00000000000E+00  0.35740347158E-01  0.35744000000E-01  0.51099999109E-03 0. -1.
       11   -1    0    0    0    0 -0.00000000000E+00 -0.00000000000E+00 -0.35740347158E-01  0.35744000000E-01  0.51099999109E-03 0.  1.
       22    1    1    2    0    0 -0.54309593082E-02  0.36072567660E-02 -0.35137244691E-01  0.35737005818E-01  0.00000000000E+00 0.  1.
  9000001    1    1    2    0    0  0.54309593082E-02 -0.36072567660E-02  0.35137244691E-01  0.35750994182E-01  0.10000000475E-02 0. -1.
</event>
<event>
 4   0  0.2441219E-02  0.9118800E+02  0.7818609E-02  0.1379984E+01
      -11   -1    0    0    0    0  0.00000000000E+00  0.00000000000E+00  0.35740347158E-01  0.35744000000E-01  0.51099999109E-03 0. -1.
       11   -1    0    0    0    0 -0.00000000000E+00 -0.00000000000E+00 -0.35740347158E-01  0.35744000000E-01  0.51099999109E-03 0.  1.
       22    1    1    2    0    0 -0.74551299475E-02  0.35588921016E-02 -0.34769079789E-01  0.35737005818E-01  0.00000000000E+00 0.  1.
  9000001    1    1    2    0    0  0.74551299475E-02 -0.35588921016E-02  0.34769079789E-01  0.35750994182E-01  0.10000000475E-02 0. -1.
</event>
<event>
 4   0  0.2441219E-02  0.9118800E+02  0.7818609E-02  0.1379984E+01
      -11   -1    0    0    0    0  0.00000000000E+00  0.00000000000E+00  0.35740347158E-01  0.35744000000E-01  0.51099999109E-03 0.  1.
       11   -1    0    0    0    0 -0.00000000000E+00 -0.00000000000E+00 -0.35740347158E-01  0.35744000000E-01  0.51099999109E-03 0. -1.
       22    1    1    2    0    0  0.64096742514E-02  0.13822926501E-02  0.35130313518E-01  0.35737005818E-01  0.00000000000E+00 0.  1.
  9000001    1    1    2    0    0 -0.64096742514E-02 -0.13822926501E-02 -0.35130313518E-01  0.35750994182E-01  0.10000000475E-02 0. -1.
</event>
<event>
 4   0  0.2441219E-02  0.9118800E+02  0.7818609E-02  0.1379984E+01
      -11   -1    0    0    0    0  0.00000000000E+00  0.00000000000E+00  0.35740347158E-01  0.35744000000E-01  0.51099999109E-03 0. -1.
       11   -1    0    0    0    0 -0.00000000000E+00 -0.00000000000E+00 -0.35740347158E-01  0.35744000000E-01  0.51099999109E-03 0.  1.
       22    1    1    2    0    0 -0.61185070430E-03  0.43703510123E-02 -0.35463491870E-01  0.35737005818E-01  0.00000000000E+00 0.  1.
  9000001    1    1    2    0    0  0.61185070430E-03 -0.43703510123E-02  0.35463491870E-01  0.35750994182E-01  0.10000000475E-02 0. -1.
</event>
<event>
 4   0  0.2441219E-02  0.9118800E+02  0.7818609E-02  0.1379984E+01
      -11   -1    0    0    0    0  0.00000000000E+00  0.00000000000E+00  0.35740347158E-01  0.35744000000E-01  0.51099999109E-03 0.  1.
       11   -1    0    0    0    0 -0.00000000000E+00 -0.00000000000E+00 -0.35740347158E-01  0.35744000000E-01  0.51099999109E-03 0. -1.
       22    1    1    2    0    0  0.15050477510E-01  0.25868881666E-01 -0.19529917381E-01  0.35737005818E-01  0.00000000000E+00 0. -1.
  9000001    1    1    2    0    0 -0.15050477510E-01 -0.25868881666E-01  0.19529917381E-01  0.35750994182E-01  0.10000000475E-02 0.  1.
</event>
<event>
 4   0  0.2441219E-02  0.9118800E+02  0.7818609E-02  0.1379984E+01
      -11   -1    0    0    0    0  0.00000000000E+00  0.00000000000E+00  0.35740347158E-01  0.35744000000E-01  0.51099999109E-03 0. -1.
       11   -1    0    0    0    0 -0.00000000000E+00 -0.00000000000E+00 -0.35740347158E-01  0.35744000000E-01  0.51099999109E-03 0.  1.
       22    1    1    2    0    0  0.50561998416E-02  0.40090189992E-02 -0.35149625812E-01  0.35737005818E-01  0.00000000000E+00 0.  1.
  9000001    1    1    2    0    0 -0.50561998416E-02 -0.40090189992E-02  0.35149625812E-01  0.35750994182E-01  0.10000000475E-02 0. -1.
</event>
<event>
 4   0  0.2441219E-02  0.9118800E+02  0.7818609E-02  0.1379984E+01
      -11   -1    0    0    0    0  0.00000000000E+00  0.00000000000E+00  0.35740347158E-01  0.35744000000E-01  0.51099999109E-03 0. -1.
       11   -1    0    0    0    0 -0.00000000000E+00 -0.00000000000E+00 -0.35740347158E-01  0.35744000000E-01  0.51099999109E-03 0.  1.
       22    1    1    2    0    0  0.78612572028E-02 -0.38730133135E-02 -0.34645836517E-01  0.35737005818E-01  0.00000000000E+00 0.  1.
  9000001    1    1    2    0    0 -0.78612572028E-02  0.38730133135E-02  0.34645836517E-01  0.35750994182E-01  0.10000000475E-02 0. -1.
</event>
<event>
 4   0  0.2441219E-02  0.9118800E+02  0.7818609E-02  0.1379984E+01
      -11   -1    0    0    0    0  0.00000000000E+00  0.00000000000E+00  0.35740347158E-01  0.35744000000E-01  0.51099999109E-03 0. -1.
       11   -1    0    0    0    0 -0.00000000000E+00 -0.00000000000E+00 -0.35740347158E-01  0.35744000000E-01  0.51099999109E-03 0.  1.
       22    1    1    2    0    0  0.14047467579E-01  0.12818307868E-02  0.32835333854E-01  0.35737005818E-01  0.00000000000E+00 0. -1.
  9000001    1    1    2    0    0 -0.14047467579E-01 -0.12818307868E-02 -0.32835333854E-01  0.35750994182E-01  0.10000000475E-02 0.  1.
</event>
<event>
 4   0  0.2441219E-02  0.9118800E+02  0.7818609E-02  0.1379984E+01
      -11   -1    0    0    0    0  0.00000000000E+00  0.00000000000E+00  0.35740347158E-01  0.35744000000E-01  0.51099999109E-03 0.  1.
       11   -1    0    0    0    0 -0.00000000000E+00 -0.00000000000E+00 -0.35740347158E-01  0.35744000000E-01  0.51099999109E-03 0. -1.
       22    1    1    2    0    0 -0.78803186886E-02  0.20162342546E-02  0.34798979319E-01  0.35737005818E-01  0.00000000000E+00 0.  1.
  9000001    1    1    2    0    0  0.78803186886E-02 -0.20162342546E-02 -0.34798979319E-01  0.35750994182E-01  0.10000000475E-02 0. -1.
</event>
<event>
 4   0  0.2441219E-02  0.9118800E+02  0.7818609E-02  0.1379984E+01
      -11   -1    0    0    0    0  0.00000000000E+00  0.00000000000E+00  0.35740347158E-01  0.35744000000E-01  0.51099999109E-03 0. -1.
       11   -1    0    0    0    0 -0.00000000000E+00 -0.00000000000E+00 -0.35740347158E-01  0.35744000000E-01  0.51099999109E-03 0.  1.
       22    1    1    2    0    0  0.27165365562E-01 -0.15002704948E-01  0.17722735201E-01  0.35737005818E-01  0.00000000000E+00 0. -1.
  9000001    1    1    2    0    0 -0.27165365562E-01  0.15002704948E-01 -0.17722735201E-01  0.35750994182E-01  0.10000000475E-02 0.  1.
</event>
<event>
 4   0  0.2441219E-02  0.9118800E+02  0.7818609E-02  0.1379984E+01
      -11   -1    0    0    0    0  0.00000000000E+00  0.00000000000E+00  0.35740347158E-01  0.35744000000E-01  0.51099999109E-03 0. -1.
       11   -1    0    0    0    0 -0.00000000000E+00 -0.00000000000E+00 -0.35740347158E-01  0.35744000000E-01  0.51099999109E-03 0.  1.
       22    1    1    2    0    0  0.15543160318E-01  0.64183828537E-02 -0.31533285806E-01  0.35737005818E-01  0.00000000000E+00 0.  1.
  9000001    1    1    2    0    0 -0.15543160318E-01 -0.64183828537E-02  0.31533285806E-01  0.35750994182E-01  0.10000000475E-02 0. -1.
</event>
<event>
 4   0  0.2441219E-02  0.9118800E+02  0.7818609E-02  0.1379984E+01
      -11   -1    0    0    0    0  0.00000000000E+00  0.00000000000E+00  0.35740347158E-01  0.35744000000E-01  0.51099999109E-03 0.  1.
       11   -1    0    0    0    0 -0.00000000000E+00 -0.00000000000E+00 -0.35740347158E-01  0.35744000000E-01  0.51099999109E-03 0. -1.
       22    1    1    2    0    0  0.35740005330E-03  0.59993831216E-02 -0.35228018000E-01  0.35737005818E-01  0.00000000000E+00 0. -1.
  9000001    1    1    2    0    0 -0.35740005330E-03 -0.59993831216E-02  0.35228018000E-01  0.35750994182E-01  0.10000000475E-02 0.  1.
</event>
<event>
 4   0  0.2441219E-02  0.9118800E+02  0.7818609E-02  0.1379984E+01
      -11   -1    0    0    0    0  0.00000000000E+00  0.00000000000E+00  0.35740347158E-01  0.35744000000E-01  0.51099999109E-03 0.  1.
       11   -1    0    0    0    0 -0.00000000000E+00 -0.00000000000E+00 -0.35740347158E-01  0.35744000000E-01  0.51099999109E-03 0. -1.
       22    1    1    2    0    0 -0.86968749851E-02  0.28683055278E-01 -0.19462278650E-01  0.35737005818E-01  0.00000000000E+00 0. -1.
  9000001    1    1    2    0    0  0.86968749851E-02 -0.28683055278E-01  0.19462278650E-01  0.35750994182E-01  0.10000000475E-02 0.  1.
</event>
<event>
 4   0  0.2441219E-02  0.9118800E+02  0.7818609E-02  0.1379984E+01
      -11   -1    0    0    0    0  0.00000000000E+00  0.00000000000E+00  0.35740347158E-01  0.35744000000E-01  0.51099999109E-03 0. -1.
       11   -1    0    0    0    0 -0.00000000000E+00 -0.00000000000E+00 -0.35740347158E-01  0.35744000000E-01  0.51099999109E-03 0.  1.
       22    1    1    2    0    0 -0.44997521174E-02  0.30461560090E-02  0.35321477168E-01  0.35737005818E-01  0.00000000000E+00 0. -1.
  9000001    1    1    2    0    0  0.44997521174E-02 -0.30461560090E-02 -0.35321477168E-01  0.35750994182E-01  0.10000000475E-02 0.  1.
</event>
<event>
 4   0  0.2441219E-02  0.9118800E+02  0.7818609E-02  0.1379984E+01
      -11   -1    0    0    0    0  0.00000000000E+00  0.00000000000E+00  0.35740347158E-01  0.35744000000E-01  0.51099999109E-03 0. -1.
       11   -1    0    0    0    0 -0.00000000000E+00 -0.00000000000E+00 -0.35740347158E-01  0.35744000000E-01  0.51099999109E-03 0.  1.
       22    1    1    2    0    0 -0.29586412661E-01 -0.14770400991E-01 -0.13550388382E-01  0.35737005818E-01  0.00000000000E+00 0.  1.
  9000001    1    1    2    0    0  0.29586412661E-01  0.14770400991E-01  0.13550388382E-01  0.35750994182E-01  0.10000000475E-02 0. -1.
</event>
<event>
 4   0  0.2441219E-02  0.9118800E+02  0.7818609E-02  0.1379984E+01
      -11   -1    0    0    0    0  0.00000000000E+00  0.00000000000E+00  0.35740347158E-01  0.35744000000E-01  0.51099999109E-03 0. -1.
       11   -1    0    0    0    0 -0.00000000000E+00 -0.00000000000E+00 -0.35740347158E-01  0.35744000000E-01  0.51099999109E-03 0.  1.
       22    1    1    2    0    0 -0.73661157590E-02 -0.55264298453E-02 -0.34530167921E-01  0.35737005818E-01  0.00000000000E+00 0.  1.
  9000001    1    1    2    0    0  0.73661157590E-02  0.55264298453E-02  0.34530167921E-01  0.35750994182E-01  0.10000000475E-02 0. -1.
</event>
<event>
 4   0  0.2441219E-02  0.9118800E+02  0.7818609E-02  0.1379984E+01
      -11   -1    0    0    0    0  0.00000000000E+00  0.00000000000E+00  0.35740347158E-01  0.35744000000E-01  0.51099999109E-03 0.  1.
       11   -1    0    0    0    0 -0.00000000000E+00 -0.00000000000E+00 -0.35740347158E-01  0.35744000000E-01  0.51099999109E-03 0. -1.
       22    1    1    2    0    0  0.13091606539E-02  0.54395868276E-02 -0.35296325282E-01  0.35737005818E-01  0.00000000000E+00 0. -1.
  9000001    1    1    2    0    0 -0.13091606539E-02 -0.54395868276E-02  0.35296325282E-01  0.35750994182E-01  0.10000000475E-02 0.  1.
</event>
<event>
 4   0  0.2441219E-02  0.9118800E+02  0.7818609E-02  0.1379984E+01
      -11   -1    0    0    0    0  0.00000000000E+00  0.00000000000E+00  0.35740347158E-01  0.35744000000E-01  0.51099999109E-03 0.  1.
       11   -1    0    0    0    0 -0.00000000000E+00 -0.00000000000E+00 -0.35740347158E-01  0.35744000000E-01  0.51099999109E-03 0. -1.
       22    1    1    2    0    0 -0.15817937927E-01 -0.15572581852E-01 -0.28007518974E-01  0.35737005818E-01  0.00000000000E+00 0. -1.
  9000001    1    1    2    0    0  0.15817937927E-01  0.15572581852E-01  0.28007518974E-01  0.35750994182E-01  0.10000000475E-02 0.  1.
</event>
<event>
 4   0  0.2441219E-02  0.9118800E+02  0.7818609E-02  0.1379984E+01
      -11   -1    0    0    0    0  0.00000000000E+00  0.00000000000E+00  0.35740347158E-01  0.35744000000E-01  0.51099999109E-03 0.  1.
       11   -1    0    0    0    0 -0.00000000000E+00 -0.00000000000E+00 -0.35740347158E-01  0.35744000000E-01  0.51099999109E-03 0. -1.
       22    1    1    2    0    0 -0.60035415593E-02  0.57587725366E-02 -0.34755253020E-01  0.35737005818E-01  0.00000000000E+00 0. -1.
  9000001    1    1    2    0    0  0.60035415593E-02 -0.57587725366E-02  0.34755253020E-01  0.35750994182E-01  0.10000000475E-02 0.  1.
</event>
<event>
 4   0  0.2441219E-02  0.9118800E+02  0.7818609E-02  0.1379984E+01
      -11   -1    0    0    0    0  0.00000000000E+00  0.00000000000E+00  0.35740347158E-01  0.35744000000E-01  0.51099999109E-03 0.  1.
       11   -1    0    0    0    0 -0.00000000000E+00 -0.00000000000E+00 -0.35740347158E-01  0.35744000000E-01  0.51099999109E-03 0. -1.
       22    1    1    2    0    0 -0.17839061551E-01 -0.40736855398E-03 -0.30963454567E-01  0.35737005818E-01  0.00000000000E+00 0. -1.
  9000001    1    1    2    0    0  0.17839061551E-01  0.40736855398E-03  0.30963454567E-01  0.35750994182E-01  0.10000000475E-02 0.  1.
</event>
<event>
 4   0  0.2441219E-02  0.9118800E+02  0.7818609E-02  0.1379984E+01
      -11   -1    0    0    0    0  0.00000000000E+00  0.00000000000E+00  0.35740347158E-01  0.35744000000E-01  0.51099999109E-03 0.  1.
       11   -1    0    0    0    0 -0.00000000000E+00 -0.00000000000E+00 -0.35740347158E-01  0.35744000000E-01  0.51099999109E-03 0. -1.
       22    1    1    2    0    0  0.34438696952E-02 -0.44365326023E-02  0.35292924572E-01  0.35737005818E-01  0.00000000000E+00 0.  1.
  9000001    1    1    2    0    0 -0.34438696952E-02  0.44365326023E-02 -0.35292924572E-01  0.35750994182E-01  0.10000000475E-02 0. -1.
</event>
<event>
 4   0  0.2441219E-02  0.9118800E+02  0.7818609E-02  0.1379984E+01
      -11   -1    0    0    0    0  0.00000000000E+00  0.00000000000E+00  0.35740347158E-01  0.35744000000E-01  0.51099999109E-03 0.  1.
       11   -1    0    0    0    0 -0.00000000000E+00 -0.00000000000E+00 -0.35740347158E-01  0.35744000000E-01  0.51099999109E-03 0. -1.
       22    1    1    2    0    0 -0.31584838557E-02  0.19674930056E-01  0.29665715766E-01  0.35737005818E-01  0.00000000000E+00 0.  1.
  9000001    1    1    2    0    0  0.31584838557E-02 -0.19674930056E-01 -0.29665715766E-01  0.35750994182E-01  0.10000000475E-02 0. -1.
</event>
<event>
 4   0  0.2441219E-02  0.9118800E+02  0.7818609E-02  0.1379984E+01
      -11   -1    0    0    0    0  0.00000000000E+00  0.00000000000E+00  0.35740347158E-01  0.35744000000E-01  0.51099999109E-03 0. -1.
       11   -1    0    0    0    0 -0.00000000000E+00 -0.00000000000E+00 -0.35740347158E-01  0.35744000000E-01  0.51099999109E-03 0.  1.
       22    1    1    2    0    0  0.17278413838E-01 -0.28177004782E-01 -0.13588465757E-01  0.35737005818E-01  0.00000000000E+00 0.  1.
  9000001    1    1    2    0    0 -0.17278413838E-01  0.28177004782E-01  0.13588465757E-01  0.35750994182E-01  0.10000000475E-02 0. -1.
</event>
<event>
 4   0  0.2441219E-02  0.9118800E+02  0.7818609E-02  0.1379984E+01
      -11   -1    0    0    0    0  0.00000000000E+00  0.00000000000E+00  0.35740347158E-01  0.35744000000E-01  0.51099999109E-03 0.  1.
       11   -1    0    0    0    0 -0.00000000000E+00 -0.00000000000E+00 -0.35740347158E-01  0.35744000000E-01  0.51099999109E-03 0. -1.
       22    1    1    2    0    0 -0.48092001337E-02 -0.32488517601E-02 -0.35262588407E-01  0.35737005818E-01  0.00000000000E+00 0. -1.
  9000001    1    1    2    0    0  0.48092001337E-02  0.32488517601E-02  0.35262588407E-01  0.35750994182E-01  0.10000000475E-02 0.  1.
</event>
<event>
 4   0  0.2441219E-02  0.9118800E+02  0.7818609E-02  0.1379984E+01
      -11   -1    0    0    0    0  0.00000000000E+00  0.00000000000E+00  0.35740347158E-01  0.35744000000E-01  0.51099999109E-03 0. -1.
       11   -1    0    0    0    0 -0.00000000000E+00 -0.00000000000E+00 -0.35740347158E-01  0.35744000000E-01  0.51099999109E-03 0.  1.
       22    1    1    2    0    0 -0.32230972979E-02  0.70670460126E-02  0.34882690397E-01  0.35737005818E-01  0.00000000000E+00 0. -1.
  9000001    1    1    2    0    0  0.32230972979E-02 -0.70670460126E-02 -0.34882690397E-01  0.35750994182E-01  0.10000000475E-02 0.  1.
</event>
<event>
 4   0  0.2441219E-02  0.9118800E+02  0.7818609E-02  0.1379984E+01
      -11   -1    0    0    0    0  0.00000000000E+00  0.00000000000E+00  0.35740347158E-01  0.35744000000E-01  0.51099999109E-03 0. -1.
       11   -1    0    0    0    0 -0.00000000000E+00 -0.00000000000E+00 -0.35740347158E-01  0.35744000000E-01  0.51099999109E-03 0.  1.
       22    1    1    2    0    0 -0.76095751671E-02  0.74428304057E-02  0.34114985361E-01  0.35737005818E-01  0.00000000000E+00 0. -1.
  9000001    1    1    2    0    0  0.76095751671E-02 -0.74428304057E-02 -0.34114985361E-01  0.35750994182E-01  0.10000000475E-02 0.  1.
</event>
<event>
 4   0  0.2441219E-02  0.9118800E+02  0.7818609E-02  0.1379984E+01
      -11   -1    0    0    0    0  0.00000000000E+00  0.00000000000E+00  0.35740347158E-01  0.35744000000E-01  0.51099999109E-03 0.  1.
       11   -1    0    0    0    0 -0.00000000000E+00 -0.00000000000E+00 -0.35740347158E-01  0.35744000000E-01  0.51099999109E-03 0. -1.
       22    1    1    2    0    0  0.93728606100E-02 -0.47078084147E-02 -0.34163132303E-01  0.35737005818E-01  0.00000000000E+00 0. -1.
  9000001    1    1    2    0    0 -0.93728606100E-02  0.47078084147E-02  0.34163132303E-01  0.35750994182E-01  0.10000000475E-02 0.  1.
</event>
<event>
 4   0  0.2441219E-02  0.9118800E+02  0.7818609E-02  0.1379984E+01
      -11   -1    0    0    0    0  0.00000000000E+00  0.00000000000E+00  0.35740347158E-01  0.35744000000E-01  0.51099999109E-03 0.  1.
       11   -1    0    0    0    0 -0.00000000000E+00 -0.00000000000E+00 -0.35740347158E-01  0.35744000000E-01  0.51099999109E-03 0. -1.
       22    1    1    2    0    0 -0.70242757874E-02 -0.12791997163E-01 -0.32621433799E-01  0.35737005818E-01  0.00000000000E+00 0. -1.
  9000001    1    1    2    0    0  0.70242757874E-02  0.12791997163E-01  0.32621433799E-01  0.35750994182E-01  0.10000000475E-02 0.  1.
</event>
<event>
 4   0  0.2441219E-02  0.9118800E+02  0.7818609E-02  0.1379984E+01
      -11   -1    0    0    0    0  0.00000000000E+00  0.00000000000E+00  0.35740347158E-01  0.35744000000E-01  0.51099999109E-03 0.  1.
       11   -1    0    0    0    0 -0.00000000000E+00 -0.00000000000E+00 -0.35740347158E-01  0.35744000000E-01  0.51099999109E-03 0. -1.
       22    1    1    2    0    0  0.27002514003E-02  0.28078958157E-02  0.35524047466E-01  0.35737005818E-01  0.00000000000E+00 0.  1.
  9000001    1    1    2    0    0 -0.27002514003E-02 -0.28078958157E-02 -0.35524047466E-01  0.35750994182E-01  0.10000000475E-02 0. -1.
</event>
<event>
 4   0  0.2441219E-02  0.9118800E+02  0.7818609E-02  0.1379984E+01
      -11   -1    0    0    0    0  0.00000000000E+00  0.00000000000E+00  0.35740347158E-01  0.35744000000E-01  0.51099999109E-03 0.  1.
       11   -1    0    0    0    0 -0.00000000000E+00 -0.00000000000E+00 -0.35740347158E-01  0.35744000000E-01  0.51099999109E-03 0. -1.
       22    1    1    2    0    0 -0.93866459875E-02  0.25668990180E-02  0.34386559750E-01  0.35737005818E-01  0.00000000000E+00 0.  1.
  9000001    1    1    2    0    0  0.93866459875E-02 -0.25668990180E-02 -0.34386559750E-01  0.35750994182E-01  0.10000000475E-02 0. -1.
</event>
<event>
 4   0  0.2441219E-02  0.9118800E+02  0.7818609E-02  0.1379984E+01
      -11   -1    0    0    0    0  0.00000000000E+00  0.00000000000E+00  0.35740347158E-01  0.35744000000E-01  0.51099999109E-03 0. -1.
       11   -1    0    0    0    0 -0.00000000000E+00 -0.00000000000E+00 -0.35740347158E-01  0.35744000000E-01  0.51099999109E-03 0.  1.
       22    1    1    2    0    0 -0.33165789520E-02  0.16297568575E-01  0.31631047208E-01  0.35737005818E-01  0.00000000000E+00 0. -1.
  9000001    1    1    2    0    0  0.33165789520E-02 -0.16297568575E-01 -0.31631047208E-01  0.35750994182E-01  0.10000000475E-02 0.  1.
</event>
<event>
 4   0  0.2441219E-02  0.9118800E+02  0.7818609E-02  0.1379984E+01
      -11   -1    0    0    0    0  0.00000000000E+00  0.00000000000E+00  0.35740347158E-01  0.35744000000E-01  0.51099999109E-03 0.  1.
       11   -1    0    0    0    0 -0.00000000000E+00 -0.00000000000E+00 -0.35740347158E-01  0.35744000000E-01  0.51099999109E-03 0. -1.
       22    1    1    2    0    0  0.31848140368E-01 -0.67552786680E-02 -0.14737562556E-01  0.35737005818E-01  0.00000000000E+00 0. -1.
  9000001    1    1    2    0    0 -0.31848140368E-01  0.67552786680E-02  0.14737562556E-01  0.35750994182E-01  0.10000000475E-02 0.  1.
</event>
<event>
 4   0  0.2441219E-02  0.9118800E+02  0.7818609E-02  0.1379984E+01
      -11   -1    0    0    0    0  0.00000000000E+00  0.00000000000E+00  0.35740347158E-01  0.35744000000E-01  0.51099999109E-03 0. -1.
       11   -1    0    0    0    0 -0.00000000000E+00 -0.00000000000E+00 -0.35740347158E-01  0.35744000000E-01  0.51099999109E-03 0.  1.
       22    1    1    2    0    0  0.94281510800E-02  0.15930445456E-02  0.34434078486E-01  0.35737005818E-01  0.00000000000E+00 0. -1.
  9000001    1    1    2    0    0 -0.94281510800E-02 -0.15930445456E-02 -0.34434078486E-01  0.35750994182E-01  0.10000000475E-02 0.  1.
</event>
<event>
 4   0  0.2441219E-02  0.9118800E+02  0.7818609E-02  0.1379984E+01
      -11   -1    0    0    0    0  0.00000000000E+00  0.00000000000E+00  0.35740347158E-01  0.35744000000E-01  0.51099999109E-03 0. -1.
       11   -1    0    0    0    0 -0.00000000000E+00 -0.00000000000E+00 -0.35740347158E-01  0.35744000000E-01  0.51099999109E-03 0.  1.
       22    1    1    2    0    0  0.19618741781E-02  0.20082035967E-01  0.29495702501E-01  0.35737005818E-01  0.00000000000E+00 0. -1.
  9000001    1    1    2    0    0 -0.19618741781E-02 -0.20082035967E-01 -0.29495702501E-01  0.35750994182E-01  0.10000000475E-02 0.  1.
</event>
<event>
 4   0  0.2441219E-02  0.9118800E+02  0.7818609E-02  0.1379984E+01
      -11   -1    0    0    0    0  0.00000000000E+00  0.00000000000E+00  0.35740347158E-01  0.35744000000E-01  0.51099999109E-03 0.  1.
       11   -1    0    0    0    0 -0.00000000000E+00 -0.00000000000E+00 -0.35740347158E-01  0.35744000000E-01  0.51099999109E-03 0. -1.
       22    1    1    2    0    0  0.52499176208E-02 -0.17225241216E-02 -0.35307291888E-01  0.35737005818E-01  0.00000000000E+00 0. -1.
  9000001    1    1    2    0    0 -0.52499176208E-02  0.17225241216E-02  0.35307291888E-01  0.35750994182E-01  0.10000000475E-02 0.  1.
</event>
<event>
 4   0  0.2441219E-02  0.9118800E+02  0.7818609E-02  0.1379984E+01
      -11   -1    0    0    0    0  0.00000000000E+00  0.00000000000E+00  0.35740347158E-01  0.35744000000E-01  0.51099999109E-03 0. -1.
       11   -1    0    0    0    0 -0.00000000000E+00 -0.00000000000E+00 -0.35740347158E-01  0.35744000000E-01  0.51099999109E-03 0.  1.
       22    1    1    2    0    0  0.14178795157E-01  0.20283363958E-01  0.25781398319E-01  0.35737005818E-01  0.00000000000E+00 0. -1.
  9000001    1    1    2    0    0 -0.14178795157E-01 -0.20283363958E-01 -0.25781398319E-01  0.35750994182E-01  0.10000000475E-02 0.  1.
</event>
<event>
 4   0  0.2441219E-02  0.9118800E+02  0.7818609E-02  0.1379984E+01
      -11   -1    0    0    0    0  0.00000000000E+00  0.00000000000E+00  0.35740347158E-01  0.35744000000E-01  0.51099999109E-03 0.  1.
       11   -1    0    0    0    0 -0.00000000000E+00 -0.00000000000E+00 -0.35740347158E-01  0.35744000000E-01  0.51099999109E-03 0. -1.
       22    1    1    2    0    0 -0.17156720055E-02 -0.39801267623E-02 -0.35473210249E-01  0.35737005818E-01  0.00000000000E+00 0. -1.
  9000001    1    1    2    0    0  0.17156720055E-02  0.39801267623E-02  0.35473210249E-01  0.35750994182E-01  0.10000000475E-02 0.  1.
</event>
<event>
 4   0  0.2441219E-02  0.9118800E+02  0.7818609E-02  0.1379984E+01
      -11   -1    0    0    0    0  0.00000000000E+00  0.00000000000E+00  0.35740347158E-01  0.35744000000E-01  0.51099999109E-03 0.  1.
       11   -1    0    0    0    0 -0.00000000000E+00 -0.00000000000E+00 -0.35740347158E-01  0.35744000000E-01  0.51099999109E-03 0. -1.
       22    1    1    2    0    0  0.23421490057E-03 -0.31093946750E-02 -0.35600707760E-01  0.35737005818E-01  0.00000000000E+00 0. -1.
  9000001    1    1    2    0    0 -0.23421490057E-03  0.31093946750E-02  0.35600707760E-01  0.35750994182E-01  0.10000000475E-02 0.  1.
</event>
<event>
 4   0  0.2441219E-02  0.9118800E+02  0.7818609E-02  0.1379984E+01
      -11   -1    0    0    0    0  0.00000000000E+00  0.00000000000E+00  0.35740347158E-01  0.35744000000E-01  0.51099999109E-03 0. -1.
       11   -1    0    0    0    0 -0.00000000000E+00 -0.00000000000E+00 -0.35740347158E-01  0.35744000000E-01  0.51099999109E-03 0.  1.
       22    1    1    2    0    0  0.32018825815E-02 -0.28227957158E-03 -0.35592159966E-01  0.35737005818E-01  0.00000000000E+00 0.  1.
  9000001    1    1    2    0    0 -0.32018825815E-02  0.28227957158E-03  0.35592159966E-01  0.35750994182E-01  0.10000000475E-02 0. -1.
</event>
<event>
 4   0  0.2441219E-02  0.9118800E+02  0.7818609E-02  0.1379984E+01
      -11   -1    0    0    0    0  0.00000000000E+00  0.00000000000E+00  0.35740347158E-01  0.35744000000E-01  0.51099999109E-03 0. -1.
       11   -1    0    0    0    0 -0.00000000000E+00 -0.00000000000E+00 -0.35740347158E-01  0.35744000000E-01  0.51099999109E-03 0.  1.
       22    1    1    2    0    0  0.26556874943E-02 -0.26001306513E-01 -0.24372381263E-01  0.35737005818E-01  0.00000000000E+00 0.  1.
  9000001    1    1    2    0    0 -0.26556874943E-02  0.26001306513E-01  0.24372381263E-01  0.35750994182E-01  0.10000000475E-02 0. -1.
</event>
<event>
 4   0  0.2441219E-02  0.9118800E+02  0.7818609E-02  0.1379984E+01
      -11   -1    0    0    0    0  0.00000000000E+00  0.00000000000E+00  0.35740347158E-01  0.35744000000E-01  0.51099999109E-03 0.  1.
       11   -1    0    0    0    0 -0.00000000000E+00 -0.00000000000E+00 -0.35740347158E-01  0.35744000000E-01  0.51099999109E-03 0. -1.
       22    1    1    2    0    0  0.52375396917E-02  0.17534602481E-02  0.35307607396E-01  0.35737005818E-01  0.00000000000E+00 0.  1.
  9000001    1    1    2    0    0 -0.52375396917E-02 -0.17534602481E-02 -0.35307607396E-01  0.35750994182E-01  0.10000000475E-02 0. -1.
</event>
<event>
 4   0  0.2441219E-02  0.9118800E+02  0.7818609E-02  0.1379984E+01
      -11   -1    0    0    0    0  0.00000000000E+00  0.00000000000E+00  0.35740347158E-01  0.35744000000E-01  0.51099999109E-03 0.  1.
       11   -1    0    0    0    0 -0.00000000000E+00 -0.00000000000E+00 -0.35740347158E-01  0.35744000000E-01  0.51099999109E-03 0. -1.
       22    1    1    2    0    0 -0.14214173598E-01 -0.29961054813E-02  0.32651404346E-01  0.35737005818E-01  0.00000000000E+00 0.  1.
  9000001    1    1    2    0    0  0.14214173598E-01  0.29961054813E-02 -0.32651404346E-01  0.35750994182E-01  0.10000000475E-02 0. -1.
</event>
<event>
 4   0  0.2441219E-02  0.9118800E+02  0.7818609E-02  0.1379984E+01
      -11   -1    0    0    0    0  0.00000000000E+00  0.00000000000E+00  0.35740347158E-01  0.35744000000E-01  0.51099999109E-03 0.  1.
       11   -1    0    0    0    0 -0.00000000000E+00 -0.00000000000E+00 -0.35740347158E-01  0.35744000000E-01  0.51099999109E-03 0. -1.
       22    1    1    2    0    0  0.25611644519E-01  0.24751091590E-01 -0.29258699638E-02  0.35737005818E-01  0.00000000000E+00 0.  1.
  9000001    1    1    2    0    0 -0.25611644519E-01 -0.24751091590E-01  0.29258699638E-02  0.35750994182E-01  0.10000000475E-02 0. -1.
</event>
<event>
 4   0  0.2441219E-02  0.9118800E+02  0.7818609E-02  0.1379984E+01
      -11   -1    0    0    0    0  0.00000000000E+00  0.00000000000E+00  0.35740347158E-01  0.35744000000E-01  0.51099999109E-03 0. -1.
       11   -1    0    0    0    0 -0.00000000000E+00 -0.00000000000E+00 -0.35740347158E-01  0.35744000000E-01  0.51099999109E-03 0.  1.
       22    1    1    2    0    0  0.17259947030E-01  0.75960787820E-02 -0.30356669786E-01  0.35737005818E-01  0.00000000000E+00 0.  1.
  9000001    1    1    2    0    0 -0.17259947030E-01 -0.75960787820E-02  0.30356669786E-01  0.35750994182E-01  0.10000000475E-02 0. -1.
</event>
<event>
 4   0  0.2441219E-02  0.9118800E+02  0.7818609E-02  0.1379984E+01
      -11   -1    0    0    0    0  0.00000000000E+00  0.00000000000E+00  0.35740347158E-01  0.35744000000E-01  0.51099999109E-03 0.  1.
       11   -1    0    0    0    0 -0.00000000000E+00 -0.00000000000E+00 -0.35740347158E-01  0.35744000000E-01  0.51099999109E-03 0. -1.
       22    1    1    2    0    0  0.13625472664E-01  0.11839795208E-01  0.30843140712E-01  0.35737005818E-01  0.00000000000E+00 0.  1.
  9000001    1    1    2    0    0 -0.13625472664E-01 -0.11839795208E-01 -0.30843140712E-01  0.35750994182E-01  0.10000000475E-02 0. -1.
</event>
<event>
 4   0  0.2441219E-02  0.9118800E+02  0.7818609E-02  0.1379984E+01
      -11   -1    0    0    0    0  0.00000000000E+00  0.00000000000E+00  0.35740347158E-01  0.35744000000E-01  0.51099999109E-03 0. -1.
       11   -1    0    0    0    0 -0.00000000000E+00 -0.00000000000E+00 -0.35740347158E-01  0.35744000000E-01  0.51099999109E-03 0.  1.
       22    1    1    2    0    0  0.41020714905E-02 -0.41538532543E-02  0.35256943961E-01  0.35737005818E-01  0.00000000000E+00 0. -1.
  9000001    1    1    2    0    0 -0.41020714905E-02  0.41538532543E-02 -0.35256943961E-01  0.35750994182E-01  0.10000000475E-02 0.  1.
</event>
<event>
 4   0  0.2441219E-02  0.9118800E+02  0.7818609E-02  0.1379984E+01
      -11   -1    0    0    0    0  0.00000000000E+00  0.00000000000E+00  0.35740347158E-01  0.35744000000E-01  0.51099999109E-03 0. -1.
       11   -1    0    0    0    0 -0.00000000000E+00 -0.00000000000E+00 -0.35740347158E-01  0.35744000000E-01  0.51099999109E-03 0.  1.
       22    1    1    2    0    0  0.10735466599E-01 -0.92655916262E-02  0.32802929040E-01  0.35737005818E-01  0.00000000000E+00 0. -1.
  9000001    1    1    2    0    0 -0.10735466599E-01  0.92655916262E-02 -0.32802929040E-01  0.35750994182E-01  0.10000000475E-02 0.  1.
</event>
<event>
 4   0  0.2441219E-02  0.9118800E+02  0.7818609E-02  0.1379984E+01
      -11   -1    0    0    0    0  0.00000000000E+00  0.00000000000E+00  0.35740347158E-01  0.35744000000E-01  0.51099999109E-03 0.  1.
       11   -1    0    0    0    0 -0.00000000000E+00 -0.00000000000E+00 -0.35740347158E-01  0.35744000000E-01  0.51099999109E-03 0. -1.
       22    1    1    2    0    0 -0.24094207328E-02 -0.22589739904E-02 -0.35584059818E-01  0.35737005818E-01  0.00000000000E+00 0. -1.
  9000001    1    1    2    0    0  0.24094207328E-02  0.22589739904E-02  0.35584059818E-01  0.35750994182E-01  0.10000000475E-02 0.  1.
</event>
<event>
 4   0  0.2441219E-02  0.9118800E+02  0.7818609E-02  0.1379984E+01
      -11   -1    0    0    0    0  0.00000000000E+00  0.00000000000E+00  0.35740347158E-01  0.35744000000E-01  0.51099999109E-03 0.  1.
       11   -1    0    0    0    0 -0.00000000000E+00 -0.00000000000E+00 -0.35740347158E-01  0.35744000000E-01  0.51099999109E-03 0. -1.
       22    1    1    2    0    0 -0.68476520969E-03  0.54494332861E-02 -0.35312439145E-01  0.35737005818E-01  0.00000000000E+00 0. -1.
  9000001    1    1    2    0    0  0.68476520969E-03 -0.54494332861E-02  0.35312439145E-01  0.35750994182E-01  0.10000000475E-02 0.  1.
</event>
<event>
 4   0  0.2441219E-02  0.9118800E+02  0.7818609E-02  0.1379984E+01
      -11   -1    0    0    0    0  0.00000000000E+00  0.00000000000E+00  0.35740347158E-01  0.35744000000E-01  0.51099999109E-03 0. -1.
       11   -1    0    0    0    0 -0.00000000000E+00 -0.00000000000E+00 -0.35740347158E-01  0.35744000000E-01  0.51099999109E-03 0.  1.
       22    1    1    2    0    0  0.13648565549E-01  0.49742835595E-02  0.32651290119E-01  0.35737005818E-01  0.00000000000E+00 0. -1.
  9000001    1    1    2    0    0 -0.13648565549E-01 -0.49742835595E-02 -0.32651290119E-01  0.35750994182E-01  0.10000000475E-02 0.  1.
</event>
<event>
 4   0  0.2441219E-02  0.9118800E+02  0.7818609E-02  0.1379984E+01
      -11   -1    0    0    0    0  0.00000000000E+00  0.00000000000E+00  0.35740347158E-01  0.35744000000E-01  0.51099999109E-03 0.  1.
       11   -1    0    0    0    0 -0.00000000000E+00 -0.00000000000E+00 -0.35740347158E-01  0.35744000000E-01  0.51099999109E-03 0. -1.
       22    1    1    2    0    0 -0.57359557406E-02 -0.23846802107E-02 -0.35192977949E-01  0.35737005818E-01  0.00000000000E+00 0. -1.
  9000001    1    1    2    0    0  0.57359557406E-02  0.23846802107E-02  0.35192977949E-01  0.35750994182E-01  0.10000000475E-02 0.  1.
</event>
<event>
 4   0  0.2441219E-02  0.9118800E+02  0.7818609E-02  0.1379984E+01
      -11   -1    0    0    0    0  0.00000000000E+00  0.00000000000E+00  0.35740347158E-01  0.35744000000E-01  0.51099999109E-03 0. -1.
       11   -1    0    0    0    0 -0.00000000000E+00 -0.00000000000E+00 -0.35740347158E-01  0.35744000000E-01  0.51099999109E-03 0.  1.
       22    1    1    2    0    0 -0.52488746827E-02  0.61657943696E-02  0.34807554916E-01  0.35737005818E-01  0.00000000000E+00 0. -1.
  9000001    1    1    2    0    0  0.52488746827E-02 -0.61657943696E-02 -0.34807554916E-01  0.35750994182E-01  0.10000000475E-02 0.  1.
</event>
<event>
 4   0  0.2441219E-02  0.9118800E+02  0.7818609E-02  0.1379984E+01
      -11   -1    0    0    0    0  0.00000000000E+00  0.00000000000E+00  0.35740347158E-01  0.35744000000E-01  0.51099999109E-03 0. -1.
       11   -1    0    0    0    0 -0.00000000000E+00 -0.00000000000E+00 -0.35740347158E-01  0.35744000000E-01  0.51099999109E-03 0.  1.
       22    1    1    2    0    0 -0.10235905314E-01  0.13207995656E-02  0.34214256031E-01  0.35737005818E-01  0.00000000000E+00 0. -1.
  9000001    1    1    2    0    0  0.10235905314E-01 -0.13207995656E-02 -0.34214256031E-01  0.35750994182E-01  0.10000000475E-02 0.  1.
</event>
<event>
 4   0  0.2441219E-02  0.9118800E+02  0.7818609E-02  0.1379984E+01
      -11   -1    0    0    0    0  0.00000000000E+00  0.00000000000E+00  0.35740347158E-01  0.35744000000E-01  0.51099999109E-03 0.  1.
       11   -1    0    0    0    0 -0.00000000000E+00 -0.00000000000E+00 -0.35740347158E-01  0.35744000000E-01  0.51099999109E-03 0. -1.
       22    1    1    2    0    0  0.22083607124E-01 -0.15258957626E-01  0.23592627946E-01  0.35737005818E-01  0.00000000000E+00 0.  1.
  9000001    1    1    2    0    0 -0.22083607124E-01  0.15258957626E-01 -0.23592627946E-01  0.35750994182E-01  0.10000000475E-02 0. -1.
</event>
<event>
 4   0  0.2441219E-02  0.9118800E+02  0.7818609E-02  0.1379984E+01
      -11   -1    0    0    0    0  0.00000000000E+00  0.00000000000E+00  0.35740347158E-01  0.35744000000E-01  0.51099999109E-03 0. -1.
       11   -1    0    0    0    0 -0.00000000000E+00 -0.00000000000E+00 -0.35740347158E-01  0.35744000000E-01  0.51099999109E-03 0.  1.
       22    1    1    2    0    0  0.23658742883E-01 -0.11846183180E-01  0.24022185873E-01  0.35737005818E-01  0.00000000000E+00 0. -1.
  9000001    1    1    2    0    0 -0.23658742883E-01  0.11846183180E-01 -0.24022185873E-01  0.35750994182E-01  0.10000000475E-02 0.  1.
</event>
<event>
 4   0  0.2441219E-02  0.9118800E+02  0.7818609E-02  0.1379984E+01
      -11   -1    0    0    0    0  0.00000000000E+00  0.00000000000E+00  0.35740347158E-01  0.35744000000E-01  0.51099999109E-03 0. -1.
       11   -1    0    0    0    0 -0.00000000000E+00 -0.00000000000E+00 -0.35740347158E-01  0.35744000000E-01  0.51099999109E-03 0.  1.
       22    1    1    2    0    0 -0.66827591794E-02  0.11216735505E-01  0.33266487029E-01  0.35737005818E-01  0.00000000000E+00 0. -1.
  9000001    1    1    2    0    0  0.66827591794E-02 -0.11216735505E-01 -0.33266487029E-01  0.35750994182E-01  0.10000000475E-02 0.  1.
</event>
<event>
 4   0  0.2441219E-02  0.9118800E+02  0.7818609E-02  0.1379984E+01
      -11   -1    0    0    0    0  0.00000000000E+00  0.00000000000E+00  0.35740347158E-01  0.35744000000E-01  0.51099999109E-03 0.  1.
       11   -1    0    0    0    0 -0.00000000000E+00 -0.00000000000E+00 -0.35740347158E-01  0.35744000000E-01  0.51099999109E-03 0. -1.
       22    1    1    2    0    0  0.23983987616E-01 -0.79025590562E-02  0.25287377944E-01  0.35737005818E-01  0.00000000000E+00 0.  1.
  9000001    1    1    2    0    0 -0.23983987616E-01  0.79025590562E-02 -0.25287377944E-01  0.35750994182E-01  0.10000000475E-02 0. -1.
</event>
<event>
 4   0  0.2441219E-02  0.9118800E+02  0.7818609E-02  0.1379984E+01
      -11   -1    0    0    0    0  0.00000000000E+00  0.00000000000E+00  0.35740347158E-01  0.35744000000E-01  0.51099999109E-03 0.  1.
       11   -1    0    0    0    0 -0.00000000000E+00 -0.00000000000E+00 -0.35740347158E-01  0.35744000000E-01  0.51099999109E-03 0. -1.
       22    1    1    2    0    0  0.90984974899E-03  0.40389789775E-02 -0.35496371746E-01  0.35737005818E-01  0.00000000000E+00 0. -1.
  9000001    1    1    2    0    0 -0.90984974899E-03 -0.40389789775E-02  0.35496371746E-01  0.35750994182E-01  0.10000000475E-02 0.  1.
</event>
<event>
 4   0  0.2441219E-02  0.9118800E+02  0.7818609E-02  0.1379984E+01
      -11   -1    0    0    0    0  0.00000000000E+00  0.00000000000E+00  0.35740347158E-01  0.35744000000E-01  0.51099999109E-03 0.  1.
       11   -1    0    0    0    0 -0.00000000000E+00 -0.00000000000E+00 -0.35740347158E-01  0.35744000000E-01  0.51099999109E-03 0. -1.
       22    1    1    2    0    0 -0.46893355288E-02 -0.10843173118E-01  0.33727871470E-01  0.35737005818E-01  0.00000000000E+00 0.  1.
  9000001    1    1    2    0    0  0.46893355288E-02  0.10843173118E-01 -0.33727871470E-01  0.35750994182E-01  0.10000000475E-02 0. -1.
</event>
<event>
 4   0  0.2441219E-02  0.9118800E+02  0.7818609E-02  0.1379984E+01
      -11   -1    0    0    0    0  0.00000000000E+00  0.00000000000E+00  0.35740347158E-01  0.35744000000E-01  0.51099999109E-03 0. -1.
       11   -1    0    0    0    0 -0.00000000000E+00 -0.00000000000E+00 -0.35740347158E-01  0.35744000000E-01  0.51099999109E-03 0.  1.
       22    1    1    2    0    0  0.68106911926E-02 -0.29639707075E-01 -0.18767947007E-01  0.35737005818E-01  0.00000000000E+00 0.  1.
  9000001    1    1    2    0    0 -0.68106911926E-02  0.29639707075E-01  0.18767947007E-01  0.35750994182E-01  0.10000000475E-02 0. -1.
</event>
<event>
 4   0  0.2441219E-02  0.9118800E+02  0.7818609E-02  0.1379984E+01
      -11   -1    0    0    0    0  0.00000000000E+00  0.00000000000E+00  0.35740347158E-01  0.35744000000E-01  0.51099999109E-03 0. -1.
       11   -1    0    0    0    0 -0.00000000000E+00 -0.00000000000E+00 -0.35740347158E-01  0.35744000000E-01  0.51099999109E-03 0.  1.
       22    1    1    2    0    0  0.62684490592E-03  0.34465505666E-02 -0.35564897575E-01  0.35737005818E-01  0.00000000000E+00 0.  1.
  9000001    1    1    2    0    0 -0.62684490592E-03 -0.34465505666E-02  0.35564897575E-01  0.35750994182E-01  0.10000000475E-02 0. -1.
</event>
<event>
 4   0  0.2441219E-02  0.9118800E+02  0.7818609E-02  0.1379984E+01
      -11   -1    0    0    0    0  0.00000000000E+00  0.00000000000E+00  0.35740347158E-01  0.35744000000E-01  0.51099999109E-03 0.  1.
       11   -1    0    0    0    0 -0.00000000000E+00 -0.00000000000E+00 -0.35740347158E-01  0.35744000000E-01  0.51099999109E-03 0. -1.
       22    1    1    2    0    0 -0.30965877368E-02 -0.95915613590E-03  0.35589671940E-01  0.35737005818E-01  0.00000000000E+00 0.  1.
  9000001    1    1    2    0    0  0.30965877368E-02  0.95915613590E-03 -0.35589671940E-01  0.35750994182E-01  0.10000000475E-02 0. -1.
</event>
<event>
 4   0  0.2441219E-02  0.9118800E+02  0.7818609E-02  0.1379984E+01
      -11   -1    0    0    0    0  0.00000000000E+00  0.00000000000E+00  0.35740347158E-01  0.35744000000E-01  0.51099999109E-03 0. -1.
       11   -1    0    0    0    0 -0.00000000000E+00 -0.00000000000E+00 -0.35740347158E-01  0.35744000000E-01  0.51099999109E-03 0.  1.
       22    1    1    2    0    0  0.18650638027E-02  0.23925635605E-01  0.26480541587E-01  0.35737005818E-01  0.00000000000E+00 0. -1.
  9000001    1    1    2    0    0 -0.18650638027E-02 -0.23925635605E-01 -0.26480541587E-01  0.35750994182E-01  0.10000000475E-02 0.  1.
</event>
<event>
 4   0  0.2441219E-02  0.9118800E+02  0.7818609E-02  0.1379984E+01
      -11   -1    0    0    0    0  0.00000000000E+00  0.00000000000E+00  0.35740347158E-01  0.35744000000E-01  0.51099999109E-03 0.  1.
       11   -1    0    0    0    0 -0.00000000000E+00 -0.00000000000E+00 -0.35740347158E-01  0.35744000000E-01  0.51099999109E-03 0. -1.
       22    1    1    2    0    0  0.61136923399E-02 -0.12284257066E-01  0.32997778397E-01  0.35737005818E-01  0.00000000000E+00 0.  1.
  9000001    1    1    2    0    0 -0.61136923399E-02  0.12284257066E-01 -0.32997778397E-01  0.35750994182E-01  0.10000000475E-02 0. -1.
</event>
<event>
 4   0  0.2441219E-02  0.9118800E+02  0.7818609E-02  0.1379984E+01
      -11   -1    0    0    0    0  0.00000000000E+00  0.00000000000E+00  0.35740347158E-01  0.35744000000E-01  0.51099999109E-03 0. -1.
       11   -1    0    0    0    0 -0.00000000000E+00 -0.00000000000E+00 -0.35740347158E-01  0.35744000000E-01  0.51099999109E-03 0.  1.
       22    1    1    2    0    0  0.26918717717E-02  0.51907251714E-02  0.35255407861E-01  0.35737005818E-01  0.00000000000E+00 0. -1.
  9000001    1    1    2    0    0 -0.26918717717E-02 -0.51907251714E-02 -0.35255407861E-01  0.35750994182E-01  0.10000000475E-02 0.  1.
</event>
<event>
 4   0  0.2441219E-02  0.9118800E+02  0.7818609E-02  0.1379984E+01
      -11   -1    0    0    0    0  0.00000000000E+00  0.00000000000E+00  0.35740347158E-01  0.35744000000E-01  0.51099999109E-03 0. -1.
       11   -1    0    0    0    0 -0.00000000000E+00 -0.00000000000E+00 -0.35740347158E-01  0.35744000000E-01  0.51099999109E-03 0.  1.
       22    1    1    2    0    0 -0.92932648464E-02  0.53719939555E-04 -0.34507476401E-01  0.35737005818E-01  0.00000000000E+00 0.  1.
  9000001    1    1    2    0    0  0.92932648464E-02 -0.53719939555E-04  0.34507476401E-01  0.35750994182E-01  0.10000000475E-02 0. -1.
</event>
<event>
 4   0  0.2441219E-02  0.9118800E+02  0.7818609E-02  0.1379984E+01
      -11   -1    0    0    0    0  0.00000000000E+00  0.00000000000E+00  0.35740347158E-01  0.35744000000E-01  0.51099999109E-03 0. -1.
       11   -1    0    0    0    0 -0.00000000000E+00 -0.00000000000E+00 -0.35740347158E-01  0.35744000000E-01  0.51099999109E-03 0.  1.
       22    1    1    2    0    0  0.32714262308E-02 -0.11408871175E-01  0.33708589615E-01  0.35737005818E-01  0.00000000000E+00 0. -1.
  9000001    1    1    2    0    0 -0.32714262308E-02  0.11408871175E-01 -0.33708589615E-01  0.35750994182E-01  0.10000000475E-02 0.  1.
</event>
<event>
 4   0  0.2441219E-02  0.9118800E+02  0.7818609E-02  0.1379984E+01
      -11   -1    0    0    0    0  0.00000000000E+00  0.00000000000E+00  0.35740347158E-01  0.35744000000E-01  0.51099999109E-03 0.  1.
       11   -1    0    0    0    0 -0.00000000000E+00 -0.00000000000E+00 -0.35740347158E-01  0.35744000000E-01  0.51099999109E-03 0. -1.
       22    1    1    2    0    0 -0.82838280765E-02 -0.72006040626E-02  0.34009749755E-01  0.35737005818E-01  0.00000000000E+00 0.  1.
  9000001    1    1    2    0    0  0.82838280765E-02  0.72006040626E-02 -0.34009749755E-01  0.35750994182E-01  0.10000000475E-02 0. -1.
</event>
<event>
 4   0  0.2441219E-02  0.9118800E+02  0.7818609E-02  0.1379984E+01
      -11   -1    0    0    0    0  0.00000000000E+00  0.00000000000E+00  0.35740347158E-01  0.35744000000E-01  0.51099999109E-03 0. -1.
       11   -1    0    0    0    0 -0.00000000000E+00 -0.00000000000E+00 -0.35740347158E-01  0.35744000000E-01  0.51099999109E-03 0.  1.
       22    1    1    2    0    0 -0.45582033083E-02 -0.58254223100E-02  0.34963135191E-01  0.35737005818E-01  0.00000000000E+00 0. -1.
  9000001    1    1    2    0    0  0.45582033083E-02  0.58254223100E-02 -0.34963135191E-01  0.35750994182E-01  0.10000000475E-02 0.  1.
</event>
<event>
 4   0  0.2441219E-02  0.9118800E+02  0.7818609E-02  0.1379984E+01
      -11   -1    0    0    0    0  0.00000000000E+00  0.00000000000E+00  0.35740347158E-01  0.35744000000E-01  0.51099999109E-03 0.  1.
       11   -1    0    0    0    0 -0.00000000000E+00 -0.00000000000E+00 -0.35740347158E-01  0.35744000000E-01  0.51099999109E-03 0. -1.
       22    1    1    2    0    0 -0.12519578185E-02 -0.88249499234E-02 -0.34607606755E-01  0.35737005818E-01  0.00000000000E+00 0. -1.
  9000001    1    1    2    0    0  0.12519578185E-02  0.88249499234E-02  0.34607606755E-01  0.35750994182E-01  0.10000000475E-02 0.  1.
</event>
<event>
 4   0  0.2441219E-02  0.9118800E+02  0.7818609E-02  0.1379984E+01
      -11   -1    0    0    0    0  0.00000000000E+00  0.00000000000E+00  0.35740347158E-01  0.35744000000E-01  0.51099999109E-03 0. -1.
       11   -1    0    0    0    0 -0.00000000000E+00 -0.00000000000E+00 -0.35740347158E-01  0.35744000000E-01  0.51099999109E-03 0.  1.
       22    1    1    2    0    0  0.12004086667E-01 -0.10036458124E-01 -0.32129503521E-01  0.35737005818E-01  0.00000000000E+00 0.  1.
  9000001    1    1    2    0    0 -0.12004086667E-01  0.10036458124E-01  0.32129503521E-01  0.35750994182E-01  0.10000000475E-02 0. -1.
</event>
<event>
 4   0  0.2441219E-02  0.9118800E+02  0.7818609E-02  0.1379984E+01
      -11   -1    0    0    0    0  0.00000000000E+00  0.00000000000E+00  0.35740347158E-01  0.35744000000E-01  0.51099999109E-03 0. -1.
       11   -1    0    0    0    0 -0.00000000000E+00 -0.00000000000E+00 -0.35740347158E-01  0.35744000000E-01  0.51099999109E-03 0.  1.
       22    1    1    2    0    0  0.48226635457E-02  0.56478805320E-02 -0.34956786847E-01  0.35737005818E-01  0.00000000000E+00 0.  1.
  9000001    1    1    2    0    0 -0.48226635457E-02 -0.56478805320E-02  0.34956786847E-01  0.35750994182E-01  0.10000000475E-02 0. -1.
</event>
<event>
 4   0  0.2441219E-02  0.9118800E+02  0.7818609E-02  0.1379984E+01
      -11   -1    0    0    0    0  0.00000000000E+00  0.00000000000E+00  0.35740347158E-01  0.35744000000E-01  0.51099999109E-03 0. -1.
       11   -1    0    0    0    0 -0.00000000000E+00 -0.00000000000E+00 -0.35740347158E-01  0.35744000000E-01  0.51099999109E-03 0.  1.
       22    1    1    2    0    0  0.14212386241E-01 -0.17848857926E-01  0.27505634567E-01  0.35737005818E-01  0.00000000000E+00 0. -1.
  9000001    1    1    2    0    0 -0.14212386241E-01  0.17848857926E-01 -0.27505634567E-01  0.35750994182E-01  0.10000000475E-02 0.  1.
</event>
<event>
 4   0  0.2441219E-02  0.9118800E+02  0.7818609E-02  0.1379984E+01
      -11   -1    0    0    0    0  0.00000000000E+00  0.00000000000E+00  0.35740347158E-01  0.35744000000E-01  0.51099999109E-03 0. -1.
       11   -1    0    0    0    0 -0.00000000000E+00 -0.00000000000E+00 -0.35740347158E-01  0.35744000000E-01  0.51099999109E-03 0.  1.
       22    1    1    2    0    0  0.93812805936E-02  0.37794476228E-02  0.34275952721E-01  0.35737005818E-01  0.00000000000E+00 0. -1.
  9000001    1    1    2    0    0 -0.93812805936E-02 -0.37794476228E-02 -0.34275952721E-01  0.35750994182E-01  0.10000000475E-02 0.  1.
</event>
<event>
 4   0  0.2441219E-02  0.9118800E+02  0.7818609E-02  0.1379984E+01
      -11   -1    0    0    0    0  0.00000000000E+00  0.00000000000E+00  0.35740347158E-01  0.35744000000E-01  0.51099999109E-03 0. -1.
       11   -1    0    0    0    0 -0.00000000000E+00 -0.00000000000E+00 -0.35740347158E-01  0.35744000000E-01  0.51099999109E-03 0.  1.
       22    1    1    2    0    0 -0.23855866417E-01  0.25974870938E-01  0.57738463903E-02  0.35737005818E-01  0.00000000000E+00 0.  1.
  9000001    1    1    2    0    0  0.23855866417E-01 -0.25974870938E-01 -0.57738463903E-02  0.35750994182E-01  0.10000000475E-02 0. -1.
</event>
<event>
 4   0  0.2441219E-02  0.9118800E+02  0.7818609E-02  0.1379984E+01
      -11   -1    0    0    0    0  0.00000000000E+00  0.00000000000E+00  0.35740347158E-01  0.35744000000E-01  0.51099999109E-03 0. -1.
       11   -1    0    0    0    0 -0.00000000000E+00 -0.00000000000E+00 -0.35740347158E-01  0.35744000000E-01  0.51099999109E-03 0.  1.
       22    1    1    2    0    0 -0.25952461386E-02 -0.28867639443E-01  0.20905924407E-01  0.35737005818E-01  0.00000000000E+00 0. -1.
  9000001    1    1    2    0    0  0.25952461386E-02  0.28867639443E-01 -0.20905924407E-01  0.35750994182E-01  0.10000000475E-02 0.  1.
</event>
<event>
 4   0  0.2441219E-02  0.9118800E+02  0.7818609E-02  0.1379984E+01
      -11   -1    0    0    0    0  0.00000000000E+00  0.00000000000E+00  0.35740347158E-01  0.35744000000E-01  0.51099999109E-03 0.  1.
       11   -1    0    0    0    0 -0.00000000000E+00 -0.00000000000E+00 -0.35740347158E-01  0.35744000000E-01  0.51099999109E-03 0. -1.
       22    1    1    2    0    0  0.39211699429E-02  0.42804712568E-02 -0.35262381896E-01  0.35737005818E-01  0.00000000000E+00 0. -1.
  9000001    1    1    2    0    0 -0.39211699429E-02 -0.42804712568E-02  0.35262381896E-01  0.35750994182E-01  0.10000000475E-02 0.  1.
</event>
<event>
 4   0  0.2441219E-02  0.9118800E+02  0.7818609E-02  0.1379984E+01
      -11   -1    0    0    0    0  0.00000000000E+00  0.00000000000E+00  0.35740347158E-01  0.35744000000E-01  0.51099999109E-03 0.  1.
       11   -1    0    0    0    0 -0.00000000000E+00 -0.00000000000E+00 -0.35740347158E-01  0.35744000000E-01  0.51099999109E-03 0. -1.
       22    1    1    2    0    0  0.71092669521E-02 -0.84759913224E-02 -0.33981605015E-01  0.35737005818E-01  0.00000000000E+00 0. -1.
  9000001    1    1    2    0    0 -0.71092669521E-02  0.84759913224E-02  0.33981605015E-01  0.35750994182E-01  0.10000000475E-02 0.  1.
</event>
<event>
 4   0  0.2441219E-02  0.9118800E+02  0.7818609E-02  0.1379984E+01
      -11   -1    0    0    0    0  0.00000000000E+00  0.00000000000E+00  0.35740347158E-01  0.35744000000E-01  0.51099999109E-03 0.  1.
       11   -1    0    0    0    0 -0.00000000000E+00 -0.00000000000E+00 -0.35740347158E-01  0.35744000000E-01  0.51099999109E-03 0. -1.
       22    1    1    2    0    0  0.53684528068E-02 -0.10371467507E-02 -0.35316251584E-01  0.35737005818E-01  0.00000000000E+00 0. -1.
  9000001    1    1    2    0    0 -0.53684528068E-02  0.10371467507E-02  0.35316251584E-01  0.35750994182E-01  0.10000000475E-02 0.  1.
</event>
<event>
 4   0  0.2441219E-02  0.9118800E+02  0.7818609E-02  0.1379984E+01
      -11   -1    0    0    0    0  0.00000000000E+00  0.00000000000E+00  0.35740347158E-01  0.35744000000E-01  0.51099999109E-03 0.  1.
       11   -1    0    0    0    0 -0.00000000000E+00 -0.00000000000E+00 -0.35740347158E-01  0.35744000000E-01  0.51099999109E-03 0. -1.
       22    1    1    2    0    0 -0.73997981509E-02  0.39490265363E-02 -0.34738764538E-01  0.35737005818E-01  0.00000000000E+00 0. -1.
  9000001    1    1    2    0    0  0.73997981509E-02 -0.39490265363E-02  0.34738764538E-01  0.35750994182E-01  0.10000000475E-02 0.  1.
</event>
<event>
 4   0  0.2441219E-02  0.9118800E+02  0.7818609E-02  0.1379984E+01
      -11   -1    0    0    0    0  0.00000000000E+00  0.00000000000E+00  0.35740347158E-01  0.35744000000E-01  0.51099999109E-03 0. -1.
       11   -1    0    0    0    0 -0.00000000000E+00 -0.00000000000E+00 -0.35740347158E-01  0.35744000000E-01  0.51099999109E-03 0.  1.
       22    1    1    2    0    0  0.41901499882E-02  0.10380972308E-01 -0.33938350607E-01  0.35737005818E-01  0.00000000000E+00 0.  1.
  9000001    1    1    2    0    0 -0.41901499882E-02 -0.10380972308E-01  0.33938350607E-01  0.35750994182E-01  0.10000000475E-02 0. -1.
</event>
<event>
 4   0  0.2441219E-02  0.9118800E+02  0.7818609E-02  0.1379984E+01
      -11   -1    0    0    0    0  0.00000000000E+00  0.00000000000E+00  0.35740347158E-01  0.35744000000E-01  0.51099999109E-03 0.  1.
       11   -1    0    0    0    0 -0.00000000000E+00 -0.00000000000E+00 -0.35740347158E-01  0.35744000000E-01  0.51099999109E-03 0. -1.
       22    1    1    2    0    0 -0.15373187438E-01 -0.10985614982E-02  0.32242702361E-01  0.35737005818E-01  0.00000000000E+00 0.  1.
  9000001    1    1    2    0    0  0.15373187438E-01  0.10985614982E-02 -0.32242702361E-01  0.35750994182E-01  0.10000000475E-02 0. -1.
</event>
<event>
 4   0  0.2441219E-02  0.9118800E+02  0.7818609E-02  0.1379984E+01
      -11   -1    0    0    0    0  0.00000000000E+00  0.00000000000E+00  0.35740347158E-01  0.35744000000E-01  0.51099999109E-03 0.  1.
       11   -1    0    0    0    0 -0.00000000000E+00 -0.00000000000E+00 -0.35740347158E-01  0.35744000000E-01  0.51099999109E-03 0. -1.
       22    1    1    2    0    0  0.10471257229E-01 -0.21871016217E-01  0.26251571506E-01  0.35737005818E-01  0.00000000000E+00 0.  1.
  9000001    1    1    2    0    0 -0.10471257229E-01  0.21871016217E-01 -0.26251571506E-01  0.35750994182E-01  0.10000000475E-02 0. -1.
</event>
<event>
 4   0  0.2441219E-02  0.9118800E+02  0.7818609E-02  0.1379984E+01
      -11   -1    0    0    0    0  0.00000000000E+00  0.00000000000E+00  0.35740347158E-01  0.35744000000E-01  0.51099999109E-03 0. -1.
       11   -1    0    0    0    0 -0.00000000000E+00 -0.00000000000E+00 -0.35740347158E-01  0.35744000000E-01  0.51099999109E-03 0.  1.
       22    1    1    2    0    0 -0.48307457514E-02 -0.16091743574E-01 -0.31541294665E-01  0.35737005818E-01  0.00000000000E+00 0.  1.
  9000001    1    1    2    0    0  0.48307457514E-02  0.16091743574E-01  0.31541294665E-01  0.35750994182E-01  0.10000000475E-02 0. -1.
</event>
<event>
 4   0  0.2441219E-02  0.9118800E+02  0.7818609E-02  0.1379984E+01
      -11   -1    0    0    0    0  0.00000000000E+00  0.00000000000E+00  0.35740347158E-01  0.35744000000E-01  0.51099999109E-03 0. -1.
       11   -1    0    0    0    0 -0.00000000000E+00 -0.00000000000E+00 -0.35740347158E-01  0.35744000000E-01  0.51099999109E-03 0.  1.
       22    1    1    2    0    0  0.10726441273E-01 -0.59941759066E-02 -0.33558112249E-01  0.35737005818E-01  0.00000000000E+00 0.  1.
  9000001    1    1    2    0    0 -0.10726441273E-01  0.59941759066E-02  0.33558112249E-01  0.35750994182E-01  0.10000000475E-02 0. -1.
</event>
<event>
 4   0  0.2441219E-02  0.9118800E+02  0.7818609E-02  0.1379984E+01
      -11   -1    0    0    0    0  0.00000000000E+00  0.00000000000E+00  0.35740347158E-01  0.35744000000E-01  0.51099999109E-03 0. -1.
       11   -1    0    0    0    0 -0.00000000000E+00 -0.00000000000E+00 -0.35740347158E-01  0.35744000000E-01  0.51099999109E-03 0.  1.
       22    1    1    2    0    0 -0.21851904482E-02  0.64228285240E-02  0.35087117313E-01  0.35737005818E-01  0.00000000000E+00 0. -1.
  9000001    1    1    2    0    0  0.21851904482E-02 -0.64228285240E-02 -0.35087117313E-01  0.35750994182E-01  0.10000000475E-02 0.  1.
</event>
<event>
 4   0  0.2441219E-02  0.9118800E+02  0.7818609E-02  0.1379984E+01
      -11   -1    0    0    0    0  0.00000000000E+00  0.00000000000E+00  0.35740347158E-01  0.35744000000E-01  0.51099999109E-03 0. -1.
       11   -1    0    0    0    0 -0.00000000000E+00 -0.00000000000E+00 -0.35740347158E-01  0.35744000000E-01  0.51099999109E-03 0.  1.
       22    1    1    2    0    0 -0.19848594317E-01 -0.14834112861E-01  0.25751038506E-01  0.35737005818E-01  0.00000000000E+00 0. -1.
  9000001    1    1    2    0    0  0.19848594317E-01  0.14834112861E-01 -0.25751038506E-01  0.35750994182E-01  0.10000000475E-02 0.  1.
</event>
<event>
 4   0  0.2441219E-02  0.9118800E+02  0.7818609E-02  0.1379984E+01
      -11   -1    0    0    0    0  0.00000000000E+00  0.00000000000E+00  0.35740347158E-01  0.35744000000E-01  0.51099999109E-03 0. -1.
       11   -1    0    0    0    0 -0.00000000000E+00 -0.00000000000E+00 -0.35740347158E-01  0.35744000000E-01  0.51099999109E-03 0.  1.
       22    1    1    2    0    0  0.64002083297E-02  0.68926764937E-02  0.34476976796E-01  0.35737005818E-01  0.00000000000E+00 0. -1.
  9000001    1    1    2    0    0 -0.64002083297E-02 -0.68926764937E-02 -0.34476976796E-01  0.35750994182E-01  0.10000000475E-02 0.  1.
</event>
<event>
 4   0  0.2441219E-02  0.9118800E+02  0.7818609E-02  0.1379984E+01
      -11   -1    0    0    0    0  0.00000000000E+00  0.00000000000E+00  0.35740347158E-01  0.35744000000E-01  0.51099999109E-03 0.  1.
       11   -1    0    0    0    0 -0.00000000000E+00 -0.00000000000E+00 -0.35740347158E-01  0.35744000000E-01  0.51099999109E-03 0. -1.
       22    1    1    2    0    0  0.39324829836E-02  0.60084920584E-02 -0.35008101714E-01  0.35737005818E-01  0.00000000000E+00 0. -1.
  9000001    1    1    2    0    0 -0.39324829836E-02 -0.60084920584E-02  0.35008101714E-01  0.35750994182E-01  0.10000000475E-02 0.  1.
</event>
<event>
 4   0  0.2441219E-02  0.9118800E+02  0.7818609E-02  0.1379984E+01
      -11   -1    0    0    0    0  0.00000000000E+00  0.00000000000E+00  0.35740347158E-01  0.35744000000E-01  0.51099999109E-03 0.  1.
       11   -1    0    0    0    0 -0.00000000000E+00 -0.00000000000E+00 -0.35740347158E-01  0.35744000000E-01  0.51099999109E-03 0. -1.
       22    1    1    2    0    0 -0.21976716735E-01  0.25829591965E-02  0.28062177895E-01  0.35737005818E-01  0.00000000000E+00 0.  1.
  9000001    1    1    2    0    0  0.21976716735E-01 -0.25829591965E-02 -0.28062177895E-01  0.35750994182E-01  0.10000000475E-02 0. -1.
</event>
<event>
 4   0  0.2441219E-02  0.9118800E+02  0.7818609E-02  0.1379984E+01
      -11   -1    0    0    0    0  0.00000000000E+00  0.00000000000E+00  0.35740347158E-01  0.35744000000E-01  0.51099999109E-03 0. -1.
       11   -1    0    0    0    0 -0.00000000000E+00 -0.00000000000E+00 -0.35740347158E-01  0.35744000000E-01  0.51099999109E-03 0.  1.
       22    1    1    2    0    0 -0.23192771778E-01  0.11676043116E-01  0.24554000474E-01  0.35737005818E-01  0.00000000000E+00 0. -1.
  9000001    1    1    2    0    0  0.23192771778E-01 -0.11676043116E-01 -0.24554000474E-01  0.35750994182E-01  0.10000000475E-02 0.  1.
</event>
<event>
 4   0  0.2441219E-02  0.9118800E+02  0.7818609E-02  0.1379984E+01
      -11   -1    0    0    0    0  0.00000000000E+00  0.00000000000E+00  0.35740347158E-01  0.35744000000E-01  0.51099999109E-03 0. -1.
       11   -1    0    0    0    0 -0.00000000000E+00 -0.00000000000E+00 -0.35740347158E-01  0.35744000000E-01  0.51099999109E-03 0.  1.
       22    1    1    2    0    0 -0.36605702910E-02  0.18660918384E-02  0.35500021285E-01  0.35737005818E-01  0.00000000000E+00 0. -1.
  9000001    1    1    2    0    0  0.36605702910E-02 -0.18660918384E-02 -0.35500021285E-01  0.35750994182E-01  0.10000000475E-02 0.  1.
</event>
<event>
 4   0  0.2441219E-02  0.9118800E+02  0.7818609E-02  0.1379984E+01
      -11   -1    0    0    0    0  0.00000000000E+00  0.00000000000E+00  0.35740347158E-01  0.35744000000E-01  0.51099999109E-03 0.  1.
       11   -1    0    0    0    0 -0.00000000000E+00 -0.00000000000E+00 -0.35740347158E-01  0.35744000000E-01  0.51099999109E-03 0. -1.
       22    1    1    2    0    0  0.13520226350E-02  0.19731147393E-01  0.29765541188E-01  0.35737005818E-01  0.00000000000E+00 0.  1.
  9000001    1    1    2    0    0 -0.13520226350E-02 -0.19731147393E-01 -0.29765541188E-01  0.35750994182E-01  0.10000000475E-02 0. -1.
</event>
<event>
 4   0  0.2441219E-02  0.9118800E+02  0.7818609E-02  0.1379984E+01
      -11   -1    0    0    0    0  0.00000000000E+00  0.00000000000E+00  0.35740347158E-01  0.35744000000E-01  0.51099999109E-03 0. -1.
       11   -1    0    0    0    0 -0.00000000000E+00 -0.00000000000E+00 -0.35740347158E-01  0.35744000000E-01  0.51099999109E-03 0.  1.
       22    1    1    2    0    0  0.28309085148E-01 -0.14935423517E-01  0.15895358044E-01  0.35737005818E-01  0.00000000000E+00 0.  1.
  9000001    1    1    2    0    0 -0.28309085148E-01  0.14935423517E-01 -0.15895358044E-01  0.35750994182E-01  0.10000000475E-02 0. -1.
</event>
<event>
 4   0  0.2441219E-02  0.9118800E+02  0.7818609E-02  0.1379984E+01
      -11   -1    0    0    0    0  0.00000000000E+00  0.00000000000E+00  0.35740347158E-01  0.35744000000E-01  0.51099999109E-03 0. -1.
       11   -1    0    0    0    0 -0.00000000000E+00 -0.00000000000E+00 -0.35740347158E-01  0.35744000000E-01  0.51099999109E-03 0.  1.
       22    1    1    2    0    0  0.91332267007E-02  0.50050715060E-02 -0.34185772101E-01  0.35737005818E-01  0.00000000000E+00 0.  1.
  9000001    1    1    2    0    0 -0.91332267007E-02 -0.50050715060E-02  0.34185772101E-01  0.35750994182E-01  0.10000000475E-02 0. -1.
</event>
<event>
 4   0  0.2441219E-02  0.9118800E+02  0.7818609E-02  0.1379984E+01
      -11   -1    0    0    0    0  0.00000000000E+00  0.00000000000E+00  0.35740347158E-01  0.35744000000E-01  0.51099999109E-03 0. -1.
       11   -1    0    0    0    0 -0.00000000000E+00 -0.00000000000E+00 -0.35740347158E-01  0.35744000000E-01  0.51099999109E-03 0.  1.
       22    1    1    2    0    0 -0.19444331480E-01 -0.89513156951E-02  0.28616874489E-01  0.35737005818E-01  0.00000000000E+00 0. -1.
  9000001    1    1    2    0    0  0.19444331480E-01  0.89513156951E-02 -0.28616874489E-01  0.35750994182E-01  0.10000000475E-02 0.  1.
</event>
<event>
 4   0  0.2441219E-02  0.9118800E+02  0.7818609E-02  0.1379984E+01
      -11   -1    0    0    0    0  0.00000000000E+00  0.00000000000E+00  0.35740347158E-01  0.35744000000E-01  0.51099999109E-03 0. -1.
       11   -1    0    0    0    0 -0.00000000000E+00 -0.00000000000E+00 -0.35740347158E-01  0.35744000000E-01  0.51099999109E-03 0.  1.
       22    1    1    2    0    0  0.22469748676E-02  0.20181089011E-02  0.35609155077E-01  0.35737005818E-01  0.00000000000E+00 0. -1.
  9000001    1    1    2    0    0 -0.22469748676E-02 -0.20181089011E-02 -0.35609155077E-01  0.35750994182E-01  0.10000000475E-02 0.  1.
</event>
<event>
 4   0  0.2441219E-02  0.9118800E+02  0.7818609E-02  0.1379984E+01
      -11   -1    0    0    0    0  0.00000000000E+00  0.00000000000E+00  0.35740347158E-01  0.35744000000E-01  0.51099999109E-03 0.  1.
       11   -1    0    0    0    0 -0.00000000000E+00 -0.00000000000E+00 -0.35740347158E-01  0.35744000000E-01  0.51099999109E-03 0. -1.
       22    1    1    2    0    0 -0.99174384579E-02 -0.34533687950E-02  0.34159219009E-01  0.35737005818E-01  0.00000000000E+00 0.  1.
  9000001    1    1    2    0    0  0.99174384579E-02  0.34533687950E-02 -0.34159219009E-01  0.35750994182E-01  0.10000000475E-02 0. -1.
</event>
<event>
 4   0  0.2441219E-02  0.9118800E+02  0.7818609E-02  0.1379984E+01
      -11   -1    0    0    0    0  0.00000000000E+00  0.00000000000E+00  0.35740347158E-01  0.35744000000E-01  0.51099999109E-03 0.  1.
       11   -1    0    0    0    0 -0.00000000000E+00 -0.00000000000E+00 -0.35740347158E-01  0.35744000000E-01  0.51099999109E-03 0. -1.
       22    1    1    2    0    0  0.10163495515E-01  0.27724634034E-02  0.34148944207E-01  0.35737005818E-01  0.00000000000E+00 0.  1.
  9000001    1    1    2    0    0 -0.10163495515E-01 -0.27724634034E-02 -0.34148944207E-01  0.35750994182E-01  0.10000000475E-02 0. -1.
</event>
<event>
 4   0  0.2441219E-02  0.9118800E+02  0.7818609E-02  0.1379984E+01
      -11   -1    0    0    0    0  0.00000000000E+00  0.00000000000E+00  0.35740347158E-01  0.35744000000E-01  0.51099999109E-03 0. -1.
       11   -1    0    0    0    0 -0.00000000000E+00 -0.00000000000E+00 -0.35740347158E-01  0.35744000000E-01  0.51099999109E-03 0.  1.
       22    1    1    2    0    0  0.38102631184E-02 -0.13021518912E-01 -0.33061390247E-01  0.35737005818E-01  0.00000000000E+00 0.  1.
  9000001    1    1    2    0    0 -0.38102631184E-02  0.13021518912E-01  0.33061390247E-01  0.35750994182E-01  0.10000000475E-02 0. -1.
</event>
<event>
 4   0  0.2441219E-02  0.9118800E+02  0.7818609E-02  0.1379984E+01
      -11   -1    0    0    0    0  0.00000000000E+00  0.00000000000E+00  0.35740347158E-01  0.35744000000E-01  0.51099999109E-03 0.  1.
       11   -1    0    0    0    0 -0.00000000000E+00 -0.00000000000E+00 -0.35740347158E-01  0.35744000000E-01  0.51099999109E-03 0. -1.
       22    1    1    2    0    0  0.20350293181E-01 -0.25716399787E-01  0.14200913151E-01  0.35737005818E-01  0.00000000000E+00 0. -1.
  9000001    1    1    2    0    0 -0.20350293181E-01  0.25716399787E-01 -0.14200913151E-01  0.35750994182E-01  0.10000000475E-02 0.  1.
</event>
<event>
 4   0  0.2441219E-02  0.9118800E+02  0.7818609E-02  0.1379984E+01
      -11   -1    0    0    0    0  0.00000000000E+00  0.00000000000E+00  0.35740347158E-01  0.35744000000E-01  0.51099999109E-03 0.  1.
       11   -1    0    0    0    0 -0.00000000000E+00 -0.00000000000E+00 -0.35740347158E-01  0.35744000000E-01  0.51099999109E-03 0. -1.
       22    1    1    2    0    0  0.22457167144E-02 -0.44730251785E-02 -0.35384776205E-01  0.35737005818E-01  0.00000000000E+00 0. -1.
  9000001    1    1    2    0    0 -0.22457167144E-02  0.44730251785E-02  0.35384776205E-01  0.35750994182E-01  0.10000000475E-02 0.  1.
</event>
<event>
 4   0  0.2441219E-02  0.9118800E+02  0.7818609E-02  0.1379984E+01
      -11   -1    0    0    0    0  0.00000000000E+00  0.00000000000E+00  0.35740347158E-01  0.35744000000E-01  0.51099999109E-03 0.  1.
       11   -1    0    0    0    0 -0.00000000000E+00 -0.00000000000E+00 -0.35740347158E-01  0.35744000000E-01  0.51099999109E-03 0. -1.
       22    1    1    2    0    0 -0.31745202461E-01  0.56481908085E-02  0.15410179952E-01  0.35737005818E-01  0.00000000000E+00 0.  1.
  9000001    1    1    2    0    0  0.31745202461E-01 -0.56481908085E-02 -0.15410179952E-01  0.35750994182E-01  0.10000000475E-02 0. -1.
</event>
<event>
 4   0  0.2441219E-02  0.9118800E+02  0.7818609E-02  0.1379984E+01
      -11   -1    0    0    0    0  0.00000000000E+00  0.00000000000E+00  0.35740347158E-01  0.35744000000E-01  0.51099999109E-03 0. -1.
       11   -1    0    0    0    0 -0.00000000000E+00 -0.00000000000E+00 -0.35740347158E-01  0.35744000000E-01  0.51099999109E-03 0.  1.
       22    1    1    2    0    0 -0.16182431715E-02  0.27779660013E-02 -0.35592102759E-01  0.35737005818E-01  0.00000000000E+00 0.  1.
  9000001    1    1    2    0    0  0.16182431715E-02 -0.27779660013E-02  0.35592102759E-01  0.35750994182E-01  0.10000000475E-02 0. -1.
</event>
<event>
 4   0  0.2441219E-02  0.9118800E+02  0.7818609E-02  0.1379984E+01
      -11   -1    0    0    0    0  0.00000000000E+00  0.00000000000E+00  0.35740347158E-01  0.35744000000E-01  0.51099999109E-03 0.  1.
       11   -1    0    0    0    0 -0.00000000000E+00 -0.00000000000E+00 -0.35740347158E-01  0.35744000000E-01  0.51099999109E-03 0. -1.
       22    1    1    2    0    0 -0.27094858465E-02  0.17138211699E-02  0.35592907837E-01  0.35737005818E-01  0.00000000000E+00 0.  1.
  9000001    1    1    2    0    0  0.27094858465E-02 -0.17138211699E-02 -0.35592907837E-01  0.35750994182E-01  0.10000000475E-02 0. -1.
</event>
<event>
 4   0  0.2441219E-02  0.9118800E+02  0.7818609E-02  0.1379984E+01
      -11   -1    0    0    0    0  0.00000000000E+00  0.00000000000E+00  0.35740347158E-01  0.35744000000E-01  0.51099999109E-03 0.  1.
       11   -1    0    0    0    0 -0.00000000000E+00 -0.00000000000E+00 -0.35740347158E-01  0.35744000000E-01  0.51099999109E-03 0. -1.
       22    1    1    2    0    0  0.11689473588E-01 -0.28117336915E-02  0.33653884557E-01  0.35737005818E-01  0.00000000000E+00 0.  1.
  9000001    1    1    2    0    0 -0.11689473588E-01  0.28117336915E-02 -0.33653884557E-01  0.35750994182E-01  0.10000000475E-02 0. -1.
</event>
<event>
 4   0  0.2441219E-02  0.9118800E+02  0.7818609E-02  0.1379984E+01
      -11   -1    0    0    0    0  0.00000000000E+00  0.00000000000E+00  0.35740347158E-01  0.35744000000E-01  0.51099999109E-03 0.  1.
       11   -1    0    0    0    0 -0.00000000000E+00 -0.00000000000E+00 -0.35740347158E-01  0.35744000000E-01  0.51099999109E-03 0. -1.
       22    1    1    2    0    0  0.23073742293E-02  0.96212782019E-02 -0.34340073017E-01  0.35737005818E-01  0.00000000000E+00 0. -1.
  9000001    1    1    2    0    0 -0.23073742293E-02 -0.96212782019E-02  0.34340073017E-01  0.35750994182E-01  0.10000000475E-02 0.  1.
</event>
<event>
 4   0  0.2441219E-02  0.9118800E+02  0.7818609E-02  0.1379984E+01
      -11   -1    0    0    0    0  0.00000000000E+00  0.00000000000E+00  0.35740347158E-01  0.35744000000E-01  0.51099999109E-03 0. -1.
       11   -1    0    0    0    0 -0.00000000000E+00 -0.00000000000E+00 -0.35740347158E-01  0.35744000000E-01  0.51099999109E-03 0.  1.
       22    1    1    2    0    0  0.30647751739E-02  0.11322208337E-02 -0.35587340642E-01  0.35737005818E-01  0.00000000000E+00 0.  1.
  9000001    1    1    2    0    0 -0.30647751739E-02 -0.11322208337E-02  0.35587340642E-01  0.35750994182E-01  0.10000000475E-02 0. -1.
</event>
<event>
 4   0  0.2441219E-02  0.9118800E+02  0.7818609E-02  0.1379984E+01
      -11   -1    0    0    0    0  0.00000000000E+00  0.00000000000E+00  0.35740347158E-01  0.35744000000E-01  0.51099999109E-03 0. -1.
       11   -1    0    0    0    0 -0.00000000000E+00 -0.00000000000E+00 -0.35740347158E-01  0.35744000000E-01  0.51099999109E-03 0.  1.
       22    1    1    2    0    0  0.17915925073E-01  0.17273458922E-01 -0.25647238263E-01  0.35737005818E-01  0.00000000000E+00 0.  1.
  9000001    1    1    2    0    0 -0.17915925073E-01 -0.17273458922E-01  0.25647238263E-01  0.35750994182E-01  0.10000000475E-02 0. -1.
</event>
<event>
 4   0  0.2441219E-02  0.9118800E+02  0.7818609E-02  0.1379984E+01
      -11   -1    0    0    0    0  0.00000000000E+00  0.00000000000E+00  0.35740347158E-01  0.35744000000E-01  0.51099999109E-03 0. -1.
       11   -1    0    0    0    0 -0.00000000000E+00 -0.00000000000E+00 -0.35740347158E-01  0.35744000000E-01  0.51099999109E-03 0.  1.
       22    1    1    2    0    0  0.40499770594E-02  0.11530334135E-02  0.35488051294E-01  0.35737005818E-01  0.00000000000E+00 0. -1.
  9000001    1    1    2    0    0 -0.40499770594E-02 -0.11530334135E-02 -0.35488051294E-01  0.35750994182E-01  0.10000000475E-02 0.  1.
</event>
<event>
 4   0  0.2441219E-02  0.9118800E+02  0.7818609E-02  0.1379984E+01
      -11   -1    0    0    0    0  0.00000000000E+00  0.00000000000E+00  0.35740347158E-01  0.35744000000E-01  0.51099999109E-03 0. -1.
       11   -1    0    0    0    0 -0.00000000000E+00 -0.00000000000E+00 -0.35740347158E-01  0.35744000000E-01  0.51099999109E-03 0.  1.
       22    1    1    2    0    0  0.18996925534E-02 -0.26698245994E-02  0.35586469194E-01  0.35737005818E-01  0.00000000000E+00 0. -1.
  9000001    1    1    2    0    0 -0.18996925534E-02  0.26698245994E-02 -0.35586469194E-01  0.35750994182E-01  0.10000000475E-02 0.  1.
</event>
<event>
 4   0  0.2441219E-02  0.9118800E+02  0.7818609E-02  0.1379984E+01
      -11   -1    0    0    0    0  0.00000000000E+00  0.00000000000E+00  0.35740347158E-01  0.35744000000E-01  0.51099999109E-03 0.  1.
       11   -1    0    0    0    0 -0.00000000000E+00 -0.00000000000E+00 -0.35740347158E-01  0.35744000000E-01  0.51099999109E-03 0. -1.
       22    1    1    2    0    0 -0.25958297120E-01 -0.29163083047E-02 -0.24388430482E-01  0.35737005818E-01  0.00000000000E+00 0. -1.
  9000001    1    1    2    0    0  0.25958297120E-01  0.29163083047E-02  0.24388430482E-01  0.35750994182E-01  0.10000000475E-02 0.  1.
</event>
<event>
 4   0  0.2441219E-02  0.9118800E+02  0.7818609E-02  0.1379984E+01
      -11   -1    0    0    0    0  0.00000000000E+00  0.00000000000E+00  0.35740347158E-01  0.35744000000E-01  0.51099999109E-03 0.  1.
       11   -1    0    0    0    0 -0.00000000000E+00 -0.00000000000E+00 -0.35740347158E-01  0.35744000000E-01  0.51099999109E-03 0. -1.
       22    1    1    2    0    0  0.42273992734E-02  0.66346011795E-03 -0.35479888683E-01  0.35737005818E-01  0.00000000000E+00 0. -1.
  9000001    1    1    2    0    0 -0.42273992734E-02 -0.66346011795E-03  0.35479888683E-01  0.35750994182E-01  0.10000000475E-02 0.  1.
</event>
<event>
 4   0  0.2441219E-02  0.9118800E+02  0.7818609E-02  0.1379984E+01
      -11   -1    0    0    0    0  0.00000000000E+00  0.00000000000E+00  0.35740347158E-01  0.35744000000E-01  0.51099999109E-03 0.  1.
       11   -1    0    0    0    0 -0.00000000000E+00 -0.00000000000E+00 -0.35740347158E-01  0.35744000000E-01  0.51099999109E-03 0. -1.
       22    1    1    2    0    0  0.95420599741E-02 -0.32710882180E-01 -0.10774082945E-01  0.35737005818E-01  0.00000000000E+00 0. -1.
  9000001    1    1    2    0    0 -0.95420599741E-02  0.32710882180E-01  0.10774082945E-01  0.35750994182E-01  0.10000000475E-02 0.  1.
</event>
<event>
 4   0  0.2441219E-02  0.9118800E+02  0.7818609E-02  0.1379984E+01
      -11   -1    0    0    0    0  0.00000000000E+00  0.00000000000E+00  0.35740347158E-01  0.35744000000E-01  0.51099999109E-03 0.  1.
       11   -1    0    0    0    0 -0.00000000000E+00 -0.00000000000E+00 -0.35740347158E-01  0.35744000000E-01  0.51099999109E-03 0. -1.
       22    1    1    2    0    0  0.12375201668E-01  0.33389229962E-01  0.30244488898E-02  0.35737005818E-01  0.00000000000E+00 0. -1.
  9000001    1    1    2    0    0 -0.12375201668E-01 -0.33389229962E-01 -0.30244488898E-02  0.35750994182E-01  0.10000000475E-02 0.  1.
</event>
<event>
 4   0  0.2441219E-02  0.9118800E+02  0.7818609E-02  0.1379984E+01
      -11   -1    0    0    0    0  0.00000000000E+00  0.00000000000E+00  0.35740347158E-01  0.35744000000E-01  0.51099999109E-03 0.  1.
       11   -1    0    0    0    0 -0.00000000000E+00 -0.00000000000E+00 -0.35740347158E-01  0.35744000000E-01  0.51099999109E-03 0. -1.
       22    1    1    2    0    0 -0.30006546785E-01 -0.12716636132E-01 -0.14663829662E-01  0.35737005818E-01  0.00000000000E+00 0. -1.
  9000001    1    1    2    0    0  0.30006546785E-01  0.12716636132E-01  0.14663829662E-01  0.35750994182E-01  0.10000000475E-02 0.  1.
</event>
<event>
 4   0  0.2441219E-02  0.9118800E+02  0.7818609E-02  0.1379984E+01
      -11   -1    0    0    0    0  0.00000000000E+00  0.00000000000E+00  0.35740347158E-01  0.35744000000E-01  0.51099999109E-03 0. -1.
       11   -1    0    0    0    0 -0.00000000000E+00 -0.00000000000E+00 -0.35740347158E-01  0.35744000000E-01  0.51099999109E-03 0.  1.
       22    1    1    2    0    0  0.29560360248E-02 -0.47645793829E-02 -0.35294393594E-01  0.35737005818E-01  0.00000000000E+00 0.  1.
  9000001    1    1    2    0    0 -0.29560360248E-02  0.47645793829E-02  0.35294393594E-01  0.35750994182E-01  0.10000000475E-02 0. -1.
</event>
<event>
 4   0  0.2441219E-02  0.9118800E+02  0.7818609E-02  0.1379984E+01
      -11   -1    0    0    0    0  0.00000000000E+00  0.00000000000E+00  0.35740347158E-01  0.35744000000E-01  0.51099999109E-03 0.  1.
       11   -1    0    0    0    0 -0.00000000000E+00 -0.00000000000E+00 -0.35740347158E-01  0.35744000000E-01  0.51099999109E-03 0. -1.
       22    1    1    2    0    0  0.39459507284E-02 -0.54142561964E-03 -0.35514362109E-01  0.35737005818E-01  0.00000000000E+00 0. -1.
  9000001    1    1    2    0    0 -0.39459507284E-02  0.54142561964E-03  0.35514362109E-01  0.35750994182E-01  0.10000000475E-02 0.  1.
</event>
<event>
 4   0  0.2441219E-02  0.9118800E+02  0.7818609E-02  0.1379984E+01
      -11   -1    0    0    0    0  0.00000000000E+00  0.00000000000E+00  0.35740347158E-01  0.35744000000E-01  0.51099999109E-03 0. -1.
       11   -1    0    0    0    0 -0.00000000000E+00 -0.00000000000E+00 -0.35740347158E-01  0.35744000000E-01  0.51099999109E-03 0.  1.
       22    1    1    2    0    0  0.32458206815E-01 -0.11023023246E-01  0.10104026610E-01  0.35737005818E-01  0.00000000000E+00 0. -1.
  9000001    1    1    2    0    0 -0.32458206815E-01  0.11023023246E-01 -0.10104026610E-01  0.35750994182E-01  0.10000000475E-02 0.  1.
</event>
<event>
 4   0  0.2441219E-02  0.9118800E+02  0.7818609E-02  0.1379984E+01
      -11   -1    0    0    0    0  0.00000000000E+00  0.00000000000E+00  0.35740347158E-01  0.35744000000E-01  0.51099999109E-03 0.  1.
       11   -1    0    0    0    0 -0.00000000000E+00 -0.00000000000E+00 -0.35740347158E-01  0.35744000000E-01  0.51099999109E-03 0. -1.
       22    1    1    2    0    0  0.24371293899E-02 -0.36507055938E-02  0.35466411348E-01  0.35737005818E-01  0.00000000000E+00 0.  1.
  9000001    1    1    2    0    0 -0.24371293899E-02  0.36507055938E-02 -0.35466411348E-01  0.35750994182E-01  0.10000000475E-02 0. -1.
</event>
<event>
 4   0  0.2441219E-02  0.9118800E+02  0.7818609E-02  0.1379984E+01
      -11   -1    0    0    0    0  0.00000000000E+00  0.00000000000E+00  0.35740347158E-01  0.35744000000E-01  0.51099999109E-03 0. -1.
       11   -1    0    0    0    0 -0.00000000000E+00 -0.00000000000E+00 -0.35740347158E-01  0.35744000000E-01  0.51099999109E-03 0.  1.
       22    1    1    2    0    0 -0.49781662012E-02  0.19758507746E-01 -0.29359032985E-01  0.35737005818E-01  0.00000000000E+00 0.  1.
  9000001    1    1    2    0    0  0.49781662012E-02 -0.19758507746E-01  0.29359032985E-01  0.35750994182E-01  0.10000000475E-02 0. -1.
</event>
<event>
 4   0  0.2441219E-02  0.9118800E+02  0.7818609E-02  0.1379984E+01
      -11   -1    0    0    0    0  0.00000000000E+00  0.00000000000E+00  0.35740347158E-01  0.35744000000E-01  0.51099999109E-03 0. -1.
       11   -1    0    0    0    0 -0.00000000000E+00 -0.00000000000E+00 -0.35740347158E-01  0.35744000000E-01  0.51099999109E-03 0.  1.
       22    1    1    2    0    0  0.99102282989E-02 -0.11007024132E-02 -0.34317771113E-01  0.35737005818E-01  0.00000000000E+00 0.  1.
  9000001    1    1    2    0    0 -0.99102282989E-02  0.11007024132E-02  0.34317771113E-01  0.35750994182E-01  0.10000000475E-02 0. -1.
</event>
<event>
 4   0  0.2441219E-02  0.9118800E+02  0.7818609E-02  0.1379984E+01
      -11   -1    0    0    0    0  0.00000000000E+00  0.00000000000E+00  0.35740347158E-01  0.35744000000E-01  0.51099999109E-03 0.  1.
       11   -1    0    0    0    0 -0.00000000000E+00 -0.00000000000E+00 -0.35740347158E-01  0.35744000000E-01  0.51099999109E-03 0. -1.
       22    1    1    2    0    0 -0.12252201801E-01  0.26865791851E-01  0.20130731833E-01  0.35737005818E-01  0.00000000000E+00 0.  1.
  9000001    1    1    2    0    0  0.12252201801E-01 -0.26865791851E-01 -0.20130731833E-01  0.35750994182E-01  0.10000000475E-02 0. -1.
</event>
<event>
 4   0  0.2441219E-02  0.9118800E+02  0.7818609E-02  0.1379984E+01
      -11   -1    0    0    0    0  0.00000000000E+00  0.00000000000E+00  0.35740347158E-01  0.35744000000E-01  0.51099999109E-03 0.  1.
       11   -1    0    0    0    0 -0.00000000000E+00 -0.00000000000E+00 -0.35740347158E-01  0.35744000000E-01  0.51099999109E-03 0. -1.
       22    1    1    2    0    0 -0.32528982915E-02 -0.13249502418E-01  0.33030333381E-01  0.35737005818E-01  0.00000000000E+00 0.  1.
  9000001    1    1    2    0    0  0.32528982915E-02  0.13249502418E-01 -0.33030333381E-01  0.35750994182E-01  0.10000000475E-02 0. -1.
</event>
<event>
 4   0  0.2441219E-02  0.9118800E+02  0.7818609E-02  0.1379984E+01
      -11   -1    0    0    0    0  0.00000000000E+00  0.00000000000E+00  0.35740347158E-01  0.35744000000E-01  0.51099999109E-03 0.  1.
       11   -1    0    0    0    0 -0.00000000000E+00 -0.00000000000E+00 -0.35740347158E-01  0.35744000000E-01  0.51099999109E-03 0. -1.
       22    1    1    2    0    0 -0.62792805841E-02  0.78178073171E-02  0.34301400977E-01  0.35737005818E-01  0.00000000000E+00 0.  1.
  9000001    1    1    2    0    0  0.62792805841E-02 -0.78178073171E-02 -0.34301400977E-01  0.35750994182E-01  0.10000000475E-02 0. -1.
</event>
<event>
 4   0  0.2441219E-02  0.9118800E+02  0.7818609E-02  0.1379984E+01
      -11   -1    0    0    0    0  0.00000000000E+00  0.00000000000E+00  0.35740347158E-01  0.35744000000E-01  0.51099999109E-03 0.  1.
       11   -1    0    0    0    0 -0.00000000000E+00 -0.00000000000E+00 -0.35740347158E-01  0.35744000000E-01  0.51099999109E-03 0. -1.
       22    1    1    2    0    0 -0.14534196402E-01 -0.92974725093E-02  0.31296129549E-01  0.35737005818E-01  0.00000000000E+00 0.  1.
  9000001    1    1    2    0    0  0.14534196402E-01  0.92974725093E-02 -0.31296129549E-01  0.35750994182E-01  0.10000000475E-02 0. -1.
</event>
<event>
 4   0  0.2441219E-02  0.9118800E+02  0.7818609E-02  0.1379984E+01
      -11   -1    0    0    0    0  0.00000000000E+00  0.00000000000E+00  0.35740347158E-01  0.35744000000E-01  0.51099999109E-03 0.  1.
       11   -1    0    0    0    0 -0.00000000000E+00 -0.00000000000E+00 -0.35740347158E-01  0.35744000000E-01  0.51099999109E-03 0. -1.
       22    1    1    2    0    0 -0.89039064594E-03 -0.88958063348E-02  0.34600656338E-01  0.35737005818E-01  0.00000000000E+00 0.  1.
  9000001    1    1    2    0    0  0.89039064594E-03  0.88958063348E-02 -0.34600656338E-01  0.35750994182E-01  0.10000000475E-02 0. -1.
</event>
<event>
 4   0  0.2441219E-02  0.9118800E+02  0.7818609E-02  0.1379984E+01
      -11   -1    0    0    0    0  0.00000000000E+00  0.00000000000E+00  0.35740347158E-01  0.35744000000E-01  0.51099999109E-03 0. -1.
       11   -1    0    0    0    0 -0.00000000000E+00 -0.00000000000E+00 -0.35740347158E-01  0.35744000000E-01  0.51099999109E-03 0.  1.
       22    1    1    2    0    0  0.30974527476E-02 -0.50457791939E-02  0.35243148039E-01  0.35737005818E-01  0.00000000000E+00 0. -1.
  9000001    1    1    2    0    0 -0.30974527476E-02  0.50457791939E-02 -0.35243148039E-01  0.35750994182E-01  0.10000000475E-02 0.  1.
</event>
<event>
 4   0  0.2441219E-02  0.9118800E+02  0.7818609E-02  0.1379984E+01
      -11   -1    0    0    0    0  0.00000000000E+00  0.00000000000E+00  0.35740347158E-01  0.35744000000E-01  0.51099999109E-03 0.  1.
       11   -1    0    0    0    0 -0.00000000000E+00 -0.00000000000E+00 -0.35740347158E-01  0.35744000000E-01  0.51099999109E-03 0. -1.
       22    1    1    2    0    0  0.71375997141E-03  0.31028654899E-02 -0.35594892293E-01  0.35737005818E-01  0.00000000000E+00 0. -1.
  9000001    1    1    2    0    0 -0.71375997141E-03 -0.31028654899E-02  0.35594892293E-01  0.35750994182E-01  0.10000000475E-02 0.  1.
</event>
<event>
 4   0  0.2441219E-02  0.9118800E+02  0.7818609E-02  0.1379984E+01
      -11   -1    0    0    0    0  0.00000000000E+00  0.00000000000E+00  0.35740347158E-01  0.35744000000E-01  0.51099999109E-03 0. -1.
       11   -1    0    0    0    0 -0.00000000000E+00 -0.00000000000E+00 -0.35740347158E-01  0.35744000000E-01  0.51099999109E-03 0.  1.
       22    1    1    2    0    0  0.91663611506E-02 -0.43128672814E-02 -0.34271133392E-01  0.35737005818E-01  0.00000000000E+00 0.  1.
  9000001    1    1    2    0    0 -0.91663611506E-02  0.43128672814E-02  0.34271133392E-01  0.35750994182E-01  0.10000000475E-02 0. -1.
</event>
<event>
 4   0  0.2441219E-02  0.9118800E+02  0.7818609E-02  0.1379984E+01
      -11   -1    0    0    0    0  0.00000000000E+00  0.00000000000E+00  0.35740347158E-01  0.35744000000E-01  0.51099999109E-03 0.  1.
       11   -1    0    0    0    0 -0.00000000000E+00 -0.00000000000E+00 -0.35740347158E-01  0.35744000000E-01  0.51099999109E-03 0. -1.
       22    1    1    2    0    0 -0.49359580326E-02 -0.46300938346E-02 -0.35090342464E-01  0.35737005818E-01  0.00000000000E+00 0. -1.
  9000001    1    1    2    0    0  0.49359580326E-02  0.46300938346E-02  0.35090342464E-01  0.35750994182E-01  0.10000000475E-02 0.  1.
</event>
<event>
 4   0  0.2441219E-02  0.9118800E+02  0.7818609E-02  0.1379984E+01
      -11   -1    0    0    0    0  0.00000000000E+00  0.00000000000E+00  0.35740347158E-01  0.35744000000E-01  0.51099999109E-03 0.  1.
       11   -1    0    0    0    0 -0.00000000000E+00 -0.00000000000E+00 -0.35740347158E-01  0.35744000000E-01  0.51099999109E-03 0. -1.
       22    1    1    2    0    0 -0.56904558865E-02  0.13658762354E-01 -0.32529840264E-01  0.35737005818E-01  0.00000000000E+00 0. -1.
  9000001    1    1    2    0    0  0.56904558865E-02 -0.13658762354E-01  0.32529840264E-01  0.35750994182E-01  0.10000000475E-02 0.  1.
</event>
<event>
 4   0  0.2441219E-02  0.9118800E+02  0.7818609E-02  0.1379984E+01
      -11   -1    0    0    0    0  0.00000000000E+00  0.00000000000E+00  0.35740347158E-01  0.35744000000E-01  0.51099999109E-03 0.  1.
       11   -1    0    0    0    0 -0.00000000000E+00 -0.00000000000E+00 -0.35740347158E-01  0.35744000000E-01  0.51099999109E-03 0. -1.
       22    1    1    2    0    0  0.10520340182E-01  0.21899775634E-01 -0.26207934953E-01  0.35737005818E-01  0.00000000000E+00 0. -1.
  9000001    1    1    2    0    0 -0.10520340182E-01 -0.21899775634E-01  0.26207934953E-01  0.35750994182E-01  0.10000000475E-02 0.  1.
</event>
<event>
 4   0  0.2441219E-02  0.9118800E+02  0.7818609E-02  0.1379984E+01
      -11   -1    0    0    0    0  0.00000000000E+00  0.00000000000E+00  0.35740347158E-01  0.35744000000E-01  0.51099999109E-03 0. -1.
       11   -1    0    0    0    0 -0.00000000000E+00 -0.00000000000E+00 -0.35740347158E-01  0.35744000000E-01  0.51099999109E-03 0.  1.
       22    1    1    2    0    0  0.28388119731E-02 -0.23854132497E-02  0.35544120964E-01  0.35737005818E-01  0.00000000000E+00 0. -1.
  9000001    1    1    2    0    0 -0.28388119731E-02  0.23854132497E-02 -0.35544120964E-01  0.35750994182E-01  0.10000000475E-02 0.  1.
</event>
<event>
 4   0  0.2441219E-02  0.9118800E+02  0.7818609E-02  0.1379984E+01
      -11   -1    0    0    0    0  0.00000000000E+00  0.00000000000E+00  0.35740347158E-01  0.35744000000E-01  0.51099999109E-03 0.  1.
       11   -1    0    0    0    0 -0.00000000000E+00 -0.00000000000E+00 -0.35740347158E-01  0.35744000000E-01  0.51099999109E-03 0. -1.
       22    1    1    2    0    0 -0.60826813267E-02 -0.19892099293E-02  0.35159317636E-01  0.35737005818E-01  0.00000000000E+00 0.  1.
  9000001    1    1    2    0    0  0.60826813267E-02  0.19892099293E-02 -0.35159317636E-01  0.35750994182E-01  0.10000000475E-02 0. -1.
</event>
<event>
 4   0  0.2441219E-02  0.9118800E+02  0.7818609E-02  0.1379984E+01
      -11   -1    0    0    0    0  0.00000000000E+00  0.00000000000E+00  0.35740347158E-01  0.35744000000E-01  0.51099999109E-03 0.  1.
       11   -1    0    0    0    0 -0.00000000000E+00 -0.00000000000E+00 -0.35740347158E-01  0.35744000000E-01  0.51099999109E-03 0. -1.
       22    1    1    2    0    0  0.70839158220E-02  0.76676652533E-02 -0.34178335698E-01  0.35737005818E-01  0.00000000000E+00 0. -1.
  9000001    1    1    2    0    0 -0.70839158220E-02 -0.76676652533E-02  0.34178335698E-01  0.35750994182E-01  0.10000000475E-02 0.  1.
</event>
<event>
 4   0  0.2441219E-02  0.9118800E+02  0.7818609E-02  0.1379984E+01
      -11   -1    0    0    0    0  0.00000000000E+00  0.00000000000E+00  0.35740347158E-01  0.35744000000E-01  0.51099999109E-03 0. -1.
       11   -1    0    0    0    0 -0.00000000000E+00 -0.00000000000E+00 -0.35740347158E-01  0.35744000000E-01  0.51099999109E-03 0.  1.
       22    1    1    2    0    0 -0.79385476692E-02 -0.74922620562E-02 -0.34029091305E-01  0.35737005818E-01  0.00000000000E+00 0.  1.
  9000001    1    1    2    0    0  0.79385476692E-02  0.74922620562E-02  0.34029091305E-01  0.35750994182E-01  0.10000000475E-02 0. -1.
</event>
<event>
 4   0  0.2441219E-02  0.9118800E+02  0.7818609E-02  0.1379984E+01
      -11   -1    0    0    0    0  0.00000000000E+00  0.00000000000E+00  0.35740347158E-01  0.35744000000E-01  0.51099999109E-03 0.  1.
       11   -1    0    0    0    0 -0.00000000000E+00 -0.00000000000E+00 -0.35740347158E-01  0.35744000000E-01  0.51099999109E-03 0. -1.
       22    1    1    2    0    0  0.40458620528E-02  0.17280415450E-02 -0.35465172459E-01  0.35737005818E-01  0.00000000000E+00 0. -1.
  9000001    1    1    2    0    0 -0.40458620528E-02 -0.17280415450E-02  0.35465172459E-01  0.35750994182E-01  0.10000000475E-02 0.  1.
</event>
<event>
 4   0  0.2441219E-02  0.9118800E+02  0.7818609E-02  0.1379984E+01
      -11   -1    0    0    0    0  0.00000000000E+00  0.00000000000E+00  0.35740347158E-01  0.35744000000E-01  0.51099999109E-03 0. -1.
       11   -1    0    0    0    0 -0.00000000000E+00 -0.00000000000E+00 -0.35740347158E-01  0.35744000000E-01  0.51099999109E-03 0.  1.
       22    1    1    2    0    0  0.45081944239E-02 -0.36330859243E-02  0.35264861471E-01  0.35737005818E-01  0.00000000000E+00 0. -1.
  9000001    1    1    2    0    0 -0.45081944239E-02  0.36330859243E-02 -0.35264861471E-01  0.35750994182E-01  0.10000000475E-02 0.  1.
</event>
<event>
 4   0  0.2441219E-02  0.9118800E+02  0.7818609E-02  0.1379984E+01
      -11   -1    0    0    0    0  0.00000000000E+00  0.00000000000E+00  0.35740347158E-01  0.35744000000E-01  0.51099999109E-03 0.  1.
       11   -1    0    0    0    0 -0.00000000000E+00 -0.00000000000E+00 -0.35740347158E-01  0.35744000000E-01  0.51099999109E-03 0. -1.
       22    1    1    2    0    0 -0.11970655240E-01 -0.25532882620E-02 -0.33575552372E-01  0.35737005818E-01  0.00000000000E+00 0. -1.
  9000001    1    1    2    0    0  0.11970655240E-01  0.25532882620E-02  0.33575552372E-01  0.35750994182E-01  0.10000000475E-02 0.  1.
</event>
<event>
 4   0  0.2441219E-02  0.9118800E+02  0.7818609E-02  0.1379984E+01
      -11   -1    0    0    0    0  0.00000000000E+00  0.00000000000E+00  0.35740347158E-01  0.35744000000E-01  0.51099999109E-03 0. -1.
       11   -1    0    0    0    0 -0.00000000000E+00 -0.00000000000E+00 -0.35740347158E-01  0.35744000000E-01  0.51099999109E-03 0.  1.
       22    1    1    2    0    0  0.13351033157E-01 -0.22294993537E-01 -0.24531953891E-01  0.35737005818E-01  0.00000000000E+00 0.  1.
  9000001    1    1    2    0    0 -0.13351033157E-01  0.22294993537E-01  0.24531953891E-01  0.35750994182E-01  0.10000000475E-02 0. -1.
</event>
<event>
 4   0  0.2441219E-02  0.9118800E+02  0.7818609E-02  0.1379984E+01
      -11   -1    0    0    0    0  0.00000000000E+00  0.00000000000E+00  0.35740347158E-01  0.35744000000E-01  0.51099999109E-03 0.  1.
       11   -1    0    0    0    0 -0.00000000000E+00 -0.00000000000E+00 -0.35740347158E-01  0.35744000000E-01  0.51099999109E-03 0. -1.
       22    1    1    2    0    0  0.74584891460E-02 -0.63791746240E-02  0.34362925598E-01  0.35737005818E-01  0.00000000000E+00 0.  1.
  9000001    1    1    2    0    0 -0.74584891460E-02  0.63791746240E-02 -0.34362925598E-01  0.35750994182E-01  0.10000000475E-02 0. -1.
</event>
<event>
 4   0  0.2441219E-02  0.9118800E+02  0.7818609E-02  0.1379984E+01
      -11   -1    0    0    0    0  0.00000000000E+00  0.00000000000E+00  0.35740347158E-01  0.35744000000E-01  0.51099999109E-03 0.  1.
       11   -1    0    0    0    0 -0.00000000000E+00 -0.00000000000E+00 -0.35740347158E-01  0.35744000000E-01  0.51099999109E-03 0. -1.
       22    1    1    2    0    0  0.44193855247E-02 -0.25548747614E-01  0.24593985277E-01  0.35737005818E-01  0.00000000000E+00 0.  1.
  9000001    1    1    2    0    0 -0.44193855247E-02  0.25548747614E-01 -0.24593985277E-01  0.35750994182E-01  0.10000000475E-02 0. -1.
</event>
<event>
 4   0  0.2441219E-02  0.9118800E+02  0.7818609E-02  0.1379984E+01
      -11   -1    0    0    0    0  0.00000000000E+00  0.00000000000E+00  0.35740347158E-01  0.35744000000E-01  0.51099999109E-03 0. -1.
       11   -1    0    0    0    0 -0.00000000000E+00 -0.00000000000E+00 -0.35740347158E-01  0.35744000000E-01  0.51099999109E-03 0.  1.
       22    1    1    2    0    0  0.26266727224E-02  0.20692874090E-02 -0.35580222384E-01  0.35737005818E-01  0.00000000000E+00 0.  1.
  9000001    1    1    2    0    0 -0.26266727224E-02 -0.20692874090E-02  0.35580222384E-01  0.35750994182E-01  0.10000000475E-02 0. -1.
</event>
<event>
 4   0  0.2441219E-02  0.9118800E+02  0.7818609E-02  0.1379984E+01
      -11   -1    0    0    0    0  0.00000000000E+00  0.00000000000E+00  0.35740347158E-01  0.35744000000E-01  0.51099999109E-03 0.  1.
       11   -1    0    0    0    0 -0.00000000000E+00 -0.00000000000E+00 -0.35740347158E-01  0.35744000000E-01  0.51099999109E-03 0. -1.
       22    1    1    2    0    0  0.58002791419E-02  0.13055404641E-02 -0.35238982829E-01  0.35737005818E-01  0.00000000000E+00 0. -1.
  9000001    1    1    2    0    0 -0.58002791419E-02 -0.13055404641E-02  0.35238982829E-01  0.35750994182E-01  0.10000000475E-02 0.  1.
</event>
<event>
 4   0  0.2441219E-02  0.9118800E+02  0.7818609E-02  0.1379984E+01
      -11   -1    0    0    0    0  0.00000000000E+00  0.00000000000E+00  0.35740347158E-01  0.35744000000E-01  0.51099999109E-03 0.  1.
       11   -1    0    0    0    0 -0.00000000000E+00 -0.00000000000E+00 -0.35740347158E-01  0.35744000000E-01  0.51099999109E-03 0. -1.
       22    1    1    2    0    0  0.64897141302E-02  0.14408760246E-01 -0.32053156218E-01  0.35737005818E-01  0.00000000000E+00 0. -1.
  9000001    1    1    2    0    0 -0.64897141302E-02 -0.14408760246E-01  0.32053156218E-01  0.35750994182E-01  0.10000000475E-02 0.  1.
</event>
<event>
 4   0  0.2441219E-02  0.9118800E+02  0.7818609E-02  0.1379984E+01
      -11   -1    0    0    0    0  0.00000000000E+00  0.00000000000E+00  0.35740347158E-01  0.35744000000E-01  0.51099999109E-03 0. -1.
       11   -1    0    0    0    0 -0.00000000000E+00 -0.00000000000E+00 -0.35740347158E-01  0.35744000000E-01  0.51099999109E-03 0.  1.
       22    1    1    2    0    0  0.72756085019E-02 -0.15541968573E-01 -0.31347189964E-01  0.35737005818E-01  0.00000000000E+00 0.  1.
  9000001    1    1    2    0    0 -0.72756085019E-02  0.15541968573E-01  0.31347189964E-01  0.35750994182E-01  0.10000000475E-02 0. -1.
</event>
<event>
 4   0  0.2441219E-02  0.9118800E+02  0.7818609E-02  0.1379984E+01
      -11   -1    0    0    0    0  0.00000000000E+00  0.00000000000E+00  0.35740347158E-01  0.35744000000E-01  0.51099999109E-03 0.  1.
       11   -1    0    0    0    0 -0.00000000000E+00 -0.00000000000E+00 -0.35740347158E-01  0.35744000000E-01  0.51099999109E-03 0. -1.
       22    1    1    2    0    0  0.17686415203E-02  0.33948544438E-02  0.35531400976E-01  0.35737005818E-01  0.00000000000E+00 0.  1.
  9000001    1    1    2    0    0 -0.17686415203E-02 -0.33948544438E-02 -0.35531400976E-01  0.35750994182E-01  0.10000000475E-02 0. -1.
</event>
<event>
 4   0  0.2441219E-02  0.9118800E+02  0.7818609E-02  0.1379984E+01
      -11   -1    0    0    0    0  0.00000000000E+00  0.00000000000E+00  0.35740347158E-01  0.35744000000E-01  0.51099999109E-03 0.  1.
       11   -1    0    0    0    0 -0.00000000000E+00 -0.00000000000E+00 -0.35740347158E-01  0.35744000000E-01  0.51099999109E-03 0. -1.
       22    1    1    2    0    0  0.68898644918E-02  0.33376855345E-03  0.35064967570E-01  0.35737005818E-01  0.00000000000E+00 0.  1.
  9000001    1    1    2    0    0 -0.68898644918E-02 -0.33376855345E-03 -0.35064967570E-01  0.35750994182E-01  0.10000000475E-02 0. -1.
</event>
<event>
 4   0  0.2441219E-02  0.9118800E+02  0.7818609E-02  0.1379984E+01
      -11   -1    0    0    0    0  0.00000000000E+00  0.00000000000E+00  0.35740347158E-01  0.35744000000E-01  0.51099999109E-03 0. -1.
       11   -1    0    0    0    0 -0.00000000000E+00 -0.00000000000E+00 -0.35740347158E-01  0.35744000000E-01  0.51099999109E-03 0.  1.
       22    1    1    2    0    0  0.33368261632E-02 -0.62276678101E-03 -0.35575431657E-01  0.35737005818E-01  0.00000000000E+00 0.  1.
  9000001    1    1    2    0    0 -0.33368261632E-02  0.62276678101E-03  0.35575431657E-01  0.35750994182E-01  0.10000000475E-02 0. -1.
</event>
<event>
 4   0  0.2441219E-02  0.9118800E+02  0.7818609E-02  0.1379984E+01
      -11   -1    0    0    0    0  0.00000000000E+00  0.00000000000E+00  0.35740347158E-01  0.35744000000E-01  0.51099999109E-03 0. -1.
       11   -1    0    0    0    0 -0.00000000000E+00 -0.00000000000E+00 -0.35740347158E-01  0.35744000000E-01  0.51099999109E-03 0.  1.
       22    1    1    2    0    0 -0.50458546165E-02 -0.98853475434E-02 -0.33969881366E-01  0.35737005818E-01  0.00000000000E+00 0.  1.
  9000001    1    1    2    0    0  0.50458546165E-02  0.98853475434E-02  0.33969881366E-01  0.35750994182E-01  0.10000000475E-02 0. -1.
</event>
<event>
 4   0  0.2441219E-02  0.9118800E+02  0.7818609E-02  0.1379984E+01
      -11   -1    0    0    0    0  0.00000000000E+00  0.00000000000E+00  0.35740347158E-01  0.35744000000E-01  0.51099999109E-03 0.  1.
       11   -1    0    0    0    0 -0.00000000000E+00 -0.00000000000E+00 -0.35740347158E-01  0.35744000000E-01  0.51099999109E-03 0. -1.
       22    1    1    2    0    0  0.13158205328E-01  0.16905515682E-01  0.28604173768E-01  0.35737005818E-01  0.00000000000E+00 0.  1.
  9000001    1    1    2    0    0 -0.13158205328E-01 -0.16905515682E-01 -0.28604173768E-01  0.35750994182E-01  0.10000000475E-02 0. -1.
</event>
<event>
 4   0  0.2441219E-02  0.9118800E+02  0.7818609E-02  0.1379984E+01
      -11   -1    0    0    0    0  0.00000000000E+00  0.00000000000E+00  0.35740347158E-01  0.35744000000E-01  0.51099999109E-03 0.  1.
       11   -1    0    0    0    0 -0.00000000000E+00 -0.00000000000E+00 -0.35740347158E-01  0.35744000000E-01  0.51099999109E-03 0. -1.
       22    1    1    2    0    0  0.22597878359E-02 -0.64625133014E-02 -0.35075103216E-01  0.35737005818E-01  0.00000000000E+00 0. -1.
  9000001    1    1    2    0    0 -0.22597878359E-02  0.64625133014E-02  0.35075103216E-01  0.35750994182E-01  0.10000000475E-02 0.  1.
</event>
<event>
 4   0  0.2441219E-02  0.9118800E+02  0.7818609E-02  0.1379984E+01
      -11   -1    0    0    0    0  0.00000000000E+00  0.00000000000E+00  0.35740347158E-01  0.35744000000E-01  0.51099999109E-03 0.  1.
       11   -1    0    0    0    0 -0.00000000000E+00 -0.00000000000E+00 -0.35740347158E-01  0.35744000000E-01  0.51099999109E-03 0. -1.
       22    1    1    2    0    0 -0.19706004030E-02 -0.30154964476E-02  0.35554986993E-01  0.35737005818E-01  0.00000000000E+00 0.  1.
  9000001    1    1    2    0    0  0.19706004030E-02  0.30154964476E-02 -0.35554986993E-01  0.35750994182E-01  0.10000000475E-02 0. -1.
</event>
<event>
 4   0  0.2441219E-02  0.9118800E+02  0.7818609E-02  0.1379984E+01
      -11   -1    0    0    0    0  0.00000000000E+00  0.00000000000E+00  0.35740347158E-01  0.35744000000E-01  0.51099999109E-03 0. -1.
       11   -1    0    0    0    0 -0.00000000000E+00 -0.00000000000E+00 -0.35740347158E-01  0.35744000000E-01  0.51099999109E-03 0.  1.
       22    1    1    2    0    0  0.31905992556E-02 -0.98603743725E-03  0.35580632252E-01  0.35737005818E-01  0.00000000000E+00 0. -1.
  9000001    1    1    2    0    0 -0.31905992556E-02  0.98603743725E-03 -0.35580632252E-01  0.35750994182E-01  0.10000000475E-02 0.  1.
</event>
<event>
 4   0  0.2441219E-02  0.9118800E+02  0.7818609E-02  0.1379984E+01
      -11   -1    0    0    0    0  0.00000000000E+00  0.00000000000E+00  0.35740347158E-01  0.35744000000E-01  0.51099999109E-03 0. -1.
       11   -1    0    0    0    0 -0.00000000000E+00 -0.00000000000E+00 -0.35740347158E-01  0.35744000000E-01  0.51099999109E-03 0.  1.
       22    1    1    2    0    0 -0.29914483753E-01  0.41119065111E-02 -0.19114117074E-01  0.35737005818E-01  0.00000000000E+00 0.  1.
  9000001    1    1    2    0    0  0.29914483753E-01 -0.41119065111E-02  0.19114117074E-01  0.35750994182E-01  0.10000000475E-02 0. -1.
</event>
<event>
 4   0  0.2441219E-02  0.9118800E+02  0.7818609E-02  0.1379984E+01
      -11   -1    0    0    0    0  0.00000000000E+00  0.00000000000E+00  0.35740347158E-01  0.35744000000E-01  0.51099999109E-03 0. -1.
       11   -1    0    0    0    0 -0.00000000000E+00 -0.00000000000E+00 -0.35740347158E-01  0.35744000000E-01  0.51099999109E-03 0.  1.
       22    1    1    2    0    0 -0.21282453084E-01 -0.21934077371E-01  0.18522608496E-01  0.35737005818E-01  0.00000000000E+00 0. -1.
  9000001    1    1    2    0    0  0.21282453084E-01  0.21934077371E-01 -0.18522608496E-01  0.35750994182E-01  0.10000000475E-02 0.  1.
</event>
<event>
 4   0  0.2441219E-02  0.9118800E+02  0.7818609E-02  0.1379984E+01
      -11   -1    0    0    0    0  0.00000000000E+00  0.00000000000E+00  0.35740347158E-01  0.35744000000E-01  0.51099999109E-03 0.  1.
       11   -1    0    0    0    0 -0.00000000000E+00 -0.00000000000E+00 -0.35740347158E-01  0.35744000000E-01  0.51099999109E-03 0. -1.
       22    1    1    2    0    0  0.50797925093E-02 -0.14136722911E-01 -0.32426568709E-01  0.35737005818E-01  0.00000000000E+00 0. -1.
  9000001    1    1    2    0    0 -0.50797925093E-02  0.14136722911E-01  0.32426568709E-01  0.35750994182E-01  0.10000000475E-02 0.  1.
</event>
<event>
 4   0  0.2441219E-02  0.9118800E+02  0.7818609E-02  0.1379984E+01
      -11   -1    0    0    0    0  0.00000000000E+00  0.00000000000E+00  0.35740347158E-01  0.35744000000E-01  0.51099999109E-03 0. -1.
       11   -1    0    0    0    0 -0.00000000000E+00 -0.00000000000E+00 -0.35740347158E-01  0.35744000000E-01  0.51099999109E-03 0.  1.
       22    1    1    2    0    0  0.30016080996E-01  0.15616875986E-01 -0.11501376045E-01  0.35737005818E-01  0.00000000000E+00 0.  1.
  9000001    1    1    2    0    0 -0.30016080996E-01 -0.15616875986E-01  0.11501376045E-01  0.35750994182E-01  0.10000000475E-02 0. -1.
</event>
<event>
 4   0  0.2441219E-02  0.9118800E+02  0.7818609E-02  0.1379984E+01
      -11   -1    0    0    0    0  0.00000000000E+00  0.00000000000E+00  0.35740347158E-01  0.35744000000E-01  0.51099999109E-03 0.  1.
       11   -1    0    0    0    0 -0.00000000000E+00 -0.00000000000E+00 -0.35740347158E-01  0.35744000000E-01  0.51099999109E-03 0. -1.
       22    1    1    2    0    0 -0.11501918795E-02 -0.76251064565E-02 -0.34895105603E-01  0.35737005818E-01  0.00000000000E+00 0. -1.
  9000001    1    1    2    0    0  0.11501918795E-02  0.76251064565E-02  0.34895105603E-01  0.35750994182E-01  0.10000000475E-02 0.  1.
</event>
<event>
 4   0  0.2441219E-02  0.9118800E+02  0.7818609E-02  0.1379984E+01
      -11   -1    0    0    0    0  0.00000000000E+00  0.00000000000E+00  0.35740347158E-01  0.35744000000E-01  0.51099999109E-03 0. -1.
       11   -1    0    0    0    0 -0.00000000000E+00 -0.00000000000E+00 -0.35740347158E-01  0.35744000000E-01  0.51099999109E-03 0.  1.
       22    1    1    2    0    0  0.17210396535E-01  0.14629001225E-02  0.31285711742E-01  0.35737005818E-01  0.00000000000E+00 0. -1.
  9000001    1    1    2    0    0 -0.17210396535E-01 -0.14629001225E-02 -0.31285711742E-01  0.35750994182E-01  0.10000000475E-02 0.  1.
</event>
<event>
 4   0  0.2441219E-02  0.9118800E+02  0.7818609E-02  0.1379984E+01
      -11   -1    0    0    0    0  0.00000000000E+00  0.00000000000E+00  0.35740347158E-01  0.35744000000E-01  0.51099999109E-03 0.  1.
       11   -1    0    0    0    0 -0.00000000000E+00 -0.00000000000E+00 -0.35740347158E-01  0.35744000000E-01  0.51099999109E-03 0. -1.
       22    1    1    2    0    0  0.30807393208E-01 -0.19067929046E-02 -0.18011170129E-01  0.35737005818E-01  0.00000000000E+00 0. -1.
  9000001    1    1    2    0    0 -0.30807393208E-01  0.19067929046E-02  0.18011170129E-01  0.35750994182E-01  0.10000000475E-02 0.  1.
</event>
<event>
 4   0  0.2441219E-02  0.9118800E+02  0.7818609E-02  0.1379984E+01
      -11   -1    0    0    0    0  0.00000000000E+00  0.00000000000E+00  0.35740347158E-01  0.35744000000E-01  0.51099999109E-03 0. -1.
       11   -1    0    0    0    0 -0.00000000000E+00 -0.00000000000E+00 -0.35740347158E-01  0.35744000000E-01  0.51099999109E-03 0.  1.
       22    1    1    2    0    0  0.84615741599E-02 -0.30205181723E-01 -0.17122568285E-01  0.35737005818E-01  0.00000000000E+00 0.  1.
  9000001    1    1    2    0    0 -0.84615741599E-02  0.30205181723E-01  0.17122568285E-01  0.35750994182E-01  0.10000000475E-02 0. -1.
</event>
<event>
 4   0  0.2441219E-02  0.9118800E+02  0.7818609E-02  0.1379984E+01
      -11   -1    0    0    0    0  0.00000000000E+00  0.00000000000E+00  0.35740347158E-01  0.35744000000E-01  0.51099999109E-03 0. -1.
       11   -1    0    0    0    0 -0.00000000000E+00 -0.00000000000E+00 -0.35740347158E-01  0.35744000000E-01  0.51099999109E-03 0.  1.
       22    1    1    2    0    0  0.42388184307E-02  0.93767052332E-02  0.34223433524E-01  0.35737005818E-01  0.00000000000E+00 0. -1.
  9000001    1    1    2    0    0 -0.42388184307E-02 -0.93767052332E-02 -0.34223433524E-01  0.35750994182E-01  0.10000000475E-02 0.  1.
</event>
<event>
 4   0  0.2441219E-02  0.9118800E+02  0.7818609E-02  0.1379984E+01
      -11   -1    0    0    0    0  0.00000000000E+00  0.00000000000E+00  0.35740347158E-01  0.35744000000E-01  0.51099999109E-03 0.  1.
       11   -1    0    0    0    0 -0.00000000000E+00 -0.00000000000E+00 -0.35740347158E-01  0.35744000000E-01  0.51099999109E-03 0. -1.
       22    1    1    2    0    0  0.50014486338E-02 -0.47057986111E-02  0.35070993084E-01  0.35737005818E-01  0.00000000000E+00 0.  1.
  9000001    1    1    2    0    0 -0.50014486338E-02  0.47057986111E-02 -0.35070993084E-01  0.35750994182E-01  0.10000000475E-02 0. -1.
</event>
<event>
 4   0  0.2441219E-02  0.9118800E+02  0.7818609E-02  0.1379984E+01
      -11   -1    0    0    0    0  0.00000000000E+00  0.00000000000E+00  0.35740347158E-01  0.35744000000E-01  0.51099999109E-03 0. -1.
       11   -1    0    0    0    0 -0.00000000000E+00 -0.00000000000E+00 -0.35740347158E-01  0.35744000000E-01  0.51099999109E-03 0.  1.
       22    1    1    2    0    0  0.26750478684E-02  0.42353748689E-02 -0.35384167413E-01  0.35737005818E-01  0.00000000000E+00 0.  1.
  9000001    1    1    2    0    0 -0.26750478684E-02 -0.42353748689E-02  0.35384167413E-01  0.35750994182E-01  0.10000000475E-02 0. -1.
</event>
<event>
 4   0  0.2441219E-02  0.9118800E+02  0.7818609E-02  0.1379984E+01
      -11   -1    0    0    0    0  0.00000000000E+00  0.00000000000E+00  0.35740347158E-01  0.35744000000E-01  0.51099999109E-03 0.  1.
       11   -1    0    0    0    0 -0.00000000000E+00 -0.00000000000E+00 -0.35740347158E-01  0.35744000000E-01  0.51099999109E-03 0. -1.
       22    1    1    2    0    0 -0.35342811417E-02 -0.31621462579E-02  0.35420943984E-01  0.35737005818E-01  0.00000000000E+00 0.  1.
  9000001    1    1    2    0    0  0.35342811417E-02  0.31621462579E-02 -0.35420943984E-01  0.35750994182E-01  0.10000000475E-02 0. -1.
</event>
<event>
 4   0  0.2441219E-02  0.9118800E+02  0.7818609E-02  0.1379984E+01
      -11   -1    0    0    0    0  0.00000000000E+00  0.00000000000E+00  0.35740347158E-01  0.35744000000E-01  0.51099999109E-03 0. -1.
       11   -1    0    0    0    0 -0.00000000000E+00 -0.00000000000E+00 -0.35740347158E-01  0.35744000000E-01  0.51099999109E-03 0.  1.
       22    1    1    2    0    0  0.33702991236E-01  0.80824355419E-02 -0.87129904369E-02  0.35737005818E-01  0.00000000000E+00 0.  1.
  9000001    1    1    2    0    0 -0.33702991236E-01 -0.80824355419E-02  0.87129904369E-02  0.35750994182E-01  0.10000000475E-02 0. -1.
</event>
<event>
 4   0  0.2441219E-02  0.9118800E+02  0.7818609E-02  0.1379984E+01
      -11   -1    0    0    0    0  0.00000000000E+00  0.00000000000E+00  0.35740347158E-01  0.35744000000E-01  0.51099999109E-03 0. -1.
       11   -1    0    0    0    0 -0.00000000000E+00 -0.00000000000E+00 -0.35740347158E-01  0.35744000000E-01  0.51099999109E-03 0.  1.
       22    1    1    2    0    0 -0.25390089002E-01 -0.22678287799E-01 -0.10870705030E-01  0.35737005818E-01  0.00000000000E+00 0.  1.
  9000001    1    1    2    0    0  0.25390089002E-01  0.22678287799E-01  0.10870705030E-01  0.35750994182E-01  0.10000000475E-02 0. -1.
</event>
<event>
 4   0  0.2441219E-02  0.9118800E+02  0.7818609E-02  0.1379984E+01
      -11   -1    0    0    0    0  0.00000000000E+00  0.00000000000E+00  0.35740347158E-01  0.35744000000E-01  0.51099999109E-03 0. -1.
       11   -1    0    0    0    0 -0.00000000000E+00 -0.00000000000E+00 -0.35740347158E-01  0.35744000000E-01  0.51099999109E-03 0.  1.
       22    1    1    2    0    0  0.33141953742E-02 -0.10675305877E-02 -0.35566980085E-01  0.35737005818E-01  0.00000000000E+00 0.  1.
  9000001    1    1    2    0    0 -0.33141953742E-02  0.10675305877E-02  0.35566980085E-01  0.35750994182E-01  0.10000000475E-02 0. -1.
</event>
<event>
 4   0  0.2441219E-02  0.9118800E+02  0.7818609E-02  0.1379984E+01
      -11   -1    0    0    0    0  0.00000000000E+00  0.00000000000E+00  0.35740347158E-01  0.35744000000E-01  0.51099999109E-03 0.  1.
       11   -1    0    0    0    0 -0.00000000000E+00 -0.00000000000E+00 -0.35740347158E-01  0.35744000000E-01  0.51099999109E-03 0. -1.
       22    1    1    2    0    0  0.26035012176E-01 -0.36793690849E-02  0.24202767797E-01  0.35737005818E-01  0.00000000000E+00 0.  1.
  9000001    1    1    2    0    0 -0.26035012176E-01  0.36793690849E-02 -0.24202767797E-01  0.35750994182E-01  0.10000000475E-02 0. -1.
</event>
<event>
 4   0  0.2441219E-02  0.9118800E+02  0.7818609E-02  0.1379984E+01
      -11   -1    0    0    0    0  0.00000000000E+00  0.00000000000E+00  0.35740347158E-01  0.35744000000E-01  0.51099999109E-03 0. -1.
       11   -1    0    0    0    0 -0.00000000000E+00 -0.00000000000E+00 -0.35740347158E-01  0.35744000000E-01  0.51099999109E-03 0.  1.
       22    1    1    2    0    0 -0.23174702210E-02  0.30573451442E-02 -0.35530487716E-01  0.35737005818E-01  0.00000000000E+00 0.  1.
  9000001    1    1    2    0    0  0.23174702210E-02 -0.30573451442E-02  0.35530487716E-01  0.35750994182E-01  0.10000000475E-02 0. -1.
</event>
<event>
 4   0  0.2441219E-02  0.9118800E+02  0.7818609E-02  0.1379984E+01
      -11   -1    0    0    0    0  0.00000000000E+00  0.00000000000E+00  0.35740347158E-01  0.35744000000E-01  0.51099999109E-03 0.  1.
       11   -1    0    0    0    0 -0.00000000000E+00 -0.00000000000E+00 -0.35740347158E-01  0.35744000000E-01  0.51099999109E-03 0. -1.
       22    1    1    2    0    0 -0.86428568359E-02 -0.88966258823E-02 -0.33515439106E-01  0.35737005818E-01  0.00000000000E+00 0. -1.
  9000001    1    1    2    0    0  0.86428568359E-02  0.88966258823E-02  0.33515439106E-01  0.35750994182E-01  0.10000000475E-02 0.  1.
</event>
<event>
 4   0  0.2441219E-02  0.9118800E+02  0.7818609E-02  0.1379984E+01
      -11   -1    0    0    0    0  0.00000000000E+00  0.00000000000E+00  0.35740347158E-01  0.35744000000E-01  0.51099999109E-03 0. -1.
       11   -1    0    0    0    0 -0.00000000000E+00 -0.00000000000E+00 -0.35740347158E-01  0.35744000000E-01  0.51099999109E-03 0.  1.
       22    1    1    2    0    0  0.48140278700E-02  0.94274793327E-02 -0.34133288063E-01  0.35737005818E-01  0.00000000000E+00 0.  1.
  9000001    1    1    2    0    0 -0.48140278700E-02 -0.94274793327E-02  0.34133288063E-01  0.35750994182E-01  0.10000000475E-02 0. -1.
</event>
<event>
 4   0  0.2441219E-02  0.9118800E+02  0.7818609E-02  0.1379984E+01
      -11   -1    0    0    0    0  0.00000000000E+00  0.00000000000E+00  0.35740347158E-01  0.35744000000E-01  0.51099999109E-03 0.  1.
       11   -1    0    0    0    0 -0.00000000000E+00 -0.00000000000E+00 -0.35740347158E-01  0.35744000000E-01  0.51099999109E-03 0. -1.
       22    1    1    2    0    0  0.23809538371E-01  0.47337996372E-02 -0.26226524901E-01  0.35737005818E-01  0.00000000000E+00 0. -1.
  9000001    1    1    2    0    0 -0.23809538371E-01 -0.47337996372E-02  0.26226524901E-01  0.35750994182E-01  0.10000000475E-02 0.  1.
</event>
<event>
 4   0  0.2441219E-02  0.9118800E+02  0.7818609E-02  0.1379984E+01
      -11   -1    0    0    0    0  0.00000000000E+00  0.00000000000E+00  0.35740347158E-01  0.35744000000E-01  0.51099999109E-03 0. -1.
       11   -1    0    0    0    0 -0.00000000000E+00 -0.00000000000E+00 -0.35740347158E-01  0.35744000000E-01  0.51099999109E-03 0.  1.
       22    1    1    2    0    0  0.25108954248E-01 -0.25218826385E-01 -0.32687608063E-02  0.35737005818E-01  0.00000000000E+00 0.  1.
  9000001    1    1    2    0    0 -0.25108954248E-01  0.25218826385E-01  0.32687608063E-02  0.35750994182E-01  0.10000000475E-02 0. -1.
</event>
<event>
 4   0  0.2441219E-02  0.9118800E+02  0.7818609E-02  0.1379984E+01
      -11   -1    0    0    0    0  0.00000000000E+00  0.00000000000E+00  0.35740347158E-01  0.35744000000E-01  0.51099999109E-03 0. -1.
       11   -1    0    0    0    0 -0.00000000000E+00 -0.00000000000E+00 -0.35740347158E-01  0.35744000000E-01  0.51099999109E-03 0.  1.
       22    1    1    2    0    0 -0.41028919216E-02 -0.34303703215E-03 -0.35499044893E-01  0.35737005818E-01  0.00000000000E+00 0.  1.
  9000001    1    1    2    0    0  0.41028919216E-02  0.34303703215E-03  0.35499044893E-01  0.35750994182E-01  0.10000000475E-02 0. -1.
</event>
<event>
 4   0  0.2441219E-02  0.9118800E+02  0.7818609E-02  0.1379984E+01
      -11   -1    0    0    0    0  0.00000000000E+00  0.00000000000E+00  0.35740347158E-01  0.35744000000E-01  0.51099999109E-03 0. -1.
       11   -1    0    0    0    0 -0.00000000000E+00 -0.00000000000E+00 -0.35740347158E-01  0.35744000000E-01  0.51099999109E-03 0.  1.
       22    1    1    2    0    0 -0.13633292351E-01 -0.33883645198E-02 -0.32860096020E-01  0.35737005818E-01  0.00000000000E+00 0.  1.
  9000001    1    1    2    0    0  0.13633292351E-01  0.33883645198E-02  0.32860096020E-01  0.35750994182E-01  0.10000000475E-02 0. -1.
</event>
<event>
 4   0  0.2441219E-02  0.9118800E+02  0.7818609E-02  0.1379984E+01
      -11   -1    0    0    0    0  0.00000000000E+00  0.00000000000E+00  0.35740347158E-01  0.35744000000E-01  0.51099999109E-03 0. -1.
       11   -1    0    0    0    0 -0.00000000000E+00 -0.00000000000E+00 -0.35740347158E-01  0.35744000000E-01  0.51099999109E-03 0.  1.
       22    1    1    2    0    0  0.28116800966E-01  0.17346019306E-01 -0.13626984354E-01  0.35737005818E-01  0.00000000000E+00 0.  1.
  9000001    1    1    2    0    0 -0.28116800966E-01 -0.17346019306E-01  0.13626984354E-01  0.35750994182E-01  0.10000000475E-02 0. -1.
</event>
<event>
 4   0  0.2441219E-02  0.9118800E+02  0.7818609E-02  0.1379984E+01
      -11   -1    0    0    0    0  0.00000000000E+00  0.00000000000E+00  0.35740347158E-01  0.35744000000E-01  0.51099999109E-03 0.  1.
       11   -1    0    0    0    0 -0.00000000000E+00 -0.00000000000E+00 -0.35740347158E-01  0.35744000000E-01  0.51099999109E-03 0. -1.
       22    1    1    2    0    0  0.12796589293E-01 -0.19037070730E-01 -0.27403846908E-01  0.35737005818E-01  0.00000000000E+00 0. -1.
  9000001    1    1    2    0    0 -0.12796589293E-01  0.19037070730E-01  0.27403846908E-01  0.35750994182E-01  0.10000000475E-02 0.  1.
</event>
<event>
 4   0  0.2441219E-02  0.9118800E+02  0.7818609E-02  0.1379984E+01
      -11   -1    0    0    0    0  0.00000000000E+00  0.00000000000E+00  0.35740347158E-01  0.35744000000E-01  0.51099999109E-03 0.  1.
       11   -1    0    0    0    0 -0.00000000000E+00 -0.00000000000E+00 -0.35740347158E-01  0.35744000000E-01  0.51099999109E-03 0. -1.
       22    1    1    2    0    0  0.50931719263E-02 -0.76613777778E-02 -0.34532542263E-01  0.35737005818E-01  0.00000000000E+00 0. -1.
  9000001    1    1    2    0    0 -0.50931719263E-02  0.76613777778E-02  0.34532542263E-01  0.35750994182E-01  0.10000000475E-02 0.  1.
</event>
<event>
 4   0  0.2441219E-02  0.9118800E+02  0.7818609E-02  0.1379984E+01
      -11   -1    0    0    0    0  0.00000000000E+00  0.00000000000E+00  0.35740347158E-01  0.35744000000E-01  0.51099999109E-03 0. -1.
       11   -1    0    0    0    0 -0.00000000000E+00 -0.00000000000E+00 -0.35740347158E-01  0.35744000000E-01  0.51099999109E-03 0.  1.
       22    1    1    2    0    0 -0.81790742558E-02 -0.28037950631E-02 -0.34675280279E-01  0.35737005818E-01  0.00000000000E+00 0.  1.
  9000001    1    1    2    0    0  0.81790742558E-02  0.28037950631E-02  0.34675280279E-01  0.35750994182E-01  0.10000000475E-02 0. -1.
</event>
<event>
 4   0  0.2441219E-02  0.9118800E+02  0.7818609E-02  0.1379984E+01
      -11   -1    0    0    0    0  0.00000000000E+00  0.00000000000E+00  0.35740347158E-01  0.35744000000E-01  0.51099999109E-03 0.  1.
       11   -1    0    0    0    0 -0.00000000000E+00 -0.00000000000E+00 -0.35740347158E-01  0.35744000000E-01  0.51099999109E-03 0. -1.
       22    1    1    2    0    0  0.86016353836E-02 -0.16898640344E-01 -0.30291606232E-01  0.35737005818E-01  0.00000000000E+00 0. -1.
  9000001    1    1    2    0    0 -0.86016353836E-02  0.16898640344E-01  0.30291606232E-01  0.35750994182E-01  0.10000000475E-02 0.  1.
</event>
<event>
 4   0  0.2441219E-02  0.9118800E+02  0.7818609E-02  0.1379984E+01
      -11   -1    0    0    0    0  0.00000000000E+00  0.00000000000E+00  0.35740347158E-01  0.35744000000E-01  0.51099999109E-03 0.  1.
       11   -1    0    0    0    0 -0.00000000000E+00 -0.00000000000E+00 -0.35740347158E-01  0.35744000000E-01  0.51099999109E-03 0. -1.
       22    1    1    2    0    0  0.13135656331E-01  0.15904652055E-01  0.29182703107E-01  0.35737005818E-01  0.00000000000E+00 0.  1.
  9000001    1    1    2    0    0 -0.13135656331E-01 -0.15904652055E-01 -0.29182703107E-01  0.35750994182E-01  0.10000000475E-02 0. -1.
</event>
<event>
 4   0  0.2441219E-02  0.9118800E+02  0.7818609E-02  0.1379984E+01
      -11   -1    0    0    0    0  0.00000000000E+00  0.00000000000E+00  0.35740347158E-01  0.35744000000E-01  0.51099999109E-03 0.  1.
       11   -1    0    0    0    0 -0.00000000000E+00 -0.00000000000E+00 -0.35740347158E-01  0.35744000000E-01  0.51099999109E-03 0. -1.
       22    1    1    2    0    0  0.21258011439E-02  0.40891056689E-02  0.35438591524E-01  0.35737005818E-01  0.00000000000E+00 0.  1.
  9000001    1    1    2    0    0 -0.21258011439E-02 -0.40891056689E-02 -0.35438591524E-01  0.35750994182E-01  0.10000000475E-02 0. -1.
</event>
<event>
 4   0  0.2441219E-02  0.9118800E+02  0.7818609E-02  0.1379984E+01
      -11   -1    0    0    0    0  0.00000000000E+00  0.00000000000E+00  0.35740347158E-01  0.35744000000E-01  0.51099999109E-03 0.  1.
       11   -1    0    0    0    0 -0.00000000000E+00 -0.00000000000E+00 -0.35740347158E-01  0.35744000000E-01  0.51099999109E-03 0. -1.
       22    1    1    2    0    0 -0.31319565524E-02  0.76939045292E-03 -0.35591185304E-01  0.35737005818E-01  0.00000000000E+00 0. -1.
  9000001    1    1    2    0    0  0.31319565524E-02 -0.76939045292E-03  0.35591185304E-01  0.35750994182E-01  0.10000000475E-02 0.  1.
</event>
<event>
 4   0  0.2441219E-02  0.9118800E+02  0.7818609E-02  0.1379984E+01
      -11   -1    0    0    0    0  0.00000000000E+00  0.00000000000E+00  0.35740347158E-01  0.35744000000E-01  0.51099999109E-03 0.  1.
       11   -1    0    0    0    0 -0.00000000000E+00 -0.00000000000E+00 -0.35740347158E-01  0.35744000000E-01  0.51099999109E-03 0. -1.
       22    1    1    2    0    0  0.15374617384E-01  0.16739190148E-02 -0.32217273632E-01  0.35737005818E-01  0.00000000000E+00 0. -1.
  9000001    1    1    2    0    0 -0.15374617384E-01 -0.16739190148E-02  0.32217273632E-01  0.35750994182E-01  0.10000000475E-02 0.  1.
</event>
<event>
 4   0  0.2441219E-02  0.9118800E+02  0.7818609E-02  0.1379984E+01
      -11   -1    0    0    0    0  0.00000000000E+00  0.00000000000E+00  0.35740347158E-01  0.35744000000E-01  0.51099999109E-03 0.  1.
       11   -1    0    0    0    0 -0.00000000000E+00 -0.00000000000E+00 -0.35740347158E-01  0.35744000000E-01  0.51099999109E-03 0. -1.
       22    1    1    2    0    0  0.41628427088E-02  0.16680794678E-01  0.31329784780E-01  0.35737005818E-01  0.00000000000E+00 0.  1.
  9000001    1    1    2    0    0 -0.41628427088E-02 -0.16680794678E-01 -0.31329784780E-01  0.35750994182E-01  0.10000000475E-02 0. -1.
</event>
<event>
 4   0  0.2441219E-02  0.9118800E+02  0.7818609E-02  0.1379984E+01
      -11   -1    0    0    0    0  0.00000000000E+00  0.00000000000E+00  0.35740347158E-01  0.35744000000E-01  0.51099999109E-03 0. -1.
       11   -1    0    0    0    0 -0.00000000000E+00 -0.00000000000E+00 -0.35740347158E-01  0.35744000000E-01  0.51099999109E-03 0.  1.
       22    1    1    2    0    0  0.40572052143E-02  0.76559761409E-02  0.34670718193E-01  0.35737005818E-01  0.00000000000E+00 0. -1.
  9000001    1    1    2    0    0 -0.40572052143E-02 -0.76559761409E-02 -0.34670718193E-01  0.35750994182E-01  0.10000000475E-02 0.  1.
</event>
<event>
 4   0  0.2441219E-02  0.9118800E+02  0.7818609E-02  0.1379984E+01
      -11   -1    0    0    0    0  0.00000000000E+00  0.00000000000E+00  0.35740347158E-01  0.35744000000E-01  0.51099999109E-03 0. -1.
       11   -1    0    0    0    0 -0.00000000000E+00 -0.00000000000E+00 -0.35740347158E-01  0.35744000000E-01  0.51099999109E-03 0.  1.
       22    1    1    2    0    0  0.25291669681E-01 -0.13843331166E-01 -0.21114620807E-01  0.35737005818E-01  0.00000000000E+00 0.  1.
  9000001    1    1    2    0    0 -0.25291669681E-01  0.13843331166E-01  0.21114620807E-01  0.35750994182E-01  0.10000000475E-02 0. -1.
</event>
<event>
 4   0  0.2441219E-02  0.9118800E+02  0.7818609E-02  0.1379984E+01
      -11   -1    0    0    0    0  0.00000000000E+00  0.00000000000E+00  0.35740347158E-01  0.35744000000E-01  0.51099999109E-03 0. -1.
       11   -1    0    0    0    0 -0.00000000000E+00 -0.00000000000E+00 -0.35740347158E-01  0.35744000000E-01  0.51099999109E-03 0.  1.
       22    1    1    2    0    0 -0.30586536519E-02  0.63962902999E-02  0.35026642618E-01  0.35737005818E-01  0.00000000000E+00 0. -1.
  9000001    1    1    2    0    0  0.30586536519E-02 -0.63962902999E-02 -0.35026642618E-01  0.35750994182E-01  0.10000000475E-02 0.  1.
</event>
<event>
 4   0  0.2441219E-02  0.9118800E+02  0.7818609E-02  0.1379984E+01
      -11   -1    0    0    0    0  0.00000000000E+00  0.00000000000E+00  0.35740347158E-01  0.35744000000E-01  0.51099999109E-03 0. -1.
       11   -1    0    0    0    0 -0.00000000000E+00 -0.00000000000E+00 -0.35740347158E-01  0.35744000000E-01  0.51099999109E-03 0.  1.
       22    1    1    2    0    0  0.17544843722E-01  0.72819711276E-02  0.30270198878E-01  0.35737005818E-01  0.00000000000E+00 0. -1.
  9000001    1    1    2    0    0 -0.17544843722E-01 -0.72819711276E-02 -0.30270198878E-01  0.35750994182E-01  0.10000000475E-02 0.  1.
</event>
<event>
 4   0  0.2441219E-02  0.9118800E+02  0.7818609E-02  0.1379984E+01
      -11   -1    0    0    0    0  0.00000000000E+00  0.00000000000E+00  0.35740347158E-01  0.35744000000E-01  0.51099999109E-03 0.  1.
       11   -1    0    0    0    0 -0.00000000000E+00 -0.00000000000E+00 -0.35740347158E-01  0.35744000000E-01  0.51099999109E-03 0. -1.
       22    1    1    2    0    0  0.92989400130E-03 -0.72387609975E-02  0.34983842288E-01  0.35737005818E-01  0.00000000000E+00 0.  1.
  9000001    1    1    2    0    0 -0.92989400130E-03  0.72387609975E-02 -0.34983842288E-01  0.35750994182E-01  0.10000000475E-02 0. -1.
</event>
<event>
 4   0  0.2441219E-02  0.9118800E+02  0.7818609E-02  0.1379984E+01
      -11   -1    0    0    0    0  0.00000000000E+00  0.00000000000E+00  0.35740347158E-01  0.35744000000E-01  0.51099999109E-03 0.  1.
       11   -1    0    0    0    0 -0.00000000000E+00 -0.00000000000E+00 -0.35740347158E-01  0.35744000000E-01  0.51099999109E-03 0. -1.
       22    1    1    2    0    0  0.78472235062E-02  0.70724536836E-02 -0.34139933612E-01  0.35737005818E-01  0.00000000000E+00 0. -1.
  9000001    1    1    2    0    0 -0.78472235062E-02 -0.70724536836E-02  0.34139933612E-01  0.35750994182E-01  0.10000000475E-02 0.  1.
</event>
<event>
 4   0  0.2441219E-02  0.9118800E+02  0.7818609E-02  0.1379984E+01
      -11   -1    0    0    0    0  0.00000000000E+00  0.00000000000E+00  0.35740347158E-01  0.35744000000E-01  0.51099999109E-03 0. -1.
       11   -1    0    0    0    0 -0.00000000000E+00 -0.00000000000E+00 -0.35740347158E-01  0.35744000000E-01  0.51099999109E-03 0.  1.
       22    1    1    2    0    0  0.11942909123E-01 -0.33912363962E-02 -0.33511192492E-01  0.35737005818E-01  0.00000000000E+00 0.  1.
  9000001    1    1    2    0    0 -0.11942909123E-01  0.33912363962E-02  0.33511192492E-01  0.35750994182E-01  0.10000000475E-02 0. -1.
</event>
<event>
 4   0  0.2441219E-02  0.9118800E+02  0.7818609E-02  0.1379984E+01
      -11   -1    0    0    0    0  0.00000000000E+00  0.00000000000E+00  0.35740347158E-01  0.35744000000E-01  0.51099999109E-03 0. -1.
       11   -1    0    0    0    0 -0.00000000000E+00 -0.00000000000E+00 -0.35740347158E-01  0.35744000000E-01  0.51099999109E-03 0.  1.
       22    1    1    2    0    0 -0.68769516863E-04 -0.52588159761E-02 -0.35347895413E-01  0.35737005818E-01  0.00000000000E+00 0.  1.
  9000001    1    1    2    0    0  0.68769516863E-04  0.52588159761E-02  0.35347895413E-01  0.35750994182E-01  0.10000000475E-02 0. -1.
</event>
<event>
 4   0  0.2441219E-02  0.9118800E+02  0.7818609E-02  0.1379984E+01
      -11   -1    0    0    0    0  0.00000000000E+00  0.00000000000E+00  0.35740347158E-01  0.35744000000E-01  0.51099999109E-03 0.  1.
       11   -1    0    0    0    0 -0.00000000000E+00 -0.00000000000E+00 -0.35740347158E-01  0.35744000000E-01  0.51099999109E-03 0. -1.
       22    1    1    2    0    0  0.31447250886E-01  0.16972434041E-01 -0.37480567860E-03  0.35737005818E-01  0.00000000000E+00 0. -1.
  9000001    1    1    2    0    0 -0.31447250886E-01 -0.16972434041E-01  0.37480567860E-03  0.35750994182E-01  0.10000000475E-02 0.  1.
</event>
<event>
 4   0  0.2441219E-02  0.9118800E+02  0.7818609E-02  0.1379984E+01
      -11   -1    0    0    0    0  0.00000000000E+00  0.00000000000E+00  0.35740347158E-01  0.35744000000E-01  0.51099999109E-03 0.  1.
       11   -1    0    0    0    0 -0.00000000000E+00 -0.00000000000E+00 -0.35740347158E-01  0.35744000000E-01  0.51099999109E-03 0. -1.
       22    1    1    2    0    0 -0.60143877183E-04  0.15860623358E-01  0.32024531133E-01  0.35737005818E-01  0.00000000000E+00 0.  1.
  9000001    1    1    2    0    0  0.60143877183E-04 -0.15860623358E-01 -0.32024531133E-01  0.35750994182E-01  0.10000000475E-02 0. -1.
</event>
<event>
 4   0  0.2441219E-02  0.9118800E+02  0.7818609E-02  0.1379984E+01
      -11   -1    0    0    0    0  0.00000000000E+00  0.00000000000E+00  0.35740347158E-01  0.35744000000E-01  0.51099999109E-03 0. -1.
       11   -1    0    0    0    0 -0.00000000000E+00 -0.00000000000E+00 -0.35740347158E-01  0.35744000000E-01  0.51099999109E-03 0.  1.
       22    1    1    2    0    0 -0.29797431677E-01 -0.11589530120E-01 -0.15966510010E-01  0.35737005818E-01  0.00000000000E+00 0. -1.
  9000001    1    1    2    0    0  0.29797431677E-01  0.11589530120E-01  0.15966510010E-01  0.35750994182E-01  0.10000000475E-02 0.  1.
</event>
<event>
 4   0  0.2441219E-02  0.9118800E+02  0.7818609E-02  0.1379984E+01
      -11   -1    0    0    0    0  0.00000000000E+00  0.00000000000E+00  0.35740347158E-01  0.35744000000E-01  0.51099999109E-03 0.  1.
       11   -1    0    0    0    0 -0.00000000000E+00 -0.00000000000E+00 -0.35740347158E-01  0.35744000000E-01  0.51099999109E-03 0. -1.
       22    1    1    2    0    0 -0.73323971350E-03  0.25698703473E-01 -0.24822823856E-01  0.35737005818E-01  0.00000000000E+00 0. -1.
  9000001    1    1    2    0    0  0.73323971350E-03 -0.25698703473E-01  0.24822823856E-01  0.35750994182E-01  0.10000000475E-02 0.  1.
</event>
<event>
 4   0  0.2441219E-02  0.9118800E+02  0.7818609E-02  0.1379984E+01
      -11   -1    0    0    0    0  0.00000000000E+00  0.00000000000E+00  0.35740347158E-01  0.35744000000E-01  0.51099999109E-03 0. -1.
       11   -1    0    0    0    0 -0.00000000000E+00 -0.00000000000E+00 -0.35740347158E-01  0.35744000000E-01  0.51099999109E-03 0.  1.
       22    1    1    2    0    0 -0.32893244303E-02  0.30732184317E-02 -0.35452351941E-01  0.35737005818E-01  0.00000000000E+00 0.  1.
  9000001    1    1    2    0    0  0.32893244303E-02 -0.30732184317E-02  0.35452351941E-01  0.35750994182E-01  0.10000000475E-02 0. -1.
</event>
<event>
 4   0  0.2441219E-02  0.9118800E+02  0.7818609E-02  0.1379984E+01
      -11   -1    0    0    0    0  0.00000000000E+00  0.00000000000E+00  0.35740347158E-01  0.35744000000E-01  0.51099999109E-03 0. -1.
       11   -1    0    0    0    0 -0.00000000000E+00 -0.00000000000E+00 -0.35740347158E-01  0.35744000000E-01  0.51099999109E-03 0.  1.
       22    1    1    2    0    0 -0.21501391052E-01  0.13343102732E-01  0.25234606738E-01  0.35737005818E-01  0.00000000000E+00 0. -1.
  9000001    1    1    2    0    0  0.21501391052E-01 -0.13343102732E-01 -0.25234606738E-01  0.35750994182E-01  0.10000000475E-02 0.  1.
</event>
<event>
 4   0  0.2441219E-02  0.9118800E+02  0.7818609E-02  0.1379984E+01
      -11   -1    0    0    0    0  0.00000000000E+00  0.00000000000E+00  0.35740347158E-01  0.35744000000E-01  0.51099999109E-03 0. -1.
       11   -1    0    0    0    0 -0.00000000000E+00 -0.00000000000E+00 -0.35740347158E-01  0.35744000000E-01  0.51099999109E-03 0.  1.
       22    1    1    2    0    0  0.23280837930E-01 -0.16391612227E-01  0.21597481769E-01  0.35737005818E-01  0.00000000000E+00 0. -1.
  9000001    1    1    2    0    0 -0.23280837930E-01  0.16391612227E-01 -0.21597481769E-01  0.35750994182E-01  0.10000000475E-02 0.  1.
</event>
<event>
 4   0  0.2441219E-02  0.9118800E+02  0.7818609E-02  0.1379984E+01
      -11   -1    0    0    0    0  0.00000000000E+00  0.00000000000E+00  0.35740347158E-01  0.35744000000E-01  0.51099999109E-03 0. -1.
       11   -1    0    0    0    0 -0.00000000000E+00 -0.00000000000E+00 -0.35740347158E-01  0.35744000000E-01  0.51099999109E-03 0.  1.
       22    1    1    2    0    0  0.99220844159E-02  0.15694166103E-01 -0.30534881301E-01  0.35737005818E-01  0.00000000000E+00 0.  1.
  9000001    1    1    2    0    0 -0.99220844159E-02 -0.15694166103E-01  0.30534881301E-01  0.35750994182E-01  0.10000000475E-02 0. -1.
</event>
<event>
 4   0  0.2441219E-02  0.9118800E+02  0.7818609E-02  0.1379984E+01
      -11   -1    0    0    0    0  0.00000000000E+00  0.00000000000E+00  0.35740347158E-01  0.35744000000E-01  0.51099999109E-03 0. -1.
       11   -1    0    0    0    0 -0.00000000000E+00 -0.00000000000E+00 -0.35740347158E-01  0.35744000000E-01  0.51099999109E-03 0. -1.
       22    1    1    2    0    0 -0.24560895521E-02  0.26489534902E-02  0.35553962569E-01  0.35737005818E-01  0.00000000000E+00 0. -1.
  9000001    1    1    2    0    0  0.24560895521E-02 -0.26489534902E-02 -0.35553962569E-01  0.35750994182E-01  0.10000000475E-02 0. -1.
</event>
<event>
 4   0  0.2441219E-02  0.9118800E+02  0.7818609E-02  0.1379984E+01
      -11   -1    0    0    0    0  0.00000000000E+00  0.00000000000E+00  0.35740347158E-01  0.35744000000E-01  0.51099999109E-03 0. -1.
       11   -1    0    0    0    0 -0.00000000000E+00 -0.00000000000E+00 -0.35740347158E-01  0.35744000000E-01  0.51099999109E-03 0.  1.
       22    1    1    2    0    0  0.10328297176E-01  0.68583181765E-02 -0.33517507874E-01  0.35737005818E-01  0.00000000000E+00 0.  1.
  9000001    1    1    2    0    0 -0.10328297176E-01 -0.68583181765E-02  0.33517507874E-01  0.35750994182E-01  0.10000000475E-02 0. -1.
</event>
<event>
 4   0  0.2441219E-02  0.9118800E+02  0.7818609E-02  0.1379984E+01
      -11   -1    0    0    0    0  0.00000000000E+00  0.00000000000E+00  0.35740347158E-01  0.35744000000E-01  0.51099999109E-03 0. -1.
       11   -1    0    0    0    0 -0.00000000000E+00 -0.00000000000E+00 -0.35740347158E-01  0.35744000000E-01  0.51099999109E-03 0.  1.
       22    1    1    2    0    0  0.22119919668E-02  0.85715117638E-02  0.34623256093E-01  0.35737005818E-01  0.00000000000E+00 0. -1.
  9000001    1    1    2    0    0 -0.22119919668E-02 -0.85715117638E-02 -0.34623256093E-01  0.35750994182E-01  0.10000000475E-02 0.  1.
</event>
<event>
 4   0  0.2441219E-02  0.9118800E+02  0.7818609E-02  0.1379984E+01
      -11   -1    0    0    0    0  0.00000000000E+00  0.00000000000E+00  0.35740347158E-01  0.35744000000E-01  0.51099999109E-03 0.  1.
       11   -1    0    0    0    0 -0.00000000000E+00 -0.00000000000E+00 -0.35740347158E-01  0.35744000000E-01  0.51099999109E-03 0. -1.
       22    1    1    2    0    0  0.45107494772E-02 -0.33895862860E-02 -0.35288771994E-01  0.35737005818E-01  0.00000000000E+00 0. -1.
  9000001    1    1    2    0    0 -0.45107494772E-02  0.33895862860E-02  0.35288771994E-01  0.35750994182E-01  0.10000000475E-02 0.  1.
</event>
<event>
 4   0  0.2441219E-02  0.9118800E+02  0.7818609E-02  0.1379984E+01
      -11   -1    0    0    0    0  0.00000000000E+00  0.00000000000E+00  0.35740347158E-01  0.35744000000E-01  0.51099999109E-03 0.  1.
       11   -1    0    0    0    0 -0.00000000000E+00 -0.00000000000E+00 -0.35740347158E-01  0.35744000000E-01  0.51099999109E-03 0. -1.
       22    1    1    2    0    0 -0.21601644655E-01 -0.27185081411E-01  0.84542227188E-02  0.35737005818E-01  0.00000000000E+00 0.  1.
  9000001    1    1    2    0    0  0.21601644655E-01  0.27185081411E-01 -0.84542227188E-02  0.35750994182E-01  0.10000000475E-02 0. -1.
</event>
<event>
 4   0  0.2441219E-02  0.9118800E+02  0.7818609E-02  0.1379984E+01
      -11   -1    0    0    0    0  0.00000000000E+00  0.00000000000E+00  0.35740347158E-01  0.35744000000E-01  0.51099999109E-03 0. -1.
       11   -1    0    0    0    0 -0.00000000000E+00 -0.00000000000E+00 -0.35740347158E-01  0.35744000000E-01  0.51099999109E-03 0.  1.
       22    1    1    2    0    0  0.37342536228E-02 -0.19719795819E-02  0.35486620454E-01  0.35737005818E-01  0.00000000000E+00 0. -1.
  9000001    1    1    2    0    0 -0.37342536228E-02  0.19719795819E-02 -0.35486620454E-01  0.35750994182E-01  0.10000000475E-02 0.  1.
</event>
<event>
 4   0  0.2441219E-02  0.9118800E+02  0.7818609E-02  0.1379984E+01
      -11   -1    0    0    0    0  0.00000000000E+00  0.00000000000E+00  0.35740347158E-01  0.35744000000E-01  0.51099999109E-03 0.  1.
       11   -1    0    0    0    0 -0.00000000000E+00 -0.00000000000E+00 -0.35740347158E-01  0.35744000000E-01  0.51099999109E-03 0. -1.
       22    1    1    2    0    0  0.17279794845E-01  0.15913737461E-01 -0.26931305854E-01  0.35737005818E-01  0.00000000000E+00 0. -1.
  9000001    1    1    2    0    0 -0.17279794845E-01 -0.15913737461E-01  0.26931305854E-01  0.35750994182E-01  0.10000000475E-02 0.  1.
</event>
<event>
 4   0  0.2441219E-02  0.9118800E+02  0.7818609E-02  0.1379984E+01
      -11   -1    0    0    0    0  0.00000000000E+00  0.00000000000E+00  0.35740347158E-01  0.35744000000E-01  0.51099999109E-03 0. -1.
       11   -1    0    0    0    0 -0.00000000000E+00 -0.00000000000E+00 -0.35740347158E-01  0.35744000000E-01  0.51099999109E-03 0.  1.
       22    1    1    2    0    0  0.28059202250E-01  0.21461410032E-01  0.54057962808E-02  0.35737005818E-01  0.00000000000E+00 0.  1.
  9000001    1    1    2    0    0 -0.28059202250E-01 -0.21461410032E-01 -0.54057962808E-02  0.35750994182E-01  0.10000000475E-02 0. -1.
</event>
<event>
 4   0  0.2441219E-02  0.9118800E+02  0.7818609E-02  0.1379984E+01
      -11   -1    0    0    0    0  0.00000000000E+00  0.00000000000E+00  0.35740347158E-01  0.35744000000E-01  0.51099999109E-03 0.  1.
       11   -1    0    0    0    0 -0.00000000000E+00 -0.00000000000E+00 -0.35740347158E-01  0.35744000000E-01  0.51099999109E-03 0. -1.
       22    1    1    2    0    0 -0.15495100825E-01  0.28800686451E-01  0.14406800312E-01  0.35737005818E-01  0.00000000000E+00 0.  1.
  9000001    1    1    2    0    0  0.15495100825E-01 -0.28800686451E-01 -0.14406800312E-01  0.35750994182E-01  0.10000000475E-02 0. -1.
</event>
<event>
 4   0  0.2441219E-02  0.9118800E+02  0.7818609E-02  0.1379984E+01
      -11   -1    0    0    0    0  0.00000000000E+00  0.00000000000E+00  0.35740347158E-01  0.35744000000E-01  0.51099999109E-03 0. -1.
       11   -1    0    0    0    0 -0.00000000000E+00 -0.00000000000E+00 -0.35740347158E-01  0.35744000000E-01  0.51099999109E-03 0.  1.
       22    1    1    2    0    0 -0.17755142393E-02  0.89693512170E-02 -0.34547530633E-01  0.35737005818E-01  0.00000000000E+00 0.  1.
  9000001    1    1    2    0    0  0.17755142393E-02 -0.89693512170E-02  0.34547530633E-01  0.35750994182E-01  0.10000000475E-02 0. -1.
</event>
<event>
 4   0  0.2441219E-02  0.9118800E+02  0.7818609E-02  0.1379984E+01
      -11   -1    0    0    0    0  0.00000000000E+00  0.00000000000E+00  0.35740347158E-01  0.35744000000E-01  0.51099999109E-03 0. -1.
       11   -1    0    0    0    0 -0.00000000000E+00 -0.00000000000E+00 -0.35740347158E-01  0.35744000000E-01  0.51099999109E-03 0.  1.
       22    1    1    2    0    0 -0.94635943561E-02 -0.11221641961E-01  0.32582951346E-01  0.35737005818E-01  0.00000000000E+00 0. -1.
  9000001    1    1    2    0    0  0.94635943561E-02  0.11221641961E-01 -0.32582951346E-01  0.35750994182E-01  0.10000000475E-02 0.  1.
</event>
<event>
 4   0  0.2441219E-02  0.9118800E+02  0.7818609E-02  0.1379984E+01
      -11   -1    0    0    0    0  0.00000000000E+00  0.00000000000E+00  0.35740347158E-01  0.35744000000E-01  0.51099999109E-03 0. -1.
       11   -1    0    0    0    0 -0.00000000000E+00 -0.00000000000E+00 -0.35740347158E-01  0.35744000000E-01  0.51099999109E-03 0.  1.
       22    1    1    2    0    0 -0.27513203299E-02 -0.34711987622E-02 -0.35461452318E-01  0.35737005818E-01  0.00000000000E+00 0.  1.
  9000001    1    1    2    0    0  0.27513203299E-02  0.34711987622E-02  0.35461452318E-01  0.35750994182E-01  0.10000000475E-02 0. -1.
</event>
<event>
 4   0  0.2441219E-02  0.9118800E+02  0.7818609E-02  0.1379984E+01
      -11   -1    0    0    0    0  0.00000000000E+00  0.00000000000E+00  0.35740347158E-01  0.35744000000E-01  0.51099999109E-03 0. -1.
       11   -1    0    0    0    0 -0.00000000000E+00 -0.00000000000E+00 -0.35740347158E-01  0.35744000000E-01  0.51099999109E-03 0.  1.
       22    1    1    2    0    0 -0.41541928073E-02 -0.13158977408E-02  0.35470335213E-01  0.35737005818E-01  0.00000000000E+00 0. -1.
  9000001    1    1    2    0    0  0.41541928073E-02  0.13158977408E-02 -0.35470335213E-01  0.35750994182E-01  0.10000000475E-02 0.  1.
</event>
<event>
 4   0  0.2441219E-02  0.9118800E+02  0.7818609E-02  0.1379984E+01
      -11   -1    0    0    0    0  0.00000000000E+00  0.00000000000E+00  0.35740347158E-01  0.35744000000E-01  0.51099999109E-03 0. -1.
       11   -1    0    0    0    0 -0.00000000000E+00 -0.00000000000E+00 -0.35740347158E-01  0.35744000000E-01  0.51099999109E-03 0.  1.
       22    1    1    2    0    0  0.14040539575E-02  0.33853143847E-02  0.35548584555E-01  0.35737005818E-01  0.00000000000E+00 0. -1.
  9000001    1    1    2    0    0 -0.14040539575E-02 -0.33853143847E-02 -0.35548584555E-01  0.35750994182E-01  0.10000000475E-02 0.  1.
</event>
<event>
 4   0  0.2441219E-02  0.9118800E+02  0.7818609E-02  0.1379984E+01
      -11   -1    0    0    0    0  0.00000000000E+00  0.00000000000E+00  0.35740347158E-01  0.35744000000E-01  0.51099999109E-03 0.  1.
       11   -1    0    0    0    0 -0.00000000000E+00 -0.00000000000E+00 -0.35740347158E-01  0.35744000000E-01  0.51099999109E-03 0. -1.
       22    1    1    2    0    0  0.10998867314E-02  0.11859134599E-01 -0.33693987010E-01  0.35737005818E-01  0.00000000000E+00 0. -1.
  9000001    1    1    2    0    0 -0.10998867314E-02 -0.11859134599E-01  0.33693987010E-01  0.35750994182E-01  0.10000000475E-02 0.  1.
</event>
<event>
 4   0  0.2441219E-02  0.9118800E+02  0.7818609E-02  0.1379984E+01
      -11   -1    0    0    0    0  0.00000000000E+00  0.00000000000E+00  0.35740347158E-01  0.35744000000E-01  0.51099999109E-03 0.  1.
       11   -1    0    0    0    0 -0.00000000000E+00 -0.00000000000E+00 -0.35740347158E-01  0.35744000000E-01  0.51099999109E-03 0. -1.
       22    1    1    2    0    0 -0.57562160177E-03  0.33211846398E-02  0.35577689318E-01  0.35737005818E-01  0.00000000000E+00 0.  1.
  9000001    1    1    2    0    0  0.57562160177E-03 -0.33211846398E-02 -0.35577689318E-01  0.35750994182E-01  0.10000000475E-02 0. -1.
</event>
<event>
 4   0  0.2441219E-02  0.9118800E+02  0.7818609E-02  0.1379984E+01
      -11   -1    0    0    0    0  0.00000000000E+00  0.00000000000E+00  0.35740347158E-01  0.35744000000E-01  0.51099999109E-03 0. -1.
       11   -1    0    0    0    0 -0.00000000000E+00 -0.00000000000E+00 -0.35740347158E-01  0.35744000000E-01  0.51099999109E-03 0.  1.
       22    1    1    2    0    0 -0.41096777155E-02  0.60454317331E-03 -0.35494769495E-01  0.35737005818E-01  0.00000000000E+00 0.  1.
  9000001    1    1    2    0    0  0.41096777155E-02 -0.60454317331E-03  0.35494769495E-01  0.35750994182E-01  0.10000000475E-02 0. -1.
</event>
<event>
 4   0  0.2441219E-02  0.9118800E+02  0.7818609E-02  0.1379984E+01
      -11   -1    0    0    0    0  0.00000000000E+00  0.00000000000E+00  0.35740347158E-01  0.35744000000E-01  0.51099999109E-03 0.  1.
       11   -1    0    0    0    0 -0.00000000000E+00 -0.00000000000E+00 -0.35740347158E-01  0.35744000000E-01  0.51099999109E-03 0. -1.
       22    1    1    2    0    0 -0.71540590431E-02 -0.12830915335E-01 -0.32577916381E-01  0.35737005818E-01  0.00000000000E+00 0. -1.
  9000001    1    1    2    0    0  0.71540590431E-02  0.12830915335E-01  0.32577916381E-01  0.35750994182E-01  0.10000000475E-02 0.  1.
</event>
<event>
 4   0  0.2441219E-02  0.9118800E+02  0.7818609E-02  0.1379984E+01
      -11   -1    0    0    0    0  0.00000000000E+00  0.00000000000E+00  0.35740347158E-01  0.35744000000E-01  0.51099999109E-03 0. -1.
       11   -1    0    0    0    0 -0.00000000000E+00 -0.00000000000E+00 -0.35740347158E-01  0.35744000000E-01  0.51099999109E-03 0.  1.
       22    1    1    2    0    0  0.33213986532E-02  0.68267770136E-03  0.35575776127E-01  0.35737005818E-01  0.00000000000E+00 0. -1.
  9000001    1    1    2    0    0 -0.33213986532E-02 -0.68267770136E-03 -0.35575776127E-01  0.35750994182E-01  0.10000000475E-02 0.  1.
</event>
<event>
 4   0  0.2441219E-02  0.9118800E+02  0.7818609E-02  0.1379984E+01
      -11   -1    0    0    0    0  0.00000000000E+00  0.00000000000E+00  0.35740347158E-01  0.35744000000E-01  0.51099999109E-03 0.  1.
       11   -1    0    0    0    0 -0.00000000000E+00 -0.00000000000E+00 -0.35740347158E-01  0.35744000000E-01  0.51099999109E-03 0. -1.
       22    1    1    2    0    0  0.37803465608E-02  0.49492847914E-02 -0.35190156931E-01  0.35737005818E-01  0.00000000000E+00 0. -1.
  9000001    1    1    2    0    0 -0.37803465608E-02 -0.49492847914E-02  0.35190156931E-01  0.35750994182E-01  0.10000000475E-02 0.  1.
</event>
<event>
 4   0  0.2441219E-02  0.9118800E+02  0.7818609E-02  0.1379984E+01
      -11   -1    0    0    0    0  0.00000000000E+00  0.00000000000E+00  0.35740347158E-01  0.35744000000E-01  0.51099999109E-03 0. -1.
       11   -1    0    0    0    0 -0.00000000000E+00 -0.00000000000E+00 -0.35740347158E-01  0.35744000000E-01  0.51099999109E-03 0.  1.
       22    1    1    2    0    0  0.17220679363E-02  0.26962814531E-02 -0.35593512516E-01  0.35737005818E-01  0.00000000000E+00 0.  1.
  9000001    1    1    2    0    0 -0.17220679363E-02 -0.26962814531E-02  0.35593512516E-01  0.35750994182E-01  0.10000000475E-02 0. -1.
</event>
<event>
 4   0  0.2441219E-02  0.9118800E+02  0.7818609E-02  0.1379984E+01
      -11   -1    0    0    0    0  0.00000000000E+00  0.00000000000E+00  0.35740347158E-01  0.35744000000E-01  0.51099999109E-03 0. -1.
       11   -1    0    0    0    0 -0.00000000000E+00 -0.00000000000E+00 -0.35740347158E-01  0.35744000000E-01  0.51099999109E-03 0.  1.
       22    1    1    2    0    0  0.13270793653E-01  0.66223466687E-02 -0.32514060732E-01  0.35737005818E-01  0.00000000000E+00 0.  1.
  9000001    1    1    2    0    0 -0.13270793653E-01 -0.66223466687E-02  0.32514060732E-01  0.35750994182E-01  0.10000000475E-02 0. -1.
</event>
<event>
 4   0  0.2441219E-02  0.9118800E+02  0.7818609E-02  0.1379984E+01
      -11   -1    0    0    0    0  0.00000000000E+00  0.00000000000E+00  0.35740347158E-01  0.35744000000E-01  0.51099999109E-03 0.  1.
       11   -1    0    0    0    0 -0.00000000000E+00 -0.00000000000E+00 -0.35740347158E-01  0.35744000000E-01  0.51099999109E-03 0. -1.
       22    1    1    2    0    0  0.85945914063E-02 -0.42934329793E-02  0.34421403468E-01  0.35737005818E-01  0.00000000000E+00 0.  1.
  9000001    1    1    2    0    0 -0.85945914063E-02  0.42934329793E-02 -0.34421403468E-01  0.35750994182E-01  0.10000000475E-02 0. -1.
</event>
<event>
 4   0  0.2441219E-02  0.9118800E+02  0.7818609E-02  0.1379984E+01
      -11   -1    0    0    0    0  0.00000000000E+00  0.00000000000E+00  0.35740347158E-01  0.35744000000E-01  0.51099999109E-03 0.  1.
       11   -1    0    0    0    0 -0.00000000000E+00 -0.00000000000E+00 -0.35740347158E-01  0.35744000000E-01  0.51099999109E-03 0. -1.
       22    1    1    2    0    0  0.39075656524E-02  0.38219302916E-02  0.35316531036E-01  0.35737005818E-01  0.00000000000E+00 0.  1.
  9000001    1    1    2    0    0 -0.39075656524E-02 -0.38219302916E-02 -0.35316531036E-01  0.35750994182E-01  0.10000000475E-02 0. -1.
</event>
<event>
 4   0  0.2441219E-02  0.9118800E+02  0.7818609E-02  0.1379984E+01
      -11   -1    0    0    0    0  0.00000000000E+00  0.00000000000E+00  0.35740347158E-01  0.35744000000E-01  0.51099999109E-03 0. -1.
       11   -1    0    0    0    0 -0.00000000000E+00 -0.00000000000E+00 -0.35740347158E-01  0.35744000000E-01  0.51099999109E-03 0.  1.
       22    1    1    2    0    0  0.34242518881E-01 -0.75719199926E-02 -0.68738281326E-02  0.35737005818E-01  0.00000000000E+00 0. -1.
  9000001    1    1    2    0    0 -0.34242518881E-01  0.75719199926E-02  0.68738281326E-02  0.35750994182E-01  0.10000000475E-02 0.  1.
</event>
<event>
 4   0  0.2441219E-02  0.9118800E+02  0.7818609E-02  0.1379984E+01
      -11   -1    0    0    0    0  0.00000000000E+00  0.00000000000E+00  0.35740347158E-01  0.35744000000E-01  0.51099999109E-03 0. -1.
       11   -1    0    0    0    0 -0.00000000000E+00 -0.00000000000E+00 -0.35740347158E-01  0.35744000000E-01  0.51099999109E-03 0.  1.
       22    1    1    2    0    0  0.28339128950E-02 -0.10555800606E-02 -0.35608822970E-01  0.35737005818E-01  0.00000000000E+00 0.  1.
  9000001    1    1    2    0    0 -0.28339128950E-02  0.10555800606E-02  0.35608822970E-01  0.35750994182E-01  0.10000000475E-02 0. -1.
</event>
<event>
 4   0  0.2441219E-02  0.9118800E+02  0.7818609E-02  0.1379984E+01
      -11   -1    0    0    0    0  0.00000000000E+00  0.00000000000E+00  0.35740347158E-01  0.35744000000E-01  0.51099999109E-03 0.  1.
       11   -1    0    0    0    0 -0.00000000000E+00 -0.00000000000E+00 -0.35740347158E-01  0.35744000000E-01  0.51099999109E-03 0. -1.
       22    1    1    2    0    0 -0.10764176297E-02  0.35040306113E-01  0.69391539461E-02  0.35737005818E-01  0.00000000000E+00 0. -1.
  9000001    1    1    2    0    0  0.10764176297E-02 -0.35040306113E-01 -0.69391539461E-02  0.35750994182E-01  0.10000000475E-02 0.  1.
</event>
<event>
 4   0  0.2441219E-02  0.9118800E+02  0.7818609E-02  0.1379984E+01
      -11   -1    0    0    0    0  0.00000000000E+00  0.00000000000E+00  0.35740347158E-01  0.35744000000E-01  0.51099999109E-03 0. -1.
       11   -1    0    0    0    0 -0.00000000000E+00 -0.00000000000E+00 -0.35740347158E-01  0.35744000000E-01  0.51099999109E-03 0.  1.
       22    1    1    2    0    0  0.35337680280E-02  0.36090456764E-02 -0.35378254023E-01  0.35737005818E-01  0.00000000000E+00 0.  1.
  9000001    1    1    2    0    0 -0.35337680280E-02 -0.36090456764E-02  0.35378254023E-01  0.35750994182E-01  0.10000000475E-02 0. -1.
</event>
<event>
 4   0  0.2441219E-02  0.9118800E+02  0.7818609E-02  0.1379984E+01
      -11   -1    0    0    0    0  0.00000000000E+00  0.00000000000E+00  0.35740347158E-01  0.35744000000E-01  0.51099999109E-03 0. -1.
       11   -1    0    0    0    0 -0.00000000000E+00 -0.00000000000E+00 -0.35740347158E-01  0.35744000000E-01  0.51099999109E-03 0.  1.
       22    1    1    2    0    0 -0.20425566424E-02  0.53413228911E-02 -0.35276505170E-01  0.35737005818E-01  0.00000000000E+00 0.  1.
  9000001    1    1    2    0    0  0.20425566424E-02 -0.53413228911E-02  0.35276505170E-01  0.35750994182E-01  0.10000000475E-02 0. -1.
</event>
<event>
 4   0  0.2441219E-02  0.9118800E+02  0.7818609E-02  0.1379984E+01
      -11   -1    0    0    0    0  0.00000000000E+00  0.00000000000E+00  0.35740347158E-01  0.35744000000E-01  0.51099999109E-03 0.  1.
       11   -1    0    0    0    0 -0.00000000000E+00 -0.00000000000E+00 -0.35740347158E-01  0.35744000000E-01  0.51099999109E-03 0. -1.
       22    1    1    2    0    0 -0.17630057882E-01 -0.81456989134E-02  0.29999370546E-01  0.35737005818E-01  0.00000000000E+00 0.  1.
  9000001    1    1    2    0    0  0.17630057882E-01  0.81456989134E-02 -0.29999370546E-01  0.35750994182E-01  0.10000000475E-02 0. -1.
</event>
<event>
 4   0  0.2441219E-02  0.9118800E+02  0.7818609E-02  0.1379984E+01
      -11   -1    0    0    0    0  0.00000000000E+00  0.00000000000E+00  0.35740347158E-01  0.35744000000E-01  0.51099999109E-03 0.  1.
       11   -1    0    0    0    0 -0.00000000000E+00 -0.00000000000E+00 -0.35740347158E-01  0.35744000000E-01  0.51099999109E-03 0. -1.
       22    1    1    2    0    0  0.33522258373E-01  0.86780372303E-02 -0.88364839302E-02  0.35737005818E-01  0.00000000000E+00 0. -1.
  9000001    1    1    2    0    0 -0.33522258373E-01 -0.86780372303E-02  0.88364839302E-02  0.35750994182E-01  0.10000000475E-02 0.  1.
</event>
<event>
 4   0  0.2441219E-02  0.9118800E+02  0.7818609E-02  0.1379984E+01
      -11   -1    0    0    0    0  0.00000000000E+00  0.00000000000E+00  0.35740347158E-01  0.35744000000E-01  0.51099999109E-03 0.  1.
       11   -1    0    0    0    0 -0.00000000000E+00 -0.00000000000E+00 -0.35740347158E-01  0.35744000000E-01  0.51099999109E-03 0. -1.
       22    1    1    2    0    0  0.10689516585E-01  0.81947001863E-02  0.33101581668E-01  0.35737005818E-01  0.00000000000E+00 0.  1.
  9000001    1    1    2    0    0 -0.10689516585E-01 -0.81947001863E-02 -0.33101581668E-01  0.35750994182E-01  0.10000000475E-02 0. -1.
</event>
<event>
 4   0  0.2441219E-02  0.9118800E+02  0.7818609E-02  0.1379984E+01
      -11   -1    0    0    0    0  0.00000000000E+00  0.00000000000E+00  0.35740347158E-01  0.35744000000E-01  0.51099999109E-03 0.  1.
       11   -1    0    0    0    0 -0.00000000000E+00 -0.00000000000E+00 -0.35740347158E-01  0.35744000000E-01  0.51099999109E-03 0. -1.
       22    1    1    2    0    0 -0.13949429267E-01 -0.31790552445E-02 -0.32748139119E-01  0.35737005818E-01  0.00000000000E+00 0. -1.
  9000001    1    1    2    0    0  0.13949429267E-01  0.31790552445E-02  0.32748139119E-01  0.35750994182E-01  0.10000000475E-02 0.  1.
</event>
<event>
 4   0  0.2441219E-02  0.9118800E+02  0.7818609E-02  0.1379984E+01
      -11   -1    0    0    0    0  0.00000000000E+00  0.00000000000E+00  0.35740347158E-01  0.35744000000E-01  0.51099999109E-03 0. -1.
       11   -1    0    0    0    0 -0.00000000000E+00 -0.00000000000E+00 -0.35740347158E-01  0.35744000000E-01  0.51099999109E-03 0.  1.
       22    1    1    2    0    0 -0.48459703068E-02  0.26204836511E-01 -0.23810852570E-01  0.35737005818E-01  0.00000000000E+00 0.  1.
  9000001    1    1    2    0    0  0.48459703068E-02 -0.26204836511E-01  0.23810852570E-01  0.35750994182E-01  0.10000000475E-02 0. -1.
</event>
<event>
 4   0  0.2441219E-02  0.9118800E+02  0.7818609E-02  0.1379984E+01
      -11   -1    0    0    0    0  0.00000000000E+00  0.00000000000E+00  0.35740347158E-01  0.35744000000E-01  0.51099999109E-03 0. -1.
       11   -1    0    0    0    0 -0.00000000000E+00 -0.00000000000E+00 -0.35740347158E-01  0.35744000000E-01  0.51099999109E-03 0.  1.
       22    1    1    2    0    0  0.63775690962E-02  0.34735334600E-02 -0.34991352683E-01  0.35737005818E-01  0.00000000000E+00 0.  1.
  9000001    1    1    2    0    0 -0.63775690962E-02 -0.34735334600E-02  0.34991352683E-01  0.35750994182E-01  0.10000000475E-02 0. -1.
</event>
<event>
 4   0  0.2441219E-02  0.9118800E+02  0.7818609E-02  0.1379984E+01
      -11   -1    0    0    0    0  0.00000000000E+00  0.00000000000E+00  0.35740347158E-01  0.35744000000E-01  0.51099999109E-03 0.  1.
       11   -1    0    0    0    0 -0.00000000000E+00 -0.00000000000E+00 -0.35740347158E-01  0.35744000000E-01  0.51099999109E-03 0. -1.
       22    1    1    2    0    0  0.37251680928E-02  0.49956058292E-03  0.35538811837E-01  0.35737005818E-01  0.00000000000E+00 0.  1.
  9000001    1    1    2    0    0 -0.37251680928E-02 -0.49956058292E-03 -0.35538811837E-01  0.35750994182E-01  0.10000000475E-02 0. -1.
</event>
<event>
 4   0  0.2441219E-02  0.9118800E+02  0.7818609E-02  0.1379984E+01
      -11   -1    0    0    0    0  0.00000000000E+00  0.00000000000E+00  0.35740347158E-01  0.35744000000E-01  0.51099999109E-03 0. -1.
       11   -1    0    0    0    0 -0.00000000000E+00 -0.00000000000E+00 -0.35740347158E-01  0.35744000000E-01  0.51099999109E-03 0.  1.
       22    1    1    2    0    0  0.52673159294E-02  0.97221814861E-02  0.33983351143E-01  0.35737005818E-01  0.00000000000E+00 0. -1.
  9000001    1    1    2    0    0 -0.52673159294E-02 -0.97221814861E-02 -0.33983351143E-01  0.35750994182E-01  0.10000000475E-02 0.  1.
</event>
<event>
 4   0  0.2441219E-02  0.9118800E+02  0.7818609E-02  0.1379984E+01
      -11   -1    0    0    0    0  0.00000000000E+00  0.00000000000E+00  0.35740347158E-01  0.35744000000E-01  0.51099999109E-03 0. -1.
       11   -1    0    0    0    0 -0.00000000000E+00 -0.00000000000E+00 -0.35740347158E-01  0.35744000000E-01  0.51099999109E-03 0.  1.
       22    1    1    2    0    0 -0.18109085333E-01 -0.77847201317E-03 -0.30799165486E-01  0.35737005818E-01  0.00000000000E+00 0.  1.
  9000001    1    1    2    0    0  0.18109085333E-01  0.77847201317E-03  0.30799165486E-01  0.35750994182E-01  0.10000000475E-02 0. -1.
</event>
<event>
 4   0  0.2441219E-02  0.9118800E+02  0.7818609E-02  0.1379984E+01
      -11   -1    0    0    0    0  0.00000000000E+00  0.00000000000E+00  0.35740347158E-01  0.35744000000E-01  0.51099999109E-03 0. -1.
       11   -1    0    0    0    0 -0.00000000000E+00 -0.00000000000E+00 -0.35740347158E-01  0.35744000000E-01  0.51099999109E-03 0.  1.
       22    1    1    2    0    0 -0.21100823118E-01  0.12928464064E-01 -0.25782623326E-01  0.35737005818E-01  0.00000000000E+00 0.  1.
  9000001    1    1    2    0    0  0.21100823118E-01 -0.12928464064E-01  0.25782623326E-01  0.35750994182E-01  0.10000000475E-02 0. -1.
</event>
<event>
 4   0  0.2441219E-02  0.9118800E+02  0.7818609E-02  0.1379984E+01
      -11   -1    0    0    0    0  0.00000000000E+00  0.00000000000E+00  0.35740347158E-01  0.35744000000E-01  0.51099999109E-03 0.  1.
       11   -1    0    0    0    0 -0.00000000000E+00 -0.00000000000E+00 -0.35740347158E-01  0.35744000000E-01  0.51099999109E-03 0. -1.
       22    1    1    2    0    0 -0.37643737903E-02  0.19362118613E-02 -0.35485407684E-01  0.35737005818E-01  0.00000000000E+00 0. -1.
  9000001    1    1    2    0    0  0.37643737903E-02 -0.19362118613E-02  0.35485407684E-01  0.35750994182E-01  0.10000000475E-02 0.  1.
</event>
<event>
 4   0  0.2441219E-02  0.9118800E+02  0.7818609E-02  0.1379984E+01
      -11   -1    0    0    0    0  0.00000000000E+00  0.00000000000E+00  0.35740347158E-01  0.35744000000E-01  0.51099999109E-03 0. -1.
       11   -1    0    0    0    0 -0.00000000000E+00 -0.00000000000E+00 -0.35740347158E-01  0.35744000000E-01  0.51099999109E-03 0.  1.
       22    1    1    2    0    0 -0.22462164600E-01  0.20943456029E-01 -0.18274473888E-01  0.35737005818E-01  0.00000000000E+00 0. -1.
  9000001    1    1    2    0    0  0.22462164600E-01 -0.20943456029E-01  0.18274473888E-01  0.35750994182E-01  0.10000000475E-02 0.  1.
</event>
<event>
 4   0  0.2441219E-02  0.9118800E+02  0.7818609E-02  0.1379984E+01
      -11   -1    0    0    0    0  0.00000000000E+00  0.00000000000E+00  0.35740347158E-01  0.35744000000E-01  0.51099999109E-03 0.  1.
       11   -1    0    0    0    0 -0.00000000000E+00 -0.00000000000E+00 -0.35740347158E-01  0.35744000000E-01  0.51099999109E-03 0. -1.
       22    1    1    2    0    0  0.19590873848E-01  0.29128499429E-01 -0.66978927864E-02  0.35737005818E-01  0.00000000000E+00 0. -1.
  9000001    1    1    2    0    0 -0.19590873848E-01 -0.29128499429E-01  0.66978927864E-02  0.35750994182E-01  0.10000000475E-02 0.  1.
</event>
<event>
 4   0  0.2441219E-02  0.9118800E+02  0.7818609E-02  0.1379984E+01
      -11   -1    0    0    0    0  0.00000000000E+00  0.00000000000E+00  0.35740347158E-01  0.35744000000E-01  0.51099999109E-03 0. -1.
       11   -1    0    0    0    0 -0.00000000000E+00 -0.00000000000E+00 -0.35740347158E-01  0.35744000000E-01  0.51099999109E-03 0.  1.
       22    1    1    2    0    0 -0.19847206237E-02  0.42681243924E-02  0.35425662776E-01  0.35737005818E-01  0.00000000000E+00 0. -1.
  9000001    1    1    2    0    0  0.19847206237E-02 -0.42681243924E-02 -0.35425662776E-01  0.35750994182E-01  0.10000000475E-02 0.  1.
</event>
<event>
 4   0  0.2441219E-02  0.9118800E+02  0.7818609E-02  0.1379984E+01
      -11   -1    0    0    0    0  0.00000000000E+00  0.00000000000E+00  0.35740347158E-01  0.35744000000E-01  0.51099999109E-03 0.  1.
       11   -1    0    0    0    0 -0.00000000000E+00 -0.00000000000E+00 -0.35740347158E-01  0.35744000000E-01  0.51099999109E-03 0. -1.
       22    1    1    2    0    0  0.21057405227E-01 -0.22766151096E-01  0.17760113576E-01  0.35737005818E-01  0.00000000000E+00 0.  1.
  9000001    1    1    2    0    0 -0.21057405227E-01  0.22766151096E-01 -0.17760113576E-01  0.35750994182E-01  0.10000000475E-02 0. -1.
</event>
<event>
 4   0  0.2441219E-02  0.9118800E+02  0.7818609E-02  0.1379984E+01
      -11   -1    0    0    0    0  0.00000000000E+00  0.00000000000E+00  0.35740347158E-01  0.35744000000E-01  0.51099999109E-03 0. -1.
       11   -1    0    0    0    0 -0.00000000000E+00 -0.00000000000E+00 -0.35740347158E-01  0.35744000000E-01  0.51099999109E-03 0.  1.
       22    1    1    2    0    0  0.31685338603E-02 -0.44653590614E-02  0.35315075343E-01  0.35737005818E-01  0.00000000000E+00 0. -1.
  9000001    1    1    2    0    0 -0.31685338603E-02  0.44653590614E-02 -0.35315075343E-01  0.35750994182E-01  0.10000000475E-02 0.  1.
</event>
<event>
 4   0  0.2441219E-02  0.9118800E+02  0.7818609E-02  0.1379984E+01
      -11   -1    0    0    0    0  0.00000000000E+00  0.00000000000E+00  0.35740347158E-01  0.35744000000E-01  0.51099999109E-03 0. -1.
       11   -1    0    0    0    0 -0.00000000000E+00 -0.00000000000E+00 -0.35740347158E-01  0.35744000000E-01  0.51099999109E-03 0.  1.
       22    1    1    2    0    0  0.31324910873E-02 -0.53909565756E-02 -0.35188899836E-01  0.35737005818E-01  0.00000000000E+00 0.  1.
  9000001    1    1    2    0    0 -0.31324910873E-02  0.53909565756E-02  0.35188899836E-01  0.35750994182E-01  0.10000000475E-02 0. -1.
</event>
<event>
 4   0  0.2441219E-02  0.9118800E+02  0.7818609E-02  0.1379984E+01
      -11   -1    0    0    0    0  0.00000000000E+00  0.00000000000E+00  0.35740347158E-01  0.35744000000E-01  0.51099999109E-03 0.  1.
       11   -1    0    0    0    0 -0.00000000000E+00 -0.00000000000E+00 -0.35740347158E-01  0.35744000000E-01  0.51099999109E-03 0. -1.
       22    1    1    2    0    0  0.19106113460E-01  0.44558293913E-02 -0.29870312984E-01  0.35737005818E-01  0.00000000000E+00 0. -1.
  9000001    1    1    2    0    0 -0.19106113460E-01 -0.44558293913E-02  0.29870312984E-01  0.35750994182E-01  0.10000000475E-02 0.  1.
</event>
<event>
 4   0  0.2441219E-02  0.9118800E+02  0.7818609E-02  0.1379984E+01
      -11   -1    0    0    0    0  0.00000000000E+00  0.00000000000E+00  0.35740347158E-01  0.35744000000E-01  0.51099999109E-03 0.  1.
       11   -1    0    0    0    0 -0.00000000000E+00 -0.00000000000E+00 -0.35740347158E-01  0.35744000000E-01  0.51099999109E-03 0. -1.
       22    1    1    2    0    0 -0.94804316157E-03 -0.20164925724E-01 -0.29489160205E-01  0.35737005818E-01  0.00000000000E+00 0. -1.
  9000001    1    1    2    0    0  0.94804316157E-03  0.20164925724E-01  0.29489160205E-01  0.35750994182E-01  0.10000000475E-02 0.  1.
</event>
<event>
 4   0  0.2441219E-02  0.9118800E+02  0.7818609E-02  0.1379984E+01
      -11   -1    0    0    0    0  0.00000000000E+00  0.00000000000E+00  0.35740347158E-01  0.35744000000E-01  0.51099999109E-03 0. -1.
       11   -1    0    0    0    0 -0.00000000000E+00 -0.00000000000E+00 -0.35740347158E-01  0.35744000000E-01  0.51099999109E-03 0.  1.
       22    1    1    2    0    0  0.82478036443E-02  0.46378542144E-02 -0.34461538390E-01  0.35737005818E-01  0.00000000000E+00 0.  1.
  9000001    1    1    2    0    0 -0.82478036443E-02 -0.46378542144E-02  0.34461538390E-01  0.35750994182E-01  0.10000000475E-02 0. -1.
</event>
<event>
 4   0  0.2441219E-02  0.9118800E+02  0.7818609E-02  0.1379984E+01
      -11   -1    0    0    0    0  0.00000000000E+00  0.00000000000E+00  0.35740347158E-01  0.35744000000E-01  0.51099999109E-03 0.  1.
       11   -1    0    0    0    0 -0.00000000000E+00 -0.00000000000E+00 -0.35740347158E-01  0.35744000000E-01  0.51099999109E-03 0. -1.
       22    1    1    2    0    0  0.69067941087E-02  0.60387028658E-03 -0.35058025054E-01  0.35737005818E-01  0.00000000000E+00 0. -1.
  9000001    1    1    2    0    0 -0.69067941087E-02 -0.60387028658E-03  0.35058025054E-01  0.35750994182E-01  0.10000000475E-02 0.  1.
</event>
<event>
 4   0  0.2441219E-02  0.9118800E+02  0.7818609E-02  0.1379984E+01
      -11   -1    0    0    0    0  0.00000000000E+00  0.00000000000E+00  0.35740347158E-01  0.35744000000E-01  0.51099999109E-03 0.  1.
       11   -1    0    0    0    0 -0.00000000000E+00 -0.00000000000E+00 -0.35740347158E-01  0.35744000000E-01  0.51099999109E-03 0. -1.
       22    1    1    2    0    0 -0.10733675552E-01  0.16722813296E-02 -0.34045928819E-01  0.35737005818E-01  0.00000000000E+00 0. -1.
  9000001    1    1    2    0    0  0.10733675552E-01 -0.16722813296E-02  0.34045928819E-01  0.35750994182E-01  0.10000000475E-02 0.  1.
</event>
<event>
 4   0  0.2441219E-02  0.9118800E+02  0.7818609E-02  0.1379984E+01
      -11   -1    0    0    0    0  0.00000000000E+00  0.00000000000E+00  0.35740347158E-01  0.35744000000E-01  0.51099999109E-03 0.  1.
       11   -1    0    0    0    0 -0.00000000000E+00 -0.00000000000E+00 -0.35740347158E-01  0.35744000000E-01  0.51099999109E-03 0. -1.
       22    1    1    2    0    0  0.88444400816E-02 -0.15026540409E-01  0.31194751928E-01  0.35737005818E-01  0.00000000000E+00 0.  1.
  9000001    1    1    2    0    0 -0.88444400816E-02  0.15026540409E-01 -0.31194751928E-01  0.35750994182E-01  0.10000000475E-02 0. -1.
</event>
<event>
 4   0  0.2441219E-02  0.9118800E+02  0.7818609E-02  0.1379984E+01
      -11   -1    0    0    0    0  0.00000000000E+00  0.00000000000E+00  0.35740347158E-01  0.35744000000E-01  0.51099999109E-03 0.  1.
       11   -1    0    0    0    0 -0.00000000000E+00 -0.00000000000E+00 -0.35740347158E-01  0.35744000000E-01  0.51099999109E-03 0. -1.
       22    1    1    2    0    0 -0.21189567954E-01 -0.13328306887E-01  0.25504745251E-01  0.35737005818E-01  0.00000000000E+00 0.  1.
  9000001    1    1    2    0    0  0.21189567954E-01  0.13328306887E-01 -0.25504745251E-01  0.35750994182E-01  0.10000000475E-02 0. -1.
</event>
<event>
 4   0  0.2441219E-02  0.9118800E+02  0.7818609E-02  0.1379984E+01
      -11   -1    0    0    0    0  0.00000000000E+00  0.00000000000E+00  0.35740347158E-01  0.35744000000E-01  0.51099999109E-03 0.  1.
       11   -1    0    0    0    0 -0.00000000000E+00 -0.00000000000E+00 -0.35740347158E-01  0.35744000000E-01  0.51099999109E-03 0. -1.
       22    1    1    2    0    0  0.48901083011E-02 -0.13987478836E-01 -0.32520314597E-01  0.35737005818E-01  0.00000000000E+00 0. -1.
  9000001    1    1    2    0    0 -0.48901083011E-02  0.13987478836E-01  0.32520314597E-01  0.35750994182E-01  0.10000000475E-02 0.  1.
</event>
<event>
 4   0  0.2441219E-02  0.9118800E+02  0.7818609E-02  0.1379984E+01
      -11   -1    0    0    0    0  0.00000000000E+00  0.00000000000E+00  0.35740347158E-01  0.35744000000E-01  0.51099999109E-03 0.  1.
       11   -1    0    0    0    0 -0.00000000000E+00 -0.00000000000E+00 -0.35740347158E-01  0.35744000000E-01  0.51099999109E-03 0. -1.
       22    1    1    2    0    0 -0.13361421504E-02  0.52898679399E-02  0.35318063455E-01  0.35737005818E-01  0.00000000000E+00 0.  1.
  9000001    1    1    2    0    0  0.13361421504E-02 -0.52898679399E-02 -0.35318063455E-01  0.35750994182E-01  0.10000000475E-02 0. -1.
</event>
<event>
 4   0  0.2441219E-02  0.9118800E+02  0.7818609E-02  0.1379984E+01
      -11   -1    0    0    0    0  0.00000000000E+00  0.00000000000E+00  0.35740347158E-01  0.35744000000E-01  0.51099999109E-03 0.  1.
       11   -1    0    0    0    0 -0.00000000000E+00 -0.00000000000E+00 -0.35740347158E-01  0.35744000000E-01  0.51099999109E-03 0. -1.
       22    1    1    2    0    0  0.13537655825E-01 -0.32986862501E-01 -0.23942351621E-02  0.35737005818E-01  0.00000000000E+00 0. -1.
  9000001    1    1    2    0    0 -0.13537655825E-01  0.32986862501E-01  0.23942351621E-02  0.35750994182E-01  0.10000000475E-02 0.  1.
</event>
<event>
 4   0  0.2441219E-02  0.9118800E+02  0.7818609E-02  0.1379984E+01
      -11   -1    0    0    0    0  0.00000000000E+00  0.00000000000E+00  0.35740347158E-01  0.35744000000E-01  0.51099999109E-03 0. -1.
       11   -1    0    0    0    0 -0.00000000000E+00 -0.00000000000E+00 -0.35740347158E-01  0.35744000000E-01  0.51099999109E-03 0.  1.
       22    1    1    2    0    0 -0.77605112488E-03 -0.41774891614E-02 -0.35483516086E-01  0.35737005818E-01  0.00000000000E+00 0.  1.
  9000001    1    1    2    0    0  0.77605112488E-03  0.41774891614E-02  0.35483516086E-01  0.35750994182E-01  0.10000000475E-02 0. -1.
</event>
<event>
 4   0  0.2441219E-02  0.9118800E+02  0.7818609E-02  0.1379984E+01
      -11   -1    0    0    0    0  0.00000000000E+00  0.00000000000E+00  0.35740347158E-01  0.35744000000E-01  0.51099999109E-03 0. -1.
       11   -1    0    0    0    0 -0.00000000000E+00 -0.00000000000E+00 -0.35740347158E-01  0.35744000000E-01  0.51099999109E-03 0.  1.
       22    1    1    2    0    0 -0.24550600725E-02 -0.76189314042E-02  0.34828984326E-01  0.35737005818E-01  0.00000000000E+00 0. -1.
  9000001    1    1    2    0    0  0.24550600725E-02  0.76189314042E-02 -0.34828984326E-01  0.35750994182E-01  0.10000000475E-02 0.  1.
</event>
<event>
 4   0  0.2441219E-02  0.9118800E+02  0.7818609E-02  0.1379984E+01
      -11   -1    0    0    0    0  0.00000000000E+00  0.00000000000E+00  0.35740347158E-01  0.35744000000E-01  0.51099999109E-03 0.  1.
       11   -1    0    0    0    0 -0.00000000000E+00 -0.00000000000E+00 -0.35740347158E-01  0.35744000000E-01  0.51099999109E-03 0. -1.
       22    1    1    2    0    0  0.15675030789E-01  0.36367072447E-02 -0.31909267542E-01  0.35737005818E-01  0.00000000000E+00 0. -1.
  9000001    1    1    2    0    0 -0.15675030789E-01 -0.36367072447E-02  0.31909267542E-01  0.35750994182E-01  0.10000000475E-02 0.  1.
</event>
<event>
 4   0  0.2441219E-02  0.9118800E+02  0.7818609E-02  0.1379984E+01
      -11   -1    0    0    0    0  0.00000000000E+00  0.00000000000E+00  0.35740347158E-01  0.35744000000E-01  0.51099999109E-03 0. -1.
       11   -1    0    0    0    0 -0.00000000000E+00 -0.00000000000E+00 -0.35740347158E-01  0.35744000000E-01  0.51099999109E-03 0.  1.
       22    1    1    2    0    0 -0.22904061565E-01 -0.80577562169E-02  0.26222320901E-01  0.35737005818E-01  0.00000000000E+00 0. -1.
  9000001    1    1    2    0    0  0.22904061565E-01  0.80577562169E-02 -0.26222320901E-01  0.35750994182E-01  0.10000000475E-02 0.  1.
</event>
<event>
 4   0  0.2441219E-02  0.9118800E+02  0.7818609E-02  0.1379984E+01
      -11   -1    0    0    0    0  0.00000000000E+00  0.00000000000E+00  0.35740347158E-01  0.35744000000E-01  0.51099999109E-03 0.  1.
       11   -1    0    0    0    0 -0.00000000000E+00 -0.00000000000E+00 -0.35740347158E-01  0.35744000000E-01  0.51099999109E-03 0. -1.
       22    1    1    2    0    0  0.82001169519E-02  0.71820314746E-02  0.34033954968E-01  0.35737005818E-01  0.00000000000E+00 0.  1.
  9000001    1    1    2    0    0 -0.82001169519E-02 -0.71820314746E-02 -0.34033954968E-01  0.35750994182E-01  0.10000000475E-02 0. -1.
</event>
<event>
 4   0  0.2441219E-02  0.9118800E+02  0.7818609E-02  0.1379984E+01
      -11   -1    0    0    0    0  0.00000000000E+00  0.00000000000E+00  0.35740347158E-01  0.35744000000E-01  0.51099999109E-03 0.  1.
       11   -1    0    0    0    0 -0.00000000000E+00 -0.00000000000E+00 -0.35740347158E-01  0.35744000000E-01  0.51099999109E-03 0. -1.
       22    1    1    2    0    0 -0.71983202538E-02 -0.13997821325E-01 -0.32083933184E-01  0.35737005818E-01  0.00000000000E+00 0. -1.
  9000001    1    1    2    0    0  0.71983202538E-02  0.13997821325E-01  0.32083933184E-01  0.35750994182E-01  0.10000000475E-02 0.  1.
</event>
<event>
 4   0  0.2441219E-02  0.9118800E+02  0.7818609E-02  0.1379984E+01
      -11   -1    0    0    0    0  0.00000000000E+00  0.00000000000E+00  0.35740347158E-01  0.35744000000E-01  0.51099999109E-03 0.  1.
       11   -1    0    0    0    0 -0.00000000000E+00 -0.00000000000E+00 -0.35740347158E-01  0.35744000000E-01  0.51099999109E-03 0. -1.
       22    1    1    2    0    0  0.13150147649E-01  0.10743794891E-01 -0.31444841755E-01  0.35737005818E-01  0.00000000000E+00 0. -1.
  9000001    1    1    2    0    0 -0.13150147649E-01 -0.10743794891E-01  0.31444841755E-01  0.35750994182E-01  0.10000000475E-02 0.  1.
</event>
<event>
 4   0  0.2441219E-02  0.9118800E+02  0.7818609E-02  0.1379984E+01
      -11   -1    0    0    0    0  0.00000000000E+00  0.00000000000E+00  0.35740347158E-01  0.35744000000E-01  0.51099999109E-03 0. -1.
       11   -1    0    0    0    0 -0.00000000000E+00 -0.00000000000E+00 -0.35740347158E-01  0.35744000000E-01  0.51099999109E-03 0.  1.
       22    1    1    2    0    0  0.25687703254E-01  0.26269754011E-02 -0.24705758168E-01  0.35737005818E-01  0.00000000000E+00 0.  1.
  9000001    1    1    2    0    0 -0.25687703254E-01 -0.26269754011E-02  0.24705758168E-01  0.35750994182E-01  0.10000000475E-02 0. -1.
</event>
<event>
 4   0  0.2441219E-02  0.9118800E+02  0.7818609E-02  0.1379984E+01
      -11   -1    0    0    0    0  0.00000000000E+00  0.00000000000E+00  0.35740347158E-01  0.35744000000E-01  0.51099999109E-03 0.  1.
       11   -1    0    0    0    0 -0.00000000000E+00 -0.00000000000E+00 -0.35740347158E-01  0.35744000000E-01  0.51099999109E-03 0. -1.
       22    1    1    2    0    0  0.32997773653E-02  0.40774617963E-02  0.35349955580E-01  0.35737005818E-01  0.00000000000E+00 0.  1.
  9000001    1    1    2    0    0 -0.32997773653E-02 -0.40774617963E-02 -0.35349955580E-01  0.35750994182E-01  0.10000000475E-02 0. -1.
</event>
<event>
 4   0  0.2441219E-02  0.9118800E+02  0.7818609E-02  0.1379984E+01
      -11   -1    0    0    0    0  0.00000000000E+00  0.00000000000E+00  0.35740347158E-01  0.35744000000E-01  0.51099999109E-03 0.  1.
       11   -1    0    0    0    0 -0.00000000000E+00 -0.00000000000E+00 -0.35740347158E-01  0.35744000000E-01  0.51099999109E-03 0. -1.
       22    1    1    2    0    0 -0.26533286356E-03 -0.78945272381E-02  0.34853114969E-01  0.35737005818E-01  0.00000000000E+00 0.  1.
  9000001    1    1    2    0    0  0.26533286356E-03  0.78945272381E-02 -0.34853114969E-01  0.35750994182E-01  0.10000000475E-02 0. -1.
</event>
<event>
 4   0  0.2441219E-02  0.9118800E+02  0.7818609E-02  0.1379984E+01
      -11   -1    0    0    0    0  0.00000000000E+00  0.00000000000E+00  0.35740347158E-01  0.35744000000E-01  0.51099999109E-03 0. -1.
       11   -1    0    0    0    0 -0.00000000000E+00 -0.00000000000E+00 -0.35740347158E-01  0.35744000000E-01  0.51099999109E-03 0.  1.
       22    1    1    2    0    0 -0.13370913489E-01 -0.66382353254E-02 -0.32469771929E-01  0.35737005818E-01  0.00000000000E+00 0.  1.
  9000001    1    1    2    0    0  0.13370913489E-01  0.66382353254E-02  0.32469771929E-01  0.35750994182E-01  0.10000000475E-02 0. -1.
</event>
<event>
 4   0  0.2441219E-02  0.9118800E+02  0.7818609E-02  0.1379984E+01
      -11   -1    0    0    0    0  0.00000000000E+00  0.00000000000E+00  0.35740347158E-01  0.35744000000E-01  0.51099999109E-03 0.  1.
       11   -1    0    0    0    0 -0.00000000000E+00 -0.00000000000E+00 -0.35740347158E-01  0.35744000000E-01  0.51099999109E-03 0. -1.
       22    1    1    2    0    0 -0.26035734507E-01  0.17476474970E-01 -0.17141964187E-01  0.35737005818E-01  0.00000000000E+00 0. -1.
  9000001    1    1    2    0    0  0.26035734507E-01 -0.17476474970E-01  0.17141964187E-01  0.35750994182E-01  0.10000000475E-02 0.  1.
</event>
<event>
 4   0  0.2441219E-02  0.9118800E+02  0.7818609E-02  0.1379984E+01
      -11   -1    0    0    0    0  0.00000000000E+00  0.00000000000E+00  0.35740347158E-01  0.35744000000E-01  0.51099999109E-03 0. -1.
       11   -1    0    0    0    0 -0.00000000000E+00 -0.00000000000E+00 -0.35740347158E-01  0.35744000000E-01  0.51099999109E-03 0.  1.
       22    1    1    2    0    0  0.31422967659E-02  0.18211208782E-02 -0.35551977085E-01  0.35737005818E-01  0.00000000000E+00 0.  1.
  9000001    1    1    2    0    0 -0.31422967659E-02 -0.18211208782E-02  0.35551977085E-01  0.35750994182E-01  0.10000000475E-02 0. -1.
</event>
<event>
 4   0  0.2441219E-02  0.9118800E+02  0.7818609E-02  0.1379984E+01
      -11   -1    0    0    0    0  0.00000000000E+00  0.00000000000E+00  0.35740347158E-01  0.35744000000E-01  0.51099999109E-03 0.  1.
       11   -1    0    0    0    0 -0.00000000000E+00 -0.00000000000E+00 -0.35740347158E-01  0.35744000000E-01  0.51099999109E-03 0. -1.
       22    1    1    2    0    0 -0.15676760864E-03  0.35207582330E-02 -0.35562807401E-01  0.35737005818E-01  0.00000000000E+00 0. -1.
  9000001    1    1    2    0    0  0.15676760864E-03 -0.35207582330E-02  0.35562807401E-01  0.35750994182E-01  0.10000000475E-02 0.  1.
</event>
<event>
 4   0  0.2441219E-02  0.9118800E+02  0.7818609E-02  0.1379984E+01
      -11   -1    0    0    0    0  0.00000000000E+00  0.00000000000E+00  0.35740347158E-01  0.35744000000E-01  0.51099999109E-03 0. -1.
       11   -1    0    0    0    0 -0.00000000000E+00 -0.00000000000E+00 -0.35740347158E-01  0.35744000000E-01  0.51099999109E-03 0.  1.
       22    1    1    2    0    0  0.16410484166E-01 -0.70486168609E-02  0.30953943120E-01  0.35737005818E-01  0.00000000000E+00 0. -1.
  9000001    1    1    2    0    0 -0.16410484166E-01  0.70486168609E-02 -0.30953943120E-01  0.35750994182E-01  0.10000000475E-02 0.  1.
</event>
<event>
 4   0  0.2441219E-02  0.9118800E+02  0.7818609E-02  0.1379984E+01
      -11   -1    0    0    0    0  0.00000000000E+00  0.00000000000E+00  0.35740347158E-01  0.35744000000E-01  0.51099999109E-03 0. -1.
       11   -1    0    0    0    0 -0.00000000000E+00 -0.00000000000E+00 -0.35740347158E-01  0.35744000000E-01  0.51099999109E-03 0.  1.
       22    1    1    2    0    0 -0.20566769196E-01  0.12247274885E-01 -0.26535746600E-01  0.35737005818E-01  0.00000000000E+00 0.  1.
  9000001    1    1    2    0    0  0.20566769196E-01 -0.12247274885E-01  0.26535746600E-01  0.35750994182E-01  0.10000000475E-02 0. -1.
</event>
<event>
 4   0  0.2441219E-02  0.9118800E+02  0.7818609E-02  0.1379984E+01
      -11   -1    0    0    0    0  0.00000000000E+00  0.00000000000E+00  0.35740347158E-01  0.35744000000E-01  0.51099999109E-03 0.  1.
       11   -1    0    0    0    0 -0.00000000000E+00 -0.00000000000E+00 -0.35740347158E-01  0.35744000000E-01  0.51099999109E-03 0. -1.
       22    1    1    2    0    0  0.11603473073E-01 -0.12568836988E-02 -0.33777407255E-01  0.35737005818E-01  0.00000000000E+00 0. -1.
  9000001    1    1    2    0    0 -0.11603473073E-01  0.12568836988E-02  0.33777407255E-01  0.35750994182E-01  0.10000000475E-02 0.  1.
</event>
<event>
 4   0  0.2441219E-02  0.9118800E+02  0.7818609E-02  0.1379984E+01
      -11   -1    0    0    0    0  0.00000000000E+00  0.00000000000E+00  0.35740347158E-01  0.35744000000E-01  0.51099999109E-03 0. -1.
       11   -1    0    0    0    0 -0.00000000000E+00 -0.00000000000E+00 -0.35740347158E-01  0.35744000000E-01  0.51099999109E-03 0.  1.
       22    1    1    2    0    0 -0.30286195799E-01 -0.15038590327E-01 -0.11563767979E-01  0.35737005818E-01  0.00000000000E+00 0.  1.
  9000001    1    1    2    0    0  0.30286195799E-01  0.15038590327E-01  0.11563767979E-01  0.35750994182E-01  0.10000000475E-02 0. -1.
</event>
<event>
 4   0  0.2441219E-02  0.9118800E+02  0.7818609E-02  0.1379984E+01
      -11   -1    0    0    0    0  0.00000000000E+00  0.00000000000E+00  0.35740347158E-01  0.35744000000E-01  0.51099999109E-03 0. -1.
       11   -1    0    0    0    0 -0.00000000000E+00 -0.00000000000E+00 -0.35740347158E-01  0.35744000000E-01  0.51099999109E-03 0.  1.
       22    1    1    2    0    0  0.28784066512E-02 -0.23773247007E-02  0.35541478406E-01  0.35737005818E-01  0.00000000000E+00 0. -1.
  9000001    1    1    2    0    0 -0.28784066512E-02  0.23773247007E-02 -0.35541478406E-01  0.35750994182E-01  0.10000000475E-02 0.  1.
</event>
<event>
 4   0  0.2441219E-02  0.9118800E+02  0.7818609E-02  0.1379984E+01
      -11   -1    0    0    0    0  0.00000000000E+00  0.00000000000E+00  0.35740347158E-01  0.35744000000E-01  0.51099999109E-03 0. -1.
       11   -1    0    0    0    0 -0.00000000000E+00 -0.00000000000E+00 -0.35740347158E-01  0.35744000000E-01  0.51099999109E-03 0.  1.
       22    1    1    2    0    0  0.72590278547E-02  0.33422572260E-02 -0.34832017112E-01  0.35737005818E-01  0.00000000000E+00 0.  1.
  9000001    1    1    2    0    0 -0.72590278547E-02 -0.33422572260E-02  0.34832017112E-01  0.35750994182E-01  0.10000000475E-02 0. -1.
</event>
<event>
 4   0  0.2441219E-02  0.9118800E+02  0.7818609E-02  0.1379984E+01
      -11   -1    0    0    0    0  0.00000000000E+00  0.00000000000E+00  0.35740347158E-01  0.35744000000E-01  0.51099999109E-03 0. -1.
       11   -1    0    0    0    0 -0.00000000000E+00 -0.00000000000E+00 -0.35740347158E-01  0.35744000000E-01  0.51099999109E-03 0.  1.
       22    1    1    2    0    0  0.36134604872E-02  0.25456678539E-03 -0.35552941987E-01  0.35737005818E-01  0.00000000000E+00 0.  1.
  9000001    1    1    2    0    0 -0.36134604872E-02 -0.25456678539E-03  0.35552941987E-01  0.35750994182E-01  0.10000000475E-02 0. -1.
</event>
<event>
 4   0  0.2441219E-02  0.9118800E+02  0.7818609E-02  0.1379984E+01
      -11   -1    0    0    0    0  0.00000000000E+00  0.00000000000E+00  0.35740347158E-01  0.35744000000E-01  0.51099999109E-03 0.  1.
       11   -1    0    0    0    0 -0.00000000000E+00 -0.00000000000E+00 -0.35740347158E-01  0.35744000000E-01  0.51099999109E-03 0. -1.
       22    1    1    2    0    0 -0.43203261778E-02  0.73152318636E-02  0.34712472533E-01  0.35737005818E-01  0.00000000000E+00 0.  1.
  9000001    1    1    2    0    0  0.43203261778E-02 -0.73152318636E-02 -0.34712472533E-01  0.35750994182E-01  0.10000000475E-02 0. -1.
</event>
<event>
 4   0  0.2441219E-02  0.9118800E+02  0.7818609E-02  0.1379984E+01
      -11   -1    0    0    0    0  0.00000000000E+00  0.00000000000E+00  0.35740347158E-01  0.35744000000E-01  0.51099999109E-03 0. -1.
       11   -1    0    0    0    0 -0.00000000000E+00 -0.00000000000E+00 -0.35740347158E-01  0.35744000000E-01  0.51099999109E-03 0.  1.
       22    1    1    2    0    0  0.46338233304E-03  0.42400829001E-02  0.35481552371E-01  0.35737005818E-01  0.00000000000E+00 0. -1.
  9000001    1    1    2    0    0 -0.46338233304E-03 -0.42400829001E-02 -0.35481552371E-01  0.35750994182E-01  0.10000000475E-02 0.  1.
</event>
<event>
 4   0  0.2441219E-02  0.9118800E+02  0.7818609E-02  0.1379984E+01
      -11   -1    0    0    0    0  0.00000000000E+00  0.00000000000E+00  0.35740347158E-01  0.35744000000E-01  0.51099999109E-03 0.  1.
       11   -1    0    0    0    0 -0.00000000000E+00 -0.00000000000E+00 -0.35740347158E-01  0.35744000000E-01  0.51099999109E-03 0. -1.
       22    1    1    2    0    0  0.26437906035E-01  0.98363767244E-03 -0.24025052888E-01  0.35737005818E-01  0.00000000000E+00 0. -1.
  9000001    1    1    2    0    0 -0.26437906035E-01 -0.98363767244E-03  0.24025052888E-01  0.35750994182E-01  0.10000000475E-02 0.  1.
</event>
<event>
 4   0  0.2441219E-02  0.9118800E+02  0.7818609E-02  0.1379984E+01
      -11   -1    0    0    0    0  0.00000000000E+00  0.00000000000E+00  0.35740347158E-01  0.35744000000E-01  0.51099999109E-03 0. -1.
       11   -1    0    0    0    0 -0.00000000000E+00 -0.00000000000E+00 -0.35740347158E-01  0.35744000000E-01  0.51099999109E-03 0.  1.
       22    1    1    2    0    0 -0.74304069678E-02  0.16030532054E-01 -0.31063558702E-01  0.35737005818E-01  0.00000000000E+00 0.  1.
  9000001    1    1    2    0    0  0.74304069678E-02 -0.16030532054E-01  0.31063558702E-01  0.35750994182E-01  0.10000000475E-02 0. -1.
</event>
<event>
 4   0  0.2441219E-02  0.9118800E+02  0.7818609E-02  0.1379984E+01
      -11   -1    0    0    0    0  0.00000000000E+00  0.00000000000E+00  0.35740347158E-01  0.35744000000E-01  0.51099999109E-03 0.  1.
       11   -1    0    0    0    0 -0.00000000000E+00 -0.00000000000E+00 -0.35740347158E-01  0.35744000000E-01  0.51099999109E-03 0. -1.
       22    1    1    2    0    0  0.13636924560E-02 -0.34061395441E-02 -0.35548166495E-01  0.35737005818E-01  0.00000000000E+00 0. -1.
  9000001    1    1    2    0    0 -0.13636924560E-02  0.34061395441E-02  0.35548166495E-01  0.35750994182E-01  0.10000000475E-02 0.  1.
</event>
<event>
 4   0  0.2441219E-02  0.9118800E+02  0.7818609E-02  0.1379984E+01
      -11   -1    0    0    0    0  0.00000000000E+00  0.00000000000E+00  0.35740347158E-01  0.35744000000E-01  0.51099999109E-03 0. -1.
       11   -1    0    0    0    0 -0.00000000000E+00 -0.00000000000E+00 -0.35740347158E-01  0.35744000000E-01  0.51099999109E-03 0.  1.
       22    1    1    2    0    0  0.44766199945E-02  0.69555312170E-02 -0.34766565027E-01  0.35737005818E-01  0.00000000000E+00 0.  1.
  9000001    1    1    2    0    0 -0.44766199945E-02 -0.69555312170E-02  0.34766565027E-01  0.35750994182E-01  0.10000000475E-02 0. -1.
</event>
<event>
 4   0  0.2441219E-02  0.9118800E+02  0.7818609E-02  0.1379984E+01
      -11   -1    0    0    0    0  0.00000000000E+00  0.00000000000E+00  0.35740347158E-01  0.35744000000E-01  0.51099999109E-03 0. -1.
       11   -1    0    0    0    0 -0.00000000000E+00 -0.00000000000E+00 -0.35740347158E-01  0.35744000000E-01  0.51099999109E-03 0.  1.
       22    1    1    2    0    0  0.10946970994E-01 -0.13159392633E-01 -0.31370811218E-01  0.35737005818E-01  0.00000000000E+00 0.  1.
  9000001    1    1    2    0    0 -0.10946970994E-01  0.13159392633E-01  0.31370811218E-01  0.35750994182E-01  0.10000000475E-02 0. -1.
</event>
<event>
 4   0  0.2441219E-02  0.9118800E+02  0.7818609E-02  0.1379984E+01
      -11   -1    0    0    0    0  0.00000000000E+00  0.00000000000E+00  0.35740347158E-01  0.35744000000E-01  0.51099999109E-03 0. -1.
       11   -1    0    0    0    0 -0.00000000000E+00 -0.00000000000E+00 -0.35740347158E-01  0.35744000000E-01  0.51099999109E-03 0.  1.
       22    1    1    2    0    0  0.90120968034E-02  0.10873075423E-01  0.32828218455E-01  0.35737005818E-01  0.00000000000E+00 0. -1.
  9000001    1    1    2    0    0 -0.90120968034E-02 -0.10873075423E-01 -0.32828218455E-01  0.35750994182E-01  0.10000000475E-02 0.  1.
</event>
<event>
 4   0  0.2441219E-02  0.9118800E+02  0.7818609E-02  0.1379984E+01
      -11   -1    0    0    0    0  0.00000000000E+00  0.00000000000E+00  0.35740347158E-01  0.35744000000E-01  0.51099999109E-03 0. -1.
       11   -1    0    0    0    0 -0.00000000000E+00 -0.00000000000E+00 -0.35740347158E-01  0.35744000000E-01  0.51099999109E-03 0.  1.
       22    1    1    2    0    0  0.54489930923E-02  0.76954237964E-02 -0.34470603588E-01  0.35737005818E-01  0.00000000000E+00 0.  1.
  9000001    1    1    2    0    0 -0.54489930923E-02 -0.76954237964E-02  0.34470603588E-01  0.35750994182E-01  0.10000000475E-02 0. -1.
</event>
<event>
 4   0  0.2441219E-02  0.9118800E+02  0.7818609E-02  0.1379984E+01
      -11   -1    0    0    0    0  0.00000000000E+00  0.00000000000E+00  0.35740347158E-01  0.35744000000E-01  0.51099999109E-03 0. -1.
       11   -1    0    0    0    0 -0.00000000000E+00 -0.00000000000E+00 -0.35740347158E-01  0.35744000000E-01  0.51099999109E-03 0.  1.
       22    1    1    2    0    0  0.42515945886E-02 -0.71145038113E-02  0.34762643223E-01  0.35737005818E-01  0.00000000000E+00 0. -1.
  9000001    1    1    2    0    0 -0.42515945886E-02  0.71145038113E-02 -0.34762643223E-01  0.35750994182E-01  0.10000000475E-02 0.  1.
</event>
<event>
 4   0  0.2441219E-02  0.9118800E+02  0.7818609E-02  0.1379984E+01
      -11   -1    0    0    0    0  0.00000000000E+00  0.00000000000E+00  0.35740347158E-01  0.35744000000E-01  0.51099999109E-03 0. -1.
       11   -1    0    0    0    0 -0.00000000000E+00 -0.00000000000E+00 -0.35740347158E-01  0.35744000000E-01  0.51099999109E-03 0.  1.
       22    1    1    2    0    0 -0.19267586504E-01  0.17214704397E-02  0.30048797559E-01  0.35737005818E-01  0.00000000000E+00 0. -1.
  9000001    1    1    2    0    0  0.19267586504E-01 -0.17214704397E-02 -0.30048797559E-01  0.35750994182E-01  0.10000000475E-02 0.  1.
</event>
<event>
 4   0  0.2441219E-02  0.9118800E+02  0.7818609E-02  0.1379984E+01
      -11   -1    0    0    0    0  0.00000000000E+00  0.00000000000E+00  0.35740347158E-01  0.35744000000E-01  0.51099999109E-03 0. -1.
       11   -1    0    0    0    0 -0.00000000000E+00 -0.00000000000E+00 -0.35740347158E-01  0.35744000000E-01  0.51099999109E-03 0.  1.
       22    1    1    2    0    0 -0.25757127391E-01 -0.81394614847E-03  0.24759674172E-01  0.35737005818E-01  0.00000000000E+00 0. -1.
  9000001    1    1    2    0    0  0.25757127391E-01  0.81394614847E-03 -0.24759674172E-01  0.35750994182E-01  0.10000000475E-02 0.  1.
</event>
<event>
 4   0  0.2441219E-02  0.9118800E+02  0.7818609E-02  0.1379984E+01
      -11   -1    0    0    0    0  0.00000000000E+00  0.00000000000E+00  0.35740347158E-01  0.35744000000E-01  0.51099999109E-03 0. -1.
       11   -1    0    0    0    0 -0.00000000000E+00 -0.00000000000E+00 -0.35740347158E-01  0.35744000000E-01  0.51099999109E-03 0.  1.
       22    1    1    2    0    0 -0.32728663947E-02 -0.52354138916E-02 -0.35199607552E-01  0.35737005818E-01  0.00000000000E+00 0.  1.
  9000001    1    1    2    0    0  0.32728663947E-02  0.52354138916E-02  0.35199607552E-01  0.35750994182E-01  0.10000000475E-02 0. -1.
</event>
<event>
 4   0  0.2441219E-02  0.9118800E+02  0.7818609E-02  0.1379984E+01
      -11   -1    0    0    0    0  0.00000000000E+00  0.00000000000E+00  0.35740347158E-01  0.35744000000E-01  0.51099999109E-03 0.  1.
       11   -1    0    0    0    0 -0.00000000000E+00 -0.00000000000E+00 -0.35740347158E-01  0.35744000000E-01  0.51099999109E-03 0. -1.
       22    1    1    2    0    0  0.61999778292E-02 -0.17619496553E-02 -0.35150951526E-01  0.35737005818E-01  0.00000000000E+00 0. -1.
  9000001    1    1    2    0    0 -0.61999778292E-02  0.17619496553E-02  0.35150951526E-01  0.35750994182E-01  0.10000000475E-02 0.  1.
</event>
<event>
 4   0  0.2441219E-02  0.9118800E+02  0.7818609E-02  0.1379984E+01
      -11   -1    0    0    0    0  0.00000000000E+00  0.00000000000E+00  0.35740347158E-01  0.35744000000E-01  0.51099999109E-03 0.  1.
       11   -1    0    0    0    0 -0.00000000000E+00 -0.00000000000E+00 -0.35740347158E-01  0.35744000000E-01  0.51099999109E-03 0. -1.
       22    1    1    2    0    0 -0.34559478821E-03 -0.81016478754E-02  0.34804848094E-01  0.35737005818E-01  0.00000000000E+00 0.  1.
  9000001    1    1    2    0    0  0.34559478821E-03  0.81016478754E-02 -0.34804848094E-01  0.35750994182E-01  0.10000000475E-02 0. -1.
</event>
<event>
 4   0  0.2441219E-02  0.9118800E+02  0.7818609E-02  0.1379984E+01
      -11   -1    0    0    0    0  0.00000000000E+00  0.00000000000E+00  0.35740347158E-01  0.35744000000E-01  0.51099999109E-03 0. -1.
       11   -1    0    0    0    0 -0.00000000000E+00 -0.00000000000E+00 -0.35740347158E-01  0.35744000000E-01  0.51099999109E-03 0.  1.
       22    1    1    2    0    0 -0.39336990898E-03  0.41412273321E-02  0.35494071071E-01  0.35737005818E-01  0.00000000000E+00 0. -1.
  9000001    1    1    2    0    0  0.39336990898E-03 -0.41412273321E-02 -0.35494071071E-01  0.35750994182E-01  0.10000000475E-02 0.  1.
</event>
<event>
 4   0  0.2441219E-02  0.9118800E+02  0.7818609E-02  0.1379984E+01
      -11   -1    0    0    0    0  0.00000000000E+00  0.00000000000E+00  0.35740347158E-01  0.35744000000E-01  0.51099999109E-03 0. -1.
       11   -1    0    0    0    0 -0.00000000000E+00 -0.00000000000E+00 -0.35740347158E-01  0.35744000000E-01  0.51099999109E-03 0.  1.
       22    1    1    2    0    0 -0.90351532351E-02  0.34586690965E-02  0.34402575470E-01  0.35737005818E-01  0.00000000000E+00 0. -1.
  9000001    1    1    2    0    0  0.90351532351E-02 -0.34586690965E-02 -0.34402575470E-01  0.35750994182E-01  0.10000000475E-02 0.  1.
</event>
<event>
 4   0  0.2441219E-02  0.9118800E+02  0.7818609E-02  0.1379984E+01
      -11   -1    0    0    0    0  0.00000000000E+00  0.00000000000E+00  0.35740347158E-01  0.35744000000E-01  0.51099999109E-03 0.  1.
       11   -1    0    0    0    0 -0.00000000000E+00 -0.00000000000E+00 -0.35740347158E-01  0.35744000000E-01  0.51099999109E-03 0. -1.
       22    1    1    2    0    0 -0.30985043028E-01  0.17787705823E-01 -0.81130448577E-03  0.35737005818E-01  0.00000000000E+00 0. -1.
  9000001    1    1    2    0    0  0.30985043028E-01 -0.17787705823E-01  0.81130448577E-03  0.35750994182E-01  0.10000000475E-02 0.  1.
</event>
<event>
 4   0  0.2441219E-02  0.9118800E+02  0.7818609E-02  0.1379984E+01
      -11   -1    0    0    0    0  0.00000000000E+00  0.00000000000E+00  0.35740347158E-01  0.35744000000E-01  0.51099999109E-03 0. -1.
       11   -1    0    0    0    0 -0.00000000000E+00 -0.00000000000E+00 -0.35740347158E-01  0.35744000000E-01  0.51099999109E-03 0.  1.
       22    1    1    2    0    0 -0.12551192934E-01  0.49552355195E-02 -0.33091491078E-01  0.35737005818E-01  0.00000000000E+00 0.  1.
  9000001    1    1    2    0    0  0.12551192934E-01 -0.49552355195E-02  0.33091491078E-01  0.35750994182E-01  0.10000000475E-02 0. -1.
</event>
<event>
 4   0  0.2441219E-02  0.9118800E+02  0.7818609E-02  0.1379984E+01
      -11   -1    0    0    0    0  0.00000000000E+00  0.00000000000E+00  0.35740347158E-01  0.35744000000E-01  0.51099999109E-03 0.  1.
       11   -1    0    0    0    0 -0.00000000000E+00 -0.00000000000E+00 -0.35740347158E-01  0.35744000000E-01  0.51099999109E-03 0. -1.
       22    1    1    2    0    0 -0.31756547389E-01  0.37229616081E-04  0.16390664927E-01  0.35737005818E-01  0.00000000000E+00 0. -1.
  9000001    1    1    2    0    0  0.31756547389E-01 -0.37229616081E-04 -0.16390664927E-01  0.35750994182E-01  0.10000000475E-02 0.  1.
</event>
<event>
 4   0  0.2441219E-02  0.9118800E+02  0.7818609E-02  0.1379984E+01
      -11   -1    0    0    0    0  0.00000000000E+00  0.00000000000E+00  0.35740347158E-01  0.35744000000E-01  0.51099999109E-03 0. -1.
       11   -1    0    0    0    0 -0.00000000000E+00 -0.00000000000E+00 -0.35740347158E-01  0.35744000000E-01  0.51099999109E-03 0.  1.
       22    1    1    2    0    0 -0.29713092614E-01 -0.15833350904E-01  0.11982099622E-01  0.35737005818E-01  0.00000000000E+00 0. -1.
  9000001    1    1    2    0    0  0.29713092614E-01  0.15833350904E-01 -0.11982099622E-01  0.35750994182E-01  0.10000000475E-02 0.  1.
</event>
<event>
 4   0  0.2441219E-02  0.9118800E+02  0.7818609E-02  0.1379984E+01
      -11   -1    0    0    0    0  0.00000000000E+00  0.00000000000E+00  0.35740347158E-01  0.35744000000E-01  0.51099999109E-03 0.  1.
       11   -1    0    0    0    0 -0.00000000000E+00 -0.00000000000E+00 -0.35740347158E-01  0.35744000000E-01  0.51099999109E-03 0. -1.
       22    1    1    2    0    0 -0.92756222551E-02  0.10581687680E-01 -0.32850027435E-01  0.35737005818E-01  0.00000000000E+00 0. -1.
  9000001    1    1    2    0    0  0.92756222551E-02 -0.10581687680E-01  0.32850027435E-01  0.35750994182E-01  0.10000000475E-02 0.  1.
</event>
<event>
 4   0  0.2441219E-02  0.9118800E+02  0.7818609E-02  0.1379984E+01
      -11   -1    0    0    0    0  0.00000000000E+00  0.00000000000E+00  0.35740347158E-01  0.35744000000E-01  0.51099999109E-03 0.  1.
       11   -1    0    0    0    0 -0.00000000000E+00 -0.00000000000E+00 -0.35740347158E-01  0.35744000000E-01  0.51099999109E-03 0. -1.
       22    1    1    2    0    0  0.65240358106E-02  0.23421353215E-01 -0.26191807024E-01  0.35737005818E-01  0.00000000000E+00 0. -1.
  9000001    1    1    2    0    0 -0.65240358106E-02 -0.23421353215E-01  0.26191807024E-01  0.35750994182E-01  0.10000000475E-02 0.  1.
</event>
<event>
 4   0  0.2441219E-02  0.9118800E+02  0.7818609E-02  0.1379984E+01
      -11   -1    0    0    0    0  0.00000000000E+00  0.00000000000E+00  0.35740347158E-01  0.35744000000E-01  0.51099999109E-03 0. -1.
       11   -1    0    0    0    0 -0.00000000000E+00 -0.00000000000E+00 -0.35740347158E-01  0.35744000000E-01  0.51099999109E-03 0.  1.
       22    1    1    2    0    0  0.23247234301E-02  0.53512778842E-02  0.35257525024E-01  0.35737005818E-01  0.00000000000E+00 0. -1.
  9000001    1    1    2    0    0 -0.23247234301E-02 -0.53512778842E-02 -0.35257525024E-01  0.35750994182E-01  0.10000000475E-02 0.  1.
</event>
<event>
 4   0  0.2441219E-02  0.9118800E+02  0.7818609E-02  0.1379984E+01
      -11   -1    0    0    0    0  0.00000000000E+00  0.00000000000E+00  0.35740347158E-01  0.35744000000E-01  0.51099999109E-03 0. -1.
       11   -1    0    0    0    0 -0.00000000000E+00 -0.00000000000E+00 -0.35740347158E-01  0.35744000000E-01  0.51099999109E-03 0.  1.
       22    1    1    2    0    0 -0.21330202034E-02 -0.22340582145E-02 -0.35603269423E-01  0.35737005818E-01  0.00000000000E+00 0.  1.
  9000001    1    1    2    0    0  0.21330202034E-02  0.22340582145E-02  0.35603269423E-01  0.35750994182E-01  0.10000000475E-02 0. -1.
</event>
<event>
 4   0  0.2441219E-02  0.9118800E+02  0.7818609E-02  0.1379984E+01
      -11   -1    0    0    0    0  0.00000000000E+00  0.00000000000E+00  0.35740347158E-01  0.35744000000E-01  0.51099999109E-03 0.  1.
       11   -1    0    0    0    0 -0.00000000000E+00 -0.00000000000E+00 -0.35740347158E-01  0.35744000000E-01  0.51099999109E-03 0. -1.
       22    1    1    2    0    0  0.37015824587E-02  0.71621234925E-04 -0.35544714692E-01  0.35737005818E-01  0.00000000000E+00 0. -1.
  9000001    1    1    2    0    0 -0.37015824587E-02 -0.71621234925E-04  0.35544714692E-01  0.35750994182E-01  0.10000000475E-02 0.  1.
</event>
<event>
 4   0  0.2441219E-02  0.9118800E+02  0.7818609E-02  0.1379984E+01
      -11   -1    0    0    0    0  0.00000000000E+00  0.00000000000E+00  0.35740347158E-01  0.35744000000E-01  0.51099999109E-03 0. -1.
       11   -1    0    0    0    0 -0.00000000000E+00 -0.00000000000E+00 -0.35740347158E-01  0.35744000000E-01  0.51099999109E-03 0.  1.
       22    1    1    2    0    0  0.18923536348E-01 -0.87397020522E-03  0.30302962446E-01  0.35737005818E-01  0.00000000000E+00 0. -1.
  9000001    1    1    2    0    0 -0.18923536348E-01  0.87397020522E-03 -0.30302962446E-01  0.35750994182E-01  0.10000000475E-02 0.  1.
</event>
<event>
 4   0  0.2441219E-02  0.9118800E+02  0.7818609E-02  0.1379984E+01
      -11   -1    0    0    0    0  0.00000000000E+00  0.00000000000E+00  0.35740347158E-01  0.35744000000E-01  0.51099999109E-03 0.  1.
       11   -1    0    0    0    0 -0.00000000000E+00 -0.00000000000E+00 -0.35740347158E-01  0.35744000000E-01  0.51099999109E-03 0. -1.
       22    1    1    2    0    0  0.34026217261E-02  0.20331398324E-02  0.35516504511E-01  0.35737005818E-01  0.00000000000E+00 0.  1.
  9000001    1    1    2    0    0 -0.34026217261E-02 -0.20331398324E-02 -0.35516504511E-01  0.35750994182E-01  0.10000000475E-02 0. -1.
</event>
<event>
 4   0  0.2441219E-02  0.9118800E+02  0.7818609E-02  0.1379984E+01
      -11   -1    0    0    0    0  0.00000000000E+00  0.00000000000E+00  0.35740347158E-01  0.35744000000E-01  0.51099999109E-03 0.  1.
       11   -1    0    0    0    0 -0.00000000000E+00 -0.00000000000E+00 -0.35740347158E-01  0.35744000000E-01  0.51099999109E-03 0. -1.
       22    1    1    2    0    0  0.26780583350E-01 -0.14110149043E-01  0.18995726737E-01  0.35737005818E-01  0.00000000000E+00 0.  1.
  9000001    1    1    2    0    0 -0.26780583350E-01  0.14110149043E-01 -0.18995726737E-01  0.35750994182E-01  0.10000000475E-02 0. -1.
</event>
<event>
 4   0  0.2441219E-02  0.9118800E+02  0.7818609E-02  0.1379984E+01
      -11   -1    0    0    0    0  0.00000000000E+00  0.00000000000E+00  0.35740347158E-01  0.35744000000E-01  0.51099999109E-03 0.  1.
       11   -1    0    0    0    0 -0.00000000000E+00 -0.00000000000E+00 -0.35740347158E-01  0.35744000000E-01  0.51099999109E-03 0. -1.
       22    1    1    2    0    0 -0.86825018414E-02  0.21547121998E-02 -0.34599204644E-01  0.35737005818E-01  0.00000000000E+00 0. -1.
  9000001    1    1    2    0    0  0.86825018414E-02 -0.21547121998E-02  0.34599204644E-01  0.35750994182E-01  0.10000000475E-02 0.  1.
</event>
<event>
 4   0  0.2441219E-02  0.9118800E+02  0.7818609E-02  0.1379984E+01
      -11   -1    0    0    0    0  0.00000000000E+00  0.00000000000E+00  0.35740347158E-01  0.35744000000E-01  0.51099999109E-03 0.  1.
       11   -1    0    0    0    0 -0.00000000000E+00 -0.00000000000E+00 -0.35740347158E-01  0.35744000000E-01  0.51099999109E-03 0. -1.
       22    1    1    2    0    0 -0.35812261168E-02 -0.85354988726E-03  0.35546868455E-01  0.35737005818E-01  0.00000000000E+00 0.  1.
  9000001    1    1    2    0    0  0.35812261168E-02  0.85354988726E-03 -0.35546868455E-01  0.35750994182E-01  0.10000000475E-02 0. -1.
</event>
<event>
 4   0  0.2441219E-02  0.9118800E+02  0.7818609E-02  0.1379984E+01
      -11   -1    0    0    0    0  0.00000000000E+00  0.00000000000E+00  0.35740347158E-01  0.35744000000E-01  0.51099999109E-03 0.  1.
       11   -1    0    0    0    0 -0.00000000000E+00 -0.00000000000E+00 -0.35740347158E-01  0.35744000000E-01  0.51099999109E-03 0. -1.
       22    1    1    2    0    0  0.48099306707E-03 -0.43591822932E-02 -0.35466882585E-01  0.35737005818E-01  0.00000000000E+00 0. -1.
  9000001    1    1    2    0    0 -0.48099306707E-03  0.43591822932E-02  0.35466882585E-01  0.35750994182E-01  0.10000000475E-02 0.  1.
</event>
<event>
 4   0  0.2441219E-02  0.9118800E+02  0.7818609E-02  0.1379984E+01
      -11   -1    0    0    0    0  0.00000000000E+00  0.00000000000E+00  0.35740347158E-01  0.35744000000E-01  0.51099999109E-03 0. -1.
       11   -1    0    0    0    0 -0.00000000000E+00 -0.00000000000E+00 -0.35740347158E-01  0.35744000000E-01  0.51099999109E-03 0.  1.
       22    1    1    2    0    0 -0.27702757415E-03 -0.42073355048E-02 -0.35487394502E-01  0.35737005818E-01  0.00000000000E+00 0.  1.
  9000001    1    1    2    0    0  0.27702757415E-03  0.42073355048E-02  0.35487394502E-01  0.35750994182E-01  0.10000000475E-02 0. -1.
</event>
<event>
 4   0  0.2441219E-02  0.9118800E+02  0.7818609E-02  0.1379984E+01
      -11   -1    0    0    0    0  0.00000000000E+00  0.00000000000E+00  0.35740347158E-01  0.35744000000E-01  0.51099999109E-03 0.  1.
       11   -1    0    0    0    0 -0.00000000000E+00 -0.00000000000E+00 -0.35740347158E-01  0.35744000000E-01  0.51099999109E-03 0. -1.
       22    1    1    2    0    0 -0.61028528294E-03  0.64020694290E-02  0.35153586499E-01  0.35737005818E-01  0.00000000000E+00 0.  1.
  9000001    1    1    2    0    0  0.61028528294E-03 -0.64020694290E-02 -0.35153586499E-01  0.35750994182E-01  0.10000000475E-02 0. -1.
</event>
<event>
 4   0  0.2441219E-02  0.9118800E+02  0.7818609E-02  0.1379984E+01
      -11   -1    0    0    0    0  0.00000000000E+00  0.00000000000E+00  0.35740347158E-01  0.35744000000E-01  0.51099999109E-03 0. -1.
       11   -1    0    0    0    0 -0.00000000000E+00 -0.00000000000E+00 -0.35740347158E-01  0.35744000000E-01  0.51099999109E-03 0.  1.
       22    1    1    2    0    0  0.29233867074E-02  0.35903597246E-02 -0.35435811153E-01  0.35737005818E-01  0.00000000000E+00 0.  1.
  9000001    1    1    2    0    0 -0.29233867074E-02 -0.35903597246E-02  0.35435811153E-01  0.35750994182E-01  0.10000000475E-02 0. -1.
</event>
<event>
 4   0  0.2441219E-02  0.9118800E+02  0.7818609E-02  0.1379984E+01
      -11   -1    0    0    0    0  0.00000000000E+00  0.00000000000E+00  0.35740347158E-01  0.35744000000E-01  0.51099999109E-03 0.  1.
       11   -1    0    0    0    0 -0.00000000000E+00 -0.00000000000E+00 -0.35740347158E-01  0.35744000000E-01  0.51099999109E-03 0. -1.
       22    1    1    2    0    0 -0.60359563165E-02  0.19268439059E-02  0.35170841457E-01  0.35737005818E-01  0.00000000000E+00 0.  1.
  9000001    1    1    2    0    0  0.60359563165E-02 -0.19268439059E-02 -0.35170841457E-01  0.35750994182E-01  0.10000000475E-02 0. -1.
</event>
<event>
 4   0  0.2441219E-02  0.9118800E+02  0.7818609E-02  0.1379984E+01
      -11   -1    0    0    0    0  0.00000000000E+00  0.00000000000E+00  0.35740347158E-01  0.35744000000E-01  0.51099999109E-03 0.  1.
       11   -1    0    0    0    0 -0.00000000000E+00 -0.00000000000E+00 -0.35740347158E-01  0.35744000000E-01  0.51099999109E-03 0. -1.
       22    1    1    2    0    0  0.66059900689E-02  0.10670411194E-01 -0.33460974359E-01  0.35737005818E-01  0.00000000000E+00 0. -1.
  9000001    1    1    2    0    0 -0.66059900689E-02 -0.10670411194E-01  0.33460974359E-01  0.35750994182E-01  0.10000000475E-02 0.  1.
</event>
<event>
 4   0  0.2441219E-02  0.9118800E+02  0.7818609E-02  0.1379984E+01
      -11   -1    0    0    0    0  0.00000000000E+00  0.00000000000E+00  0.35740347158E-01  0.35744000000E-01  0.51099999109E-03 0.  1.
       11   -1    0    0    0    0 -0.00000000000E+00 -0.00000000000E+00 -0.35740347158E-01  0.35744000000E-01  0.51099999109E-03 0. -1.
       22    1    1    2    0    0 -0.63100081192E-02 -0.12583295833E-01  0.32847801272E-01  0.35737005818E-01  0.00000000000E+00 0.  1.
  9000001    1    1    2    0    0  0.63100081192E-02  0.12583295833E-01 -0.32847801272E-01  0.35750994182E-01  0.10000000475E-02 0. -1.
</event>
<event>
 4   0  0.2441219E-02  0.9118800E+02  0.7818609E-02  0.1379984E+01
      -11   -1    0    0    0    0  0.00000000000E+00  0.00000000000E+00  0.35740347158E-01  0.35744000000E-01  0.51099999109E-03 0.  1.
       11   -1    0    0    0    0 -0.00000000000E+00 -0.00000000000E+00 -0.35740347158E-01  0.35744000000E-01  0.51099999109E-03 0. -1.
       22    1    1    2    0    0 -0.72736718675E-02  0.42137686440E-03 -0.34986421994E-01  0.35737005818E-01  0.00000000000E+00 0. -1.
  9000001    1    1    2    0    0  0.72736718675E-02 -0.42137686440E-03  0.34986421994E-01  0.35750994182E-01  0.10000000475E-02 0.  1.
</event>
<event>
 4   0  0.2441219E-02  0.9118800E+02  0.7818609E-02  0.1379984E+01
      -11   -1    0    0    0    0  0.00000000000E+00  0.00000000000E+00  0.35740347158E-01  0.35744000000E-01  0.51099999109E-03 0. -1.
       11   -1    0    0    0    0 -0.00000000000E+00 -0.00000000000E+00 -0.35740347158E-01  0.35744000000E-01  0.51099999109E-03 0.  1.
       22    1    1    2    0    0  0.11043550251E-01 -0.20339871686E-01  0.27229821933E-01  0.35737005818E-01  0.00000000000E+00 0. -1.
  9000001    1    1    2    0    0 -0.11043550251E-01  0.20339871686E-01 -0.27229821933E-01  0.35750994182E-01  0.10000000475E-02 0.  1.
</event>
<event>
 4   0  0.2441219E-02  0.9118800E+02  0.7818609E-02  0.1379984E+01
      -11   -1    0    0    0    0  0.00000000000E+00  0.00000000000E+00  0.35740347158E-01  0.35744000000E-01  0.51099999109E-03 0. -1.
       11   -1    0    0    0    0 -0.00000000000E+00 -0.00000000000E+00 -0.35740347158E-01  0.35744000000E-01  0.51099999109E-03 0.  1.
       22    1    1    2    0    0 -0.96115754362E-02  0.11547731623E-01 -0.32425315679E-01  0.35737005818E-01  0.00000000000E+00 0.  1.
  9000001    1    1    2    0    0  0.96115754362E-02 -0.11547731623E-01  0.32425315679E-01  0.35750994182E-01  0.10000000475E-02 0. -1.
</event>
<event>
 4   0  0.2441219E-02  0.9118800E+02  0.7818609E-02  0.1379984E+01
      -11   -1    0    0    0    0  0.00000000000E+00  0.00000000000E+00  0.35740347158E-01  0.35744000000E-01  0.51099999109E-03 0. -1.
       11   -1    0    0    0    0 -0.00000000000E+00 -0.00000000000E+00 -0.35740347158E-01  0.35744000000E-01  0.51099999109E-03 0.  1.
       22    1    1    2    0    0  0.53535079963E-02 -0.93289371055E-02  0.34079971677E-01  0.35737005818E-01  0.00000000000E+00 0. -1.
  9000001    1    1    2    0    0 -0.53535079963E-02  0.93289371055E-02 -0.34079971677E-01  0.35750994182E-01  0.10000000475E-02 0.  1.
</event>
<event>
 4   0  0.2441219E-02  0.9118800E+02  0.7818609E-02  0.1379984E+01
      -11   -1    0    0    0    0  0.00000000000E+00  0.00000000000E+00  0.35740347158E-01  0.35744000000E-01  0.51099999109E-03 0.  1.
       11   -1    0    0    0    0 -0.00000000000E+00 -0.00000000000E+00 -0.35740347158E-01  0.35744000000E-01  0.51099999109E-03 0. -1.
       22    1    1    2    0    0 -0.61213863387E-02 -0.16507437705E-01  0.31099304085E-01  0.35737005818E-01  0.00000000000E+00 0.  1.
  9000001    1    1    2    0    0  0.61213863387E-02  0.16507437705E-01 -0.31099304085E-01  0.35750994182E-01  0.10000000475E-02 0. -1.
</event>
<event>
 4   0  0.2441219E-02  0.9118800E+02  0.7818609E-02  0.1379984E+01
      -11   -1    0    0    0    0  0.00000000000E+00  0.00000000000E+00  0.35740347158E-01  0.35744000000E-01  0.51099999109E-03 0.  1.
       11   -1    0    0    0    0 -0.00000000000E+00 -0.00000000000E+00 -0.35740347158E-01  0.35744000000E-01  0.51099999109E-03 0. -1.
       22    1    1    2    0    0  0.64317097397E-02 -0.58112944580E-03 -0.35148669723E-01  0.35737005818E-01  0.00000000000E+00 0. -1.
  9000001    1    1    2    0    0 -0.64317097397E-02  0.58112944580E-03  0.35148669723E-01  0.35750994182E-01  0.10000000475E-02 0.  1.
</event>
<event>
 4   0  0.2441219E-02  0.9118800E+02  0.7818609E-02  0.1379984E+01
      -11   -1    0    0    0    0  0.00000000000E+00  0.00000000000E+00  0.35740347158E-01  0.35744000000E-01  0.51099999109E-03 0. -1.
       11   -1    0    0    0    0 -0.00000000000E+00 -0.00000000000E+00 -0.35740347158E-01  0.35744000000E-01  0.51099999109E-03 0.  1.
       22    1    1    2    0    0  0.97734365910E-02  0.89823117215E-03  0.34362868082E-01  0.35737005818E-01  0.00000000000E+00 0. -1.
  9000001    1    1    2    0    0 -0.97734365910E-02 -0.89823117215E-03 -0.34362868082E-01  0.35750994182E-01  0.10000000475E-02 0.  1.
</event>
<event>
 4   0  0.2441219E-02  0.9118800E+02  0.7818609E-02  0.1379984E+01
      -11   -1    0    0    0    0  0.00000000000E+00  0.00000000000E+00  0.35740347158E-01  0.35744000000E-01  0.51099999109E-03 0.  1.
       11   -1    0    0    0    0 -0.00000000000E+00 -0.00000000000E+00 -0.35740347158E-01  0.35744000000E-01  0.51099999109E-03 0. -1.
       22    1    1    2    0    0 -0.81540212032E-02  0.83148560663E-02 -0.33786220441E-01  0.35737005818E-01  0.00000000000E+00 0. -1.
  9000001    1    1    2    0    0  0.81540212032E-02 -0.83148560663E-02  0.33786220441E-01  0.35750994182E-01  0.10000000475E-02 0.  1.
</event>
<event>
 4   0  0.2441219E-02  0.9118800E+02  0.7818609E-02  0.1379984E+01
      -11   -1    0    0    0    0  0.00000000000E+00  0.00000000000E+00  0.35740347158E-01  0.35744000000E-01  0.51099999109E-03 0.  1.
       11   -1    0    0    0    0 -0.00000000000E+00 -0.00000000000E+00 -0.35740347158E-01  0.35744000000E-01  0.51099999109E-03 0. -1.
       22    1    1    2    0    0  0.24746896626E-01  0.68369065966E-02 -0.24859231694E-01  0.35737005818E-01  0.00000000000E+00 0. -1.
  9000001    1    1    2    0    0 -0.24746896626E-01 -0.68369065966E-02  0.24859231694E-01  0.35750994182E-01  0.10000000475E-02 0.  1.
</event>
<event>
 4   0  0.2441219E-02  0.9118800E+02  0.7818609E-02  0.1379984E+01
      -11   -1    0    0    0    0  0.00000000000E+00  0.00000000000E+00  0.35740347158E-01  0.35744000000E-01  0.51099999109E-03 0.  1.
       11   -1    0    0    0    0 -0.00000000000E+00 -0.00000000000E+00 -0.35740347158E-01  0.35744000000E-01  0.51099999109E-03 0. -1.
       22    1    1    2    0    0  0.12646210720E-01 -0.49939204274E-02 -0.33049473491E-01  0.35737005818E-01  0.00000000000E+00 0. -1.
  9000001    1    1    2    0    0 -0.12646210720E-01  0.49939204274E-02  0.33049473491E-01  0.35750994182E-01  0.10000000475E-02 0.  1.
</event>
<event>
 4   0  0.2441219E-02  0.9118800E+02  0.7818609E-02  0.1379984E+01
      -11   -1    0    0    0    0  0.00000000000E+00  0.00000000000E+00  0.35740347158E-01  0.35744000000E-01  0.51099999109E-03 0. -1.
       11   -1    0    0    0    0 -0.00000000000E+00 -0.00000000000E+00 -0.35740347158E-01  0.35744000000E-01  0.51099999109E-03 0.  1.
       22    1    1    2    0    0 -0.76529020128E-02 -0.63373678433E-02 -0.34327896010E-01  0.35737005818E-01  0.00000000000E+00 0.  1.
  9000001    1    1    2    0    0  0.76529020128E-02  0.63373678433E-02  0.34327896010E-01  0.35750994182E-01  0.10000000475E-02 0. -1.
</event>
<event>
 4   0  0.2441219E-02  0.9118800E+02  0.7818609E-02  0.1379984E+01
      -11   -1    0    0    0    0  0.00000000000E+00  0.00000000000E+00  0.35740347158E-01  0.35744000000E-01  0.51099999109E-03 0.  1.
       11   -1    0    0    0    0 -0.00000000000E+00 -0.00000000000E+00 -0.35740347158E-01  0.35744000000E-01  0.51099999109E-03 0. -1.
       22    1    1    2    0    0  0.90569370699E-04 -0.37611600154E-02  0.35538416642E-01  0.35737005818E-01  0.00000000000E+00 0.  1.
  9000001    1    1    2    0    0 -0.90569370699E-04  0.37611600154E-02 -0.35538416642E-01  0.35750994182E-01  0.10000000475E-02 0. -1.
</event>
<event>
 4   0  0.2441219E-02  0.9118800E+02  0.7818609E-02  0.1379984E+01
      -11   -1    0    0    0    0  0.00000000000E+00  0.00000000000E+00  0.35740347158E-01  0.35744000000E-01  0.51099999109E-03 0.  1.
       11   -1    0    0    0    0 -0.00000000000E+00 -0.00000000000E+00 -0.35740347158E-01  0.35744000000E-01  0.51099999109E-03 0. -1.
       22    1    1    2    0    0  0.61712643679E-02 -0.15784826924E-02  0.35164719157E-01  0.35737005818E-01  0.00000000000E+00 0.  1.
  9000001    1    1    2    0    0 -0.61712643679E-02  0.15784826924E-02 -0.35164719157E-01  0.35750994182E-01  0.10000000475E-02 0. -1.
</event>
<event>
 4   0  0.2441219E-02  0.9118800E+02  0.7818609E-02  0.1379984E+01
      -11   -1    0    0    0    0  0.00000000000E+00  0.00000000000E+00  0.35740347158E-01  0.35744000000E-01  0.51099999109E-03 0.  1.
       11   -1    0    0    0    0 -0.00000000000E+00 -0.00000000000E+00 -0.35740347158E-01  0.35744000000E-01  0.51099999109E-03 0. -1.
       22    1    1    2    0    0  0.83790791852E-02  0.18783665691E-02 -0.34690003689E-01  0.35737005818E-01  0.00000000000E+00 0. -1.
  9000001    1    1    2    0    0 -0.83790791852E-02 -0.18783665691E-02  0.34690003689E-01  0.35750994182E-01  0.10000000475E-02 0.  1.
</event>
<event>
 4   0  0.2441219E-02  0.9118800E+02  0.7818609E-02  0.1379984E+01
      -11   -1    0    0    0    0  0.00000000000E+00  0.00000000000E+00  0.35740347158E-01  0.35744000000E-01  0.51099999109E-03 0. -1.
       11   -1    0    0    0    0 -0.00000000000E+00 -0.00000000000E+00 -0.35740347158E-01  0.35744000000E-01  0.51099999109E-03 0.  1.
       22    1    1    2    0    0  0.12777005845E-01  0.38455432980E-02 -0.33152579134E-01  0.35737005818E-01  0.00000000000E+00 0.  1.
  9000001    1    1    2    0    0 -0.12777005845E-01 -0.38455432980E-02  0.33152579134E-01  0.35750994182E-01  0.10000000475E-02 0. -1.
</event>
<event>
 4   0  0.2441219E-02  0.9118800E+02  0.7818609E-02  0.1379984E+01
      -11   -1    0    0    0    0  0.00000000000E+00  0.00000000000E+00  0.35740347158E-01  0.35744000000E-01  0.51099999109E-03 0. -1.
       11   -1    0    0    0    0 -0.00000000000E+00 -0.00000000000E+00 -0.35740347158E-01  0.35744000000E-01  0.51099999109E-03 0.  1.
       22    1    1    2    0    0  0.28043267975E-01 -0.21651271994E-01  0.46830681399E-02  0.35737005818E-01  0.00000000000E+00 0. -1.
  9000001    1    1    2    0    0 -0.28043267975E-01  0.21651271994E-01 -0.46830681399E-02  0.35750994182E-01  0.10000000475E-02 0.  1.
</event>
<event>
 4   0  0.2441219E-02  0.9118800E+02  0.7818609E-02  0.1379984E+01
      -11   -1    0    0    0    0  0.00000000000E+00  0.00000000000E+00  0.35740347158E-01  0.35744000000E-01  0.51099999109E-03 0.  1.
       11   -1    0    0    0    0 -0.00000000000E+00 -0.00000000000E+00 -0.35740347158E-01  0.35744000000E-01  0.51099999109E-03 0. -1.
       22    1    1    2    0    0  0.17127022499E-03 -0.94086700014E-02 -0.34475805722E-01  0.35737005818E-01  0.00000000000E+00 0. -1.
  9000001    1    1    2    0    0 -0.17127022499E-03  0.94086700014E-02  0.34475805722E-01  0.35750994182E-01  0.10000000475E-02 0.  1.
</event>
<event>
 4   0  0.2441219E-02  0.9118800E+02  0.7818609E-02  0.1379984E+01
      -11   -1    0    0    0    0  0.00000000000E+00  0.00000000000E+00  0.35740347158E-01  0.35744000000E-01  0.51099999109E-03 0. -1.
       11   -1    0    0    0    0 -0.00000000000E+00 -0.00000000000E+00 -0.35740347158E-01  0.35744000000E-01  0.51099999109E-03 0.  1.
       22    1    1    2    0    0 -0.45872938504E-03  0.20047790577E-01  0.29580555187E-01  0.35737005818E-01  0.00000000000E+00 0. -1.
  9000001    1    1    2    0    0  0.45872938504E-03 -0.20047790577E-01 -0.29580555187E-01  0.35750994182E-01  0.10000000475E-02 0.  1.
</event>
<event>
 4   0  0.2441219E-02  0.9118800E+02  0.7818609E-02  0.1379984E+01
      -11   -1    0    0    0    0  0.00000000000E+00  0.00000000000E+00  0.35740347158E-01  0.35744000000E-01  0.51099999109E-03 0. -1.
       11   -1    0    0    0    0 -0.00000000000E+00 -0.00000000000E+00 -0.35740347158E-01  0.35744000000E-01  0.51099999109E-03 0.  1.
       22    1    1    2    0    0  0.31335766280E-02  0.15002469053E-01  0.32283745209E-01  0.35737005818E-01  0.00000000000E+00 0. -1.
  9000001    1    1    2    0    0 -0.31335766280E-02 -0.15002469053E-01 -0.32283745209E-01  0.35750994182E-01  0.10000000475E-02 0.  1.
</event>
<event>
 4   0  0.2441219E-02  0.9118800E+02  0.7818609E-02  0.1379984E+01
      -11   -1    0    0    0    0  0.00000000000E+00  0.00000000000E+00  0.35740347158E-01  0.35744000000E-01  0.51099999109E-03 0.  1.
       11   -1    0    0    0    0 -0.00000000000E+00 -0.00000000000E+00 -0.35740347158E-01  0.35744000000E-01  0.51099999109E-03 0. -1.
       22    1    1    2    0    0 -0.53994548196E-02  0.42523077693E-02  0.35069892374E-01  0.35737005818E-01  0.00000000000E+00 0.  1.
  9000001    1    1    2    0    0  0.53994548196E-02 -0.42523077693E-02 -0.35069892374E-01  0.35750994182E-01  0.10000000475E-02 0. -1.
</event>
<event>
 4   0  0.2441219E-02  0.9118800E+02  0.7818609E-02  0.1379984E+01
      -11   -1    0    0    0    0  0.00000000000E+00  0.00000000000E+00  0.35740347158E-01  0.35744000000E-01  0.51099999109E-03 0.  1.
       11   -1    0    0    0    0 -0.00000000000E+00 -0.00000000000E+00 -0.35740347158E-01  0.35744000000E-01  0.51099999109E-03 0. -1.
       22    1    1    2    0    0  0.38319258867E-02 -0.14804156887E-02 -0.35500116877E-01  0.35737005818E-01  0.00000000000E+00 0. -1.
  9000001    1    1    2    0    0 -0.38319258867E-02  0.14804156887E-02  0.35500116877E-01  0.35750994182E-01  0.10000000475E-02 0.  1.
</event>
<event>
 4   0  0.2441219E-02  0.9118800E+02  0.7818609E-02  0.1379984E+01
      -11   -1    0    0    0    0  0.00000000000E+00  0.00000000000E+00  0.35740347158E-01  0.35744000000E-01  0.51099999109E-03 0.  1.
       11   -1    0    0    0    0 -0.00000000000E+00 -0.00000000000E+00 -0.35740347158E-01  0.35744000000E-01  0.51099999109E-03 0. -1.
       22    1    1    2    0    0 -0.35319106520E-01  0.43720003273E-02  0.32526777635E-02  0.35737005818E-01  0.00000000000E+00 0.  1.
  9000001    1    1    2    0    0  0.35319106520E-01 -0.43720003273E-02 -0.32526777635E-02  0.35750994182E-01  0.10000000475E-02 0. -1.
</event>
<event>
 4   0  0.2441219E-02  0.9118800E+02  0.7818609E-02  0.1379984E+01
      -11   -1    0    0    0    0  0.00000000000E+00  0.00000000000E+00  0.35740347158E-01  0.35744000000E-01  0.51099999109E-03 0. -1.
       11   -1    0    0    0    0 -0.00000000000E+00 -0.00000000000E+00 -0.35740347158E-01  0.35744000000E-01  0.51099999109E-03 0.  1.
       22    1    1    2    0    0 -0.19928837926E-01  0.81071901570E-02  0.28535039365E-01  0.35737005818E-01  0.00000000000E+00 0. -1.
  9000001    1    1    2    0    0  0.19928837926E-01 -0.81071901570E-02 -0.28535039365E-01  0.35750994182E-01  0.10000000475E-02 0.  1.
</event>
<event>
 4   0  0.2441219E-02  0.9118800E+02  0.7818609E-02  0.1379984E+01
      -11   -1    0    0    0    0  0.00000000000E+00  0.00000000000E+00  0.35740347158E-01  0.35744000000E-01  0.51099999109E-03 0.  1.
       11   -1    0    0    0    0 -0.00000000000E+00 -0.00000000000E+00 -0.35740347158E-01  0.35744000000E-01  0.51099999109E-03 0. -1.
       22    1    1    2    0    0 -0.72462068821E-02 -0.48832991964E-03  0.34991250400E-01  0.35737005818E-01  0.00000000000E+00 0.  1.
  9000001    1    1    2    0    0  0.72462068821E-02  0.48832991964E-03 -0.34991250400E-01  0.35750994182E-01  0.10000000475E-02 0. -1.
</event>
<event>
 4   0  0.2441219E-02  0.9118800E+02  0.7818609E-02  0.1379984E+01
      -11   -1    0    0    0    0  0.00000000000E+00  0.00000000000E+00  0.35740347158E-01  0.35744000000E-01  0.51099999109E-03 0.  1.
       11   -1    0    0    0    0 -0.00000000000E+00 -0.00000000000E+00 -0.35740347158E-01  0.35744000000E-01  0.51099999109E-03 0. -1.
       22    1    1    2    0    0  0.25399418249E-01  0.14787772206E-01  0.20330394258E-01  0.35737005818E-01  0.00000000000E+00 0.  1.
  9000001    1    1    2    0    0 -0.25399418249E-01 -0.14787772206E-01 -0.20330394258E-01  0.35750994182E-01  0.10000000475E-02 0. -1.
</event>
<event>
 4   0  0.2441219E-02  0.9118800E+02  0.7818609E-02  0.1379984E+01
      -11   -1    0    0    0    0  0.00000000000E+00  0.00000000000E+00  0.35740347158E-01  0.35744000000E-01  0.51099999109E-03 0.  1.
       11   -1    0    0    0    0 -0.00000000000E+00 -0.00000000000E+00 -0.35740347158E-01  0.35744000000E-01  0.51099999109E-03 0. -1.
       22    1    1    2    0    0  0.35486487432E-01 -0.42238281317E-02 -0.45503021488E-04  0.35737005818E-01  0.00000000000E+00 0.  1.
  9000001    1    1    2    0    0 -0.35486487432E-01  0.42238281317E-02  0.45503021488E-04  0.35750994182E-01  0.10000000475E-02 0. -1.
</event>
<event>
 4   0  0.2441219E-02  0.9118800E+02  0.7818609E-02  0.1379984E+01
      -11   -1    0    0    0    0  0.00000000000E+00  0.00000000000E+00  0.35740347158E-01  0.35744000000E-01  0.51099999109E-03 0.  1.
       11   -1    0    0    0    0 -0.00000000000E+00 -0.00000000000E+00 -0.35740347158E-01  0.35744000000E-01  0.51099999109E-03 0. -1.
       22    1    1    2    0    0  0.14760707633E-01 -0.25591291895E-01  0.20108229017E-01  0.35737005818E-01  0.00000000000E+00 0.  1.
  9000001    1    1    2    0    0 -0.14760707633E-01  0.25591291895E-01 -0.20108229017E-01  0.35750994182E-01  0.10000000475E-02 0. -1.
</event>
<event>
 4   0  0.2441219E-02  0.9118800E+02  0.7818609E-02  0.1379984E+01
      -11   -1    0    0    0    0  0.00000000000E+00  0.00000000000E+00  0.35740347158E-01  0.35744000000E-01  0.51099999109E-03 0. -1.
       11   -1    0    0    0    0 -0.00000000000E+00 -0.00000000000E+00 -0.35740347158E-01  0.35744000000E-01  0.51099999109E-03 0.  1.
       22    1    1    2    0    0  0.75488704078E-03  0.46173522819E-02  0.35429419814E-01  0.35737005818E-01  0.00000000000E+00 0. -1.
  9000001    1    1    2    0    0 -0.75488704078E-03 -0.46173522819E-02 -0.35429419814E-01  0.35750994182E-01  0.10000000475E-02 0.  1.
</event>
<event>
 4   0  0.2441219E-02  0.9118800E+02  0.7818609E-02  0.1379984E+01
      -11   -1    0    0    0    0  0.00000000000E+00  0.00000000000E+00  0.35740347158E-01  0.35744000000E-01  0.51099999109E-03 0. -1.
       11   -1    0    0    0    0 -0.00000000000E+00 -0.00000000000E+00 -0.35740347158E-01  0.35744000000E-01  0.51099999109E-03 0.  1.
       22    1    1    2    0    0 -0.40990030741E-02 -0.16403984753E-01 -0.31483980734E-01  0.35737005818E-01  0.00000000000E+00 0.  1.
  9000001    1    1    2    0    0  0.40990030741E-02  0.16403984753E-01  0.31483980734E-01  0.35750994182E-01  0.10000000475E-02 0. -1.
</event>
<event>
 4   0  0.2441219E-02  0.9118800E+02  0.7818609E-02  0.1379984E+01
      -11   -1    0    0    0    0  0.00000000000E+00  0.00000000000E+00  0.35740347158E-01  0.35744000000E-01  0.51099999109E-03 0. -1.
       11   -1    0    0    0    0 -0.00000000000E+00 -0.00000000000E+00 -0.35740347158E-01  0.35744000000E-01  0.51099999109E-03 0.  1.
       22    1    1    2    0    0 -0.19396749104E-02  0.24191249239E-02  0.35602234210E-01  0.35737005818E-01  0.00000000000E+00 0. -1.
  9000001    1    1    2    0    0  0.19396749104E-02 -0.24191249239E-02 -0.35602234210E-01  0.35750994182E-01  0.10000000475E-02 0.  1.
</event>
<event>
 4   0  0.2441219E-02  0.9118800E+02  0.7818609E-02  0.1379984E+01
      -11   -1    0    0    0    0  0.00000000000E+00  0.00000000000E+00  0.35740347158E-01  0.35744000000E-01  0.51099999109E-03 0.  1.
       11   -1    0    0    0    0 -0.00000000000E+00 -0.00000000000E+00 -0.35740347158E-01  0.35744000000E-01  0.51099999109E-03 0. -1.
       22    1    1    2    0    0 -0.19353500090E-01 -0.11001363937E-01 -0.27956137263E-01  0.35737005818E-01  0.00000000000E+00 0. -1.
  9000001    1    1    2    0    0  0.19353500090E-01  0.11001363937E-01  0.27956137263E-01  0.35750994182E-01  0.10000000475E-02 0.  1.
</event>
<event>
 4   0  0.2441219E-02  0.9118800E+02  0.7818609E-02  0.1379984E+01
      -11   -1    0    0    0    0  0.00000000000E+00  0.00000000000E+00  0.35740347158E-01  0.35744000000E-01  0.51099999109E-03 0. -1.
       11   -1    0    0    0    0 -0.00000000000E+00 -0.00000000000E+00 -0.35740347158E-01  0.35744000000E-01  0.51099999109E-03 0.  1.
       22    1    1    2    0    0  0.87311519562E-03  0.92425250781E-02 -0.34510099752E-01  0.35737005818E-01  0.00000000000E+00 0.  1.
  9000001    1    1    2    0    0 -0.87311519562E-03 -0.92425250781E-02  0.34510099752E-01  0.35750994182E-01  0.10000000475E-02 0. -1.
</event>
<event>
 4   0  0.2441219E-02  0.9118800E+02  0.7818609E-02  0.1379984E+01
      -11   -1    0    0    0    0  0.00000000000E+00  0.00000000000E+00  0.35740347158E-01  0.35744000000E-01  0.51099999109E-03 0. -1.
       11   -1    0    0    0    0 -0.00000000000E+00 -0.00000000000E+00 -0.35740347158E-01  0.35744000000E-01  0.51099999109E-03 0.  1.
       22    1    1    2    0    0  0.35048523206E-02 -0.87024819565E-03 -0.35554075198E-01  0.35737005818E-01  0.00000000000E+00 0.  1.
  9000001    1    1    2    0    0 -0.35048523206E-02  0.87024819565E-03  0.35554075198E-01  0.35750994182E-01  0.10000000475E-02 0. -1.
</event>
<event>
 4   0  0.2441219E-02  0.9118800E+02  0.7818609E-02  0.1379984E+01
      -11   -1    0    0    0    0  0.00000000000E+00  0.00000000000E+00  0.35740347158E-01  0.35744000000E-01  0.51099999109E-03 0.  1.
       11   -1    0    0    0    0 -0.00000000000E+00 -0.00000000000E+00 -0.35740347158E-01  0.35744000000E-01  0.51099999109E-03 0. -1.
       22    1    1    2    0    0 -0.22778214589E-01 -0.27514681104E-01  0.11085345084E-02  0.35737005818E-01  0.00000000000E+00 0.  1.
  9000001    1    1    2    0    0  0.22778214589E-01  0.27514681104E-01 -0.11085345084E-02  0.35750994182E-01  0.10000000475E-02 0. -1.
</event>
<event>
 4   0  0.2441219E-02  0.9118800E+02  0.7818609E-02  0.1379984E+01
      -11   -1    0    0    0    0  0.00000000000E+00  0.00000000000E+00  0.35740347158E-01  0.35744000000E-01  0.51099999109E-03 0. -1.
       11   -1    0    0    0    0 -0.00000000000E+00 -0.00000000000E+00 -0.35740347158E-01  0.35744000000E-01  0.51099999109E-03 0.  1.
       22    1    1    2    0    0 -0.19076795722E-03  0.65613864542E-02  0.35128982340E-01  0.35737005818E-01  0.00000000000E+00 0. -1.
  9000001    1    1    2    0    0  0.19076795722E-03 -0.65613864542E-02 -0.35128982340E-01  0.35750994182E-01  0.10000000475E-02 0.  1.
</event>
<event>
 4   0  0.2441219E-02  0.9118800E+02  0.7818609E-02  0.1379984E+01
      -11   -1    0    0    0    0  0.00000000000E+00  0.00000000000E+00  0.35740347158E-01  0.35744000000E-01  0.51099999109E-03 0.  1.
       11   -1    0    0    0    0 -0.00000000000E+00 -0.00000000000E+00 -0.35740347158E-01  0.35744000000E-01  0.51099999109E-03 0. -1.
       22    1    1    2    0    0  0.45981957842E-02 -0.15504224612E-01  0.31868624062E-01  0.35737005818E-01  0.00000000000E+00 0.  1.
  9000001    1    1    2    0    0 -0.45981957842E-02  0.15504224612E-01 -0.31868624062E-01  0.35750994182E-01  0.10000000475E-02 0. -1.
</event>
<event>
 4   0  0.2441219E-02  0.9118800E+02  0.7818609E-02  0.1379984E+01
      -11   -1    0    0    0    0  0.00000000000E+00  0.00000000000E+00  0.35740347158E-01  0.35744000000E-01  0.51099999109E-03 0. -1.
       11   -1    0    0    0    0 -0.00000000000E+00 -0.00000000000E+00 -0.35740347158E-01  0.35744000000E-01  0.51099999109E-03 0.  1.
       22    1    1    2    0    0 -0.51321140836E-02 -0.42407545733E-02 -0.35111408268E-01  0.35737005818E-01  0.00000000000E+00 0.  1.
  9000001    1    1    2    0    0  0.51321140836E-02  0.42407545733E-02  0.35111408268E-01  0.35750994182E-01  0.10000000475E-02 0. -1.
</event>
<event>
 4   0  0.2441219E-02  0.9118800E+02  0.7818609E-02  0.1379984E+01
      -11   -1    0    0    0    0  0.00000000000E+00  0.00000000000E+00  0.35740347158E-01  0.35744000000E-01  0.51099999109E-03 0.  1.
       11   -1    0    0    0    0 -0.00000000000E+00 -0.00000000000E+00 -0.35740347158E-01  0.35744000000E-01  0.51099999109E-03 0. -1.
       22    1    1    2    0    0 -0.42056773011E-02 -0.25978551964E-02 -0.35393460013E-01  0.35737005818E-01  0.00000000000E+00 0. -1.
  9000001    1    1    2    0    0  0.42056773011E-02  0.25978551964E-02  0.35393460013E-01  0.35750994182E-01  0.10000000475E-02 0.  1.
</event>
<event>
 4   0  0.2441219E-02  0.9118800E+02  0.7818609E-02  0.1379984E+01
      -11   -1    0    0    0    0  0.00000000000E+00  0.00000000000E+00  0.35740347158E-01  0.35744000000E-01  0.51099999109E-03 0.  1.
       11   -1    0    0    0    0 -0.00000000000E+00 -0.00000000000E+00 -0.35740347158E-01  0.35744000000E-01  0.51099999109E-03 0. -1.
       22    1    1    2    0    0  0.19846802736E-01  0.25077305886E-01  0.15948878817E-01  0.35737005818E-01  0.00000000000E+00 0.  1.
  9000001    1    1    2    0    0 -0.19846802736E-01 -0.25077305886E-01 -0.15948878817E-01  0.35750994182E-01  0.10000000475E-02 0. -1.
</event>
<event>
 4   0  0.2441219E-02  0.9118800E+02  0.7818609E-02  0.1379984E+01
      -11   -1    0    0    0    0  0.00000000000E+00  0.00000000000E+00  0.35740347158E-01  0.35744000000E-01  0.51099999109E-03 0. -1.
       11   -1    0    0    0    0 -0.00000000000E+00 -0.00000000000E+00 -0.35740347158E-01  0.35744000000E-01  0.51099999109E-03 0.  1.
       22    1    1    2    0    0  0.25892624674E-01  0.22298756068E-02 -0.24530251266E-01  0.35737005818E-01  0.00000000000E+00 0.  1.
  9000001    1    1    2    0    0 -0.25892624674E-01 -0.22298756068E-02  0.24530251266E-01  0.35750994182E-01  0.10000000475E-02 0. -1.
</event>
<event>
 4   0  0.2441219E-02  0.9118800E+02  0.7818609E-02  0.1379984E+01
      -11   -1    0    0    0    0  0.00000000000E+00  0.00000000000E+00  0.35740347158E-01  0.35744000000E-01  0.51099999109E-03 0. -1.
       11   -1    0    0    0    0 -0.00000000000E+00 -0.00000000000E+00 -0.35740347158E-01  0.35744000000E-01  0.51099999109E-03 0.  1.
       22    1    1    2    0    0 -0.24576721365E-02  0.80577188840E-02 -0.34729909285E-01  0.35737005818E-01  0.00000000000E+00 0.  1.
  9000001    1    1    2    0    0  0.24576721365E-02 -0.80577188840E-02  0.34729909285E-01  0.35750994182E-01  0.10000000475E-02 0. -1.
</event>
<event>
 4   0  0.2441219E-02  0.9118800E+02  0.7818609E-02  0.1379984E+01
      -11   -1    0    0    0    0  0.00000000000E+00  0.00000000000E+00  0.35740347158E-01  0.35744000000E-01  0.51099999109E-03 0. -1.
       11   -1    0    0    0    0 -0.00000000000E+00 -0.00000000000E+00 -0.35740347158E-01  0.35744000000E-01  0.51099999109E-03 0.  1.
       22    1    1    2    0    0 -0.23201342413E-02  0.10537053379E-01 -0.34069356731E-01  0.35737005818E-01  0.00000000000E+00 0.  1.
  9000001    1    1    2    0    0  0.23201342413E-02 -0.10537053379E-01  0.34069356731E-01  0.35750994182E-01  0.10000000475E-02 0. -1.
</event>
<event>
 4   0  0.2441219E-02  0.9118800E+02  0.7818609E-02  0.1379984E+01
      -11   -1    0    0    0    0  0.00000000000E+00  0.00000000000E+00  0.35740347158E-01  0.35744000000E-01  0.51099999109E-03 0. -1.
       11   -1    0    0    0    0 -0.00000000000E+00 -0.00000000000E+00 -0.35740347158E-01  0.35744000000E-01  0.51099999109E-03 0.  1.
       22    1    1    2    0    0 -0.13175016791E-02  0.40294978377E-02  0.35484657549E-01  0.35737005818E-01  0.00000000000E+00 0. -1.
  9000001    1    1    2    0    0  0.13175016791E-02 -0.40294978377E-02 -0.35484657549E-01  0.35750994182E-01  0.10000000475E-02 0.  1.
</event>
<event>
 4   0  0.2441219E-02  0.9118800E+02  0.7818609E-02  0.1379984E+01
      -11   -1    0    0    0    0  0.00000000000E+00  0.00000000000E+00  0.35740347158E-01  0.35744000000E-01  0.51099999109E-03 0. -1.
       11   -1    0    0    0    0 -0.00000000000E+00 -0.00000000000E+00 -0.35740347158E-01  0.35744000000E-01  0.51099999109E-03 0.  1.
       22    1    1    2    0    0  0.73207350601E-02  0.50745732687E-02  0.34609090268E-01  0.35737005818E-01  0.00000000000E+00 0. -1.
  9000001    1    1    2    0    0 -0.73207350601E-02 -0.50745732687E-02 -0.34609090268E-01  0.35750994182E-01  0.10000000475E-02 0.  1.
</event>
<event>
 4   0  0.2441219E-02  0.9118800E+02  0.7818609E-02  0.1379984E+01
      -11   -1    0    0    0    0  0.00000000000E+00  0.00000000000E+00  0.35740347158E-01  0.35744000000E-01  0.51099999109E-03 0.  1.
       11   -1    0    0    0    0 -0.00000000000E+00 -0.00000000000E+00 -0.35740347158E-01  0.35744000000E-01  0.51099999109E-03 0. -1.
       22    1    1    2    0    0  0.20035064929E-03  0.36189723160E-02 -0.35552728220E-01  0.35737005818E-01  0.00000000000E+00 0. -1.
  9000001    1    1    2    0    0 -0.20035064929E-03 -0.36189723160E-02  0.35552728220E-01  0.35750994182E-01  0.10000000475E-02 0.  1.
</event>
<event>
 4   0  0.2441219E-02  0.9118800E+02  0.7818609E-02  0.1379984E+01
      -11   -1    0    0    0    0  0.00000000000E+00  0.00000000000E+00  0.35740347158E-01  0.35744000000E-01  0.51099999109E-03 0. -1.
       11   -1    0    0    0    0 -0.00000000000E+00 -0.00000000000E+00 -0.35740347158E-01  0.35744000000E-01  0.51099999109E-03 0.  1.
       22    1    1    2    0    0 -0.22969287825E-02 -0.28107273028E-02  0.35552180173E-01  0.35737005818E-01  0.00000000000E+00 0. -1.
  9000001    1    1    2    0    0  0.22969287825E-02  0.28107273028E-02 -0.35552180173E-01  0.35750994182E-01  0.10000000475E-02 0.  1.
</event>
<event>
 4   0  0.2441219E-02  0.9118800E+02  0.7818609E-02  0.1379984E+01
      -11   -1    0    0    0    0  0.00000000000E+00  0.00000000000E+00  0.35740347158E-01  0.35744000000E-01  0.51099999109E-03 0. -1.
       11   -1    0    0    0    0 -0.00000000000E+00 -0.00000000000E+00 -0.35740347158E-01  0.35744000000E-01  0.51099999109E-03 0.  1.
       22    1    1    2    0    0 -0.41864562509E-02 -0.25619810425E-01  0.24560791573E-01  0.35737005818E-01  0.00000000000E+00 0. -1.
  9000001    1    1    2    0    0  0.41864562509E-02  0.25619810425E-01 -0.24560791573E-01  0.35750994182E-01  0.10000000475E-02 0.  1.
</event>
<event>
 4   0  0.2441219E-02  0.9118800E+02  0.7818609E-02  0.1379984E+01
      -11   -1    0    0    0    0  0.00000000000E+00  0.00000000000E+00  0.35740347158E-01  0.35744000000E-01  0.51099999109E-03 0. -1.
       11   -1    0    0    0    0 -0.00000000000E+00 -0.00000000000E+00 -0.35740347158E-01  0.35744000000E-01  0.51099999109E-03 0.  1.
       22    1    1    2    0    0  0.11153041076E-01  0.98252598307E-02  0.32499346592E-01  0.35737005818E-01  0.00000000000E+00 0. -1.
  9000001    1    1    2    0    0 -0.11153041076E-01 -0.98252598307E-02 -0.32499346592E-01  0.35750994182E-01  0.10000000475E-02 0.  1.
</event>
<event>
 4   0  0.2441219E-02  0.9118800E+02  0.7818609E-02  0.1379984E+01
      -11   -1    0    0    0    0  0.00000000000E+00  0.00000000000E+00  0.35740347158E-01  0.35744000000E-01  0.51099999109E-03 0.  1.
       11   -1    0    0    0    0 -0.00000000000E+00 -0.00000000000E+00 -0.35740347158E-01  0.35744000000E-01  0.51099999109E-03 0. -1.
       22    1    1    2    0    0  0.13150756193E-01 -0.30389780994E-02 -0.33090116478E-01  0.35737005818E-01  0.00000000000E+00 0. -1.
  9000001    1    1    2    0    0 -0.13150756193E-01  0.30389780994E-02  0.33090116478E-01  0.35750994182E-01  0.10000000475E-02 0.  1.
</event>
<event>
 4   0  0.2441219E-02  0.9118800E+02  0.7818609E-02  0.1379984E+01
      -11   -1    0    0    0    0  0.00000000000E+00  0.00000000000E+00  0.35740347158E-01  0.35744000000E-01  0.51099999109E-03 0. -1.
       11   -1    0    0    0    0 -0.00000000000E+00 -0.00000000000E+00 -0.35740347158E-01  0.35744000000E-01  0.51099999109E-03 0.  1.
       22    1    1    2    0    0  0.16435579706E-01  0.48242359872E-02  0.31364503053E-01  0.35737005818E-01  0.00000000000E+00 0. -1.
  9000001    1    1    2    0    0 -0.16435579706E-01 -0.48242359872E-02 -0.31364503053E-01  0.35750994182E-01  0.10000000475E-02 0.  1.
</event>
<event>
 4   0  0.2441219E-02  0.9118800E+02  0.7818609E-02  0.1379984E+01
      -11   -1    0    0    0    0  0.00000000000E+00  0.00000000000E+00  0.35740347158E-01  0.35744000000E-01  0.51099999109E-03 0.  1.
       11   -1    0    0    0    0 -0.00000000000E+00 -0.00000000000E+00 -0.35740347158E-01  0.35744000000E-01  0.51099999109E-03 0. -1.
       22    1    1    2    0    0  0.87179276238E-02 -0.30243615134E-02  0.34525129402E-01  0.35737005818E-01  0.00000000000E+00 0.  1.
  9000001    1    1    2    0    0 -0.87179276238E-02  0.30243615134E-02 -0.34525129402E-01  0.35750994182E-01  0.10000000475E-02 0. -1.
</event>
<event>
 4   0  0.2441219E-02  0.9118800E+02  0.7818609E-02  0.1379984E+01
      -11   -1    0    0    0    0  0.00000000000E+00  0.00000000000E+00  0.35740347158E-01  0.35744000000E-01  0.51099999109E-03 0. -1.
       11   -1    0    0    0    0 -0.00000000000E+00 -0.00000000000E+00 -0.35740347158E-01  0.35744000000E-01  0.51099999109E-03 0.  1.
       22    1    1    2    0    0  0.85642511112E-02 -0.19067285384E-01  0.28986648925E-01  0.35737005818E-01  0.00000000000E+00 0. -1.
  9000001    1    1    2    0    0 -0.85642511112E-02  0.19067285384E-01 -0.28986648925E-01  0.35750994182E-01  0.10000000475E-02 0.  1.
</event>
<event>
 4   0  0.2441219E-02  0.9118800E+02  0.7818609E-02  0.1379984E+01
      -11   -1    0    0    0    0  0.00000000000E+00  0.00000000000E+00  0.35740347158E-01  0.35744000000E-01  0.51099999109E-03 0. -1.
       11   -1    0    0    0    0 -0.00000000000E+00 -0.00000000000E+00 -0.35740347158E-01  0.35744000000E-01  0.51099999109E-03 0.  1.
       22    1    1    2    0    0  0.10020944107E-01 -0.54097084826E-02  0.33874021288E-01  0.35737005818E-01  0.00000000000E+00 0. -1.
  9000001    1    1    2    0    0 -0.10020944107E-01  0.54097084826E-02 -0.33874021288E-01  0.35750994182E-01  0.10000000475E-02 0.  1.
</event>
<event>
 4   0  0.2441219E-02  0.9118800E+02  0.7818609E-02  0.1379984E+01
      -11   -1    0    0    0    0  0.00000000000E+00  0.00000000000E+00  0.35740347158E-01  0.35744000000E-01  0.51099999109E-03 0.  1.
       11   -1    0    0    0    0 -0.00000000000E+00 -0.00000000000E+00 -0.35740347158E-01  0.35744000000E-01  0.51099999109E-03 0. -1.
       22    1    1    2    0    0  0.15754758673E-01 -0.13521576017E-01 -0.29087594367E-01  0.35737005818E-01  0.00000000000E+00 0. -1.
  9000001    1    1    2    0    0 -0.15754758673E-01  0.13521576017E-01  0.29087594367E-01  0.35750994182E-01  0.10000000475E-02 0.  1.
</event>
<event>
 4   0  0.2441219E-02  0.9118800E+02  0.7818609E-02  0.1379984E+01
      -11   -1    0    0    0    0  0.00000000000E+00  0.00000000000E+00  0.35740347158E-01  0.35744000000E-01  0.51099999109E-03 0.  1.
       11   -1    0    0    0    0 -0.00000000000E+00 -0.00000000000E+00 -0.35740347158E-01  0.35744000000E-01  0.51099999109E-03 0. -1.
       22    1    1    2    0    0  0.17281757552E-02 -0.27274538266E-01  0.23027083094E-01  0.35737005818E-01  0.00000000000E+00 0. -1.
  9000001    1    1    2    0    0 -0.17281757552E-02  0.27274538266E-01 -0.23027083094E-01  0.35750994182E-01  0.10000000475E-02 0.  1.
</event>
<event>
 4   0  0.2441219E-02  0.9118800E+02  0.7818609E-02  0.1379984E+01
      -11   -1    0    0    0    0  0.00000000000E+00  0.00000000000E+00  0.35740347158E-01  0.35744000000E-01  0.51099999109E-03 0. -1.
       11   -1    0    0    0    0 -0.00000000000E+00 -0.00000000000E+00 -0.35740347158E-01  0.35744000000E-01  0.51099999109E-03 0.  1.
       22    1    1    2    0    0  0.17718293917E-01 -0.29049232415E-01 -0.10924181507E-01  0.35737005818E-01  0.00000000000E+00 0.  1.
  9000001    1    1    2    0    0 -0.17718293917E-01  0.29049232415E-01  0.10924181507E-01  0.35750994182E-01  0.10000000475E-02 0. -1.
</event>
<event>
 4   0  0.2441219E-02  0.9118800E+02  0.7818609E-02  0.1379984E+01
      -11   -1    0    0    0    0  0.00000000000E+00  0.00000000000E+00  0.35740347158E-01  0.35744000000E-01  0.51099999109E-03 0.  1.
       11   -1    0    0    0    0 -0.00000000000E+00 -0.00000000000E+00 -0.35740347158E-01  0.35744000000E-01  0.51099999109E-03 0. -1.
       22    1    1    2    0    0  0.11286104792E-01  0.27037262757E-01  0.20463231565E-01  0.35737005818E-01  0.00000000000E+00 0.  1.
  9000001    1    1    2    0    0 -0.11286104792E-01 -0.27037262757E-01 -0.20463231565E-01  0.35750994182E-01  0.10000000475E-02 0. -1.
</event>
<event>
 4   0  0.2441219E-02  0.9118800E+02  0.7818609E-02  0.1379984E+01
      -11   -1    0    0    0    0  0.00000000000E+00  0.00000000000E+00  0.35740347158E-01  0.35744000000E-01  0.51099999109E-03 0. -1.
       11   -1    0    0    0    0 -0.00000000000E+00 -0.00000000000E+00 -0.35740347158E-01  0.35744000000E-01  0.51099999109E-03 0.  1.
       22    1    1    2    0    0 -0.18621694518E-01  0.29943038217E-02  0.30354574989E-01  0.35737005818E-01  0.00000000000E+00 0. -1.
  9000001    1    1    2    0    0  0.18621694518E-01 -0.29943038217E-02 -0.30354574989E-01  0.35750994182E-01  0.10000000475E-02 0.  1.
</event>
<event>
 4   0  0.2441219E-02  0.9118800E+02  0.7818609E-02  0.1379984E+01
      -11   -1    0    0    0    0  0.00000000000E+00  0.00000000000E+00  0.35740347158E-01  0.35744000000E-01  0.51099999109E-03 0. -1.
       11   -1    0    0    0    0 -0.00000000000E+00 -0.00000000000E+00 -0.35740347158E-01  0.35744000000E-01  0.51099999109E-03 0.  1.
       22    1    1    2    0    0 -0.18441612185E-01 -0.30533503396E-01 -0.21784616674E-02  0.35737005818E-01  0.00000000000E+00 0. -1.
  9000001    1    1    2    0    0  0.18441612185E-01  0.30533503396E-01  0.21784616674E-02  0.35750994182E-01  0.10000000475E-02 0.  1.
</event>
<event>
 4   0  0.2441219E-02  0.9118800E+02  0.7818609E-02  0.1379984E+01
      -11   -1    0    0    0    0  0.00000000000E+00  0.00000000000E+00  0.35740347158E-01  0.35744000000E-01  0.51099999109E-03 0.  1.
       11   -1    0    0    0    0 -0.00000000000E+00 -0.00000000000E+00 -0.35740347158E-01  0.35744000000E-01  0.51099999109E-03 0. -1.
       22    1    1    2    0    0 -0.78685935982E-02 -0.16510183666E-01  0.30702323283E-01  0.35737005818E-01  0.00000000000E+00 0.  1.
  9000001    1    1    2    0    0  0.78685935982E-02  0.16510183666E-01 -0.30702323283E-01  0.35750994182E-01  0.10000000475E-02 0. -1.
</event>
<event>
 4   0  0.2441219E-02  0.9118800E+02  0.7818609E-02  0.1379984E+01
      -11   -1    0    0    0    0  0.00000000000E+00  0.00000000000E+00  0.35740347158E-01  0.35744000000E-01  0.51099999109E-03 0. -1.
       11   -1    0    0    0    0 -0.00000000000E+00 -0.00000000000E+00 -0.35740347158E-01  0.35744000000E-01  0.51099999109E-03 0.  1.
       22    1    1    2    0    0  0.19435795770E-02 -0.27455815290E-01  0.22793294848E-01  0.35737005818E-01  0.00000000000E+00 0. -1.
  9000001    1    1    2    0    0 -0.19435795770E-02  0.27455815290E-01 -0.22793294848E-01  0.35750994182E-01  0.10000000475E-02 0.  1.
</event>
<event>
 4   0  0.2441219E-02  0.9118800E+02  0.7818609E-02  0.1379984E+01
      -11   -1    0    0    0    0  0.00000000000E+00  0.00000000000E+00  0.35740347158E-01  0.35744000000E-01  0.51099999109E-03 0. -1.
       11   -1    0    0    0    0 -0.00000000000E+00 -0.00000000000E+00 -0.35740347158E-01  0.35744000000E-01  0.51099999109E-03 0.  1.
       22    1    1    2    0    0  0.15998430894E-01 -0.19059703542E-01 -0.25649785471E-01  0.35737005818E-01  0.00000000000E+00 0.  1.
  9000001    1    1    2    0    0 -0.15998430894E-01  0.19059703542E-01  0.25649785471E-01  0.35750994182E-01  0.10000000475E-02 0. -1.
</event>
<event>
 4   0  0.2441219E-02  0.9118800E+02  0.7818609E-02  0.1379984E+01
      -11   -1    0    0    0    0  0.00000000000E+00  0.00000000000E+00  0.35740347158E-01  0.35744000000E-01  0.51099999109E-03 0.  1.
       11   -1    0    0    0    0 -0.00000000000E+00 -0.00000000000E+00 -0.35740347158E-01  0.35744000000E-01  0.51099999109E-03 0. -1.
       22    1    1    2    0    0  0.16050901608E-01  0.38122296285E-03  0.31927367751E-01  0.35737005818E-01  0.00000000000E+00 0.  1.
  9000001    1    1    2    0    0 -0.16050901608E-01 -0.38122296285E-03 -0.31927367751E-01  0.35750994182E-01  0.10000000475E-02 0. -1.
</event>
<event>
 4   0  0.2441219E-02  0.9118800E+02  0.7818609E-02  0.1379984E+01
      -11   -1    0    0    0    0  0.00000000000E+00  0.00000000000E+00  0.35740347158E-01  0.35744000000E-01  0.51099999109E-03 0. -1.
       11   -1    0    0    0    0 -0.00000000000E+00 -0.00000000000E+00 -0.35740347158E-01  0.35744000000E-01  0.51099999109E-03 0.  1.
       22    1    1    2    0    0 -0.58351702774E-02 -0.34866749031E-01  0.52339454261E-02  0.35737005818E-01  0.00000000000E+00 0. -1.
  9000001    1    1    2    0    0  0.58351702774E-02  0.34866749031E-01 -0.52339454261E-02  0.35750994182E-01  0.10000000475E-02 0.  1.
</event>
<event>
 4   0  0.2441219E-02  0.9118800E+02  0.7818609E-02  0.1379984E+01
      -11   -1    0    0    0    0  0.00000000000E+00  0.00000000000E+00  0.35740347158E-01  0.35744000000E-01  0.51099999109E-03 0.  1.
       11   -1    0    0    0    0 -0.00000000000E+00 -0.00000000000E+00 -0.35740347158E-01  0.35744000000E-01  0.51099999109E-03 0. -1.
       22    1    1    2    0    0 -0.39219912224E-02  0.55428339864E-02  0.35086016604E-01  0.35737005818E-01  0.00000000000E+00 0.  1.
  9000001    1    1    2    0    0  0.39219912224E-02 -0.55428339864E-02 -0.35086016604E-01  0.35750994182E-01  0.10000000475E-02 0. -1.
</event>
<event>
 4   0  0.2441219E-02  0.9118800E+02  0.7818609E-02  0.1379984E+01
      -11   -1    0    0    0    0  0.00000000000E+00  0.00000000000E+00  0.35740347158E-01  0.35744000000E-01  0.51099999109E-03 0.  1.
       11   -1    0    0    0    0 -0.00000000000E+00 -0.00000000000E+00 -0.35740347158E-01  0.35744000000E-01  0.51099999109E-03 0. -1.
       22    1    1    2    0    0 -0.23261911730E-01  0.17794553521E-01  0.20478547618E-01  0.35737005818E-01  0.00000000000E+00 0. -1.
  9000001    1    1    2    0    0  0.23261911730E-01 -0.17794553521E-01 -0.20478547618E-01  0.35750994182E-01  0.10000000475E-02 0.  1.
</event>
<event>
 4   0  0.2441219E-02  0.9118800E+02  0.7818609E-02  0.1379984E+01
      -11   -1    0    0    0    0  0.00000000000E+00  0.00000000000E+00  0.35740347158E-01  0.35744000000E-01  0.51099999109E-03 0.  1.
       11   -1    0    0    0    0 -0.00000000000E+00 -0.00000000000E+00 -0.35740347158E-01  0.35744000000E-01  0.51099999109E-03 0. -1.
       22    1    1    2    0    0  0.28351346925E-02 -0.55802679392E-02 -0.35184601829E-01  0.35737005818E-01  0.00000000000E+00 0. -1.
  9000001    1    1    2    0    0 -0.28351346925E-02  0.55802679392E-02  0.35184601829E-01  0.35750994182E-01  0.10000000475E-02 0.  1.
</event>
<event>
 4   0  0.2441219E-02  0.9118800E+02  0.7818609E-02  0.1379984E+01
      -11   -1    0    0    0    0  0.00000000000E+00  0.00000000000E+00  0.35740347158E-01  0.35744000000E-01  0.51099999109E-03 0. -1.
       11   -1    0    0    0    0 -0.00000000000E+00 -0.00000000000E+00 -0.35740347158E-01  0.35744000000E-01  0.51099999109E-03 0.  1.
       22    1    1    2    0    0  0.27118112729E-01  0.14486616373E-01  0.18217560017E-01  0.35737005818E-01  0.00000000000E+00 0. -1.
  9000001    1    1    2    0    0 -0.27118112729E-01 -0.14486616373E-01 -0.18217560017E-01  0.35750994182E-01  0.10000000475E-02 0.  1.
</event>
<event>
 4   0  0.2441219E-02  0.9118800E+02  0.7818609E-02  0.1379984E+01
      -11   -1    0    0    0    0  0.00000000000E+00  0.00000000000E+00  0.35740347158E-01  0.35744000000E-01  0.51099999109E-03 0. -1.
       11   -1    0    0    0    0 -0.00000000000E+00 -0.00000000000E+00 -0.35740347158E-01  0.35744000000E-01  0.51099999109E-03 0.  1.
       22    1    1    2    0    0 -0.32937470919E-01 -0.57285493321E-02  0.12626967842E-01  0.35737005818E-01  0.00000000000E+00 0. -1.
  9000001    1    1    2    0    0  0.32937470919E-01  0.57285493321E-02 -0.12626967842E-01  0.35750994182E-01  0.10000000475E-02 0.  1.
</event>
<event>
 4   0  0.2441219E-02  0.9118800E+02  0.7818609E-02  0.1379984E+01
      -11   -1    0    0    0    0  0.00000000000E+00  0.00000000000E+00  0.35740347158E-01  0.35744000000E-01  0.51099999109E-03 0. -1.
       11   -1    0    0    0    0 -0.00000000000E+00 -0.00000000000E+00 -0.35740347158E-01  0.35744000000E-01  0.51099999109E-03 0.  1.
       22    1    1    2    0    0  0.18567064505E-03  0.11095555986E-01 -0.33970395179E-01  0.35737005818E-01  0.00000000000E+00 0.  1.
  9000001    1    1    2    0    0 -0.18567064505E-03 -0.11095555986E-01  0.33970395179E-01  0.35750994182E-01  0.10000000475E-02 0. -1.
</event>
<event>
 4   0  0.2441219E-02  0.9118800E+02  0.7818609E-02  0.1379984E+01
      -11   -1    0    0    0    0  0.00000000000E+00  0.00000000000E+00  0.35740347158E-01  0.35744000000E-01  0.51099999109E-03 0.  1.
       11   -1    0    0    0    0 -0.00000000000E+00 -0.00000000000E+00 -0.35740347158E-01  0.35744000000E-01  0.51099999109E-03 0. -1.
       22    1    1    2    0    0  0.21321127650E-01 -0.19619843874E-01 -0.20919006357E-01  0.35737005818E-01  0.00000000000E+00 0. -1.
  9000001    1    1    2    0    0 -0.21321127650E-01  0.19619843874E-01  0.20919006357E-01  0.35750994182E-01  0.10000000475E-02 0.  1.
</event>
<event>
 4   0  0.2441219E-02  0.9118800E+02  0.7818609E-02  0.1379984E+01
      -11   -1    0    0    0    0  0.00000000000E+00  0.00000000000E+00  0.35740347158E-01  0.35744000000E-01  0.51099999109E-03 0. -1.
       11   -1    0    0    0    0 -0.00000000000E+00 -0.00000000000E+00 -0.35740347158E-01  0.35744000000E-01  0.51099999109E-03 0.  1.
       22    1    1    2    0    0  0.10636082674E-01 -0.35898077031E-02 -0.33928168398E-01  0.35737005818E-01  0.00000000000E+00 0.  1.
  9000001    1    1    2    0    0 -0.10636082674E-01  0.35898077031E-02  0.33928168398E-01  0.35750994182E-01  0.10000000475E-02 0. -1.
</event>
<event>
 4   0  0.2441219E-02  0.9118800E+02  0.7818609E-02  0.1379984E+01
      -11   -1    0    0    0    0  0.00000000000E+00  0.00000000000E+00  0.35740347158E-01  0.35744000000E-01  0.51099999109E-03 0. -1.
       11   -1    0    0    0    0 -0.00000000000E+00 -0.00000000000E+00 -0.35740347158E-01  0.35744000000E-01  0.51099999109E-03 0.  1.
       22    1    1    2    0    0 -0.71069266339E-02  0.47690598560E-02 -0.34696991898E-01  0.35737005818E-01  0.00000000000E+00 0.  1.
  9000001    1    1    2    0    0  0.71069266339E-02 -0.47690598560E-02  0.34696991898E-01  0.35750994182E-01  0.10000000475E-02 0. -1.
</event>
<event>
 4   0  0.2441219E-02  0.9118800E+02  0.7818609E-02  0.1379984E+01
      -11   -1    0    0    0    0  0.00000000000E+00  0.00000000000E+00  0.35740347158E-01  0.35744000000E-01  0.51099999109E-03 0.  1.
       11   -1    0    0    0    0 -0.00000000000E+00 -0.00000000000E+00 -0.35740347158E-01  0.35744000000E-01  0.51099999109E-03 0. -1.
       22    1    1    2    0    0  0.43420770759E-02 -0.75841511578E-02 -0.34651992767E-01  0.35737005818E-01  0.00000000000E+00 0. -1.
  9000001    1    1    2    0    0 -0.43420770759E-02  0.75841511578E-02  0.34651992767E-01  0.35750994182E-01  0.10000000475E-02 0.  1.
</event>
<event>
 4   0  0.2441219E-02  0.9118800E+02  0.7818609E-02  0.1379984E+01
      -11   -1    0    0    0    0  0.00000000000E+00  0.00000000000E+00  0.35740347158E-01  0.35744000000E-01  0.51099999109E-03 0.  1.
       11   -1    0    0    0    0 -0.00000000000E+00 -0.00000000000E+00 -0.35740347158E-01  0.35744000000E-01  0.51099999109E-03 0. -1.
       22    1    1    2    0    0  0.12214244752E-01 -0.44736678455E-02  0.33285614100E-01  0.35737005818E-01  0.00000000000E+00 0.  1.
  9000001    1    1    2    0    0 -0.12214244752E-01  0.44736678455E-02 -0.33285614100E-01  0.35750994182E-01  0.10000000475E-02 0. -1.
</event>
<event>
 4   0  0.2441219E-02  0.9118800E+02  0.7818609E-02  0.1379984E+01
      -11   -1    0    0    0    0  0.00000000000E+00  0.00000000000E+00  0.35740347158E-01  0.35744000000E-01  0.51099999109E-03 0. -1.
       11   -1    0    0    0    0 -0.00000000000E+00 -0.00000000000E+00 -0.35740347158E-01  0.35744000000E-01  0.51099999109E-03 0.  1.
       22    1    1    2    0    0 -0.40376972476E-02  0.61514186701E-02  0.34971282993E-01  0.35737005818E-01  0.00000000000E+00 0. -1.
  9000001    1    1    2    0    0  0.40376972476E-02 -0.61514186701E-02 -0.34971282993E-01  0.35750994182E-01  0.10000000475E-02 0.  1.
</event>
<event>
 4   0  0.2441219E-02  0.9118800E+02  0.7818609E-02  0.1379984E+01
      -11   -1    0    0    0    0  0.00000000000E+00  0.00000000000E+00  0.35740347158E-01  0.35744000000E-01  0.51099999109E-03 0.  1.
       11   -1    0    0    0    0 -0.00000000000E+00 -0.00000000000E+00 -0.35740347158E-01  0.35744000000E-01  0.51099999109E-03 0. -1.
       22    1    1    2    0    0 -0.20933996505E-02  0.36895933059E-02  0.35484336883E-01  0.35737005818E-01  0.00000000000E+00 0.  1.
  9000001    1    1    2    0    0  0.20933996505E-02 -0.36895933059E-02 -0.35484336883E-01  0.35750994182E-01  0.10000000475E-02 0. -1.
</event>
<event>
 4   0  0.2441219E-02  0.9118800E+02  0.7818609E-02  0.1379984E+01
      -11   -1    0    0    0    0  0.00000000000E+00  0.00000000000E+00  0.35740347158E-01  0.35744000000E-01  0.51099999109E-03 0. -1.
       11   -1    0    0    0    0 -0.00000000000E+00 -0.00000000000E+00 -0.35740347158E-01  0.35744000000E-01  0.51099999109E-03 0.  1.
       22    1    1    2    0    0  0.78473424343E-02  0.47584616148E-02  0.34538526961E-01  0.35737005818E-01  0.00000000000E+00 0. -1.
  9000001    1    1    2    0    0 -0.78473424343E-02 -0.47584616148E-02 -0.34538526961E-01  0.35750994182E-01  0.10000000475E-02 0.  1.
</event>
<event>
 4   0  0.2441219E-02  0.9118800E+02  0.7818609E-02  0.1379984E+01
      -11   -1    0    0    0    0  0.00000000000E+00  0.00000000000E+00  0.35740347158E-01  0.35744000000E-01  0.51099999109E-03 0. -1.
       11   -1    0    0    0    0 -0.00000000000E+00 -0.00000000000E+00 -0.35740347158E-01  0.35744000000E-01  0.51099999109E-03 0.  1.
       22    1    1    2    0    0  0.68025791012E-02 -0.27859148429E-02 -0.34972806306E-01  0.35737005818E-01  0.00000000000E+00 0.  1.
  9000001    1    1    2    0    0 -0.68025791012E-02  0.27859148429E-02  0.34972806306E-01  0.35750994182E-01  0.10000000475E-02 0. -1.
</event>
<event>
 4   0  0.2441219E-02  0.9118800E+02  0.7818609E-02  0.1379984E+01
      -11   -1    0    0    0    0  0.00000000000E+00  0.00000000000E+00  0.35740347158E-01  0.35744000000E-01  0.51099999109E-03 0.  1.
       11   -1    0    0    0    0 -0.00000000000E+00 -0.00000000000E+00 -0.35740347158E-01  0.35744000000E-01  0.51099999109E-03 0. -1.
       22    1    1    2    0    0  0.34149525294E-02 -0.14079612412E-01 -0.32668581212E-01  0.35737005818E-01  0.00000000000E+00 0. -1.
  9000001    1    1    2    0    0 -0.34149525294E-02  0.14079612412E-01  0.32668581212E-01  0.35750994182E-01  0.10000000475E-02 0.  1.
</event>
<event>
 4   0  0.2441219E-02  0.9118800E+02  0.7818609E-02  0.1379984E+01
      -11   -1    0    0    0    0  0.00000000000E+00  0.00000000000E+00  0.35740347158E-01  0.35744000000E-01  0.51099999109E-03 0. -1.
       11   -1    0    0    0    0 -0.00000000000E+00 -0.00000000000E+00 -0.35740347158E-01  0.35744000000E-01  0.51099999109E-03 0.  1.
       22    1    1    2    0    0 -0.49301439185E-02 -0.10020591807E-02 -0.35381112803E-01  0.35737005818E-01  0.00000000000E+00 0.  1.
  9000001    1    1    2    0    0  0.49301439185E-02  0.10020591807E-02  0.35381112803E-01  0.35750994182E-01  0.10000000475E-02 0. -1.
</event>
<event>
 4   0  0.2441219E-02  0.9118800E+02  0.7818609E-02  0.1379984E+01
      -11   -1    0    0    0    0  0.00000000000E+00  0.00000000000E+00  0.35740347158E-01  0.35744000000E-01  0.51099999109E-03 0. -1.
       11   -1    0    0    0    0 -0.00000000000E+00 -0.00000000000E+00 -0.35740347158E-01  0.35744000000E-01  0.51099999109E-03 0.  1.
       22    1    1    2    0    0 -0.80382328651E-02 -0.44192214613E-02  0.34539700041E-01  0.35737005818E-01  0.00000000000E+00 0. -1.
  9000001    1    1    2    0    0  0.80382328651E-02  0.44192214613E-02 -0.34539700041E-01  0.35750994182E-01  0.10000000475E-02 0.  1.
</event>
<event>
 4   0  0.2441219E-02  0.9118800E+02  0.7818609E-02  0.1379984E+01
      -11   -1    0    0    0    0  0.00000000000E+00  0.00000000000E+00  0.35740347158E-01  0.35744000000E-01  0.51099999109E-03 0. -1.
       11   -1    0    0    0    0 -0.00000000000E+00 -0.00000000000E+00 -0.35740347158E-01  0.35744000000E-01  0.51099999109E-03 0.  1.
       22    1    1    2    0    0  0.23637944545E-02 -0.34924275344E-02 -0.35487307739E-01  0.35737005818E-01  0.00000000000E+00 0.  1.
  9000001    1    1    2    0    0 -0.23637944545E-02  0.34924275344E-02  0.35487307739E-01  0.35750994182E-01  0.10000000475E-02 0. -1.
</event>
<event>
 4   0  0.2441219E-02  0.9118800E+02  0.7818609E-02  0.1379984E+01
      -11   -1    0    0    0    0  0.00000000000E+00  0.00000000000E+00  0.35740347158E-01  0.35744000000E-01  0.51099999109E-03 0. -1.
       11   -1    0    0    0    0 -0.00000000000E+00 -0.00000000000E+00 -0.35740347158E-01  0.35744000000E-01  0.51099999109E-03 0.  1.
       22    1    1    2    0    0  0.65104654081E-02 -0.17465832416E-02 -0.35095539204E-01  0.35737005818E-01  0.00000000000E+00 0.  1.
  9000001    1    1    2    0    0 -0.65104654081E-02  0.17465832416E-02  0.35095539204E-01  0.35750994182E-01  0.10000000475E-02 0. -1.
</event>
<event>
 4   0  0.2441219E-02  0.9118800E+02  0.7818609E-02  0.1379984E+01
      -11   -1    0    0    0    0  0.00000000000E+00  0.00000000000E+00  0.35740347158E-01  0.35744000000E-01  0.51099999109E-03 0. -1.
       11   -1    0    0    0    0 -0.00000000000E+00 -0.00000000000E+00 -0.35740347158E-01  0.35744000000E-01  0.51099999109E-03 0.  1.
       22    1    1    2    0    0 -0.51593630570E-03 -0.63738441143E-02 -0.35160226191E-01  0.35737005818E-01  0.00000000000E+00 0.  1.
  9000001    1    1    2    0    0  0.51593630570E-03  0.63738441143E-02  0.35160226191E-01  0.35750994182E-01  0.10000000475E-02 0. -1.
</event>
<event>
 4   0  0.2441219E-02  0.9118800E+02  0.7818609E-02  0.1379984E+01
      -11   -1    0    0    0    0  0.00000000000E+00  0.00000000000E+00  0.35740347158E-01  0.35744000000E-01  0.51099999109E-03 0.  1.
       11   -1    0    0    0    0 -0.00000000000E+00 -0.00000000000E+00 -0.35740347158E-01  0.35744000000E-01  0.51099999109E-03 0. -1.
       22    1    1    2    0    0  0.16274965113E-02  0.72832471244E-02  0.34949093712E-01  0.35737005818E-01  0.00000000000E+00 0.  1.
  9000001    1    1    2    0    0 -0.16274965113E-02 -0.72832471244E-02 -0.34949093712E-01  0.35750994182E-01  0.10000000475E-02 0. -1.
</event>
<event>
 4   0  0.2441219E-02  0.9118800E+02  0.7818609E-02  0.1379984E+01
      -11   -1    0    0    0    0  0.00000000000E+00  0.00000000000E+00  0.35740347158E-01  0.35744000000E-01  0.51099999109E-03 0.  1.
       11   -1    0    0    0    0 -0.00000000000E+00 -0.00000000000E+00 -0.35740347158E-01  0.35744000000E-01  0.51099999109E-03 0. -1.
       22    1    1    2    0    0  0.39047268654E-02 -0.50302397487E-02 -0.35165087531E-01  0.35737005818E-01  0.00000000000E+00 0. -1.
  9000001    1    1    2    0    0 -0.39047268654E-02  0.50302397487E-02  0.35165087531E-01  0.35750994182E-01  0.10000000475E-02 0.  1.
</event>
<event>
 4   0  0.2441219E-02  0.9118800E+02  0.7818609E-02  0.1379984E+01
      -11   -1    0    0    0    0  0.00000000000E+00  0.00000000000E+00  0.35740347158E-01  0.35744000000E-01  0.51099999109E-03 0.  1.
       11   -1    0    0    0    0 -0.00000000000E+00 -0.00000000000E+00 -0.35740347158E-01  0.35744000000E-01  0.51099999109E-03 0. -1.
       22    1    1    2    0    0 -0.20477315889E-01 -0.13559189182E-01 -0.25960768625E-01  0.35737005818E-01  0.00000000000E+00 0. -1.
  9000001    1    1    2    0    0  0.20477315889E-01  0.13559189182E-01  0.25960768625E-01  0.35750994182E-01  0.10000000475E-02 0.  1.
</event>
<event>
 4   0  0.2441219E-02  0.9118800E+02  0.7818609E-02  0.1379984E+01
      -11   -1    0    0    0    0  0.00000000000E+00  0.00000000000E+00  0.35740347158E-01  0.35744000000E-01  0.51099999109E-03 0. -1.
       11   -1    0    0    0    0 -0.00000000000E+00 -0.00000000000E+00 -0.35740347158E-01  0.35744000000E-01  0.51099999109E-03 0.  1.
       22    1    1    2    0    0 -0.34190148651E-02 -0.16366542525E-03 -0.35572702116E-01  0.35737005818E-01  0.00000000000E+00 0.  1.
  9000001    1    1    2    0    0  0.34190148651E-02  0.16366542525E-03  0.35572702116E-01  0.35750994182E-01  0.10000000475E-02 0. -1.
</event>
<event>
 4   0  0.2441219E-02  0.9118800E+02  0.7818609E-02  0.1379984E+01
      -11   -1    0    0    0    0  0.00000000000E+00  0.00000000000E+00  0.35740347158E-01  0.35744000000E-01  0.51099999109E-03 0.  1.
       11   -1    0    0    0    0 -0.00000000000E+00 -0.00000000000E+00 -0.35740347158E-01  0.35744000000E-01  0.51099999109E-03 0. -1.
       22    1    1    2    0    0  0.46832138049E-02 -0.31009548357E-01  0.17135022732E-01  0.35737005818E-01  0.00000000000E+00 0.  1.
  9000001    1    1    2    0    0 -0.46832138049E-02  0.31009548357E-01 -0.17135022732E-01  0.35750994182E-01  0.10000000475E-02 0. -1.
</event>
<event>
 4   0  0.2441219E-02  0.9118800E+02  0.7818609E-02  0.1379984E+01
      -11   -1    0    0    0    0  0.00000000000E+00  0.00000000000E+00  0.35740347158E-01  0.35744000000E-01  0.51099999109E-03 0.  1.
       11   -1    0    0    0    0 -0.00000000000E+00 -0.00000000000E+00 -0.35740347158E-01  0.35744000000E-01  0.51099999109E-03 0. -1.
       22    1    1    2    0    0 -0.13063991222E-01  0.24857056670E-01  0.22104127486E-01  0.35737005818E-01  0.00000000000E+00 0.  1.
  9000001    1    1    2    0    0  0.13063991222E-01 -0.24857056670E-01 -0.22104127486E-01  0.35750994182E-01  0.10000000475E-02 0. -1.
</event>
<event>
 4   0  0.2441219E-02  0.9118800E+02  0.7818609E-02  0.1379984E+01
      -11   -1    0    0    0    0  0.00000000000E+00  0.00000000000E+00  0.35740347158E-01  0.35744000000E-01  0.51099999109E-03 0.  1.
       11   -1    0    0    0    0 -0.00000000000E+00 -0.00000000000E+00 -0.35740347158E-01  0.35744000000E-01  0.51099999109E-03 0. -1.
       22    1    1    2    0    0 -0.21189690294E-02 -0.17042057302E-01  0.31340259062E-01  0.35737005818E-01  0.00000000000E+00 0.  1.
  9000001    1    1    2    0    0  0.21189690294E-02  0.17042057302E-01 -0.31340259062E-01  0.35750994182E-01  0.10000000475E-02 0. -1.
</event>
<event>
 4   0  0.2441219E-02  0.9118800E+02  0.7818609E-02  0.1379984E+01
      -11   -1    0    0    0    0  0.00000000000E+00  0.00000000000E+00  0.35740347158E-01  0.35744000000E-01  0.51099999109E-03 0. -1.
       11   -1    0    0    0    0 -0.00000000000E+00 -0.00000000000E+00 -0.35740347158E-01  0.35744000000E-01  0.51099999109E-03 0.  1.
       22    1    1    2    0    0 -0.21259062873E-01  0.60094455487E-02  0.28090432443E-01  0.35737005818E-01  0.00000000000E+00 0. -1.
  9000001    1    1    2    0    0  0.21259062873E-01 -0.60094455487E-02 -0.28090432443E-01  0.35750994182E-01  0.10000000475E-02 0.  1.
</event>
<event>
 4   0  0.2441219E-02  0.9118800E+02  0.7818609E-02  0.1379984E+01
      -11   -1    0    0    0    0  0.00000000000E+00  0.00000000000E+00  0.35740347158E-01  0.35744000000E-01  0.51099999109E-03 0.  1.
       11   -1    0    0    0    0 -0.00000000000E+00 -0.00000000000E+00 -0.35740347158E-01  0.35744000000E-01  0.51099999109E-03 0. -1.
       22    1    1    2    0    0 -0.71680237329E-02 -0.20283039557E-01 -0.28536841573E-01  0.35737005818E-01  0.00000000000E+00 0. -1.
  9000001    1    1    2    0    0  0.71680237329E-02  0.20283039557E-01  0.28536841573E-01  0.35750994182E-01  0.10000000475E-02 0.  1.
</event>
<event>
 4   0  0.2441219E-02  0.9118800E+02  0.7818609E-02  0.1379984E+01
      -11   -1    0    0    0    0  0.00000000000E+00  0.00000000000E+00  0.35740347158E-01  0.35744000000E-01  0.51099999109E-03 0.  1.
       11   -1    0    0    0    0 -0.00000000000E+00 -0.00000000000E+00 -0.35740347158E-01  0.35744000000E-01  0.51099999109E-03 0. -1.
       22    1    1    2    0    0 -0.15653531159E-02  0.30314389066E-02  0.35573777318E-01  0.35737005818E-01  0.00000000000E+00 0.  1.
  9000001    1    1    2    0    0  0.15653531159E-02 -0.30314389066E-02 -0.35573777318E-01  0.35750994182E-01  0.10000000475E-02 0. -1.
</event>
<event>
 4   0  0.2441219E-02  0.9118800E+02  0.7818609E-02  0.1379984E+01
      -11   -1    0    0    0    0  0.00000000000E+00  0.00000000000E+00  0.35740347158E-01  0.35744000000E-01  0.51099999109E-03 0.  1.
       11   -1    0    0    0    0 -0.00000000000E+00 -0.00000000000E+00 -0.35740347158E-01  0.35744000000E-01  0.51099999109E-03 0. -1.
       22    1    1    2    0    0  0.10207441544E-02 -0.36040182418E-02 -0.35540156426E-01  0.35737005818E-01  0.00000000000E+00 0. -1.
  9000001    1    1    2    0    0 -0.10207441544E-02  0.36040182418E-02  0.35540156426E-01  0.35750994182E-01  0.10000000475E-02 0.  1.
</event>
<event>
 4   0  0.2441219E-02  0.9118800E+02  0.7818609E-02  0.1379984E+01
      -11   -1    0    0    0    0  0.00000000000E+00  0.00000000000E+00  0.35740347158E-01  0.35744000000E-01  0.51099999109E-03 0.  1.
       11   -1    0    0    0    0 -0.00000000000E+00 -0.00000000000E+00 -0.35740347158E-01  0.35744000000E-01  0.51099999109E-03 0. -1.
       22    1    1    2    0    0  0.61225361814E-02 -0.61635743857E-02  0.34664946075E-01  0.35737005818E-01  0.00000000000E+00 0.  1.
  9000001    1    1    2    0    0 -0.61225361814E-02  0.61635743857E-02 -0.34664946075E-01  0.35750994182E-01  0.10000000475E-02 0. -1.
</event>
<event>
 4   0  0.2441219E-02  0.9118800E+02  0.7818609E-02  0.1379984E+01
      -11   -1    0    0    0    0  0.00000000000E+00  0.00000000000E+00  0.35740347158E-01  0.35744000000E-01  0.51099999109E-03 0.  1.
       11   -1    0    0    0    0 -0.00000000000E+00 -0.00000000000E+00 -0.35740347158E-01  0.35744000000E-01  0.51099999109E-03 0. -1.
       22    1    1    2    0    0 -0.97318962676E-02 -0.27443597884E-02  0.34276701552E-01  0.35737005818E-01  0.00000000000E+00 0.  1.
  9000001    1    1    2    0    0  0.97318962676E-02  0.27443597884E-02 -0.34276701552E-01  0.35750994182E-01  0.10000000475E-02 0. -1.
</event>
<event>
 4   0  0.2441219E-02  0.9118800E+02  0.7818609E-02  0.1379984E+01
      -11   -1    0    0    0    0  0.00000000000E+00  0.00000000000E+00  0.35740347158E-01  0.35744000000E-01  0.51099999109E-03 0.  1.
       11   -1    0    0    0    0 -0.00000000000E+00 -0.00000000000E+00 -0.35740347158E-01  0.35744000000E-01  0.51099999109E-03 0. -1.
       22    1    1    2    0    0 -0.60779897250E-03  0.45077448832E-02  0.35446359494E-01  0.35737005818E-01  0.00000000000E+00 0.  1.
  9000001    1    1    2    0    0  0.60779897250E-03 -0.45077448832E-02 -0.35446359494E-01  0.35750994182E-01  0.10000000475E-02 0. -1.
</event>
<event>
 4   0  0.2441219E-02  0.9118800E+02  0.7818609E-02  0.1379984E+01
      -11   -1    0    0    0    0  0.00000000000E+00  0.00000000000E+00  0.35740347158E-01  0.35744000000E-01  0.51099999109E-03 0. -1.
       11   -1    0    0    0    0 -0.00000000000E+00 -0.00000000000E+00 -0.35740347158E-01  0.35744000000E-01  0.51099999109E-03 0.  1.
       22    1    1    2    0    0  0.43237503998E-02 -0.25483439934E-02  0.35382830727E-01  0.35737005818E-01  0.00000000000E+00 0. -1.
  9000001    1    1    2    0    0 -0.43237503998E-02  0.25483439934E-02 -0.35382830727E-01  0.35750994182E-01  0.10000000475E-02 0.  1.
</event>
<event>
 4   0  0.2441219E-02  0.9118800E+02  0.7818609E-02  0.1379984E+01
      -11   -1    0    0    0    0  0.00000000000E+00  0.00000000000E+00  0.35740347158E-01  0.35744000000E-01  0.51099999109E-03 0.  1.
       11   -1    0    0    0    0 -0.00000000000E+00 -0.00000000000E+00 -0.35740347158E-01  0.35744000000E-01  0.51099999109E-03 0. -1.
       22    1    1    2    0    0  0.15443983580E-01 -0.48949456551E-02 -0.31853672678E-01  0.35737005818E-01  0.00000000000E+00 0. -1.
  9000001    1    1    2    0    0 -0.15443983580E-01  0.48949456551E-02  0.31853672678E-01  0.35750994182E-01  0.10000000475E-02 0.  1.
</event>
<event>
 4   0  0.2441219E-02  0.9118800E+02  0.7818609E-02  0.1379984E+01
      -11   -1    0    0    0    0  0.00000000000E+00  0.00000000000E+00  0.35740347158E-01  0.35744000000E-01  0.51099999109E-03 0. -1.
       11   -1    0    0    0    0 -0.00000000000E+00 -0.00000000000E+00 -0.35740347158E-01  0.35744000000E-01  0.51099999109E-03 0.  1.
       22    1    1    2    0    0  0.20383877897E-02 -0.24595470906E-02 -0.35593948758E-01  0.35737005818E-01  0.00000000000E+00 0.  1.
  9000001    1    1    2    0    0 -0.20383877897E-02  0.24595470906E-02  0.35593948758E-01  0.35750994182E-01  0.10000000475E-02 0. -1.
</event>
<event>
 4   0  0.2441219E-02  0.9118800E+02  0.7818609E-02  0.1379984E+01
      -11   -1    0    0    0    0  0.00000000000E+00  0.00000000000E+00  0.35740347158E-01  0.35744000000E-01  0.51099999109E-03 0.  1.
       11   -1    0    0    0    0 -0.00000000000E+00 -0.00000000000E+00 -0.35740347158E-01  0.35744000000E-01  0.51099999109E-03 0. -1.
       22    1    1    2    0    0  0.59229143891E-02 -0.59198602322E-02 -0.34742019585E-01  0.35737005818E-01  0.00000000000E+00 0. -1.
  9000001    1    1    2    0    0 -0.59229143891E-02  0.59198602322E-02  0.34742019585E-01  0.35750994182E-01  0.10000000475E-02 0.  1.
</event>
<event>
 4   0  0.2441219E-02  0.9118800E+02  0.7818609E-02  0.1379984E+01
      -11   -1    0    0    0    0  0.00000000000E+00  0.00000000000E+00  0.35740347158E-01  0.35744000000E-01  0.51099999109E-03 0. -1.
       11   -1    0    0    0    0 -0.00000000000E+00 -0.00000000000E+00 -0.35740347158E-01  0.35744000000E-01  0.51099999109E-03 0.  1.
       22    1    1    2    0    0 -0.14420131551E-02  0.41798232029E-02 -0.35462420404E-01  0.35737005818E-01  0.00000000000E+00 0.  1.
  9000001    1    1    2    0    0  0.14420131551E-02 -0.41798232029E-02  0.35462420404E-01  0.35750994182E-01  0.10000000475E-02 0. -1.
</event>
<event>
 4   0  0.2441219E-02  0.9118800E+02  0.7818609E-02  0.1379984E+01
      -11   -1    0    0    0    0  0.00000000000E+00  0.00000000000E+00  0.35740347158E-01  0.35744000000E-01  0.51099999109E-03 0.  1.
       11   -1    0    0    0    0 -0.00000000000E+00 -0.00000000000E+00 -0.35740347158E-01  0.35744000000E-01  0.51099999109E-03 0. -1.
       22    1    1    2    0    0  0.17005738424E-01  0.79328572734E-02  0.30413947804E-01  0.35737005818E-01  0.00000000000E+00 0.  1.
  9000001    1    1    2    0    0 -0.17005738424E-01 -0.79328572734E-02 -0.30413947804E-01  0.35750994182E-01  0.10000000475E-02 0. -1.
</event>
<event>
 4   0  0.2441219E-02  0.9118800E+02  0.7818609E-02  0.1379984E+01
      -11   -1    0    0    0    0  0.00000000000E+00  0.00000000000E+00  0.35740347158E-01  0.35744000000E-01  0.51099999109E-03 0. -1.
       11   -1    0    0    0    0 -0.00000000000E+00 -0.00000000000E+00 -0.35740347158E-01  0.35744000000E-01  0.51099999109E-03 0.  1.
       22    1    1    2    0    0 -0.49877599274E-02  0.48593164765E-02 -0.35052002499E-01  0.35737005818E-01  0.00000000000E+00 0.  1.
  9000001    1    1    2    0    0  0.49877599274E-02 -0.48593164765E-02  0.35052002499E-01  0.35750994182E-01  0.10000000475E-02 0. -1.
</event>
<event>
 4   0  0.2441219E-02  0.9118800E+02  0.7818609E-02  0.1379984E+01
      -11   -1    0    0    0    0  0.00000000000E+00  0.00000000000E+00  0.35740347158E-01  0.35744000000E-01  0.51099999109E-03 0.  1.
       11   -1    0    0    0    0 -0.00000000000E+00 -0.00000000000E+00 -0.35740347158E-01  0.35744000000E-01  0.51099999109E-03 0. -1.
       22    1    1    2    0    0 -0.36152225146E-02  0.21088444676E-02  0.35491076710E-01  0.35737005818E-01  0.00000000000E+00 0.  1.
  9000001    1    1    2    0    0  0.36152225146E-02 -0.21088444676E-02 -0.35491076710E-01  0.35750994182E-01  0.10000000475E-02 0. -1.
</event>
<event>
 4   0  0.2441219E-02  0.9118800E+02  0.7818609E-02  0.1379984E+01
      -11   -1    0    0    0    0  0.00000000000E+00  0.00000000000E+00  0.35740347158E-01  0.35744000000E-01  0.51099999109E-03 0.  1.
       11   -1    0    0    0    0 -0.00000000000E+00 -0.00000000000E+00 -0.35740347158E-01  0.35744000000E-01  0.51099999109E-03 0. -1.
       22    1    1    2    0    0  0.15180981018E-01  0.70333876524E-03 -0.32344655119E-01  0.35737005818E-01  0.00000000000E+00 0. -1.
  9000001    1    1    2    0    0 -0.15180981018E-01 -0.70333876524E-03  0.32344655119E-01  0.35750994182E-01  0.10000000475E-02 0.  1.
</event>
<event>
 4   0  0.2441219E-02  0.9118800E+02  0.7818609E-02  0.1379984E+01
      -11   -1    0    0    0    0  0.00000000000E+00  0.00000000000E+00  0.35740347158E-01  0.35744000000E-01  0.51099999109E-03 0. -1.
       11   -1    0    0    0    0 -0.00000000000E+00 -0.00000000000E+00 -0.35740347158E-01  0.35744000000E-01  0.51099999109E-03 0.  1.
       22    1    1    2    0    0 -0.23000878604E-01 -0.24875702357E-02 -0.27237936094E-01  0.35737005818E-01  0.00000000000E+00 0.  1.
  9000001    1    1    2    0    0  0.23000878604E-01  0.24875702357E-02  0.27237936094E-01  0.35750994182E-01  0.10000000475E-02 0. -1.
</event>
<event>
 4   0  0.2441219E-02  0.9118800E+02  0.7818609E-02  0.1379984E+01
      -11   -1    0    0    0    0  0.00000000000E+00  0.00000000000E+00  0.35740347158E-01  0.35744000000E-01  0.51099999109E-03 0.  1.
       11   -1    0    0    0    0 -0.00000000000E+00 -0.00000000000E+00 -0.35740347158E-01  0.35744000000E-01  0.51099999109E-03 0. -1.
       22    1    1    2    0    0  0.21303923744E-01  0.23263744901E-01 -0.16795076398E-01  0.35737005818E-01  0.00000000000E+00 0. -1.
  9000001    1    1    2    0    0 -0.21303923744E-01 -0.23263744901E-01  0.16795076398E-01  0.35750994182E-01  0.10000000475E-02 0.  1.
</event>
<event>
 4   0  0.2441219E-02  0.9118800E+02  0.7818609E-02  0.1379984E+01
      -11   -1    0    0    0    0  0.00000000000E+00  0.00000000000E+00  0.35740347158E-01  0.35744000000E-01  0.51099999109E-03 0. -1.
       11   -1    0    0    0    0 -0.00000000000E+00 -0.00000000000E+00 -0.35740347158E-01  0.35744000000E-01  0.51099999109E-03 0.  1.
       22    1    1    2    0    0  0.26630697150E-01  0.52991572119E-02  0.23234855004E-01  0.35737005818E-01  0.00000000000E+00 0. -1.
  9000001    1    1    2    0    0 -0.26630697150E-01 -0.52991572119E-02 -0.23234855004E-01  0.35750994182E-01  0.10000000475E-02 0.  1.
</event>
<event>
 4   0  0.2441219E-02  0.9118800E+02  0.7818609E-02  0.1379984E+01
      -11   -1    0    0    0    0  0.00000000000E+00  0.00000000000E+00  0.35740347158E-01  0.35744000000E-01  0.51099999109E-03 0. -1.
       11   -1    0    0    0    0 -0.00000000000E+00 -0.00000000000E+00 -0.35740347158E-01  0.35744000000E-01  0.51099999109E-03 0.  1.
       22    1    1    2    0    0  0.29423149076E-01 -0.17335662753E-01 -0.10530274462E-01  0.35737005818E-01  0.00000000000E+00 0.  1.
  9000001    1    1    2    0    0 -0.29423149076E-01  0.17335662753E-01  0.10530274462E-01  0.35750994182E-01  0.10000000475E-02 0. -1.
</event>
<event>
 4   0  0.2441219E-02  0.9118800E+02  0.7818609E-02  0.1379984E+01
      -11   -1    0    0    0    0  0.00000000000E+00  0.00000000000E+00  0.35740347158E-01  0.35744000000E-01  0.51099999109E-03 0.  1.
       11   -1    0    0    0    0 -0.00000000000E+00 -0.00000000000E+00 -0.35740347158E-01  0.35744000000E-01  0.51099999109E-03 0.  1.
       22    1    1    2    0    0 -0.33166249411E-02  0.19110019454E-03  0.35582257722E-01  0.35737005818E-01  0.00000000000E+00 0.  1.
  9000001    1    1    2    0    0  0.33166249411E-02 -0.19110019454E-03 -0.35582257722E-01  0.35750994182E-01  0.10000000475E-02 0.  1.
</event>
<event>
 4   0  0.2441219E-02  0.9118800E+02  0.7818609E-02  0.1379984E+01
      -11   -1    0    0    0    0  0.00000000000E+00  0.00000000000E+00  0.35740347158E-01  0.35744000000E-01  0.51099999109E-03 0.  1.
       11   -1    0    0    0    0 -0.00000000000E+00 -0.00000000000E+00 -0.35740347158E-01  0.35744000000E-01  0.51099999109E-03 0. -1.
       22    1    1    2    0    0  0.46590003897E-02 -0.67690327823E-02  0.34779411948E-01  0.35737005818E-01  0.00000000000E+00 0.  1.
  9000001    1    1    2    0    0 -0.46590003897E-02  0.67690327823E-02 -0.34779411948E-01  0.35750994182E-01  0.10000000475E-02 0. -1.
</event>
<event>
 4   0  0.2441219E-02  0.9118800E+02  0.7818609E-02  0.1379984E+01
      -11   -1    0    0    0    0  0.00000000000E+00  0.00000000000E+00  0.35740347158E-01  0.35744000000E-01  0.51099999109E-03 0. -1.
       11   -1    0    0    0    0 -0.00000000000E+00 -0.00000000000E+00 -0.35740347158E-01  0.35744000000E-01  0.51099999109E-03 0.  1.
       22    1    1    2    0    0 -0.61558133293E-02 -0.80865177153E-03 -0.35193545281E-01  0.35737005818E-01  0.00000000000E+00 0.  1.
  9000001    1    1    2    0    0  0.61558133293E-02  0.80865177153E-03  0.35193545281E-01  0.35750994182E-01  0.10000000475E-02 0. -1.
</event>
<event>
 4   0  0.2441219E-02  0.9118800E+02  0.7818609E-02  0.1379984E+01
      -11   -1    0    0    0    0  0.00000000000E+00  0.00000000000E+00  0.35740347158E-01  0.35744000000E-01  0.51099999109E-03 0. -1.
       11   -1    0    0    0    0 -0.00000000000E+00 -0.00000000000E+00 -0.35740347158E-01  0.35744000000E-01  0.51099999109E-03 0.  1.
       22    1    1    2    0    0 -0.27276926430E-02  0.54999454573E-02  0.35205736431E-01  0.35737005818E-01  0.00000000000E+00 0. -1.
  9000001    1    1    2    0    0  0.27276926430E-02 -0.54999454573E-02 -0.35205736431E-01  0.35750994182E-01  0.10000000475E-02 0.  1.
</event>
<event>
 4   0  0.2441219E-02  0.9118800E+02  0.7818609E-02  0.1379984E+01
      -11   -1    0    0    0    0  0.00000000000E+00  0.00000000000E+00  0.35740347158E-01  0.35744000000E-01  0.51099999109E-03 0. -1.
       11   -1    0    0    0    0 -0.00000000000E+00 -0.00000000000E+00 -0.35740347158E-01  0.35744000000E-01  0.51099999109E-03 0.  1.
       22    1    1    2    0    0 -0.11499185554E-01 -0.77247695033E-02  0.32942833099E-01  0.35737005818E-01  0.00000000000E+00 0. -1.
  9000001    1    1    2    0    0  0.11499185554E-01  0.77247695033E-02 -0.32942833099E-01  0.35750994182E-01  0.10000000475E-02 0.  1.
</event>
<event>
 4   0  0.2441219E-02  0.9118800E+02  0.7818609E-02  0.1379984E+01
      -11   -1    0    0    0    0  0.00000000000E+00  0.00000000000E+00  0.35740347158E-01  0.35744000000E-01  0.51099999109E-03 0.  1.
       11   -1    0    0    0    0 -0.00000000000E+00 -0.00000000000E+00 -0.35740347158E-01  0.35744000000E-01  0.51099999109E-03 0. -1.
       22    1    1    2    0    0  0.17896570001E-03  0.39989901974E-02  0.35512105451E-01  0.35737005818E-01  0.00000000000E+00 0.  1.
  9000001    1    1    2    0    0 -0.17896570001E-03 -0.39989901974E-02 -0.35512105451E-01  0.35750994182E-01  0.10000000475E-02 0. -1.
</event>
<event>
 4   0  0.2441219E-02  0.9118800E+02  0.7818609E-02  0.1379984E+01
      -11   -1    0    0    0    0  0.00000000000E+00  0.00000000000E+00  0.35740347158E-01  0.35744000000E-01  0.51099999109E-03 0.  1.
       11   -1    0    0    0    0 -0.00000000000E+00 -0.00000000000E+00 -0.35740347158E-01  0.35744000000E-01  0.51099999109E-03 0. -1.
       22    1    1    2    0    0  0.59767030634E-03 -0.44863178054E-02  0.35449250029E-01  0.35737005818E-01  0.00000000000E+00 0.  1.
  9000001    1    1    2    0    0 -0.59767030634E-03  0.44863178054E-02 -0.35449250029E-01  0.35750994182E-01  0.10000000475E-02 0. -1.
</event>
<event>
 4   0  0.2441219E-02  0.9118800E+02  0.7818609E-02  0.1379984E+01
      -11   -1    0    0    0    0  0.00000000000E+00  0.00000000000E+00  0.35740347158E-01  0.35744000000E-01  0.51099999109E-03 0.  1.
       11   -1    0    0    0    0 -0.00000000000E+00 -0.00000000000E+00 -0.35740347158E-01  0.35744000000E-01  0.51099999109E-03 0. -1.
       22    1    1    2    0    0  0.20614733712E-02 -0.10594335335E-01 -0.34068225243E-01  0.35737005818E-01  0.00000000000E+00 0. -1.
  9000001    1    1    2    0    0 -0.20614733712E-02  0.10594335335E-01  0.34068225243E-01  0.35750994182E-01  0.10000000475E-02 0.  1.
</event>
<event>
 4   0  0.2441219E-02  0.9118800E+02  0.7818609E-02  0.1379984E+01
      -11   -1    0    0    0    0  0.00000000000E+00  0.00000000000E+00  0.35740347158E-01  0.35744000000E-01  0.51099999109E-03 0.  1.
       11   -1    0    0    0    0 -0.00000000000E+00 -0.00000000000E+00 -0.35740347158E-01  0.35744000000E-01  0.51099999109E-03 0. -1.
       22    1    1    2    0    0 -0.45646572207E-02 -0.18664594515E-02 -0.35395110092E-01  0.35737005818E-01  0.00000000000E+00 0. -1.
  9000001    1    1    2    0    0  0.45646572207E-02  0.18664594515E-02  0.35395110092E-01  0.35750994182E-01  0.10000000475E-02 0.  1.
</event>
<event>
 4   0  0.2441219E-02  0.9118800E+02  0.7818609E-02  0.1379984E+01
      -11   -1    0    0    0    0  0.00000000000E+00  0.00000000000E+00  0.35740347158E-01  0.35744000000E-01  0.51099999109E-03 0.  1.
       11   -1    0    0    0    0 -0.00000000000E+00 -0.00000000000E+00 -0.35740347158E-01  0.35744000000E-01  0.51099999109E-03 0. -1.
       22    1    1    2    0    0  0.31650179388E-02 -0.64433300393E-02 -0.35008566728E-01  0.35737005818E-01  0.00000000000E+00 0. -1.
  9000001    1    1    2    0    0 -0.31650179388E-02  0.64433300393E-02  0.35008566728E-01  0.35750994182E-01  0.10000000475E-02 0.  1.
</event>
<event>
 4   0  0.2441219E-02  0.9118800E+02  0.7818609E-02  0.1379984E+01
      -11   -1    0    0    0    0  0.00000000000E+00  0.00000000000E+00  0.35740347158E-01  0.35744000000E-01  0.51099999109E-03 0. -1.
       11   -1    0    0    0    0 -0.00000000000E+00 -0.00000000000E+00 -0.35740347158E-01  0.35744000000E-01  0.51099999109E-03 0.  1.
       22    1    1    2    0    0 -0.46625698074E-02  0.18126111682E-02 -0.35385144742E-01  0.35737005818E-01  0.00000000000E+00 0.  1.
  9000001    1    1    2    0    0  0.46625698074E-02 -0.18126111682E-02  0.35385144742E-01  0.35750994182E-01  0.10000000475E-02 0. -1.
</event>
<event>
 4   0  0.2441219E-02  0.9118800E+02  0.7818609E-02  0.1379984E+01
      -11   -1    0    0    0    0  0.00000000000E+00  0.00000000000E+00  0.35740347158E-01  0.35744000000E-01  0.51099999109E-03 0.  1.
       11   -1    0    0    0    0 -0.00000000000E+00 -0.00000000000E+00 -0.35740347158E-01  0.35744000000E-01  0.51099999109E-03 0. -1.
       22    1    1    2    0    0 -0.35491466882E-02 -0.25146573932E-01  0.25143328382E-01  0.35737005818E-01  0.00000000000E+00 0.  1.
  9000001    1    1    2    0    0  0.35491466882E-02  0.25146573932E-01 -0.25143328382E-01  0.35750994182E-01  0.10000000475E-02 0. -1.
</event>
<event>
 4   0  0.2441219E-02  0.9118800E+02  0.7818609E-02  0.1379984E+01
      -11   -1    0    0    0    0  0.00000000000E+00  0.00000000000E+00  0.35740347158E-01  0.35744000000E-01  0.51099999109E-03 0. -1.
       11   -1    0    0    0    0 -0.00000000000E+00 -0.00000000000E+00 -0.35740347158E-01  0.35744000000E-01  0.51099999109E-03 0.  1.
       22    1    1    2    0    0 -0.12332321443E-01  0.83168193011E-02 -0.32494275641E-01  0.35737005818E-01  0.00000000000E+00 0.  1.
  9000001    1    1    2    0    0  0.12332321443E-01 -0.83168193011E-02  0.32494275641E-01  0.35750994182E-01  0.10000000475E-02 0. -1.
</event>
<event>
 4   0  0.2441219E-02  0.9118800E+02  0.7818609E-02  0.1379984E+01
      -11   -1    0    0    0    0  0.00000000000E+00  0.00000000000E+00  0.35740347158E-01  0.35744000000E-01  0.51099999109E-03 0.  1.
       11   -1    0    0    0    0 -0.00000000000E+00 -0.00000000000E+00 -0.35740347158E-01  0.35744000000E-01  0.51099999109E-03 0. -1.
       22    1    1    2    0    0  0.25272581991E-01 -0.91531287193E-02  0.23551017367E-01  0.35737005818E-01  0.00000000000E+00 0.  1.
  9000001    1    1    2    0    0 -0.25272581991E-01  0.91531287193E-02 -0.23551017367E-01  0.35750994182E-01  0.10000000475E-02 0. -1.
</event>
<event>
 4   0  0.2441219E-02  0.9118800E+02  0.7818609E-02  0.1379984E+01
      -11   -1    0    0    0    0  0.00000000000E+00  0.00000000000E+00  0.35740347158E-01  0.35744000000E-01  0.51099999109E-03 0.  1.
       11   -1    0    0    0    0 -0.00000000000E+00 -0.00000000000E+00 -0.35740347158E-01  0.35744000000E-01  0.51099999109E-03 0. -1.
       22    1    1    2    0    0 -0.64812417020E-02 -0.64219100978E-03  0.35138507105E-01  0.35737005818E-01  0.00000000000E+00 0.  1.
  9000001    1    1    2    0    0  0.64812417020E-02  0.64219100978E-03 -0.35138507105E-01  0.35750994182E-01  0.10000000475E-02 0. -1.
</event>
<event>
 4   0  0.2441219E-02  0.9118800E+02  0.7818609E-02  0.1379984E+01
      -11   -1    0    0    0    0  0.00000000000E+00  0.00000000000E+00  0.35740347158E-01  0.35744000000E-01  0.51099999109E-03 0. -1.
       11   -1    0    0    0    0 -0.00000000000E+00 -0.00000000000E+00 -0.35740347158E-01  0.35744000000E-01  0.51099999109E-03 0.  1.
       22    1    1    2    0    0  0.17494617520E-01 -0.38830396554E-02  0.30919151763E-01  0.35737005818E-01  0.00000000000E+00 0. -1.
  9000001    1    1    2    0    0 -0.17494617520E-01  0.38830396554E-02 -0.30919151763E-01  0.35750994182E-01  0.10000000475E-02 0.  1.
</event>
<event>
 4   0  0.2441219E-02  0.9118800E+02  0.7818609E-02  0.1379984E+01
      -11   -1    0    0    0    0  0.00000000000E+00  0.00000000000E+00  0.35740347158E-01  0.35744000000E-01  0.51099999109E-03 0.  1.
       11   -1    0    0    0    0 -0.00000000000E+00 -0.00000000000E+00 -0.35740347158E-01  0.35744000000E-01  0.51099999109E-03 0. -1.
       22    1    1    2    0    0  0.49860245741E-02  0.24897451078E-03  0.35386595704E-01  0.35737005818E-01  0.00000000000E+00 0.  1.
  9000001    1    1    2    0    0 -0.49860245741E-02 -0.24897451078E-03 -0.35386595704E-01  0.35750994182E-01  0.10000000475E-02 0. -1.
</event>
<event>
 4   0  0.2441219E-02  0.9118800E+02  0.7818609E-02  0.1379984E+01
      -11   -1    0    0    0    0  0.00000000000E+00  0.00000000000E+00  0.35740347158E-01  0.35744000000E-01  0.51099999109E-03 0. -1.
       11   -1    0    0    0    0 -0.00000000000E+00 -0.00000000000E+00 -0.35740347158E-01  0.35744000000E-01  0.51099999109E-03 0.  1.
       22    1    1    2    0    0  0.20844948498E-02  0.61444140171E-02  0.35143059663E-01  0.35737005818E-01  0.00000000000E+00 0. -1.
  9000001    1    1    2    0    0 -0.20844948498E-02 -0.61444140171E-02 -0.35143059663E-01  0.35750994182E-01  0.10000000475E-02 0.  1.
</event>
<event>
 4   0  0.2441219E-02  0.9118800E+02  0.7818609E-02  0.1379984E+01
      -11   -1    0    0    0    0  0.00000000000E+00  0.00000000000E+00  0.35740347158E-01  0.35744000000E-01  0.51099999109E-03 0. -1.
       11   -1    0    0    0    0 -0.00000000000E+00 -0.00000000000E+00 -0.35740347158E-01  0.35744000000E-01  0.51099999109E-03 0.  1.
       22    1    1    2    0    0  0.23915598137E-02  0.10316201992E-01  0.34131949885E-01  0.35737005818E-01  0.00000000000E+00 0. -1.
  9000001    1    1    2    0    0 -0.23915598137E-02 -0.10316201992E-01 -0.34131949885E-01  0.35750994182E-01  0.10000000475E-02 0.  1.
</event>
<event>
 4   0  0.2441219E-02  0.9118800E+02  0.7818609E-02  0.1379984E+01
      -11   -1    0    0    0    0  0.00000000000E+00  0.00000000000E+00  0.35740347158E-01  0.35744000000E-01  0.51099999109E-03 0.  1.
       11   -1    0    0    0    0 -0.00000000000E+00 -0.00000000000E+00 -0.35740347158E-01  0.35744000000E-01  0.51099999109E-03 0. -1.
       22    1    1    2    0    0  0.12294142391E-01 -0.18574459954E-01  0.27945967243E-01  0.35737005818E-01  0.00000000000E+00 0.  1.
  9000001    1    1    2    0    0 -0.12294142391E-01  0.18574459954E-01 -0.27945967243E-01  0.35750994182E-01  0.10000000475E-02 0. -1.
</event>
<event>
 4   0  0.2441219E-02  0.9118800E+02  0.7818609E-02  0.1379984E+01
      -11   -1    0    0    0    0  0.00000000000E+00  0.00000000000E+00  0.35740347158E-01  0.35744000000E-01  0.51099999109E-03 0. -1.
       11   -1    0    0    0    0 -0.00000000000E+00 -0.00000000000E+00 -0.35740347158E-01  0.35744000000E-01  0.51099999109E-03 0.  1.
       22    1    1    2    0    0 -0.23673554372E-01  0.38629248201E-03  0.26768399025E-01  0.35737005818E-01  0.00000000000E+00 0. -1.
  9000001    1    1    2    0    0  0.23673554372E-01 -0.38629248201E-03 -0.26768399025E-01  0.35750994182E-01  0.10000000475E-02 0.  1.
</event>
<event>
 4   0  0.2441219E-02  0.9118800E+02  0.7818609E-02  0.1379984E+01
      -11   -1    0    0    0    0  0.00000000000E+00  0.00000000000E+00  0.35740347158E-01  0.35744000000E-01  0.51099999109E-03 0.  1.
       11   -1    0    0    0    0 -0.00000000000E+00 -0.00000000000E+00 -0.35740347158E-01  0.35744000000E-01  0.51099999109E-03 0. -1.
       22    1    1    2    0    0 -0.34323251639E-02  0.49868004718E-02 -0.35220513197E-01  0.35737005818E-01  0.00000000000E+00 0. -1.
  9000001    1    1    2    0    0  0.34323251639E-02 -0.49868004718E-02  0.35220513197E-01  0.35750994182E-01  0.10000000475E-02 0.  1.
</event>
<event>
 4   0  0.2441219E-02  0.9118800E+02  0.7818609E-02  0.1379984E+01
      -11   -1    0    0    0    0  0.00000000000E+00  0.00000000000E+00  0.35740347158E-01  0.35744000000E-01  0.51099999109E-03 0.  1.
       11   -1    0    0    0    0 -0.00000000000E+00 -0.00000000000E+00 -0.35740347158E-01  0.35744000000E-01  0.51099999109E-03 0. -1.
       22    1    1    2    0    0 -0.89936121958E-02 -0.25206356441E-01 -0.23683076648E-01  0.35737005818E-01  0.00000000000E+00 0. -1.
  9000001    1    1    2    0    0  0.89936121958E-02  0.25206356441E-01  0.23683076648E-01  0.35750994182E-01  0.10000000475E-02 0.  1.
</event>
<event>
 4   0  0.2441219E-02  0.9118800E+02  0.7818609E-02  0.1379984E+01
      -11   -1    0    0    0    0  0.00000000000E+00  0.00000000000E+00  0.35740347158E-01  0.35744000000E-01  0.51099999109E-03 0.  1.
       11   -1    0    0    0    0 -0.00000000000E+00 -0.00000000000E+00 -0.35740347158E-01  0.35744000000E-01  0.51099999109E-03 0. -1.
       22    1    1    2    0    0  0.67063801082E-02 -0.28238503247E-01  0.20850539203E-01  0.35737005818E-01  0.00000000000E+00 0.  1.
  9000001    1    1    2    0    0 -0.67063801082E-02  0.28238503247E-01 -0.20850539203E-01  0.35750994182E-01  0.10000000475E-02 0. -1.
</event>
<event>
 4   0  0.2441219E-02  0.9118800E+02  0.7818609E-02  0.1379984E+01
      -11   -1    0    0    0    0  0.00000000000E+00  0.00000000000E+00  0.35740347158E-01  0.35744000000E-01  0.51099999109E-03 0.  1.
       11   -1    0    0    0    0 -0.00000000000E+00 -0.00000000000E+00 -0.35740347158E-01  0.35744000000E-01  0.51099999109E-03 0. -1.
       22    1    1    2    0    0 -0.28782544977E-03  0.45025473528E-02  0.35451062166E-01  0.35737005818E-01  0.00000000000E+00 0.  1.
  9000001    1    1    2    0    0  0.28782544977E-03 -0.45025473528E-02 -0.35451062166E-01  0.35750994182E-01  0.10000000475E-02 0. -1.
</event>
<event>
 4   0  0.2441219E-02  0.9118800E+02  0.7818609E-02  0.1379984E+01
      -11   -1    0    0    0    0  0.00000000000E+00  0.00000000000E+00  0.35740347158E-01  0.35744000000E-01  0.51099999109E-03 0.  1.
       11   -1    0    0    0    0 -0.00000000000E+00 -0.00000000000E+00 -0.35740347158E-01  0.35744000000E-01  0.51099999109E-03 0. -1.
       22    1    1    2    0    0  0.39157315166E-02 -0.29268920512E-02 -0.35401044257E-01  0.35737005818E-01  0.00000000000E+00 0. -1.
  9000001    1    1    2    0    0 -0.39157315166E-02  0.29268920512E-02  0.35401044257E-01  0.35750994182E-01  0.10000000475E-02 0.  1.
</event>
<event>
 4   0  0.2441219E-02  0.9118800E+02  0.7818609E-02  0.1379984E+01
      -11   -1    0    0    0    0  0.00000000000E+00  0.00000000000E+00  0.35740347158E-01  0.35744000000E-01  0.51099999109E-03 0.  1.
       11   -1    0    0    0    0 -0.00000000000E+00 -0.00000000000E+00 -0.35740347158E-01  0.35744000000E-01  0.51099999109E-03 0. -1.
       22    1    1    2    0    0 -0.12238619786E-01  0.12311246098E-03 -0.33575803995E-01  0.35737005818E-01  0.00000000000E+00 0. -1.
  9000001    1    1    2    0    0  0.12238619786E-01 -0.12311246098E-03  0.33575803995E-01  0.35750994182E-01  0.10000000475E-02 0.  1.
</event>
<event>
 4   0  0.2441219E-02  0.9118800E+02  0.7818609E-02  0.1379984E+01
      -11   -1    0    0    0    0  0.00000000000E+00  0.00000000000E+00  0.35740347158E-01  0.35744000000E-01  0.51099999109E-03 0.  1.
       11   -1    0    0    0    0 -0.00000000000E+00 -0.00000000000E+00 -0.35740347158E-01  0.35744000000E-01  0.51099999109E-03 0. -1.
       22    1    1    2    0    0  0.98273765337E-02 -0.56282009580E-02  0.33895126631E-01  0.35737005818E-01  0.00000000000E+00 0.  1.
  9000001    1    1    2    0    0 -0.98273765337E-02  0.56282009580E-02 -0.33895126631E-01  0.35750994182E-01  0.10000000475E-02 0. -1.
</event>
<event>
 4   0  0.2441219E-02  0.9118800E+02  0.7818609E-02  0.1379984E+01
      -11   -1    0    0    0    0  0.00000000000E+00  0.00000000000E+00  0.35740347158E-01  0.35744000000E-01  0.51099999109E-03 0.  1.
       11   -1    0    0    0    0 -0.00000000000E+00 -0.00000000000E+00 -0.35740347158E-01  0.35744000000E-01  0.51099999109E-03 0. -1.
       22    1    1    2    0    0  0.23939293965E-02 -0.55391108117E-02 -0.35223868872E-01  0.35737005818E-01  0.00000000000E+00 0. -1.
  9000001    1    1    2    0    0 -0.23939293965E-02  0.55391108117E-02  0.35223868872E-01  0.35750994182E-01  0.10000000475E-02 0.  1.
</event>
<event>
 4   0  0.2441219E-02  0.9118800E+02  0.7818609E-02  0.1379984E+01
      -11   -1    0    0    0    0  0.00000000000E+00  0.00000000000E+00  0.35740347158E-01  0.35744000000E-01  0.51099999109E-03 0. -1.
       11   -1    0    0    0    0 -0.00000000000E+00 -0.00000000000E+00 -0.35740347158E-01  0.35744000000E-01  0.51099999109E-03 0.  1.
       22    1    1    2    0    0  0.46105513899E-02 -0.43449169114E-03  0.35435682831E-01  0.35737005818E-01  0.00000000000E+00 0. -1.
  9000001    1    1    2    0    0 -0.46105513899E-02  0.43449169114E-03 -0.35435682831E-01  0.35750994182E-01  0.10000000475E-02 0.  1.
</event>
<event>
 4   0  0.2441219E-02  0.9118800E+02  0.7818609E-02  0.1379984E+01
      -11   -1    0    0    0    0  0.00000000000E+00  0.00000000000E+00  0.35740347158E-01  0.35744000000E-01  0.51099999109E-03 0.  1.
       11   -1    0    0    0    0 -0.00000000000E+00 -0.00000000000E+00 -0.35740347158E-01  0.35744000000E-01  0.51099999109E-03 0. -1.
       22    1    1    2    0    0  0.22075537391E-01 -0.23960041156E-01 -0.14687432095E-01  0.35737005818E-01  0.00000000000E+00 0.  1.
  9000001    1    1    2    0    0 -0.22075537391E-01  0.23960041156E-01  0.14687432095E-01  0.35750994182E-01  0.10000000475E-02 0. -1.
</event>
<event>
 4   0  0.2441219E-02  0.9118800E+02  0.7818609E-02  0.1379984E+01
      -11   -1    0    0    0    0  0.00000000000E+00  0.00000000000E+00  0.35740347158E-01  0.35744000000E-01  0.51099999109E-03 0.  1.
       11   -1    0    0    0    0 -0.00000000000E+00 -0.00000000000E+00 -0.35740347158E-01  0.35744000000E-01  0.51099999109E-03 0. -1.
       22    1    1    2    0    0  0.23623906741E-01  0.63019142964E-02 -0.26063969218E-01  0.35737005818E-01  0.00000000000E+00 0. -1.
  9000001    1    1    2    0    0 -0.23623906741E-01 -0.63019142964E-02  0.26063969218E-01  0.35750994182E-01  0.10000000475E-02 0.  1.
</event>
<event>
 4   0  0.2441219E-02  0.9118800E+02  0.7818609E-02  0.1379984E+01
      -11   -1    0    0    0    0  0.00000000000E+00  0.00000000000E+00  0.35740347158E-01  0.35744000000E-01  0.51099999109E-03 0.  1.
       11   -1    0    0    0    0 -0.00000000000E+00 -0.00000000000E+00 -0.35740347158E-01  0.35744000000E-01  0.51099999109E-03 0. -1.
       22    1    1    2    0    0 -0.61023060458E-02  0.57710524553E-03  0.35207419606E-01  0.35737005818E-01  0.00000000000E+00 0.  1.
  9000001    1    1    2    0    0  0.61023060458E-02 -0.57710524553E-03 -0.35207419606E-01  0.35750994182E-01  0.10000000475E-02 0. -1.
</event>
<event>
 4   0  0.2441219E-02  0.9118800E+02  0.7818609E-02  0.1379984E+01
      -11   -1    0    0    0    0  0.00000000000E+00  0.00000000000E+00  0.35740347158E-01  0.35744000000E-01  0.51099999109E-03 0.  1.
       11   -1    0    0    0    0 -0.00000000000E+00 -0.00000000000E+00 -0.35740347158E-01  0.35744000000E-01  0.51099999109E-03 0. -1.
       22    1    1    2    0    0 -0.94192220137E-02  0.42508191253E-02  0.34210267147E-01  0.35737005818E-01  0.00000000000E+00 0.  1.
  9000001    1    1    2    0    0  0.94192220137E-02 -0.42508191253E-02 -0.34210267147E-01  0.35750994182E-01  0.10000000475E-02 0. -1.
</event>
<event>
 4   0  0.2441219E-02  0.9118800E+02  0.7818609E-02  0.1379984E+01
      -11   -1    0    0    0    0  0.00000000000E+00  0.00000000000E+00  0.35740347158E-01  0.35744000000E-01  0.51099999109E-03 0.  1.
       11   -1    0    0    0    0 -0.00000000000E+00 -0.00000000000E+00 -0.35740347158E-01  0.35744000000E-01  0.51099999109E-03 0. -1.
       22    1    1    2    0    0 -0.18669118421E-02 -0.18578085080E-01  0.30471346866E-01  0.35737005818E-01  0.00000000000E+00 0.  1.
  9000001    1    1    2    0    0  0.18669118421E-02  0.18578085080E-01 -0.30471346866E-01  0.35750994182E-01  0.10000000475E-02 0. -1.
</event>
<event>
 4   0  0.2441219E-02  0.9118800E+02  0.7818609E-02  0.1379984E+01
      -11   -1    0    0    0    0  0.00000000000E+00  0.00000000000E+00  0.35740347158E-01  0.35744000000E-01  0.51099999109E-03 0. -1.
       11   -1    0    0    0    0 -0.00000000000E+00 -0.00000000000E+00 -0.35740347158E-01  0.35744000000E-01  0.51099999109E-03 0.  1.
       22    1    1    2    0    0 -0.22778359965E-01 -0.12678403018E-01  0.24444590385E-01  0.35737005818E-01  0.00000000000E+00 0. -1.
  9000001    1    1    2    0    0  0.22778359965E-01  0.12678403018E-01 -0.24444590385E-01  0.35750994182E-01  0.10000000475E-02 0.  1.
</event>
<event>
 4   0  0.2441219E-02  0.9118800E+02  0.7818609E-02  0.1379984E+01
      -11   -1    0    0    0    0  0.00000000000E+00  0.00000000000E+00  0.35740347158E-01  0.35744000000E-01  0.51099999109E-03 0. -1.
       11   -1    0    0    0    0 -0.00000000000E+00 -0.00000000000E+00 -0.35740347158E-01  0.35744000000E-01  0.51099999109E-03 0.  1.
       22    1    1    2    0    0  0.26560914332E-02  0.86886827845E-02  0.34562777010E-01  0.35737005818E-01  0.00000000000E+00 0. -1.
  9000001    1    1    2    0    0 -0.26560914332E-02 -0.86886827845E-02 -0.34562777010E-01  0.35750994182E-01  0.10000000475E-02 0.  1.
</event>
<event>
 4   0  0.2441219E-02  0.9118800E+02  0.7818609E-02  0.1379984E+01
      -11   -1    0    0    0    0  0.00000000000E+00  0.00000000000E+00  0.35740347158E-01  0.35744000000E-01  0.51099999109E-03 0.  1.
       11   -1    0    0    0    0 -0.00000000000E+00 -0.00000000000E+00 -0.35740347158E-01  0.35744000000E-01  0.51099999109E-03 0. -1.
       22    1    1    2    0    0 -0.52116171876E-02 -0.22774924027E-01 -0.27042105442E-01  0.35737005818E-01  0.00000000000E+00 0. -1.
  9000001    1    1    2    0    0  0.52116171876E-02  0.22774924027E-01  0.27042105442E-01  0.35750994182E-01  0.10000000475E-02 0.  1.
</event>
<event>
 4   0  0.2441219E-02  0.9118800E+02  0.7818609E-02  0.1379984E+01
      -11   -1    0    0    0    0  0.00000000000E+00  0.00000000000E+00  0.35740347158E-01  0.35744000000E-01  0.51099999109E-03 0. -1.
       11   -1    0    0    0    0 -0.00000000000E+00 -0.00000000000E+00 -0.35740347158E-01  0.35744000000E-01  0.51099999109E-03 0.  1.
       22    1    1    2    0    0  0.23335841420E-02 -0.22272977999E-02 -0.35591110048E-01  0.35737005818E-01  0.00000000000E+00 0.  1.
  9000001    1    1    2    0    0 -0.23335841420E-02  0.22272977999E-02  0.35591110048E-01  0.35750994182E-01  0.10000000475E-02 0. -1.
</event>
<event>
 4   0  0.2441219E-02  0.9118800E+02  0.7818609E-02  0.1379984E+01
      -11   -1    0    0    0    0  0.00000000000E+00  0.00000000000E+00  0.35740347158E-01  0.35744000000E-01  0.51099999109E-03 0. -1.
       11   -1    0    0    0    0 -0.00000000000E+00 -0.00000000000E+00 -0.35740347158E-01  0.35744000000E-01  0.51099999109E-03 0.  1.
       22    1    1    2    0    0  0.36429176787E-02 -0.41624016492E-03  0.35548410369E-01  0.35737005818E-01  0.00000000000E+00 0. -1.
  9000001    1    1    2    0    0 -0.36429176787E-02  0.41624016492E-03 -0.35548410369E-01  0.35750994182E-01  0.10000000475E-02 0.  1.
</event>
<event>
 4   0  0.2441219E-02  0.9118800E+02  0.7818609E-02  0.1379984E+01
      -11   -1    0    0    0    0  0.00000000000E+00  0.00000000000E+00  0.35740347158E-01  0.35744000000E-01  0.51099999109E-03 0.  1.
       11   -1    0    0    0    0 -0.00000000000E+00 -0.00000000000E+00 -0.35740347158E-01  0.35744000000E-01  0.51099999109E-03 0. -1.
       22    1    1    2    0    0 -0.34668804857E-01  0.53129776725E-02 -0.68541828790E-02  0.35737005818E-01  0.00000000000E+00 0. -1.
  9000001    1    1    2    0    0  0.34668804857E-01 -0.53129776725E-02  0.68541828790E-02  0.35750994182E-01  0.10000000475E-02 0.  1.
</event>
<event>
 4   0  0.2441219E-02  0.9118800E+02  0.7818609E-02  0.1379984E+01
      -11   -1    0    0    0    0  0.00000000000E+00  0.00000000000E+00  0.35740347158E-01  0.35744000000E-01  0.51099999109E-03 0. -1.
       11   -1    0    0    0    0 -0.00000000000E+00 -0.00000000000E+00 -0.35740347158E-01  0.35744000000E-01  0.51099999109E-03 0.  1.
       22    1    1    2    0    0  0.10223956748E-01 -0.28898690041E-01  0.18370356751E-01  0.35737005818E-01  0.00000000000E+00 0. -1.
  9000001    1    1    2    0    0 -0.10223956748E-01  0.28898690041E-01 -0.18370356751E-01  0.35750994182E-01  0.10000000475E-02 0.  1.
</event>
<event>
 4   0  0.2441219E-02  0.9118800E+02  0.7818609E-02  0.1379984E+01
      -11   -1    0    0    0    0  0.00000000000E+00  0.00000000000E+00  0.35740347158E-01  0.35744000000E-01  0.51099999109E-03 0. -1.
       11   -1    0    0    0    0 -0.00000000000E+00 -0.00000000000E+00 -0.35740347158E-01  0.35744000000E-01  0.51099999109E-03 0.  1.
       22    1    1    2    0    0  0.42022726137E-02  0.21173499320E-01 -0.28480825414E-01  0.35737005818E-01  0.00000000000E+00 0.  1.
  9000001    1    1    2    0    0 -0.42022726137E-02 -0.21173499320E-01  0.28480825414E-01  0.35750994182E-01  0.10000000475E-02 0. -1.
</event>
<event>
 4   0  0.2441219E-02  0.9118800E+02  0.7818609E-02  0.1379984E+01
      -11   -1    0    0    0    0  0.00000000000E+00  0.00000000000E+00  0.35740347158E-01  0.35744000000E-01  0.51099999109E-03 0. -1.
       11   -1    0    0    0    0 -0.00000000000E+00 -0.00000000000E+00 -0.35740347158E-01  0.35744000000E-01  0.51099999109E-03 0.  1.
       22    1    1    2    0    0  0.33033199359E-02 -0.97489928260E-05  0.35584007183E-01  0.35737005818E-01  0.00000000000E+00 0. -1.
  9000001    1    1    2    0    0 -0.33033199359E-02  0.97489928260E-05 -0.35584007183E-01  0.35750994182E-01  0.10000000475E-02 0.  1.
</event>
<event>
 4   0  0.2441219E-02  0.9118800E+02  0.7818609E-02  0.1379984E+01
      -11   -1    0    0    0    0  0.00000000000E+00  0.00000000000E+00  0.35740347158E-01  0.35744000000E-01  0.51099999109E-03 0. -1.
       11   -1    0    0    0    0 -0.00000000000E+00 -0.00000000000E+00 -0.35740347158E-01  0.35744000000E-01  0.51099999109E-03 0.  1.
       22    1    1    2    0    0  0.26468078814E-01 -0.25590732406E-02 -0.23875207495E-01  0.35737005818E-01  0.00000000000E+00 0.  1.
  9000001    1    1    2    0    0 -0.26468078814E-01  0.25590732406E-02  0.23875207495E-01  0.35750994182E-01  0.10000000475E-02 0. -1.
</event>
<event>
 4   0  0.2441219E-02  0.9118800E+02  0.7818609E-02  0.1379984E+01
      -11   -1    0    0    0    0  0.00000000000E+00  0.00000000000E+00  0.35740347158E-01  0.35744000000E-01  0.51099999109E-03 0. -1.
       11   -1    0    0    0    0 -0.00000000000E+00 -0.00000000000E+00 -0.35740347158E-01  0.35744000000E-01  0.51099999109E-03 0.  1.
       22    1    1    2    0    0 -0.28227012090E-01 -0.18038985880E-01 -0.12448468250E-01  0.35737005818E-01  0.00000000000E+00 0. -1.
  9000001    1    1    2    0    0  0.28227012090E-01  0.18038985880E-01  0.12448468250E-01  0.35750994182E-01  0.10000000475E-02 0.  1.
</event>
<event>
 4   0  0.2441219E-02  0.9118800E+02  0.7818609E-02  0.1379984E+01
      -11   -1    0    0    0    0  0.00000000000E+00  0.00000000000E+00  0.35740347158E-01  0.35744000000E-01  0.51099999109E-03 0. -1.
       11   -1    0    0    0    0 -0.00000000000E+00 -0.00000000000E+00 -0.35740347158E-01  0.35744000000E-01  0.51099999109E-03 0.  1.
       22    1    1    2    0    0  0.18412870103E-01 -0.17851939569E-01  0.24887909778E-01  0.35737005818E-01  0.00000000000E+00 0. -1.
  9000001    1    1    2    0    0 -0.18412870103E-01  0.17851939569E-01 -0.24887909778E-01  0.35750994182E-01  0.10000000475E-02 0.  1.
</event>
<event>
 4   0  0.2441219E-02  0.9118800E+02  0.7818609E-02  0.1379984E+01
      -11   -1    0    0    0    0  0.00000000000E+00  0.00000000000E+00  0.35740347158E-01  0.35744000000E-01  0.51099999109E-03 0. -1.
       11   -1    0    0    0    0 -0.00000000000E+00 -0.00000000000E+00 -0.35740347158E-01  0.35744000000E-01  0.51099999109E-03 0.  1.
       22    1    1    2    0    0  0.13342212741E-01 -0.43520086495E-02 -0.32866076200E-01  0.35737005818E-01  0.00000000000E+00 0.  1.
  9000001    1    1    2    0    0 -0.13342212741E-01  0.43520086495E-02  0.32866076200E-01  0.35750994182E-01  0.10000000475E-02 0. -1.
</event>
<event>
 4   0  0.2441219E-02  0.9118800E+02  0.7818609E-02  0.1379984E+01
      -11   -1    0    0    0    0  0.00000000000E+00  0.00000000000E+00  0.35740347158E-01  0.35744000000E-01  0.51099999109E-03 0. -1.
       11   -1    0    0    0    0 -0.00000000000E+00 -0.00000000000E+00 -0.35740347158E-01  0.35744000000E-01  0.51099999109E-03 0.  1.
       22    1    1    2    0    0 -0.47463751127E-02  0.73516940360E-02  0.34649070737E-01  0.35737005818E-01  0.00000000000E+00 0. -1.
  9000001    1    1    2    0    0  0.47463751127E-02 -0.73516940360E-02 -0.34649070737E-01  0.35750994182E-01  0.10000000475E-02 0.  1.
</event>
<event>
 4   0  0.2441219E-02  0.9118800E+02  0.7818609E-02  0.1379984E+01
      -11   -1    0    0    0    0  0.00000000000E+00  0.00000000000E+00  0.35740347158E-01  0.35744000000E-01  0.51099999109E-03 0.  1.
       11   -1    0    0    0    0 -0.00000000000E+00 -0.00000000000E+00 -0.35740347158E-01  0.35744000000E-01  0.51099999109E-03 0. -1.
       22    1    1    2    0    0  0.67585523660E-03 -0.76229840425E-02 -0.34907977868E-01  0.35737005818E-01  0.00000000000E+00 0. -1.
  9000001    1    1    2    0    0 -0.67585523660E-03  0.76229840425E-02  0.34907977868E-01  0.35750994182E-01  0.10000000475E-02 0.  1.
</event>
<event>
 4   0  0.2441219E-02  0.9118800E+02  0.7818609E-02  0.1379984E+01
      -11   -1    0    0    0    0  0.00000000000E+00  0.00000000000E+00  0.35740347158E-01  0.35744000000E-01  0.51099999109E-03 0.  1.
       11   -1    0    0    0    0 -0.00000000000E+00 -0.00000000000E+00 -0.35740347158E-01  0.35744000000E-01  0.51099999109E-03 0. -1.
       22    1    1    2    0    0  0.32568166176E-02  0.10436057756E-02  0.35572989998E-01  0.35737005818E-01  0.00000000000E+00 0.  1.
  9000001    1    1    2    0    0 -0.32568166176E-02 -0.10436057756E-02 -0.35572989998E-01  0.35750994182E-01  0.10000000475E-02 0. -1.
</event>
<event>
 4   0  0.2441219E-02  0.9118800E+02  0.7818609E-02  0.1379984E+01
      -11   -1    0    0    0    0  0.00000000000E+00  0.00000000000E+00  0.35740347158E-01  0.35744000000E-01  0.51099999109E-03 0.  1.
       11   -1    0    0    0    0 -0.00000000000E+00 -0.00000000000E+00 -0.35740347158E-01  0.35744000000E-01  0.51099999109E-03 0. -1.
       22    1    1    2    0    0 -0.11211054719E-01 -0.37961120878E-02 -0.33719955071E-01  0.35737005818E-01  0.00000000000E+00 0. -1.
  9000001    1    1    2    0    0  0.11211054719E-01  0.37961120878E-02  0.33719955071E-01  0.35750994182E-01  0.10000000475E-02 0.  1.
</event>
<event>
 4   0  0.2441219E-02  0.9118800E+02  0.7818609E-02  0.1379984E+01
      -11   -1    0    0    0    0  0.00000000000E+00  0.00000000000E+00  0.35740347158E-01  0.35744000000E-01  0.51099999109E-03 0. -1.
       11   -1    0    0    0    0 -0.00000000000E+00 -0.00000000000E+00 -0.35740347158E-01  0.35744000000E-01  0.51099999109E-03 0.  1.
       22    1    1    2    0    0 -0.46273343338E-02  0.28900677907E-02  0.35318109661E-01  0.35737005818E-01  0.00000000000E+00 0. -1.
  9000001    1    1    2    0    0  0.46273343338E-02 -0.28900677907E-02 -0.35318109661E-01  0.35750994182E-01  0.10000000475E-02 0.  1.
</event>
<event>
 4   0  0.2441219E-02  0.9118800E+02  0.7818609E-02  0.1379984E+01
      -11   -1    0    0    0    0  0.00000000000E+00  0.00000000000E+00  0.35740347158E-01  0.35744000000E-01  0.51099999109E-03 0. -1.
       11   -1    0    0    0    0 -0.00000000000E+00 -0.00000000000E+00 -0.35740347158E-01  0.35744000000E-01  0.51099999109E-03 0.  1.
       22    1    1    2    0    0  0.54817667479E-02  0.21384561971E-01  0.28103101742E-01  0.35737005818E-01  0.00000000000E+00 0. -1.
  9000001    1    1    2    0    0 -0.54817667479E-02 -0.21384561971E-01 -0.28103101742E-01  0.35750994182E-01  0.10000000475E-02 0.  1.
</event>
<event>
 4   0  0.2441219E-02  0.9118800E+02  0.7818609E-02  0.1379984E+01
      -11   -1    0    0    0    0  0.00000000000E+00  0.00000000000E+00  0.35740347158E-01  0.35744000000E-01  0.51099999109E-03 0. -1.
       11   -1    0    0    0    0 -0.00000000000E+00 -0.00000000000E+00 -0.35740347158E-01  0.35744000000E-01  0.51099999109E-03 0.  1.
       22    1    1    2    0    0  0.63874634206E-02  0.62259528830E-02 -0.34605944672E-01  0.35737005818E-01  0.00000000000E+00 0.  1.
  9000001    1    1    2    0    0 -0.63874634206E-02 -0.62259528830E-02  0.34605944672E-01  0.35750994182E-01  0.10000000475E-02 0. -1.
</event>
<event>
 4   0  0.2441219E-02  0.9118800E+02  0.7818609E-02  0.1379984E+01
      -11   -1    0    0    0    0  0.00000000000E+00  0.00000000000E+00  0.35740347158E-01  0.35744000000E-01  0.51099999109E-03 0. -1.
       11   -1    0    0    0    0 -0.00000000000E+00 -0.00000000000E+00 -0.35740347158E-01  0.35744000000E-01  0.51099999109E-03 0.  1.
       22    1    1    2    0    0  0.44064664200E-02  0.11084854583E-03 -0.35464127667E-01  0.35737005818E-01  0.00000000000E+00 0.  1.
  9000001    1    1    2    0    0 -0.44064664200E-02 -0.11084854583E-03  0.35464127667E-01  0.35750994182E-01  0.10000000475E-02 0. -1.
</event>
<event>
 4   0  0.2441219E-02  0.9118800E+02  0.7818609E-02  0.1379984E+01
      -11   -1    0    0    0    0  0.00000000000E+00  0.00000000000E+00  0.35740347158E-01  0.35744000000E-01  0.51099999109E-03 0.  1.
       11   -1    0    0    0    0 -0.00000000000E+00 -0.00000000000E+00 -0.35740347158E-01  0.35744000000E-01  0.51099999109E-03 0. -1.
       22    1    1    2    0    0 -0.29023751644E-04  0.21776270514E-01 -0.28335962750E-01  0.35737005818E-01  0.00000000000E+00 0. -1.
  9000001    1    1    2    0    0  0.29023751644E-04 -0.21776270514E-01  0.28335962750E-01  0.35750994182E-01  0.10000000475E-02 0.  1.
</event>
<event>
 4   0  0.2441219E-02  0.9118800E+02  0.7818609E-02  0.1379984E+01
      -11   -1    0    0    0    0  0.00000000000E+00  0.00000000000E+00  0.35740347158E-01  0.35744000000E-01  0.51099999109E-03 0.  1.
       11   -1    0    0    0    0 -0.00000000000E+00 -0.00000000000E+00 -0.35740347158E-01  0.35744000000E-01  0.51099999109E-03 0. -1.
       22    1    1    2    0    0 -0.22934038244E-01 -0.26052096799E-01  0.85118580247E-02  0.35737005818E-01  0.00000000000E+00 0.  1.
  9000001    1    1    2    0    0  0.22934038244E-01  0.26052096799E-01 -0.85118580247E-02  0.35750994182E-01  0.10000000475E-02 0. -1.
</event>
<event>
 4   0  0.2441219E-02  0.9118800E+02  0.7818609E-02  0.1379984E+01
      -11   -1    0    0    0    0  0.00000000000E+00  0.00000000000E+00  0.35740347158E-01  0.35744000000E-01  0.51099999109E-03 0. -1.
       11   -1    0    0    0    0 -0.00000000000E+00 -0.00000000000E+00 -0.35740347158E-01  0.35744000000E-01  0.51099999109E-03 0.  1.
       22    1    1    2    0    0 -0.62600772170E-02  0.42939662707E-03  0.35181822532E-01  0.35737005818E-01  0.00000000000E+00 0. -1.
  9000001    1    1    2    0    0  0.62600772170E-02 -0.42939662707E-03 -0.35181822532E-01  0.35750994182E-01  0.10000000475E-02 0.  1.
</event>
<event>
 4   0  0.2441219E-02  0.9118800E+02  0.7818609E-02  0.1379984E+01
      -11   -1    0    0    0    0  0.00000000000E+00  0.00000000000E+00  0.35740347158E-01  0.35744000000E-01  0.51099999109E-03 0. -1.
       11   -1    0    0    0    0 -0.00000000000E+00 -0.00000000000E+00 -0.35740347158E-01  0.35744000000E-01  0.51099999109E-03 0.  1.
       22    1    1    2    0    0 -0.24149158515E-01  0.24549583358E-01  0.95535168849E-02  0.35737005818E-01  0.00000000000E+00 0. -1.
  9000001    1    1    2    0    0  0.24149158515E-01 -0.24549583358E-01 -0.95535168849E-02  0.35750994182E-01  0.10000000475E-02 0.  1.
</event>
<event>
 4   0  0.2441219E-02  0.9118800E+02  0.7818609E-02  0.1379984E+01
      -11   -1    0    0    0    0  0.00000000000E+00  0.00000000000E+00  0.35740347158E-01  0.35744000000E-01  0.51099999109E-03 0.  1.
       11   -1    0    0    0    0 -0.00000000000E+00 -0.00000000000E+00 -0.35740347158E-01  0.35744000000E-01  0.51099999109E-03 0. -1.
       22    1    1    2    0    0  0.32073549888E-02  0.10000564923E-01  0.34158968955E-01  0.35737005818E-01  0.00000000000E+00 0.  1.
  9000001    1    1    2    0    0 -0.32073549888E-02 -0.10000564923E-01 -0.34158968955E-01  0.35750994182E-01  0.10000000475E-02 0. -1.
</event>
<event>
 4   0  0.2441219E-02  0.9118800E+02  0.7818609E-02  0.1379984E+01
      -11   -1    0    0    0    0  0.00000000000E+00  0.00000000000E+00  0.35740347158E-01  0.35744000000E-01  0.51099999109E-03 0. -1.
       11   -1    0    0    0    0 -0.00000000000E+00 -0.00000000000E+00 -0.35740347158E-01  0.35744000000E-01  0.51099999109E-03 0.  1.
       22    1    1    2    0    0  0.26702976703E-02 -0.71284130218E-02 -0.34916884498E-01  0.35737005818E-01  0.00000000000E+00 0.  1.
  9000001    1    1    2    0    0 -0.26702976703E-02  0.71284130218E-02  0.34916884498E-01  0.35750994182E-01  0.10000000475E-02 0. -1.
</event>
<event>
 4   0  0.2441219E-02  0.9118800E+02  0.7818609E-02  0.1379984E+01
      -11   -1    0    0    0    0  0.00000000000E+00  0.00000000000E+00  0.35740347158E-01  0.35744000000E-01  0.51099999109E-03 0.  1.
       11   -1    0    0    0    0 -0.00000000000E+00 -0.00000000000E+00 -0.35740347158E-01  0.35744000000E-01  0.51099999109E-03 0. -1.
       22    1    1    2    0    0  0.10336183233E-01 -0.94261917264E-02  0.32885312992E-01  0.35737005818E-01  0.00000000000E+00 0.  1.
  9000001    1    1    2    0    0 -0.10336183233E-01  0.94261917264E-02 -0.32885312992E-01  0.35750994182E-01  0.10000000475E-02 0. -1.
</event>
<event>
 4   0  0.2441219E-02  0.9118800E+02  0.7818609E-02  0.1379984E+01
      -11   -1    0    0    0    0  0.00000000000E+00  0.00000000000E+00  0.35740347158E-01  0.35744000000E-01  0.51099999109E-03 0.  1.
       11   -1    0    0    0    0 -0.00000000000E+00 -0.00000000000E+00 -0.35740347158E-01  0.35744000000E-01  0.51099999109E-03 0. -1.
       22    1    1    2    0    0 -0.11376999182E-01 -0.27556398406E-01 -0.19706404577E-01  0.35737005818E-01  0.00000000000E+00 0. -1.
  9000001    1    1    2    0    0  0.11376999182E-01  0.27556398406E-01  0.19706404577E-01  0.35750994182E-01  0.10000000475E-02 0.  1.
</event>
<event>
 4   0  0.2441219E-02  0.9118800E+02  0.7818609E-02  0.1379984E+01
      -11   -1    0    0    0    0  0.00000000000E+00  0.00000000000E+00  0.35740347158E-01  0.35744000000E-01  0.51099999109E-03 0. -1.
       11   -1    0    0    0    0 -0.00000000000E+00 -0.00000000000E+00 -0.35740347158E-01  0.35744000000E-01  0.51099999109E-03 0.  1.
       22    1    1    2    0    0  0.32351790431E-02  0.10312324424E-01 -0.34063516648E-01  0.35737005818E-01  0.00000000000E+00 0.  1.
  9000001    1    1    2    0    0 -0.32351790431E-02 -0.10312324424E-01  0.34063516648E-01  0.35750994182E-01  0.10000000475E-02 0. -1.
</event>
<event>
 4   0  0.2441219E-02  0.9118800E+02  0.7818609E-02  0.1379984E+01
      -11   -1    0    0    0    0  0.00000000000E+00  0.00000000000E+00  0.35740347158E-01  0.35744000000E-01  0.51099999109E-03 0.  1.
       11   -1    0    0    0    0 -0.00000000000E+00 -0.00000000000E+00 -0.35740347158E-01  0.35744000000E-01  0.51099999109E-03 0. -1.
       22    1    1    2    0    0 -0.57377966292E-02 -0.16632054445E-03  0.35272987004E-01  0.35737005818E-01  0.00000000000E+00 0.  1.
  9000001    1    1    2    0    0  0.57377966292E-02  0.16632054445E-03 -0.35272987004E-01  0.35750994182E-01  0.10000000475E-02 0. -1.
</event>
<event>
 4   0  0.2441219E-02  0.9118800E+02  0.7818609E-02  0.1379984E+01
      -11   -1    0    0    0    0  0.00000000000E+00  0.00000000000E+00  0.35740347158E-01  0.35744000000E-01  0.51099999109E-03 0. -1.
       11   -1    0    0    0    0 -0.00000000000E+00 -0.00000000000E+00 -0.35740347158E-01  0.35744000000E-01  0.51099999109E-03 0.  1.
       22    1    1    2    0    0 -0.31649340136E-02 -0.29120739871E-01  0.20471914589E-01  0.35737005818E-01  0.00000000000E+00 0. -1.
  9000001    1    1    2    0    0  0.31649340136E-02  0.29120739871E-01 -0.20471914589E-01  0.35750994182E-01  0.10000000475E-02 0.  1.
</event>
<event>
 4   0  0.2441219E-02  0.9118800E+02  0.7818609E-02  0.1379984E+01
      -11   -1    0    0    0    0  0.00000000000E+00  0.00000000000E+00  0.35740347158E-01  0.35744000000E-01  0.51099999109E-03 0. -1.
       11   -1    0    0    0    0 -0.00000000000E+00 -0.00000000000E+00 -0.35740347158E-01  0.35744000000E-01  0.51099999109E-03 0.  1.
       22    1    1    2    0    0  0.33185330572E-02  0.34460782877E-02 -0.35415328146E-01  0.35737005818E-01  0.00000000000E+00 0.  1.
  9000001    1    1    2    0    0 -0.33185330572E-02 -0.34460782877E-02  0.35415328146E-01  0.35750994182E-01  0.10000000475E-02 0. -1.
</event>
<event>
 4   0  0.2441219E-02  0.9118800E+02  0.7818609E-02  0.1379984E+01
      -11   -1    0    0    0    0  0.00000000000E+00  0.00000000000E+00  0.35740347158E-01  0.35744000000E-01  0.51099999109E-03 0.  1.
       11   -1    0    0    0    0 -0.00000000000E+00 -0.00000000000E+00 -0.35740347158E-01  0.35744000000E-01  0.51099999109E-03 0. -1.
       22    1    1    2    0    0  0.32090561361E-01  0.13434851839E-01 -0.81752194147E-02  0.35737005818E-01  0.00000000000E+00 0. -1.
  9000001    1    1    2    0    0 -0.32090561361E-01 -0.13434851839E-01  0.81752194147E-02  0.35750994182E-01  0.10000000475E-02 0.  1.
</event>
<event>
 4   0  0.2441219E-02  0.9118800E+02  0.7818609E-02  0.1379984E+01
      -11   -1    0    0    0    0  0.00000000000E+00  0.00000000000E+00  0.35740347158E-01  0.35744000000E-01  0.51099999109E-03 0.  1.
       11   -1    0    0    0    0 -0.00000000000E+00 -0.00000000000E+00 -0.35740347158E-01  0.35744000000E-01  0.51099999109E-03 0. -1.
       22    1    1    2    0    0 -0.10662659638E-02  0.42738438059E-02  0.35464502265E-01  0.35737005818E-01  0.00000000000E+00 0.  1.
  9000001    1    1    2    0    0  0.10662659638E-02 -0.42738438059E-02 -0.35464502265E-01  0.35750994182E-01  0.10000000475E-02 0. -1.
</event>
<event>
 4   0  0.2441219E-02  0.9118800E+02  0.7818609E-02  0.1379984E+01
      -11   -1    0    0    0    0  0.00000000000E+00  0.00000000000E+00  0.35740347158E-01  0.35744000000E-01  0.51099999109E-03 0.  1.
       11   -1    0    0    0    0 -0.00000000000E+00 -0.00000000000E+00 -0.35740347158E-01  0.35744000000E-01  0.51099999109E-03 0. -1.
       22    1    1    2    0    0 -0.92339956710E-04 -0.66490306326E-02 -0.35112895777E-01  0.35737005818E-01  0.00000000000E+00 0. -1.
  9000001    1    1    2    0    0  0.92339956710E-04  0.66490306326E-02  0.35112895777E-01  0.35750994182E-01  0.10000000475E-02 0.  1.
</event>
<event>
 4   0  0.2441219E-02  0.9118800E+02  0.7818609E-02  0.1379984E+01
      -11   -1    0    0    0    0  0.00000000000E+00  0.00000000000E+00  0.35740347158E-01  0.35744000000E-01  0.51099999109E-03 0.  1.
       11   -1    0    0    0    0 -0.00000000000E+00 -0.00000000000E+00 -0.35740347158E-01  0.35744000000E-01  0.51099999109E-03 0. -1.
       22    1    1    2    0    0  0.27115804660E-02 -0.72217843438E-02  0.34894508839E-01  0.35737005818E-01  0.00000000000E+00 0.  1.
  9000001    1    1    2    0    0 -0.27115804660E-02  0.72217843438E-02 -0.34894508839E-01  0.35750994182E-01  0.10000000475E-02 0. -1.
</event>
<event>
 4   0  0.2441219E-02  0.9118800E+02  0.7818609E-02  0.1379984E+01
      -11   -1    0    0    0    0  0.00000000000E+00  0.00000000000E+00  0.35740347158E-01  0.35744000000E-01  0.51099999109E-03 0.  1.
       11   -1    0    0    0    0 -0.00000000000E+00 -0.00000000000E+00 -0.35740347158E-01  0.35744000000E-01  0.51099999109E-03 0. -1.
       22    1    1    2    0    0  0.52546170131E-02 -0.11898211941E-02 -0.35328556586E-01  0.35737005818E-01  0.00000000000E+00 0. -1.
  9000001    1    1    2    0    0 -0.52546170131E-02  0.11898211941E-02  0.35328556586E-01  0.35750994182E-01  0.10000000475E-02 0.  1.
</event>
<event>
 4   0  0.2441219E-02  0.9118800E+02  0.7818609E-02  0.1379984E+01
      -11   -1    0    0    0    0  0.00000000000E+00  0.00000000000E+00  0.35740347158E-01  0.35744000000E-01  0.51099999109E-03 0.  1.
       11   -1    0    0    0    0 -0.00000000000E+00 -0.00000000000E+00 -0.35740347158E-01  0.35744000000E-01  0.51099999109E-03 0. -1.
       22    1    1    2    0    0 -0.57372408445E-02 -0.10397556468E-01  0.33706208209E-01  0.35737005818E-01  0.00000000000E+00 0.  1.
  9000001    1    1    2    0    0  0.57372408445E-02  0.10397556468E-01 -0.33706208209E-01  0.35750994182E-01  0.10000000475E-02 0. -1.
</event>
<event>
 4   0  0.2441219E-02  0.9118800E+02  0.7818609E-02  0.1379984E+01
      -11   -1    0    0    0    0  0.00000000000E+00  0.00000000000E+00  0.35740347158E-01  0.35744000000E-01  0.51099999109E-03 0.  1.
       11   -1    0    0    0    0 -0.00000000000E+00 -0.00000000000E+00 -0.35740347158E-01  0.35744000000E-01  0.51099999109E-03 0. -1.
       22    1    1    2    0    0 -0.12888525750E-01  0.24173304781E-01 -0.22949309898E-01  0.35737005818E-01  0.00000000000E+00 0. -1.
  9000001    1    1    2    0    0  0.12888525750E-01 -0.24173304781E-01  0.22949309898E-01  0.35750994182E-01  0.10000000475E-02 0.  1.
</event>
<event>
 4   0  0.2441219E-02  0.9118800E+02  0.7818609E-02  0.1379984E+01
      -11   -1    0    0    0    0  0.00000000000E+00  0.00000000000E+00  0.35740347158E-01  0.35744000000E-01  0.51099999109E-03 0. -1.
       11   -1    0    0    0    0 -0.00000000000E+00 -0.00000000000E+00 -0.35740347158E-01  0.35744000000E-01  0.51099999109E-03 0.  1.
       22    1    1    2    0    0 -0.13806497618E-02 -0.39472827746E-02  0.35491496866E-01  0.35737005818E-01  0.00000000000E+00 0. -1.
  9000001    1    1    2    0    0  0.13806497618E-02  0.39472827746E-02 -0.35491496866E-01  0.35750994182E-01  0.10000000475E-02 0.  1.
</event>
<event>
 4   0  0.2441219E-02  0.9118800E+02  0.7818609E-02  0.1379984E+01
      -11   -1    0    0    0    0  0.00000000000E+00  0.00000000000E+00  0.35740347158E-01  0.35744000000E-01  0.51099999109E-03 0.  1.
       11   -1    0    0    0    0 -0.00000000000E+00 -0.00000000000E+00 -0.35740347158E-01  0.35744000000E-01  0.51099999109E-03 0. -1.
       22    1    1    2    0    0  0.93232760348E-03 -0.85961421751E-02  0.34675217228E-01  0.35737005818E-01  0.00000000000E+00 0.  1.
  9000001    1    1    2    0    0 -0.93232760348E-03  0.85961421751E-02 -0.34675217228E-01  0.35750994182E-01  0.10000000475E-02 0. -1.
</event>
<event>
 4   0  0.2441219E-02  0.9118800E+02  0.7818609E-02  0.1379984E+01
      -11   -1    0    0    0    0  0.00000000000E+00  0.00000000000E+00  0.35740347158E-01  0.35744000000E-01  0.51099999109E-03 0. -1.
       11   -1    0    0    0    0 -0.00000000000E+00 -0.00000000000E+00 -0.35740347158E-01  0.35744000000E-01  0.51099999109E-03 0.  1.
       22    1    1    2    0    0 -0.14726115319E-02  0.78298341813E-02  0.34837604637E-01  0.35737005818E-01  0.00000000000E+00 0. -1.
  9000001    1    1    2    0    0  0.14726115319E-02 -0.78298341813E-02 -0.34837604637E-01  0.35750994182E-01  0.10000000475E-02 0.  1.
</event>
<event>
 4   0  0.2441219E-02  0.9118800E+02  0.7818609E-02  0.1379984E+01
      -11   -1    0    0    0    0  0.00000000000E+00  0.00000000000E+00  0.35740347158E-01  0.35744000000E-01  0.51099999109E-03 0. -1.
       11   -1    0    0    0    0 -0.00000000000E+00 -0.00000000000E+00 -0.35740347158E-01  0.35744000000E-01  0.51099999109E-03 0.  1.
       22    1    1    2    0    0 -0.34782380413E-01 -0.48616527813E-02  0.66093819639E-02  0.35737005818E-01  0.00000000000E+00 0.  1.
  9000001    1    1    2    0    0  0.34782380413E-01  0.48616527813E-02 -0.66093819639E-02  0.35750994182E-01  0.10000000475E-02 0. -1.
</event>
<event>
 4   0  0.2441219E-02  0.9118800E+02  0.7818609E-02  0.1379984E+01
      -11   -1    0    0    0    0  0.00000000000E+00  0.00000000000E+00  0.35740347158E-01  0.35744000000E-01  0.51099999109E-03 0. -1.
       11   -1    0    0    0    0 -0.00000000000E+00 -0.00000000000E+00 -0.35740347158E-01  0.35744000000E-01  0.51099999109E-03 0.  1.
       22    1    1    2    0    0  0.14807188764E-01  0.63963654437E-02 -0.31889924034E-01  0.35737005818E-01  0.00000000000E+00 0.  1.
  9000001    1    1    2    0    0 -0.14807188764E-01 -0.63963654437E-02  0.31889924034E-01  0.35750994182E-01  0.10000000475E-02 0. -1.
</event>
<event>
 4   0  0.2441219E-02  0.9118800E+02  0.7818609E-02  0.1379984E+01
      -11   -1    0    0    0    0  0.00000000000E+00  0.00000000000E+00  0.35740347158E-01  0.35744000000E-01  0.51099999109E-03 0.  1.
       11   -1    0    0    0    0 -0.00000000000E+00 -0.00000000000E+00 -0.35740347158E-01  0.35744000000E-01  0.51099999109E-03 0. -1.
       22    1    1    2    0    0  0.30250558985E-01  0.71337527521E-02 -0.17639354797E-01  0.35737005818E-01  0.00000000000E+00 0. -1.
  9000001    1    1    2    0    0 -0.30250558985E-01 -0.71337527521E-02  0.17639354797E-01  0.35750994182E-01  0.10000000475E-02 0.  1.
</event>
<event>
 4   0  0.2441219E-02  0.9118800E+02  0.7818609E-02  0.1379984E+01
      -11   -1    0    0    0    0  0.00000000000E+00  0.00000000000E+00  0.35740347158E-01  0.35744000000E-01  0.51099999109E-03 0. -1.
       11   -1    0    0    0    0 -0.00000000000E+00 -0.00000000000E+00 -0.35740347158E-01  0.35744000000E-01  0.51099999109E-03 0.  1.
       22    1    1    2    0    0 -0.12361721636E-01  0.23501744586E-01 -0.23916300392E-01  0.35737005818E-01  0.00000000000E+00 0.  1.
  9000001    1    1    2    0    0  0.12361721636E-01 -0.23501744586E-01  0.23916300392E-01  0.35750994182E-01  0.10000000475E-02 0. -1.
</event>
<event>
 4   0  0.2441219E-02  0.9118800E+02  0.7818609E-02  0.1379984E+01
      -11   -1    0    0    0    0  0.00000000000E+00  0.00000000000E+00  0.35740347158E-01  0.35744000000E-01  0.51099999109E-03 0.  1.
       11   -1    0    0    0    0 -0.00000000000E+00 -0.00000000000E+00 -0.35740347158E-01  0.35744000000E-01  0.51099999109E-03 0. -1.
       22    1    1    2    0    0  0.36451493430E-02 -0.15178634435E-02 -0.35518200429E-01  0.35737005818E-01  0.00000000000E+00 0. -1.
  9000001    1    1    2    0    0 -0.36451493430E-02  0.15178634435E-02  0.35518200429E-01  0.35750994182E-01  0.10000000475E-02 0.  1.
</event>
<event>
 4   0  0.2441219E-02  0.9118800E+02  0.7818609E-02  0.1379984E+01
      -11   -1    0    0    0    0  0.00000000000E+00  0.00000000000E+00  0.35740347158E-01  0.35744000000E-01  0.51099999109E-03 0.  1.
       11   -1    0    0    0    0 -0.00000000000E+00 -0.00000000000E+00 -0.35740347158E-01  0.35744000000E-01  0.51099999109E-03 0. -1.
       22    1    1    2    0    0  0.17885642535E-02 -0.44598155586E-02  0.35412493106E-01  0.35737005818E-01  0.00000000000E+00 0.  1.
  9000001    1    1    2    0    0 -0.17885642535E-02  0.44598155586E-02 -0.35412493106E-01  0.35750994182E-01  0.10000000475E-02 0. -1.
</event>
<event>
 4   0  0.2441219E-02  0.9118800E+02  0.7818609E-02  0.1379984E+01
      -11   -1    0    0    0    0  0.00000000000E+00  0.00000000000E+00  0.35740347158E-01  0.35744000000E-01  0.51099999109E-03 0. -1.
       11   -1    0    0    0    0 -0.00000000000E+00 -0.00000000000E+00 -0.35740347158E-01  0.35744000000E-01  0.51099999109E-03 0.  1.
       22    1    1    2    0    0 -0.38984663914E-02  0.31665022372E-02  0.35382323387E-01  0.35737005818E-01  0.00000000000E+00 0. -1.
  9000001    1    1    2    0    0  0.38984663914E-02 -0.31665022372E-02 -0.35382323387E-01  0.35750994182E-01  0.10000000475E-02 0.  1.
</event>
<event>
 4   0  0.2441219E-02  0.9118800E+02  0.7818609E-02  0.1379984E+01
      -11   -1    0    0    0    0  0.00000000000E+00  0.00000000000E+00  0.35740347158E-01  0.35744000000E-01  0.51099999109E-03 0.  1.
       11   -1    0    0    0    0 -0.00000000000E+00 -0.00000000000E+00 -0.35740347158E-01  0.35744000000E-01  0.51099999109E-03 0. -1.
       22    1    1    2    0    0  0.14226077356E-01  0.28442018223E-01 -0.16303493715E-01  0.35737005818E-01  0.00000000000E+00 0. -1.
  9000001    1    1    2    0    0 -0.14226077356E-01 -0.28442018223E-01  0.16303493715E-01  0.35750994182E-01  0.10000000475E-02 0.  1.
</event>
<event>
 4   0  0.2441219E-02  0.9118800E+02  0.7818609E-02  0.1379984E+01
      -11   -1    0    0    0    0  0.00000000000E+00  0.00000000000E+00  0.35740347158E-01  0.35744000000E-01  0.51099999109E-03 0.  1.
       11   -1    0    0    0    0 -0.00000000000E+00 -0.00000000000E+00 -0.35740347158E-01  0.35744000000E-01  0.51099999109E-03 0. -1.
       22    1    1    2    0    0  0.11837189887E-02  0.44792186596E-02 -0.35435420054E-01  0.35737005818E-01  0.00000000000E+00 0. -1.
  9000001    1    1    2    0    0 -0.11837189887E-02 -0.44792186596E-02  0.35435420054E-01  0.35750994182E-01  0.10000000475E-02 0.  1.
</event>
<event>
 4   0  0.2441219E-02  0.9118800E+02  0.7818609E-02  0.1379984E+01
      -11   -1    0    0    0    0  0.00000000000E+00  0.00000000000E+00  0.35740347158E-01  0.35744000000E-01  0.51099999109E-03 0.  1.
       11   -1    0    0    0    0 -0.00000000000E+00 -0.00000000000E+00 -0.35740347158E-01  0.35744000000E-01  0.51099999109E-03 0. -1.
       22    1    1    2    0    0  0.35944922052E-02 -0.50794377758E-02 -0.35191085839E-01  0.35737005818E-01  0.00000000000E+00 0. -1.
  9000001    1    1    2    0    0 -0.35944922052E-02  0.50794377758E-02  0.35191085839E-01  0.35750994182E-01  0.10000000475E-02 0.  1.
</event>
<event>
 4   0  0.2441219E-02  0.9118800E+02  0.7818609E-02  0.1379984E+01
      -11   -1    0    0    0    0  0.00000000000E+00  0.00000000000E+00  0.35740347158E-01  0.35744000000E-01  0.51099999109E-03 0.  1.
       11   -1    0    0    0    0 -0.00000000000E+00 -0.00000000000E+00 -0.35740347158E-01  0.35744000000E-01  0.51099999109E-03 0. -1.
       22    1    1    2    0    0  0.22562827646E-02  0.53533805102E-02  0.35261651834E-01  0.35737005818E-01  0.00000000000E+00 0.  1.
  9000001    1    1    2    0    0 -0.22562827646E-02 -0.53533805102E-02 -0.35261651834E-01  0.35750994182E-01  0.10000000475E-02 0. -1.
</event>
<event>
 4   0  0.2441219E-02  0.9118800E+02  0.7818609E-02  0.1379984E+01
      -11   -1    0    0    0    0  0.00000000000E+00  0.00000000000E+00  0.35740347158E-01  0.35744000000E-01  0.51099999109E-03 0.  1.
       11   -1    0    0    0    0 -0.00000000000E+00 -0.00000000000E+00 -0.35740347158E-01  0.35744000000E-01  0.51099999109E-03 0. -1.
       22    1    1    2    0    0  0.29839572476E-02  0.20263858745E-02 -0.35554512292E-01  0.35737005818E-01  0.00000000000E+00 0. -1.
  9000001    1    1    2    0    0 -0.29839572476E-02 -0.20263858745E-02  0.35554512292E-01  0.35750994182E-01  0.10000000475E-02 0.  1.
</event>
<event>
 4   0  0.2441219E-02  0.9118800E+02  0.7818609E-02  0.1379984E+01
      -11   -1    0    0    0    0  0.00000000000E+00  0.00000000000E+00  0.35740347158E-01  0.35744000000E-01  0.51099999109E-03 0.  1.
       11   -1    0    0    0    0 -0.00000000000E+00 -0.00000000000E+00 -0.35740347158E-01  0.35744000000E-01  0.51099999109E-03 0. -1.
       22    1    1    2    0    0 -0.59507373795E-03 -0.13656165895E-01  0.33019518548E-01  0.35737005818E-01  0.00000000000E+00 0.  1.
  9000001    1    1    2    0    0  0.59507373795E-03  0.13656165895E-01 -0.33019518548E-01  0.35750994182E-01  0.10000000475E-02 0. -1.
</event>
<event>
 4   0  0.2441219E-02  0.9118800E+02  0.7818609E-02  0.1379984E+01
      -11   -1    0    0    0    0  0.00000000000E+00  0.00000000000E+00  0.35740347158E-01  0.35744000000E-01  0.51099999109E-03 0. -1.
       11   -1    0    0    0    0 -0.00000000000E+00 -0.00000000000E+00 -0.35740347158E-01  0.35744000000E-01  0.51099999109E-03 0.  1.
       22    1    1    2    0    0 -0.23625476110E-01 -0.17024295812E-01 -0.20715786626E-01  0.35737005818E-01  0.00000000000E+00 0.  1.
  9000001    1    1    2    0    0  0.23625476110E-01  0.17024295812E-01  0.20715786626E-01  0.35750994182E-01  0.10000000475E-02 0. -1.
</event>
<event>
 4   0  0.2441219E-02  0.9118800E+02  0.7818609E-02  0.1379984E+01
      -11   -1    0    0    0    0  0.00000000000E+00  0.00000000000E+00  0.35740347158E-01  0.35744000000E-01  0.51099999109E-03 0.  1.
       11   -1    0    0    0    0 -0.00000000000E+00 -0.00000000000E+00 -0.35740347158E-01  0.35744000000E-01  0.51099999109E-03 0. -1.
       22    1    1    2    0    0 -0.16294166143E-02 -0.46589875116E-02 -0.35394525307E-01  0.35737005818E-01  0.00000000000E+00 0. -1.
  9000001    1    1    2    0    0  0.16294166143E-02  0.46589875116E-02  0.35394525307E-01  0.35750994182E-01  0.10000000475E-02 0.  1.
</event>
<event>
 4   0  0.2441219E-02  0.9118800E+02  0.7818609E-02  0.1379984E+01
      -11   -1    0    0    0    0  0.00000000000E+00  0.00000000000E+00  0.35740347158E-01  0.35744000000E-01  0.51099999109E-03 0. -1.
       11   -1    0    0    0    0 -0.00000000000E+00 -0.00000000000E+00 -0.35740347158E-01  0.35744000000E-01  0.51099999109E-03 0.  1.
       22    1    1    2    0    0  0.22079801954E-02  0.27963518183E-02 -0.35558948590E-01  0.35737005818E-01  0.00000000000E+00 0.  1.
  9000001    1    1    2    0    0 -0.22079801954E-02 -0.27963518183E-02  0.35558948590E-01  0.35750994182E-01  0.10000000475E-02 0. -1.
</event>
<event>
 4   0  0.2441219E-02  0.9118800E+02  0.7818609E-02  0.1379984E+01
      -11   -1    0    0    0    0  0.00000000000E+00  0.00000000000E+00  0.35740347158E-01  0.35744000000E-01  0.51099999109E-03 0. -1.
       11   -1    0    0    0    0 -0.00000000000E+00 -0.00000000000E+00 -0.35740347158E-01  0.35744000000E-01  0.51099999109E-03 0.  1.
       22    1    1    2    0    0 -0.90010079817E-02  0.11587898448E-01 -0.32585825902E-01  0.35737005818E-01  0.00000000000E+00 0.  1.
  9000001    1    1    2    0    0  0.90010079817E-02 -0.11587898448E-01  0.32585825902E-01  0.35750994182E-01  0.10000000475E-02 0. -1.
</event>
<event>
 4   0  0.2441219E-02  0.9118800E+02  0.7818609E-02  0.1379984E+01
      -11   -1    0    0    0    0  0.00000000000E+00  0.00000000000E+00  0.35740347158E-01  0.35744000000E-01  0.51099999109E-03 0.  1.
       11   -1    0    0    0    0 -0.00000000000E+00 -0.00000000000E+00 -0.35740347158E-01  0.35744000000E-01  0.51099999109E-03 0.  1.
       22    1    1    2    0    0  0.39056759414E-03 -0.46792468859E-02  0.35427188576E-01  0.35737005818E-01  0.00000000000E+00 0.  1.
  9000001    1    1    2    0    0 -0.39056759414E-03  0.46792468859E-02 -0.35427188576E-01  0.35750994182E-01  0.10000000475E-02 0.  1.
</event>
<event>
 4   0  0.2441219E-02  0.9118800E+02  0.7818609E-02  0.1379984E+01
      -11   -1    0    0    0    0  0.00000000000E+00  0.00000000000E+00  0.35740347158E-01  0.35744000000E-01  0.51099999109E-03 0.  1.
       11   -1    0    0    0    0 -0.00000000000E+00 -0.00000000000E+00 -0.35740347158E-01  0.35744000000E-01  0.51099999109E-03 0. -1.
       22    1    1    2    0    0 -0.37173401586E-02  0.75194972916E-02 -0.34738625872E-01  0.35737005818E-01  0.00000000000E+00 0. -1.
  9000001    1    1    2    0    0  0.37173401586E-02 -0.75194972916E-02  0.34738625872E-01  0.35750994182E-01  0.10000000475E-02 0.  1.
</event>
<event>
 4   0  0.2441219E-02  0.9118800E+02  0.7818609E-02  0.1379984E+01
      -11   -1    0    0    0    0  0.00000000000E+00  0.00000000000E+00  0.35740347158E-01  0.35744000000E-01  0.51099999109E-03 0.  1.
       11   -1    0    0    0    0 -0.00000000000E+00 -0.00000000000E+00 -0.35740347158E-01  0.35744000000E-01  0.51099999109E-03 0. -1.
       22    1    1    2    0    0 -0.12062800598E-02  0.28134480414E-02 -0.35605659429E-01  0.35737005818E-01  0.00000000000E+00 0. -1.
  9000001    1    1    2    0    0  0.12062800598E-02 -0.28134480414E-02  0.35605659429E-01  0.35750994182E-01  0.10000000475E-02 0.  1.
</event>
<event>
 4   0  0.2441219E-02  0.9118800E+02  0.7818609E-02  0.1379984E+01
      -11   -1    0    0    0    0  0.00000000000E+00  0.00000000000E+00  0.35740347158E-01  0.35744000000E-01  0.51099999109E-03 0. -1.
       11   -1    0    0    0    0 -0.00000000000E+00 -0.00000000000E+00 -0.35740347158E-01  0.35744000000E-01  0.51099999109E-03 0.  1.
       22    1    1    2    0    0  0.14391544983E-01 -0.10622688039E-01  0.30938253291E-01  0.35737005818E-01  0.00000000000E+00 0. -1.
  9000001    1    1    2    0    0 -0.14391544983E-01  0.10622688039E-01 -0.30938253291E-01  0.35750994182E-01  0.10000000475E-02 0.  1.
</event>
<event>
 4   0  0.2441219E-02  0.9118800E+02  0.7818609E-02  0.1379984E+01
      -11   -1    0    0    0    0  0.00000000000E+00  0.00000000000E+00  0.35740347158E-01  0.35744000000E-01  0.51099999109E-03 0. -1.
       11   -1    0    0    0    0 -0.00000000000E+00 -0.00000000000E+00 -0.35740347158E-01  0.35744000000E-01  0.51099999109E-03 0.  1.
       22    1    1    2    0    0 -0.45544382881E-02 -0.11632372613E-02  0.35426509224E-01  0.35737005818E-01  0.00000000000E+00 0. -1.
  9000001    1    1    2    0    0  0.45544382881E-02  0.11632372613E-02 -0.35426509224E-01  0.35750994182E-01  0.10000000475E-02 0.  1.
</event>
<event>
 4   0  0.2441219E-02  0.9118800E+02  0.7818609E-02  0.1379984E+01
      -11   -1    0    0    0    0  0.00000000000E+00  0.00000000000E+00  0.35740347158E-01  0.35744000000E-01  0.51099999109E-03 0.  1.
       11   -1    0    0    0    0 -0.00000000000E+00 -0.00000000000E+00 -0.35740347158E-01  0.35744000000E-01  0.51099999109E-03 0. -1.
       22    1    1    2    0    0 -0.40965331455E-02  0.25111312451E-02  0.35412515033E-01  0.35737005818E-01  0.00000000000E+00 0.  1.
  9000001    1    1    2    0    0  0.40965331455E-02 -0.25111312451E-02 -0.35412515033E-01  0.35750994182E-01  0.10000000475E-02 0. -1.
</event>
<event>
 4   0  0.2441219E-02  0.9118800E+02  0.7818609E-02  0.1379984E+01
      -11   -1    0    0    0    0  0.00000000000E+00  0.00000000000E+00  0.35740347158E-01  0.35744000000E-01  0.51099999109E-03 0.  1.
       11   -1    0    0    0    0 -0.00000000000E+00 -0.00000000000E+00 -0.35740347158E-01  0.35744000000E-01  0.51099999109E-03 0. -1.
       22    1    1    2    0    0  0.85063470624E-02  0.34166768022E-02  0.34541308084E-01  0.35737005818E-01  0.00000000000E+00 0.  1.
  9000001    1    1    2    0    0 -0.85063470624E-02 -0.34166768022E-02 -0.34541308084E-01  0.35750994182E-01  0.10000000475E-02 0. -1.
</event>
<event>
 4   0  0.2441219E-02  0.9118800E+02  0.7818609E-02  0.1379984E+01
      -11   -1    0    0    0    0  0.00000000000E+00  0.00000000000E+00  0.35740347158E-01  0.35744000000E-01  0.51099999109E-03 0.  1.
       11   -1    0    0    0    0 -0.00000000000E+00 -0.00000000000E+00 -0.35740347158E-01  0.35744000000E-01  0.51099999109E-03 0. -1.
       22    1    1    2    0    0  0.85078688688E-02 -0.33049397406E-02 -0.34551803506E-01  0.35737005818E-01  0.00000000000E+00 0. -1.
  9000001    1    1    2    0    0 -0.85078688688E-02  0.33049397406E-02  0.34551803506E-01  0.35750994182E-01  0.10000000475E-02 0.  1.
</event>
<event>
 4   0  0.2441219E-02  0.9118800E+02  0.7818609E-02  0.1379984E+01
      -11   -1    0    0    0    0  0.00000000000E+00  0.00000000000E+00  0.35740347158E-01  0.35744000000E-01  0.51099999109E-03 0. -1.
       11   -1    0    0    0    0 -0.00000000000E+00 -0.00000000000E+00 -0.35740347158E-01  0.35744000000E-01  0.51099999109E-03 0.  1.
       22    1    1    2    0    0  0.10471944301E-01  0.15523109706E-03  0.34167936296E-01  0.35737005818E-01  0.00000000000E+00 0. -1.
  9000001    1    1    2    0    0 -0.10471944301E-01 -0.15523109706E-03 -0.34167936296E-01  0.35750994182E-01  0.10000000475E-02 0.  1.
</event>
<event>
 4   0  0.2441219E-02  0.9118800E+02  0.7818609E-02  0.1379984E+01
      -11   -1    0    0    0    0  0.00000000000E+00  0.00000000000E+00  0.35740347158E-01  0.35744000000E-01  0.51099999109E-03 0. -1.
       11   -1    0    0    0    0 -0.00000000000E+00 -0.00000000000E+00 -0.35740347158E-01  0.35744000000E-01  0.51099999109E-03 0.  1.
       22    1    1    2    0    0  0.24792098034E-01 -0.14839402638E-01  0.21030396793E-01  0.35737005818E-01  0.00000000000E+00 0. -1.
  9000001    1    1    2    0    0 -0.24792098034E-01  0.14839402638E-01 -0.21030396793E-01  0.35750994182E-01  0.10000000475E-02 0.  1.
</event>
<event>
 4   0  0.2441219E-02  0.9118800E+02  0.7818609E-02  0.1379984E+01
      -11   -1    0    0    0    0  0.00000000000E+00  0.00000000000E+00  0.35740347158E-01  0.35744000000E-01  0.51099999109E-03 0. -1.
       11   -1    0    0    0    0 -0.00000000000E+00 -0.00000000000E+00 -0.35740347158E-01  0.35744000000E-01  0.51099999109E-03 0.  1.
       22    1    1    2    0    0  0.23412590250E-02  0.32964850819E-01 -0.13600393433E-01  0.35737005818E-01  0.00000000000E+00 0. -1.
  9000001    1    1    2    0    0 -0.23412590250E-02 -0.32964850819E-01  0.13600393433E-01  0.35750994182E-01  0.10000000475E-02 0.  1.
</event>
<event>
 4   0  0.2441219E-02  0.9118800E+02  0.7818609E-02  0.1379984E+01
      -11   -1    0    0    0    0  0.00000000000E+00  0.00000000000E+00  0.35740347158E-01  0.35744000000E-01  0.51099999109E-03 0.  1.
       11   -1    0    0    0    0 -0.00000000000E+00 -0.00000000000E+00 -0.35740347158E-01  0.35744000000E-01  0.51099999109E-03 0. -1.
       22    1    1    2    0    0  0.10369105862E-01  0.14155642465E-01 -0.31132507366E-01  0.35737005818E-01  0.00000000000E+00 0. -1.
  9000001    1    1    2    0    0 -0.10369105862E-01 -0.14155642465E-01  0.31132507366E-01  0.35750994182E-01  0.10000000475E-02 0.  1.
</event>
<event>
 4   0  0.2441219E-02  0.9118800E+02  0.7818609E-02  0.1379984E+01
      -11   -1    0    0    0    0  0.00000000000E+00  0.00000000000E+00  0.35740347158E-01  0.35744000000E-01  0.51099999109E-03 0.  1.
       11   -1    0    0    0    0 -0.00000000000E+00 -0.00000000000E+00 -0.35740347158E-01  0.35744000000E-01  0.51099999109E-03 0. -1.
       22    1    1    2    0    0  0.41360947104E-02 -0.97387188375E-02 -0.34134786667E-01  0.35737005818E-01  0.00000000000E+00 0. -1.
  9000001    1    1    2    0    0 -0.41360947104E-02  0.97387188375E-02  0.34134786667E-01  0.35750994182E-01  0.10000000475E-02 0.  1.
</event>
<event>
 4   0  0.2441219E-02  0.9118800E+02  0.7818609E-02  0.1379984E+01
      -11   -1    0    0    0    0  0.00000000000E+00  0.00000000000E+00  0.35740347158E-01  0.35744000000E-01  0.51099999109E-03 0.  1.
       11   -1    0    0    0    0 -0.00000000000E+00 -0.00000000000E+00 -0.35740347158E-01  0.35744000000E-01  0.51099999109E-03 0. -1.
       22    1    1    2    0    0 -0.67844319365E-02 -0.98114121820E-02 -0.33687405052E-01  0.35737005818E-01  0.00000000000E+00 0. -1.
  9000001    1    1    2    0    0  0.67844319365E-02  0.98114121820E-02  0.33687405052E-01  0.35750994182E-01  0.10000000475E-02 0.  1.
</event>
<event>
 4   0  0.2441219E-02  0.9118800E+02  0.7818609E-02  0.1379984E+01
      -11   -1    0    0    0    0  0.00000000000E+00  0.00000000000E+00  0.35740347158E-01  0.35744000000E-01  0.51099999109E-03 0. -1.
       11   -1    0    0    0    0 -0.00000000000E+00 -0.00000000000E+00 -0.35740347158E-01  0.35744000000E-01  0.51099999109E-03 0.  1.
       22    1    1    2    0    0 -0.12241009393E-01  0.40254804546E-02  0.33332968380E-01  0.35737005818E-01  0.00000000000E+00 0. -1.
  9000001    1    1    2    0    0  0.12241009393E-01 -0.40254804546E-02 -0.33332968380E-01  0.35750994182E-01  0.10000000475E-02 0.  1.
</event>
<event>
 4   0  0.2441219E-02  0.9118800E+02  0.7818609E-02  0.1379984E+01
      -11   -1    0    0    0    0  0.00000000000E+00  0.00000000000E+00  0.35740347158E-01  0.35744000000E-01  0.51099999109E-03 0.  1.
       11   -1    0    0    0    0 -0.00000000000E+00 -0.00000000000E+00 -0.35740347158E-01  0.35744000000E-01  0.51099999109E-03 0. -1.
       22    1    1    2    0    0 -0.24475316248E-01 -0.54540044455E-02 -0.25462645482E-01  0.35737005818E-01  0.00000000000E+00 0. -1.
  9000001    1    1    2    0    0  0.24475316248E-01  0.54540044455E-02  0.25462645482E-01  0.35750994182E-01  0.10000000475E-02 0.  1.
</event>
<event>
 4   0  0.2441219E-02  0.9118800E+02  0.7818609E-02  0.1379984E+01
      -11   -1    0    0    0    0  0.00000000000E+00  0.00000000000E+00  0.35740347158E-01  0.35744000000E-01  0.51099999109E-03 0. -1.
       11   -1    0    0    0    0 -0.00000000000E+00 -0.00000000000E+00 -0.35740347158E-01  0.35744000000E-01  0.51099999109E-03 0.  1.
       22    1    1    2    0    0  0.94304197998E-02  0.15344840012E-01  0.30866432451E-01  0.35737005818E-01  0.00000000000E+00 0. -1.
  9000001    1    1    2    0    0 -0.94304197998E-02 -0.15344840012E-01 -0.30866432451E-01  0.35750994182E-01  0.10000000475E-02 0.  1.
</event>
<event>
 4   0  0.2441219E-02  0.9118800E+02  0.7818609E-02  0.1379984E+01
      -11   -1    0    0    0    0  0.00000000000E+00  0.00000000000E+00  0.35740347158E-01  0.35744000000E-01  0.51099999109E-03 0.  1.
       11   -1    0    0    0    0 -0.00000000000E+00 -0.00000000000E+00 -0.35740347158E-01  0.35744000000E-01  0.51099999109E-03 0. -1.
       22    1    1    2    0    0 -0.33713823108E-02 -0.14115675854E-01 -0.32657542182E-01  0.35737005818E-01  0.00000000000E+00 0. -1.
  9000001    1    1    2    0    0  0.33713823108E-02  0.14115675854E-01  0.32657542182E-01  0.35750994182E-01  0.10000000475E-02 0.  1.
</event>
<event>
 4   0  0.2441219E-02  0.9118800E+02  0.7818609E-02  0.1379984E+01
      -11   -1    0    0    0    0  0.00000000000E+00  0.00000000000E+00  0.35740347158E-01  0.35744000000E-01  0.51099999109E-03 0. -1.
       11   -1    0    0    0    0 -0.00000000000E+00 -0.00000000000E+00 -0.35740347158E-01  0.35744000000E-01  0.51099999109E-03 0.  1.
       22    1    1    2    0    0  0.89712925437E-03 -0.37903916230E-02  0.35524099923E-01  0.35737005818E-01  0.00000000000E+00 0. -1.
  9000001    1    1    2    0    0 -0.89712925437E-03  0.37903916230E-02 -0.35524099923E-01  0.35750994182E-01  0.10000000475E-02 0.  1.
</event>
<event>
 4   0  0.2441219E-02  0.9118800E+02  0.7818609E-02  0.1379984E+01
      -11   -1    0    0    0    0  0.00000000000E+00  0.00000000000E+00  0.35740347158E-01  0.35744000000E-01  0.51099999109E-03 0.  1.
       11   -1    0    0    0    0 -0.00000000000E+00 -0.00000000000E+00 -0.35740347158E-01  0.35744000000E-01  0.51099999109E-03 0. -1.
       22    1    1    2    0    0  0.61729925650E-02  0.17071044854E-02 -0.35158406419E-01  0.35737005818E-01  0.00000000000E+00 0. -1.
  9000001    1    1    2    0    0 -0.61729925650E-02 -0.17071044854E-02  0.35158406419E-01  0.35750994182E-01  0.10000000475E-02 0.  1.
</event>
<event>
 4   0  0.2441219E-02  0.9118800E+02  0.7818609E-02  0.1379984E+01
      -11   -1    0    0    0    0  0.00000000000E+00  0.00000000000E+00  0.35740347158E-01  0.35744000000E-01  0.51099999109E-03 0.  1.
       11   -1    0    0    0    0 -0.00000000000E+00 -0.00000000000E+00 -0.35740347158E-01  0.35744000000E-01  0.51099999109E-03 0. -1.
       22    1    1    2    0    0  0.33677651285E-02  0.12523772349E-01 -0.33300853879E-01  0.35737005818E-01  0.00000000000E+00 0. -1.
  9000001    1    1    2    0    0 -0.33677651285E-02 -0.12523772349E-01  0.33300853879E-01  0.35750994182E-01  0.10000000475E-02 0.  1.
</event>
<event>
 4   0  0.2441219E-02  0.9118800E+02  0.7818609E-02  0.1379984E+01
      -11   -1    0    0    0    0  0.00000000000E+00  0.00000000000E+00  0.35740347158E-01  0.35744000000E-01  0.51099999109E-03 0.  1.
       11   -1    0    0    0    0 -0.00000000000E+00 -0.00000000000E+00 -0.35740347158E-01  0.35744000000E-01  0.51099999109E-03 0. -1.
       22    1    1    2    0    0  0.12129863754E-02  0.68771147905E-02 -0.35048074713E-01  0.35737005818E-01  0.00000000000E+00 0. -1.
  9000001    1    1    2    0    0 -0.12129863754E-02 -0.68771147905E-02  0.35048074713E-01  0.35750994182E-01  0.10000000475E-02 0.  1.
</event>
<event>
 4   0  0.2441219E-02  0.9118800E+02  0.7818609E-02  0.1379984E+01
      -11   -1    0    0    0    0  0.00000000000E+00  0.00000000000E+00  0.35740347158E-01  0.35744000000E-01  0.51099999109E-03 0.  1.
       11   -1    0    0    0    0 -0.00000000000E+00 -0.00000000000E+00 -0.35740347158E-01  0.35744000000E-01  0.51099999109E-03 0. -1.
       22    1    1    2    0    0  0.42337455564E-02 -0.41399970284E-03  0.35482919661E-01  0.35737005818E-01  0.00000000000E+00 0.  1.
  9000001    1    1    2    0    0 -0.42337455564E-02  0.41399970284E-03 -0.35482919661E-01  0.35750994182E-01  0.10000000475E-02 0. -1.
</event>
<event>
 4   0  0.2441219E-02  0.9118800E+02  0.7818609E-02  0.1379984E+01
      -11   -1    0    0    0    0  0.00000000000E+00  0.00000000000E+00  0.35740347158E-01  0.35744000000E-01  0.51099999109E-03 0.  1.
       11   -1    0    0    0    0 -0.00000000000E+00 -0.00000000000E+00 -0.35740347158E-01  0.35744000000E-01  0.51099999109E-03 0. -1.
       22    1    1    2    0    0 -0.50222422323E-02  0.22515256057E-02 -0.35310640043E-01  0.35737005818E-01  0.00000000000E+00 0. -1.
  9000001    1    1    2    0    0  0.50222422323E-02 -0.22515256057E-02  0.35310640043E-01  0.35750994182E-01  0.10000000475E-02 0.  1.
</event>
<event>
 4   0  0.2441219E-02  0.9118800E+02  0.7818609E-02  0.1379984E+01
      -11   -1    0    0    0    0  0.00000000000E+00  0.00000000000E+00  0.35740347158E-01  0.35744000000E-01  0.51099999109E-03 0.  1.
       11   -1    0    0    0    0 -0.00000000000E+00 -0.00000000000E+00 -0.35740347158E-01  0.35744000000E-01  0.51099999109E-03 0. -1.
       22    1    1    2    0    0 -0.25560013658E-01  0.33723092084E-02 -0.24747662865E-01  0.35737005818E-01  0.00000000000E+00 0. -1.
  9000001    1    1    2    0    0  0.25560013658E-01 -0.33723092084E-02  0.24747662865E-01  0.35750994182E-01  0.10000000475E-02 0.  1.
</event>
<event>
 4   0  0.2441219E-02  0.9118800E+02  0.7818609E-02  0.1379984E+01
      -11   -1    0    0    0    0  0.00000000000E+00  0.00000000000E+00  0.35740347158E-01  0.35744000000E-01  0.51099999109E-03 0. -1.
       11   -1    0    0    0    0 -0.00000000000E+00 -0.00000000000E+00 -0.35740347158E-01  0.35744000000E-01  0.51099999109E-03 0.  1.
       22    1    1    2    0    0 -0.68203490467E-02 -0.29989437010E-01 -0.18200277240E-01  0.35737005818E-01  0.00000000000E+00 0.  1.
  9000001    1    1    2    0    0  0.68203490467E-02  0.29989437010E-01  0.18200277240E-01  0.35750994182E-01  0.10000000475E-02 0. -1.
</event>
<event>
 4   0  0.2441219E-02  0.9118800E+02  0.7818609E-02  0.1379984E+01
      -11   -1    0    0    0    0  0.00000000000E+00  0.00000000000E+00  0.35740347158E-01  0.35744000000E-01  0.51099999109E-03 0. -1.
       11   -1    0    0    0    0 -0.00000000000E+00 -0.00000000000E+00 -0.35740347158E-01  0.35744000000E-01  0.51099999109E-03 0.  1.
       22    1    1    2    0    0  0.14351161791E-01  0.61096700701E-02  0.32153532803E-01  0.35737005818E-01  0.00000000000E+00 0. -1.
  9000001    1    1    2    0    0 -0.14351161791E-01 -0.61096700701E-02 -0.32153532803E-01  0.35750994182E-01  0.10000000475E-02 0.  1.
</event>
<event>
 4   0  0.2441219E-02  0.9118800E+02  0.7818609E-02  0.1379984E+01
      -11   -1    0    0    0    0  0.00000000000E+00  0.00000000000E+00  0.35740347158E-01  0.35744000000E-01  0.51099999109E-03 0. -1.
       11   -1    0    0    0    0 -0.00000000000E+00 -0.00000000000E+00 -0.35740347158E-01  0.35744000000E-01  0.51099999109E-03 0.  1.
       22    1    1    2    0    0  0.90129400023E-02 -0.11698716199E-01 -0.32542903016E-01  0.35737005818E-01  0.00000000000E+00 0.  1.
  9000001    1    1    2    0    0 -0.90129400023E-02  0.11698716199E-01  0.32542903016E-01  0.35750994182E-01  0.10000000475E-02 0. -1.
</event>
<event>
 4   0  0.2441219E-02  0.9118800E+02  0.7818609E-02  0.1379984E+01
      -11   -1    0    0    0    0  0.00000000000E+00  0.00000000000E+00  0.35740347158E-01  0.35744000000E-01  0.51099999109E-03 0.  1.
       11   -1    0    0    0    0 -0.00000000000E+00 -0.00000000000E+00 -0.35740347158E-01  0.35744000000E-01  0.51099999109E-03 0. -1.
       22    1    1    2    0    0 -0.26657384834E-02  0.11035017287E-01  0.33885923577E-01  0.35737005818E-01  0.00000000000E+00 0.  1.
  9000001    1    1    2    0    0  0.26657384834E-02 -0.11035017287E-01 -0.33885923577E-01  0.35750994182E-01  0.10000000475E-02 0. -1.
</event>
<event>
 4   0  0.2441219E-02  0.9118800E+02  0.7818609E-02  0.1379984E+01
      -11   -1    0    0    0    0  0.00000000000E+00  0.00000000000E+00  0.35740347158E-01  0.35744000000E-01  0.51099999109E-03 0.  1.
       11   -1    0    0    0    0 -0.00000000000E+00 -0.00000000000E+00 -0.35740347158E-01  0.35744000000E-01  0.51099999109E-03 0. -1.
       22    1    1    2    0    0  0.36683728875E-02 -0.24630094148E-02  0.35462800367E-01  0.35737005818E-01  0.00000000000E+00 0.  1.
  9000001    1    1    2    0    0 -0.36683728875E-02  0.24630094148E-02 -0.35462800367E-01  0.35750994182E-01  0.10000000475E-02 0. -1.
</event>
<event>
 4   0  0.2441219E-02  0.9118800E+02  0.7818609E-02  0.1379984E+01
      -11   -1    0    0    0    0  0.00000000000E+00  0.00000000000E+00  0.35740347158E-01  0.35744000000E-01  0.51099999109E-03 0. -1.
       11   -1    0    0    0    0 -0.00000000000E+00 -0.00000000000E+00 -0.35740347158E-01  0.35744000000E-01  0.51099999109E-03 0.  1.
       22    1    1    2    0    0 -0.25556811245E-01 -0.21324252971E-01 -0.13009966145E-01  0.35737005818E-01  0.00000000000E+00 0.  1.
  9000001    1    1    2    0    0  0.25556811245E-01  0.21324252971E-01  0.13009966145E-01  0.35750994182E-01  0.10000000475E-02 0. -1.
</event>
<event>
 4   0  0.2441219E-02  0.9118800E+02  0.7818609E-02  0.1379984E+01
      -11   -1    0    0    0    0  0.00000000000E+00  0.00000000000E+00  0.35740347158E-01  0.35744000000E-01  0.51099999109E-03 0. -1.
       11   -1    0    0    0    0 -0.00000000000E+00 -0.00000000000E+00 -0.35740347158E-01  0.35744000000E-01  0.51099999109E-03 0.  1.
       22    1    1    2    0    0 -0.46610894059E-02  0.39878649321E-02 -0.35206601138E-01  0.35737005818E-01  0.00000000000E+00 0.  1.
  9000001    1    1    2    0    0  0.46610894059E-02 -0.39878649321E-02  0.35206601138E-01  0.35750994182E-01  0.10000000475E-02 0. -1.
</event>
<event>
 4   0  0.2441219E-02  0.9118800E+02  0.7818609E-02  0.1379984E+01
      -11   -1    0    0    0    0  0.00000000000E+00  0.00000000000E+00  0.35740347158E-01  0.35744000000E-01  0.51099999109E-03 0.  1.
       11   -1    0    0    0    0 -0.00000000000E+00 -0.00000000000E+00 -0.35740347158E-01  0.35744000000E-01  0.51099999109E-03 0. -1.
       22    1    1    2    0    0  0.10210666599E-03  0.53638830762E-02 -0.35332023965E-01  0.35737005818E-01  0.00000000000E+00 0. -1.
  9000001    1    1    2    0    0 -0.10210666599E-03 -0.53638830762E-02  0.35332023965E-01  0.35750994182E-01  0.10000000475E-02 0.  1.
</event>
<event>
 4   0  0.2441219E-02  0.9118800E+02  0.7818609E-02  0.1379984E+01
      -11   -1    0    0    0    0  0.00000000000E+00  0.00000000000E+00  0.35740347158E-01  0.35744000000E-01  0.51099999109E-03 0.  1.
       11   -1    0    0    0    0 -0.00000000000E+00 -0.00000000000E+00 -0.35740347158E-01  0.35744000000E-01  0.51099999109E-03 0. -1.
       22    1    1    2    0    0  0.51545059884E-02 -0.63679598288E-03 -0.35357589620E-01  0.35737005818E-01  0.00000000000E+00 0. -1.
  9000001    1    1    2    0    0 -0.51545059884E-02  0.63679598288E-03  0.35357589620E-01  0.35750994182E-01  0.10000000475E-02 0.  1.
</event>
<event>
 4   0  0.2441219E-02  0.9118800E+02  0.7818609E-02  0.1379984E+01
      -11   -1    0    0    0    0  0.00000000000E+00  0.00000000000E+00  0.35740347158E-01  0.35744000000E-01  0.51099999109E-03 0. -1.
       11   -1    0    0    0    0 -0.00000000000E+00 -0.00000000000E+00 -0.35740347158E-01  0.35744000000E-01  0.51099999109E-03 0.  1.
       22    1    1    2    0    0 -0.15441083887E-01 -0.60913242293E-02  0.31648100771E-01  0.35737005818E-01  0.00000000000E+00 0. -1.
  9000001    1    1    2    0    0  0.15441083887E-01  0.60913242293E-02 -0.31648100771E-01  0.35750994182E-01  0.10000000475E-02 0.  1.
</event>
<event>
 4   0  0.2441219E-02  0.9118800E+02  0.7818609E-02  0.1379984E+01
      -11   -1    0    0    0    0  0.00000000000E+00  0.00000000000E+00  0.35740347158E-01  0.35744000000E-01  0.51099999109E-03 0.  1.
       11   -1    0    0    0    0 -0.00000000000E+00 -0.00000000000E+00 -0.35740347158E-01  0.35744000000E-01  0.51099999109E-03 0. -1.
       22    1    1    2    0    0  0.57685839818E-02 -0.70308214097E-03 -0.35261348517E-01  0.35737005818E-01  0.00000000000E+00 0. -1.
  9000001    1    1    2    0    0 -0.57685839818E-02  0.70308214097E-03  0.35261348517E-01  0.35750994182E-01  0.10000000475E-02 0.  1.
</event>
<event>
 4   0  0.2441219E-02  0.9118800E+02  0.7818609E-02  0.1379984E+01
      -11   -1    0    0    0    0  0.00000000000E+00  0.00000000000E+00  0.35740347158E-01  0.35744000000E-01  0.51099999109E-03 0. -1.
       11   -1    0    0    0    0 -0.00000000000E+00 -0.00000000000E+00 -0.35740347158E-01  0.35744000000E-01  0.51099999109E-03 0.  1.
       22    1    1    2    0    0  0.31336639190E-02  0.12019438418E-01 -0.33508906807E-01  0.35737005818E-01  0.00000000000E+00 0.  1.
  9000001    1    1    2    0    0 -0.31336639190E-02 -0.12019438418E-01  0.33508906807E-01  0.35750994182E-01  0.10000000475E-02 0. -1.
</event>
<event>
 4   0  0.2441219E-02  0.9118800E+02  0.7818609E-02  0.1379984E+01
      -11   -1    0    0    0    0  0.00000000000E+00  0.00000000000E+00  0.35740347158E-01  0.35744000000E-01  0.51099999109E-03 0.  1.
       11   -1    0    0    0    0 -0.00000000000E+00 -0.00000000000E+00 -0.35740347158E-01  0.35744000000E-01  0.51099999109E-03 0. -1.
       22    1    1    2    0    0  0.16484279540E-02  0.40036133853E-02 -0.35473755792E-01  0.35737005818E-01  0.00000000000E+00 0. -1.
  9000001    1    1    2    0    0 -0.16484279540E-02 -0.40036133853E-02  0.35473755792E-01  0.35750994182E-01  0.10000000475E-02 0.  1.
</event>
<event>
 4   0  0.2441219E-02  0.9118800E+02  0.7818609E-02  0.1379984E+01
      -11   -1    0    0    0    0  0.00000000000E+00  0.00000000000E+00  0.35740347158E-01  0.35744000000E-01  0.51099999109E-03 0.  1.
       11   -1    0    0    0    0 -0.00000000000E+00 -0.00000000000E+00 -0.35740347158E-01  0.35744000000E-01  0.51099999109E-03 0. -1.
       22    1    1    2    0    0  0.51048595549E-03 -0.22796927999E-01 -0.27516777841E-01  0.35737005818E-01  0.00000000000E+00 0. -1.
  9000001    1    1    2    0    0 -0.51048595549E-03  0.22796927999E-01  0.27516777841E-01  0.35750994182E-01  0.10000000475E-02 0.  1.
</event>
<event>
 4   0  0.2441219E-02  0.9118800E+02  0.7818609E-02  0.1379984E+01
      -11   -1    0    0    0    0  0.00000000000E+00  0.00000000000E+00  0.35740347158E-01  0.35744000000E-01  0.51099999109E-03 0. -1.
       11   -1    0    0    0    0 -0.00000000000E+00 -0.00000000000E+00 -0.35740347158E-01  0.35744000000E-01  0.51099999109E-03 0.  1.
       22    1    1    2    0    0 -0.15847159356E-02  0.35698592967E-01  0.48241109611E-03  0.35737005818E-01  0.00000000000E+00 0. -1.
  9000001    1    1    2    0    0  0.15847159356E-02 -0.35698592967E-01 -0.48241109611E-03  0.35750994182E-01  0.10000000475E-02 0.  1.
</event>
<event>
 4   0  0.2441219E-02  0.9118800E+02  0.7818609E-02  0.1379984E+01
      -11   -1    0    0    0    0  0.00000000000E+00  0.00000000000E+00  0.35740347158E-01  0.35744000000E-01  0.51099999109E-03 0.  1.
       11   -1    0    0    0    0 -0.00000000000E+00 -0.00000000000E+00 -0.35740347158E-01  0.35744000000E-01  0.51099999109E-03 0. -1.
       22    1    1    2    0    0 -0.54946970519E-02  0.65977153669E-02  0.34690229765E-01  0.35737005818E-01  0.00000000000E+00 0.  1.
  9000001    1    1    2    0    0  0.54946970519E-02 -0.65977153669E-02 -0.34690229765E-01  0.35750994182E-01  0.10000000475E-02 0. -1.
</event>
<event>
 4   0  0.2441219E-02  0.9118800E+02  0.7818609E-02  0.1379984E+01
      -11   -1    0    0    0    0  0.00000000000E+00  0.00000000000E+00  0.35740347158E-01  0.35744000000E-01  0.51099999109E-03 0. -1.
       11   -1    0    0    0    0 -0.00000000000E+00 -0.00000000000E+00 -0.35740347158E-01  0.35744000000E-01  0.51099999109E-03 0.  1.
       22    1    1    2    0    0  0.10582045226E-02  0.13177298126E-01 -0.33201996960E-01  0.35737005818E-01  0.00000000000E+00 0.  1.
  9000001    1    1    2    0    0 -0.10582045226E-02 -0.13177298126E-01  0.33201996960E-01  0.35750994182E-01  0.10000000475E-02 0. -1.
</event>
<event>
 4   0  0.2441219E-02  0.9118800E+02  0.7818609E-02  0.1379984E+01
      -11   -1    0    0    0    0  0.00000000000E+00  0.00000000000E+00  0.35740347158E-01  0.35744000000E-01  0.51099999109E-03 0. -1.
       11   -1    0    0    0    0 -0.00000000000E+00 -0.00000000000E+00 -0.35740347158E-01  0.35744000000E-01  0.51099999109E-03 0.  1.
       22    1    1    2    0    0  0.43334040745E-02  0.17840769590E-02 -0.35428410399E-01  0.35737005818E-01  0.00000000000E+00 0.  1.
  9000001    1    1    2    0    0 -0.43334040745E-02 -0.17840769590E-02  0.35428410399E-01  0.35750994182E-01  0.10000000475E-02 0. -1.
</event>
<event>
 4   0  0.2441219E-02  0.9118800E+02  0.7818609E-02  0.1379984E+01
      -11   -1    0    0    0    0  0.00000000000E+00  0.00000000000E+00  0.35740347158E-01  0.35744000000E-01  0.51099999109E-03 0.  1.
       11   -1    0    0    0    0 -0.00000000000E+00 -0.00000000000E+00 -0.35740347158E-01  0.35744000000E-01  0.51099999109E-03 0. -1.
       22    1    1    2    0    0 -0.16336490705E-01  0.47276376068E-02  0.31430909929E-01  0.35737005818E-01  0.00000000000E+00 0.  1.
  9000001    1    1    2    0    0  0.16336490705E-01 -0.47276376068E-02 -0.31430909929E-01  0.35750994182E-01  0.10000000475E-02 0. -1.
</event>
<event>
 4   0  0.2441219E-02  0.9118800E+02  0.7818609E-02  0.1379984E+01
      -11   -1    0    0    0    0  0.00000000000E+00  0.00000000000E+00  0.35740347158E-01  0.35744000000E-01  0.51099999109E-03 0. -1.
       11   -1    0    0    0    0 -0.00000000000E+00 -0.00000000000E+00 -0.35740347158E-01  0.35744000000E-01  0.51099999109E-03 0.  1.
       22    1    1    2    0    0 -0.71474223721E-02 -0.44661070853E-02 -0.34728976746E-01  0.35737005818E-01  0.00000000000E+00 0.  1.
  9000001    1    1    2    0    0  0.71474223721E-02  0.44661070853E-02  0.34728976746E-01  0.35750994182E-01  0.10000000475E-02 0. -1.
</event>
<event>
 4   0  0.2441219E-02  0.9118800E+02  0.7818609E-02  0.1379984E+01
      -11   -1    0    0    0    0  0.00000000000E+00  0.00000000000E+00  0.35740347158E-01  0.35744000000E-01  0.51099999109E-03 0. -1.
       11   -1    0    0    0    0 -0.00000000000E+00 -0.00000000000E+00 -0.35740347158E-01  0.35744000000E-01  0.51099999109E-03 0.  1.
       22    1    1    2    0    0 -0.18073950234E-01 -0.22936562637E-02  0.30744187235E-01  0.35737005818E-01  0.00000000000E+00 0. -1.
  9000001    1    1    2    0    0  0.18073950234E-01  0.22936562637E-02 -0.30744187235E-01  0.35750994182E-01  0.10000000475E-02 0.  1.
</event>
<event>
 4   0  0.2441219E-02  0.9118800E+02  0.7818609E-02  0.1379984E+01
      -11   -1    0    0    0    0  0.00000000000E+00  0.00000000000E+00  0.35740347158E-01  0.35744000000E-01  0.51099999109E-03 0.  1.
       11   -1    0    0    0    0 -0.00000000000E+00 -0.00000000000E+00 -0.35740347158E-01  0.35744000000E-01  0.51099999109E-03 0. -1.
       22    1    1    2    0    0 -0.12367695776E-02 -0.30070770911E-02  0.35588782970E-01  0.35737005818E-01  0.00000000000E+00 0.  1.
  9000001    1    1    2    0    0  0.12367695776E-02  0.30070770911E-02 -0.35588782970E-01  0.35750994182E-01  0.10000000475E-02 0. -1.
</event>
<event>
 4   0  0.2441219E-02  0.9118800E+02  0.7818609E-02  0.1379984E+01
      -11   -1    0    0    0    0  0.00000000000E+00  0.00000000000E+00  0.35740347158E-01  0.35744000000E-01  0.51099999109E-03 0.  1.
       11   -1    0    0    0    0 -0.00000000000E+00 -0.00000000000E+00 -0.35740347158E-01  0.35744000000E-01  0.51099999109E-03 0. -1.
       22    1    1    2    0    0 -0.69857647831E-02 -0.23085044840E-02  0.34971466688E-01  0.35737005818E-01  0.00000000000E+00 0.  1.
  9000001    1    1    2    0    0  0.69857647831E-02  0.23085044840E-02 -0.34971466688E-01  0.35750994182E-01  0.10000000475E-02 0. -1.
</event>
<event>
 4   0  0.2441219E-02  0.9118800E+02  0.7818609E-02  0.1379984E+01
      -11   -1    0    0    0    0  0.00000000000E+00  0.00000000000E+00  0.35740347158E-01  0.35744000000E-01  0.51099999109E-03 0. -1.
       11   -1    0    0    0    0 -0.00000000000E+00 -0.00000000000E+00 -0.35740347158E-01  0.35744000000E-01  0.51099999109E-03 0.  1.
       22    1    1    2    0    0 -0.68647439658E-02  0.97685575412E-02  0.33683588863E-01  0.35737005818E-01  0.00000000000E+00 0. -1.
  9000001    1    1    2    0    0  0.68647439658E-02 -0.97685575412E-02 -0.33683588863E-01  0.35750994182E-01  0.10000000475E-02 0.  1.
</event>
<event>
 4   0  0.2441219E-02  0.9118800E+02  0.7818609E-02  0.1379984E+01
      -11   -1    0    0    0    0  0.00000000000E+00  0.00000000000E+00  0.35740347158E-01  0.35744000000E-01  0.51099999109E-03 0. -1.
       11   -1    0    0    0    0 -0.00000000000E+00 -0.00000000000E+00 -0.35740347158E-01  0.35744000000E-01  0.51099999109E-03 0.  1.
       22    1    1    2    0    0  0.13104529129E-01 -0.19052036652E-01  0.27247473288E-01  0.35737005818E-01  0.00000000000E+00 0. -1.
  9000001    1    1    2    0    0 -0.13104529129E-01  0.19052036652E-01 -0.27247473288E-01  0.35750994182E-01  0.10000000475E-02 0.  1.
</event>
<event>
 4   0  0.2441219E-02  0.9118800E+02  0.7818609E-02  0.1379984E+01
      -11   -1    0    0    0    0  0.00000000000E+00  0.00000000000E+00  0.35740347158E-01  0.35744000000E-01  0.51099999109E-03 0. -1.
       11   -1    0    0    0    0 -0.00000000000E+00 -0.00000000000E+00 -0.35740347158E-01  0.35744000000E-01  0.51099999109E-03 0.  1.
       22    1    1    2    0    0 -0.67635441076E-02 -0.43484963456E-02 -0.34820663915E-01  0.35737005818E-01  0.00000000000E+00 0.  1.
  9000001    1    1    2    0    0  0.67635441076E-02  0.43484963456E-02  0.34820663915E-01  0.35750994182E-01  0.10000000475E-02 0. -1.
</event>
<event>
 4   0  0.2441219E-02  0.9118800E+02  0.7818609E-02  0.1379984E+01
      -11   -1    0    0    0    0  0.00000000000E+00  0.00000000000E+00  0.35740347158E-01  0.35744000000E-01  0.51099999109E-03 0. -1.
       11   -1    0    0    0    0 -0.00000000000E+00 -0.00000000000E+00 -0.35740347158E-01  0.35744000000E-01  0.51099999109E-03 0.  1.
       22    1    1    2    0    0 -0.14432452486E-01  0.33819307695E-02  0.32517694328E-01  0.35737005818E-01  0.00000000000E+00 0. -1.
  9000001    1    1    2    0    0  0.14432452486E-01 -0.33819307695E-02 -0.32517694328E-01  0.35750994182E-01  0.10000000475E-02 0.  1.
</event>
<event>
 4   0  0.2441219E-02  0.9118800E+02  0.7818609E-02  0.1379984E+01
      -11   -1    0    0    0    0  0.00000000000E+00  0.00000000000E+00  0.35740347158E-01  0.35744000000E-01  0.51099999109E-03 0.  1.
       11   -1    0    0    0    0 -0.00000000000E+00 -0.00000000000E+00 -0.35740347158E-01  0.35744000000E-01  0.51099999109E-03 0. -1.
       22    1    1    2    0    0  0.55295123846E-02  0.59931989006E-02 -0.34794247292E-01  0.35737005818E-01  0.00000000000E+00 0. -1.
  9000001    1    1    2    0    0 -0.55295123846E-02 -0.59931989006E-02  0.34794247292E-01  0.35750994182E-01  0.10000000475E-02 0.  1.
</event>
<event>
 4   0  0.2441219E-02  0.9118800E+02  0.7818609E-02  0.1379984E+01
      -11   -1    0    0    0    0  0.00000000000E+00  0.00000000000E+00  0.35740347158E-01  0.35744000000E-01  0.51099999109E-03 0. -1.
       11   -1    0    0    0    0 -0.00000000000E+00 -0.00000000000E+00 -0.35740347158E-01  0.35744000000E-01  0.51099999109E-03 0.  1.
       22    1    1    2    0    0  0.14049714197E-02 -0.28328103617E-02  0.35596837298E-01  0.35737005818E-01  0.00000000000E+00 0. -1.
  9000001    1    1    2    0    0 -0.14049714197E-02  0.28328103617E-02 -0.35596837298E-01  0.35750994182E-01  0.10000000475E-02 0.  1.
</event>
<event>
 4   0  0.2441219E-02  0.9118800E+02  0.7818609E-02  0.1379984E+01
      -11   -1    0    0    0    0  0.00000000000E+00  0.00000000000E+00  0.35740347158E-01  0.35744000000E-01  0.51099999109E-03 0.  1.
       11   -1    0    0    0    0 -0.00000000000E+00 -0.00000000000E+00 -0.35740347158E-01  0.35744000000E-01  0.51099999109E-03 0. -1.
       22    1    1    2    0    0 -0.37127919555E-02 -0.46092147861E-02  0.35243494433E-01  0.35737005818E-01  0.00000000000E+00 0.  1.
  9000001    1    1    2    0    0  0.37127919555E-02  0.46092147861E-02 -0.35243494433E-01  0.35750994182E-01  0.10000000475E-02 0. -1.
</event>
<event>
 4   0  0.2441219E-02  0.9118800E+02  0.7818609E-02  0.1379984E+01
      -11   -1    0    0    0    0  0.00000000000E+00  0.00000000000E+00  0.35740347158E-01  0.35744000000E-01  0.51099999109E-03 0. -1.
       11   -1    0    0    0    0 -0.00000000000E+00 -0.00000000000E+00 -0.35740347158E-01  0.35744000000E-01  0.51099999109E-03 0.  1.
       22    1    1    2    0    0  0.17683335577E-01 -0.94414649758E-03 -0.31040969945E-01  0.35737005818E-01  0.00000000000E+00 0.  1.
  9000001    1    1    2    0    0 -0.17683335577E-01  0.94414649758E-03  0.31040969945E-01  0.35750994182E-01  0.10000000475E-02 0. -1.
</event>
<event>
 4   0  0.2441219E-02  0.9118800E+02  0.7818609E-02  0.1379984E+01
      -11   -1    0    0    0    0  0.00000000000E+00  0.00000000000E+00  0.35740347158E-01  0.35744000000E-01  0.51099999109E-03 0. -1.
       11   -1    0    0    0    0 -0.00000000000E+00 -0.00000000000E+00 -0.35740347158E-01  0.35744000000E-01  0.51099999109E-03 0.  1.
       22    1    1    2    0    0  0.31865276023E-02 -0.22051415279E-02  0.35526285727E-01  0.35737005818E-01  0.00000000000E+00 0. -1.
  9000001    1    1    2    0    0 -0.31865276023E-02  0.22051415279E-02 -0.35526285727E-01  0.35750994182E-01  0.10000000475E-02 0.  1.
</event>
<event>
 4   0  0.2441219E-02  0.9118800E+02  0.7818609E-02  0.1379984E+01
      -11   -1    0    0    0    0  0.00000000000E+00  0.00000000000E+00  0.35740347158E-01  0.35744000000E-01  0.51099999109E-03 0.  1.
       11   -1    0    0    0    0 -0.00000000000E+00 -0.00000000000E+00 -0.35740347158E-01  0.35744000000E-01  0.51099999109E-03 0. -1.
       22    1    1    2    0    0 -0.81418063842E-02  0.25499581303E-01 -0.23677329390E-01  0.35737005818E-01  0.00000000000E+00 0. -1.
  9000001    1    1    2    0    0  0.81418063842E-02 -0.25499581303E-01  0.23677329390E-01  0.35750994182E-01  0.10000000475E-02 0.  1.
</event>
<event>
 4   0  0.2441219E-02  0.9118800E+02  0.7818609E-02  0.1379984E+01
      -11   -1    0    0    0    0  0.00000000000E+00  0.00000000000E+00  0.35740347158E-01  0.35744000000E-01  0.51099999109E-03 0.  1.
       11   -1    0    0    0    0 -0.00000000000E+00 -0.00000000000E+00 -0.35740347158E-01  0.35744000000E-01  0.51099999109E-03 0. -1.
       22    1    1    2    0    0  0.59665962261E-02 -0.24667226157E-01  0.25160708815E-01  0.35737005818E-01  0.00000000000E+00 0.  1.
  9000001    1    1    2    0    0 -0.59665962261E-02  0.24667226157E-01 -0.25160708815E-01  0.35750994182E-01  0.10000000475E-02 0. -1.
</event>
<event>
 4   0  0.2441219E-02  0.9118800E+02  0.7818609E-02  0.1379984E+01
      -11   -1    0    0    0    0  0.00000000000E+00  0.00000000000E+00  0.35740347158E-01  0.35744000000E-01  0.51099999109E-03 0. -1.
       11   -1    0    0    0    0 -0.00000000000E+00 -0.00000000000E+00 -0.35740347158E-01  0.35744000000E-01  0.51099999109E-03 0.  1.
       22    1    1    2    0    0  0.12272862240E-01  0.16593312965E-02  0.33522485841E-01  0.35737005818E-01  0.00000000000E+00 0. -1.
  9000001    1    1    2    0    0 -0.12272862240E-01 -0.16593312965E-02 -0.33522485841E-01  0.35750994182E-01  0.10000000475E-02 0.  1.
</event>
<event>
 4   0  0.2441219E-02  0.9118800E+02  0.7818609E-02  0.1379984E+01
      -11   -1    0    0    0    0  0.00000000000E+00  0.00000000000E+00  0.35740347158E-01  0.35744000000E-01  0.51099999109E-03 0. -1.
       11   -1    0    0    0    0 -0.00000000000E+00 -0.00000000000E+00 -0.35740347158E-01  0.35744000000E-01  0.51099999109E-03 0.  1.
       22    1    1    2    0    0 -0.15536132591E-01 -0.18860481096E-01  0.26077661356E-01  0.35737005818E-01  0.00000000000E+00 0. -1.
  9000001    1    1    2    0    0  0.15536132591E-01  0.18860481096E-01 -0.26077661356E-01  0.35750994182E-01  0.10000000475E-02 0.  1.
</event>
<event>
 4   0  0.2441219E-02  0.9118800E+02  0.7818609E-02  0.1379984E+01
      -11   -1    0    0    0    0  0.00000000000E+00  0.00000000000E+00  0.35740347158E-01  0.35744000000E-01  0.51099999109E-03 0.  1.
       11   -1    0    0    0    0 -0.00000000000E+00 -0.00000000000E+00 -0.35740347158E-01  0.35744000000E-01  0.51099999109E-03 0. -1.
       22    1    1    2    0    0  0.16341785567E-01 -0.22302899067E-01  0.22642003501E-01  0.35737005818E-01  0.00000000000E+00 0.  1.
  9000001    1    1    2    0    0 -0.16341785567E-01  0.22302899067E-01 -0.22642003501E-01  0.35750994182E-01  0.10000000475E-02 0. -1.
</event>
<event>
 4   0  0.2441219E-02  0.9118800E+02  0.7818609E-02  0.1379984E+01
      -11   -1    0    0    0    0  0.00000000000E+00  0.00000000000E+00  0.35740347158E-01  0.35744000000E-01  0.51099999109E-03 0. -1.
       11   -1    0    0    0    0 -0.00000000000E+00 -0.00000000000E+00 -0.35740347158E-01  0.35744000000E-01  0.51099999109E-03 0.  1.
       22    1    1    2    0    0 -0.12406405792E-01 -0.64552359099E-02  0.32886845539E-01  0.35737005818E-01  0.00000000000E+00 0. -1.
  9000001    1    1    2    0    0  0.12406405792E-01  0.64552359099E-02 -0.32886845539E-01  0.35750994182E-01  0.10000000475E-02 0.  1.
</event>
<event>
 4   0  0.2441219E-02  0.9118800E+02  0.7818609E-02  0.1379984E+01
      -11   -1    0    0    0    0  0.00000000000E+00  0.00000000000E+00  0.35740347158E-01  0.35744000000E-01  0.51099999109E-03 0.  1.
       11   -1    0    0    0    0 -0.00000000000E+00 -0.00000000000E+00 -0.35740347158E-01  0.35744000000E-01  0.51099999109E-03 0. -1.
       22    1    1    2    0    0 -0.46128688551E-02 -0.88973271048E-02  0.34302953170E-01  0.35737005818E-01  0.00000000000E+00 0.  1.
  9000001    1    1    2    0    0  0.46128688551E-02  0.88973271048E-02 -0.34302953170E-01  0.35750994182E-01  0.10000000475E-02 0. -1.
</event>
<event>
 4   0  0.2441219E-02  0.9118800E+02  0.7818609E-02  0.1379984E+01
      -11   -1    0    0    0    0  0.00000000000E+00  0.00000000000E+00  0.35740347158E-01  0.35744000000E-01  0.51099999109E-03 0. -1.
       11   -1    0    0    0    0 -0.00000000000E+00 -0.00000000000E+00 -0.35740347158E-01  0.35744000000E-01  0.51099999109E-03 0.  1.
       22    1    1    2    0    0  0.74007722408E-04  0.39057810180E-02  0.35522851552E-01  0.35737005818E-01  0.00000000000E+00 0. -1.
  9000001    1    1    2    0    0 -0.74007722408E-04 -0.39057810180E-02 -0.35522851552E-01  0.35750994182E-01  0.10000000475E-02 0.  1.
</event>
<event>
 4   0  0.2441219E-02  0.9118800E+02  0.7818609E-02  0.1379984E+01
      -11   -1    0    0    0    0  0.00000000000E+00  0.00000000000E+00  0.35740347158E-01  0.35744000000E-01  0.51099999109E-03 0. -1.
       11   -1    0    0    0    0 -0.00000000000E+00 -0.00000000000E+00 -0.35740347158E-01  0.35744000000E-01  0.51099999109E-03 0.  1.
       22    1    1    2    0    0 -0.10041440509E-01  0.96263997140E-02 -0.32918619137E-01  0.35737005818E-01  0.00000000000E+00 0.  1.
  9000001    1    1    2    0    0  0.10041440509E-01 -0.96263997140E-02  0.32918619137E-01  0.35750994182E-01  0.10000000475E-02 0. -1.
</event>
<event>
 4   0  0.2441219E-02  0.9118800E+02  0.7818609E-02  0.1379984E+01
      -11   -1    0    0    0    0  0.00000000000E+00  0.00000000000E+00  0.35740347158E-01  0.35744000000E-01  0.51099999109E-03 0. -1.
       11   -1    0    0    0    0 -0.00000000000E+00 -0.00000000000E+00 -0.35740347158E-01  0.35744000000E-01  0.51099999109E-03 0.  1.
       22    1    1    2    0    0  0.86763751495E-02  0.52523303640E-02  0.34267581252E-01  0.35737005818E-01  0.00000000000E+00 0. -1.
  9000001    1    1    2    0    0 -0.86763751495E-02 -0.52523303640E-02 -0.34267581252E-01  0.35750994182E-01  0.10000000475E-02 0.  1.
</event>
<event>
 4   0  0.2441219E-02  0.9118800E+02  0.7818609E-02  0.1379984E+01
      -11   -1    0    0    0    0  0.00000000000E+00  0.00000000000E+00  0.35740347158E-01  0.35744000000E-01  0.51099999109E-03 0. -1.
       11   -1    0    0    0    0 -0.00000000000E+00 -0.00000000000E+00 -0.35740347158E-01  0.35744000000E-01  0.51099999109E-03 0.  1.
       22    1    1    2    0    0 -0.33355477176E-02  0.35071940674E-02  0.35407729327E-01  0.35737005818E-01  0.00000000000E+00 0. -1.
  9000001    1    1    2    0    0  0.33355477176E-02 -0.35071940674E-02 -0.35407729327E-01  0.35750994182E-01  0.10000000475E-02 0.  1.
</event>
<event>
 4   0  0.2441219E-02  0.9118800E+02  0.7818609E-02  0.1379984E+01
      -11   -1    0    0    0    0  0.00000000000E+00  0.00000000000E+00  0.35740347158E-01  0.35744000000E-01  0.51099999109E-03 0. -1.
       11   -1    0    0    0    0 -0.00000000000E+00 -0.00000000000E+00 -0.35740347158E-01  0.35744000000E-01  0.51099999109E-03 0.  1.
       22    1    1    2    0    0  0.18023563355E-01 -0.24119426959E-01 -0.19249363418E-01  0.35737005818E-01  0.00000000000E+00 0.  1.
  9000001    1    1    2    0    0 -0.18023563355E-01  0.24119426959E-01  0.19249363418E-01  0.35750994182E-01  0.10000000475E-02 0. -1.
</event>
<event>
 4   0  0.2441219E-02  0.9118800E+02  0.7818609E-02  0.1379984E+01
      -11   -1    0    0    0    0  0.00000000000E+00  0.00000000000E+00  0.35740347158E-01  0.35744000000E-01  0.51099999109E-03 0. -1.
       11   -1    0    0    0    0 -0.00000000000E+00 -0.00000000000E+00 -0.35740347158E-01  0.35744000000E-01  0.51099999109E-03 0.  1.
       22    1    1    2    0    0  0.33258397017E-01  0.11732516750E-01  0.57758690630E-02  0.35737005818E-01  0.00000000000E+00 0. -1.
  9000001    1    1    2    0    0 -0.33258397017E-01 -0.11732516750E-01 -0.57758690630E-02  0.35750994182E-01  0.10000000475E-02 0.  1.
</event>
<event>
 4   0  0.2441219E-02  0.9118800E+02  0.7818609E-02  0.1379984E+01
      -11   -1    0    0    0    0  0.00000000000E+00  0.00000000000E+00  0.35740347158E-01  0.35744000000E-01  0.51099999109E-03 0. -1.
       11   -1    0    0    0    0 -0.00000000000E+00 -0.00000000000E+00 -0.35740347158E-01  0.35744000000E-01  0.51099999109E-03 0.  1.
       22    1    1    2    0    0  0.10528457013E-01  0.42093072371E-02  0.33890513575E-01  0.35737005818E-01  0.00000000000E+00 0. -1.
  9000001    1    1    2    0    0 -0.10528457013E-01 -0.42093072371E-02 -0.33890513575E-01  0.35750994182E-01  0.10000000475E-02 0.  1.
</event>
<event>
 4   0  0.2441219E-02  0.9118800E+02  0.7818609E-02  0.1379984E+01
      -11   -1    0    0    0    0  0.00000000000E+00  0.00000000000E+00  0.35740347158E-01  0.35744000000E-01  0.51099999109E-03 0.  1.
       11   -1    0    0    0    0 -0.00000000000E+00 -0.00000000000E+00 -0.35740347158E-01  0.35744000000E-01  0.51099999109E-03 0. -1.
       22    1    1    2    0    0  0.20353954976E-05  0.35364706457E-02 -0.35561593835E-01  0.35737005818E-01  0.00000000000E+00 0. -1.
  9000001    1    1    2    0    0 -0.20353954976E-05 -0.35364706457E-02  0.35561593835E-01  0.35750994182E-01  0.10000000475E-02 0.  1.
</event>
<event>
 4   0  0.2441219E-02  0.9118800E+02  0.7818609E-02  0.1379984E+01
      -11   -1    0    0    0    0  0.00000000000E+00  0.00000000000E+00  0.35740347158E-01  0.35744000000E-01  0.51099999109E-03 0. -1.
       11   -1    0    0    0    0 -0.00000000000E+00 -0.00000000000E+00 -0.35740347158E-01  0.35744000000E-01  0.51099999109E-03 0.  1.
       22    1    1    2    0    0 -0.11889319704E-01 -0.51675039705E-02 -0.33302771124E-01  0.35737005818E-01  0.00000000000E+00 0.  1.
  9000001    1    1    2    0    0  0.11889319704E-01  0.51675039705E-02  0.33302771124E-01  0.35750994182E-01  0.10000000475E-02 0. -1.
</event>
<event>
 4   0  0.2441219E-02  0.9118800E+02  0.7818609E-02  0.1379984E+01
      -11   -1    0    0    0    0  0.00000000000E+00  0.00000000000E+00  0.35740347158E-01  0.35744000000E-01  0.51099999109E-03 0.  1.
       11   -1    0    0    0    0 -0.00000000000E+00 -0.00000000000E+00 -0.35740347158E-01  0.35744000000E-01  0.51099999109E-03 0. -1.
       22    1    1    2    0    0  0.57169794366E-02  0.94774426911E-02 -0.33979814759E-01  0.35737005818E-01  0.00000000000E+00 0. -1.
  9000001    1    1    2    0    0 -0.57169794366E-02 -0.94774426911E-02  0.33979814759E-01  0.35750994182E-01  0.10000000475E-02 0.  1.
</event>
<event>
 4   0  0.2441219E-02  0.9118800E+02  0.7818609E-02  0.1379984E+01
      -11   -1    0    0    0    0  0.00000000000E+00  0.00000000000E+00  0.35740347158E-01  0.35744000000E-01  0.51099999109E-03 0. -1.
       11   -1    0    0    0    0 -0.00000000000E+00 -0.00000000000E+00 -0.35740347158E-01  0.35744000000E-01  0.51099999109E-03 0.  1.
       22    1    1    2    0    0 -0.15592703122E-01  0.18516354089E-01 -0.26289652441E-01  0.35737005818E-01  0.00000000000E+00 0.  1.
  9000001    1    1    2    0    0  0.15592703122E-01 -0.18516354089E-01  0.26289652441E-01  0.35750994182E-01  0.10000000475E-02 0. -1.
</event>
<event>
 4   0  0.2441219E-02  0.9118800E+02  0.7818609E-02  0.1379984E+01
      -11   -1    0    0    0    0  0.00000000000E+00  0.00000000000E+00  0.35740347158E-01  0.35744000000E-01  0.51099999109E-03 0. -1.
       11   -1    0    0    0    0 -0.00000000000E+00 -0.00000000000E+00 -0.35740347158E-01  0.35744000000E-01  0.51099999109E-03 0.  1.
       22    1    1    2    0    0  0.11741631094E-02  0.49853651189E-02  0.35368079683E-01  0.35737005818E-01  0.00000000000E+00 0. -1.
  9000001    1    1    2    0    0 -0.11741631094E-02 -0.49853651189E-02 -0.35368079683E-01  0.35750994182E-01  0.10000000475E-02 0.  1.
</event>
<event>
 4   0  0.2441219E-02  0.9118800E+02  0.7818609E-02  0.1379984E+01
      -11   -1    0    0    0    0  0.00000000000E+00  0.00000000000E+00  0.35740347158E-01  0.35744000000E-01  0.51099999109E-03 0. -1.
       11   -1    0    0    0    0 -0.00000000000E+00 -0.00000000000E+00 -0.35740347158E-01  0.35744000000E-01  0.51099999109E-03 0.  1.
       22    1    1    2    0    0 -0.27196071807E-02  0.18699237161E-01 -0.30332752121E-01  0.35737005818E-01  0.00000000000E+00 0.  1.
  9000001    1    1    2    0    0  0.27196071807E-02 -0.18699237161E-01  0.30332752121E-01  0.35750994182E-01  0.10000000475E-02 0. -1.
</event>
<event>
 4   0  0.2441219E-02  0.9118800E+02  0.7818609E-02  0.1379984E+01
      -11   -1    0    0    0    0  0.00000000000E+00  0.00000000000E+00  0.35740347158E-01  0.35744000000E-01  0.51099999109E-03 0.  1.
       11   -1    0    0    0    0 -0.00000000000E+00 -0.00000000000E+00 -0.35740347158E-01  0.35744000000E-01  0.51099999109E-03 0. -1.
       22    1    1    2    0    0 -0.24930424040E-01 -0.51708010258E-02  0.25077287708E-01  0.35737005818E-01  0.00000000000E+00 0.  1.
  9000001    1    1    2    0    0  0.24930424040E-01  0.51708010258E-02 -0.25077287708E-01  0.35750994182E-01  0.10000000475E-02 0. -1.
</event>
<event>
 4   0  0.2441219E-02  0.9118800E+02  0.7818609E-02  0.1379984E+01
      -11   -1    0    0    0    0  0.00000000000E+00  0.00000000000E+00  0.35740347158E-01  0.35744000000E-01  0.51099999109E-03 0. -1.
       11   -1    0    0    0    0 -0.00000000000E+00 -0.00000000000E+00 -0.35740347158E-01  0.35744000000E-01  0.51099999109E-03 0.  1.
       22    1    1    2    0    0 -0.60567275459E-02  0.28767198564E-02  0.35102337802E-01  0.35737005818E-01  0.00000000000E+00 0. -1.
  9000001    1    1    2    0    0  0.60567275459E-02 -0.28767198564E-02 -0.35102337802E-01  0.35750994182E-01  0.10000000475E-02 0.  1.
</event>
<event>
 4   0  0.2441219E-02  0.9118800E+02  0.7818609E-02  0.1379984E+01
      -11   -1    0    0    0    0  0.00000000000E+00  0.00000000000E+00  0.35740347158E-01  0.35744000000E-01  0.51099999109E-03 0. -1.
       11   -1    0    0    0    0 -0.00000000000E+00 -0.00000000000E+00 -0.35740347158E-01  0.35744000000E-01  0.51099999109E-03 0.  1.
       22    1    1    2    0    0 -0.35042519253E-02  0.45320556979E-02  0.35274839113E-01  0.35737005818E-01  0.00000000000E+00 0. -1.
  9000001    1    1    2    0    0  0.35042519253E-02 -0.45320556979E-02 -0.35274839113E-01  0.35750994182E-01  0.10000000475E-02 0.  1.
</event>
<event>
 4   0  0.2441219E-02  0.9118800E+02  0.7818609E-02  0.1379984E+01
      -11   -1    0    0    0    0  0.00000000000E+00  0.00000000000E+00  0.35740347158E-01  0.35744000000E-01  0.51099999109E-03 0.  1.
       11   -1    0    0    0    0 -0.00000000000E+00 -0.00000000000E+00 -0.35740347158E-01  0.35744000000E-01  0.51099999109E-03 0. -1.
       22    1    1    2    0    0  0.45305570399E-02  0.33923723112E-02  0.35285966727E-01  0.35737005818E-01  0.00000000000E+00 0.  1.
  9000001    1    1    2    0    0 -0.45305570399E-02 -0.33923723112E-02 -0.35285966727E-01  0.35750994182E-01  0.10000000475E-02 0. -1.
</event>
<event>
 4   0  0.2441219E-02  0.9118800E+02  0.7818609E-02  0.1379984E+01
      -11   -1    0    0    0    0  0.00000000000E+00  0.00000000000E+00  0.35740347158E-01  0.35744000000E-01  0.51099999109E-03 0. -1.
       11   -1    0    0    0    0 -0.00000000000E+00 -0.00000000000E+00 -0.35740347158E-01  0.35744000000E-01  0.51099999109E-03 0.  1.
       22    1    1    2    0    0  0.24205418308E-01  0.11061314391E-01 -0.23851176771E-01  0.35737005818E-01  0.00000000000E+00 0.  1.
  9000001    1    1    2    0    0 -0.24205418308E-01 -0.11061314391E-01  0.23851176771E-01  0.35750994182E-01  0.10000000475E-02 0. -1.
</event>
<event>
 4   0  0.2441219E-02  0.9118800E+02  0.7818609E-02  0.1379984E+01
      -11   -1    0    0    0    0  0.00000000000E+00  0.00000000000E+00  0.35740347158E-01  0.35744000000E-01  0.51099999109E-03 0.  1.
       11   -1    0    0    0    0 -0.00000000000E+00 -0.00000000000E+00 -0.35740347158E-01  0.35744000000E-01  0.51099999109E-03 0. -1.
       22    1    1    2    0    0 -0.23510920548E-01 -0.16273772994E-01 -0.21436756107E-01  0.35737005818E-01  0.00000000000E+00 0. -1.
  9000001    1    1    2    0    0  0.23510920548E-01  0.16273772994E-01  0.21436756107E-01  0.35750994182E-01  0.10000000475E-02 0.  1.
</event>
<event>
 4   0  0.2441219E-02  0.9118800E+02  0.7818609E-02  0.1379984E+01
      -11   -1    0    0    0    0  0.00000000000E+00  0.00000000000E+00  0.35740347158E-01  0.35744000000E-01  0.51099999109E-03 0.  1.
       11   -1    0    0    0    0 -0.00000000000E+00 -0.00000000000E+00 -0.35740347158E-01  0.35744000000E-01  0.51099999109E-03 0.  1.
       22    1    1    2    0    0 -0.28895679019E-02  0.11819587468E-02 -0.35600378590E-01  0.35737005818E-01  0.00000000000E+00 0.  1.
  9000001    1    1    2    0    0  0.28895679019E-02 -0.11819587468E-02  0.35600378590E-01  0.35750994182E-01  0.10000000475E-02 0.  1.
</event>
<event>
 4   0  0.2441219E-02  0.9118800E+02  0.7818609E-02  0.1379984E+01
      -11   -1    0    0    0    0  0.00000000000E+00  0.00000000000E+00  0.35740347158E-01  0.35744000000E-01  0.51099999109E-03 0. -1.
       11   -1    0    0    0    0 -0.00000000000E+00 -0.00000000000E+00 -0.35740347158E-01  0.35744000000E-01  0.51099999109E-03 0.  1.
       22    1    1    2    0    0  0.44096807013E-02 -0.34051314716E-02  0.35300047884E-01  0.35737005818E-01  0.00000000000E+00 0. -1.
  9000001    1    1    2    0    0 -0.44096807013E-02  0.34051314716E-02 -0.35300047884E-01  0.35750994182E-01  0.10000000475E-02 0.  1.
</event>
<event>
 4   0  0.2441219E-02  0.9118800E+02  0.7818609E-02  0.1379984E+01
      -11   -1    0    0    0    0  0.00000000000E+00  0.00000000000E+00  0.35740347158E-01  0.35744000000E-01  0.51099999109E-03 0.  1.
       11   -1    0    0    0    0 -0.00000000000E+00 -0.00000000000E+00 -0.35740347158E-01  0.35744000000E-01  0.51099999109E-03 0. -1.
       22    1    1    2    0    0  0.12953973532E-02 -0.73298952745E-02  0.34953228261E-01  0.35737005818E-01  0.00000000000E+00 0.  1.
  9000001    1    1    2    0    0 -0.12953973532E-02  0.73298952745E-02 -0.34953228261E-01  0.35750994182E-01  0.10000000475E-02 0. -1.
</event>
<event>
 4   0  0.2441219E-02  0.9118800E+02  0.7818609E-02  0.1379984E+01
      -11   -1    0    0    0    0  0.00000000000E+00  0.00000000000E+00  0.35740347158E-01  0.35744000000E-01  0.51099999109E-03 0. -1.
       11   -1    0    0    0    0 -0.00000000000E+00 -0.00000000000E+00 -0.35740347158E-01  0.35744000000E-01  0.51099999109E-03 0.  1.
       22    1    1    2    0    0  0.10636399145E-01 -0.33419439059E-01 -0.68659807079E-02  0.35737005818E-01  0.00000000000E+00 0. -1.
  9000001    1    1    2    0    0 -0.10636399145E-01  0.33419439059E-01  0.68659807079E-02  0.35750994182E-01  0.10000000475E-02 0.  1.
</event>
<event>
 4   0  0.2441219E-02  0.9118800E+02  0.7818609E-02  0.1379984E+01
      -11   -1    0    0    0    0  0.00000000000E+00  0.00000000000E+00  0.35740347158E-01  0.35744000000E-01  0.51099999109E-03 0. -1.
       11   -1    0    0    0    0 -0.00000000000E+00 -0.00000000000E+00 -0.35740347158E-01  0.35744000000E-01  0.51099999109E-03 0.  1.
       22    1    1    2    0    0  0.56077089353E-02  0.46741777162E-02  0.34983413899E-01  0.35737005818E-01  0.00000000000E+00 0. -1.
  9000001    1    1    2    0    0 -0.56077089353E-02 -0.46741777162E-02 -0.34983413899E-01  0.35750994182E-01  0.10000000475E-02 0.  1.
</event>
<event>
 4   0  0.2441219E-02  0.9118800E+02  0.7818609E-02  0.1379984E+01
      -11   -1    0    0    0    0  0.00000000000E+00  0.00000000000E+00  0.35740347158E-01  0.35744000000E-01  0.51099999109E-03 0.  1.
       11   -1    0    0    0    0 -0.00000000000E+00 -0.00000000000E+00 -0.35740347158E-01  0.35744000000E-01  0.51099999109E-03 0. -1.
       22    1    1    2    0    0 -0.56350115160E-02  0.10822008813E-02  0.35273347890E-01  0.35737005818E-01  0.00000000000E+00 0.  1.
  9000001    1    1    2    0    0  0.56350115160E-02 -0.10822008813E-02 -0.35273347890E-01  0.35750994182E-01  0.10000000475E-02 0. -1.
</event>
<event>
 4   0  0.2441219E-02  0.9118800E+02  0.7818609E-02  0.1379984E+01
      -11   -1    0    0    0    0  0.00000000000E+00  0.00000000000E+00  0.35740347158E-01  0.35744000000E-01  0.51099999109E-03 0. -1.
       11   -1    0    0    0    0 -0.00000000000E+00 -0.00000000000E+00 -0.35740347158E-01  0.35744000000E-01  0.51099999109E-03 0.  1.
       22    1    1    2    0    0  0.54822126309E-02 -0.28172994831E-02  0.35201445328E-01  0.35737005818E-01  0.00000000000E+00 0. -1.
  9000001    1    1    2    0    0 -0.54822126309E-02  0.28172994831E-02 -0.35201445328E-01  0.35750994182E-01  0.10000000475E-02 0.  1.
</event>
<event>
 4   0  0.2441219E-02  0.9118800E+02  0.7818609E-02  0.1379984E+01
      -11   -1    0    0    0    0  0.00000000000E+00  0.00000000000E+00  0.35740347158E-01  0.35744000000E-01  0.51099999109E-03 0. -1.
       11   -1    0    0    0    0 -0.00000000000E+00 -0.00000000000E+00 -0.35740347158E-01  0.35744000000E-01  0.51099999109E-03 0.  1.
       22    1    1    2    0    0 -0.30566065092E-01 -0.18153617940E-01 -0.36462865149E-02  0.35737005818E-01  0.00000000000E+00 0. -1.
  9000001    1    1    2    0    0  0.30566065092E-01  0.18153617940E-01  0.36462865149E-02  0.35750994182E-01  0.10000000475E-02 0.  1.
</event>
<event>
 4   0  0.2441219E-02  0.9118800E+02  0.7818609E-02  0.1379984E+01
      -11   -1    0    0    0    0  0.00000000000E+00  0.00000000000E+00  0.35740347158E-01  0.35744000000E-01  0.51099999109E-03 0. -1.
       11   -1    0    0    0    0 -0.00000000000E+00 -0.00000000000E+00 -0.35740347158E-01  0.35744000000E-01  0.51099999109E-03 0.  1.
       22    1    1    2    0    0 -0.15883621417E-01 -0.65210716702E-02 -0.31341981109E-01  0.35737005818E-01  0.00000000000E+00 0.  1.
  9000001    1    1    2    0    0  0.15883621417E-01  0.65210716702E-02  0.31341981109E-01  0.35750994182E-01  0.10000000475E-02 0. -1.
</event>
<event>
 4   0  0.2441219E-02  0.9118800E+02  0.7818609E-02  0.1379984E+01
      -11   -1    0    0    0    0  0.00000000000E+00  0.00000000000E+00  0.35740347158E-01  0.35744000000E-01  0.51099999109E-03 0.  1.
       11   -1    0    0    0    0 -0.00000000000E+00 -0.00000000000E+00 -0.35740347158E-01  0.35744000000E-01  0.51099999109E-03 0. -1.
       22    1    1    2    0    0  0.28645167367E-02  0.40903700224E-02  0.35386395717E-01  0.35737005818E-01  0.00000000000E+00 0.  1.
  9000001    1    1    2    0    0 -0.28645167367E-02 -0.40903700224E-02 -0.35386395717E-01  0.35750994182E-01  0.10000000475E-02 0. -1.
</event>
<event>
 4   0  0.2441219E-02  0.9118800E+02  0.7818609E-02  0.1379984E+01
      -11   -1    0    0    0    0  0.00000000000E+00  0.00000000000E+00  0.35740347158E-01  0.35744000000E-01  0.51099999109E-03 0. -1.
       11   -1    0    0    0    0 -0.00000000000E+00 -0.00000000000E+00 -0.35740347158E-01  0.35744000000E-01  0.51099999109E-03 0.  1.
       22    1    1    2    0    0  0.28617037832E-02 -0.30940177803E-01  0.17653601159E-01  0.35737005818E-01  0.00000000000E+00 0. -1.
  9000001    1    1    2    0    0 -0.28617037832E-02  0.30940177803E-01 -0.17653601159E-01  0.35750994182E-01  0.10000000475E-02 0.  1.
</event>
<event>
 4   0  0.2441219E-02  0.9118800E+02  0.7818609E-02  0.1379984E+01
      -11   -1    0    0    0    0  0.00000000000E+00  0.00000000000E+00  0.35740347158E-01  0.35744000000E-01  0.51099999109E-03 0. -1.
       11   -1    0    0    0    0 -0.00000000000E+00 -0.00000000000E+00 -0.35740347158E-01  0.35744000000E-01  0.51099999109E-03 0.  1.
       22    1    1    2    0    0 -0.44037868899E-02 -0.72098590264E-02  0.34724028838E-01  0.35737005818E-01  0.00000000000E+00 0. -1.
  9000001    1    1    2    0    0  0.44037868899E-02  0.72098590264E-02 -0.34724028838E-01  0.35750994182E-01  0.10000000475E-02 0.  1.
</event>
<event>
 4   0  0.2441219E-02  0.9118800E+02  0.7818609E-02  0.1379984E+01
      -11   -1    0    0    0    0  0.00000000000E+00  0.00000000000E+00  0.35740347158E-01  0.35744000000E-01  0.51099999109E-03 0.  1.
       11   -1    0    0    0    0 -0.00000000000E+00 -0.00000000000E+00 -0.35740347158E-01  0.35744000000E-01  0.51099999109E-03 0. -1.
       22    1    1    2    0    0  0.14355182260E-01 -0.16335065602E-01 -0.28358913218E-01  0.35737005818E-01  0.00000000000E+00 0. -1.
  9000001    1    1    2    0    0 -0.14355182260E-01  0.16335065602E-01  0.28358913218E-01  0.35750994182E-01  0.10000000475E-02 0.  1.
</event>
<event>
 4   0  0.2441219E-02  0.9118800E+02  0.7818609E-02  0.1379984E+01
      -11   -1    0    0    0    0  0.00000000000E+00  0.00000000000E+00  0.35740347158E-01  0.35744000000E-01  0.51099999109E-03 0.  1.
       11   -1    0    0    0    0 -0.00000000000E+00 -0.00000000000E+00 -0.35740347158E-01  0.35744000000E-01  0.51099999109E-03 0. -1.
       22    1    1    2    0    0  0.12552383997E-02  0.33694787999E-02  0.35555654600E-01  0.35737005818E-01  0.00000000000E+00 0.  1.
  9000001    1    1    2    0    0 -0.12552383997E-02 -0.33694787999E-02 -0.35555654600E-01  0.35750994182E-01  0.10000000475E-02 0. -1.
</event>
<event>
 4   0  0.2441219E-02  0.9118800E+02  0.7818609E-02  0.1379984E+01
      -11   -1    0    0    0    0  0.00000000000E+00  0.00000000000E+00  0.35740347158E-01  0.35744000000E-01  0.51099999109E-03 0.  1.
       11   -1    0    0    0    0 -0.00000000000E+00 -0.00000000000E+00 -0.35740347158E-01  0.35744000000E-01  0.51099999109E-03 0. -1.
       22    1    1    2    0    0 -0.51511775951E-03  0.38463845348E-02  0.35525674724E-01  0.35737005818E-01  0.00000000000E+00 0.  1.
  9000001    1    1    2    0    0  0.51511775951E-03 -0.38463845348E-02 -0.35525674724E-01  0.35750994182E-01  0.10000000475E-02 0. -1.
</event>
<event>
 4   0  0.2441219E-02  0.9118800E+02  0.7818609E-02  0.1379984E+01
      -11   -1    0    0    0    0  0.00000000000E+00  0.00000000000E+00  0.35740347158E-01  0.35744000000E-01  0.51099999109E-03 0.  1.
       11   -1    0    0    0    0 -0.00000000000E+00 -0.00000000000E+00 -0.35740347158E-01  0.35744000000E-01  0.51099999109E-03 0. -1.
       22    1    1    2    0    0  0.41680313101E-02  0.63417997838E-03 -0.35487447297E-01  0.35737005818E-01  0.00000000000E+00 0. -1.
  9000001    1    1    2    0    0 -0.41680313101E-02 -0.63417997838E-03  0.35487447297E-01  0.35750994182E-01  0.10000000475E-02 0.  1.
</event>
<event>
 4   0  0.2441219E-02  0.9118800E+02  0.7818609E-02  0.1379984E+01
      -11   -1    0    0    0    0  0.00000000000E+00  0.00000000000E+00  0.35740347158E-01  0.35744000000E-01  0.51099999109E-03 0.  1.
       11   -1    0    0    0    0 -0.00000000000E+00 -0.00000000000E+00 -0.35740347158E-01  0.35744000000E-01  0.51099999109E-03 0. -1.
       22    1    1    2    0    0  0.14679215777E-02 -0.59015490190E-02  0.35215770761E-01  0.35737005818E-01  0.00000000000E+00 0.  1.
  9000001    1    1    2    0    0 -0.14679215777E-02  0.59015490190E-02 -0.35215770761E-01  0.35750994182E-01  0.10000000475E-02 0. -1.
</event>
<event>
 4   0  0.2441219E-02  0.9118800E+02  0.7818609E-02  0.1379984E+01
      -11   -1    0    0    0    0  0.00000000000E+00  0.00000000000E+00  0.35740347158E-01  0.35744000000E-01  0.51099999109E-03 0. -1.
       11   -1    0    0    0    0 -0.00000000000E+00 -0.00000000000E+00 -0.35740347158E-01  0.35744000000E-01  0.51099999109E-03 0.  1.
       22    1    1    2    0    0 -0.29917419373E-02  0.16332976022E-01 -0.31645172765E-01  0.35737005818E-01  0.00000000000E+00 0.  1.
  9000001    1    1    2    0    0  0.29917419373E-02 -0.16332976022E-01  0.31645172765E-01  0.35750994182E-01  0.10000000475E-02 0. -1.
</event>
<event>
 4   0  0.2441219E-02  0.9118800E+02  0.7818609E-02  0.1379984E+01
      -11   -1    0    0    0    0  0.00000000000E+00  0.00000000000E+00  0.35740347158E-01  0.35744000000E-01  0.51099999109E-03 0. -1.
       11   -1    0    0    0    0 -0.00000000000E+00 -0.00000000000E+00 -0.35740347158E-01  0.35744000000E-01  0.51099999109E-03 0.  1.
       22    1    1    2    0    0 -0.16885462282E-03  0.14608965496E-01 -0.32614156438E-01  0.35737005818E-01  0.00000000000E+00 0.  1.
  9000001    1    1    2    0    0  0.16885462282E-03 -0.14608965496E-01  0.32614156438E-01  0.35750994182E-01  0.10000000475E-02 0. -1.
</event>
<event>
 4   0  0.2441219E-02  0.9118800E+02  0.7818609E-02  0.1379984E+01
      -11   -1    0    0    0    0  0.00000000000E+00  0.00000000000E+00  0.35740347158E-01  0.35744000000E-01  0.51099999109E-03 0.  1.
       11   -1    0    0    0    0 -0.00000000000E+00 -0.00000000000E+00 -0.35740347158E-01  0.35744000000E-01  0.51099999109E-03 0. -1.
       22    1    1    2    0    0  0.58187920268E-02 -0.29756326480E-02  0.35134325873E-01  0.35737005818E-01  0.00000000000E+00 0.  1.
  9000001    1    1    2    0    0 -0.58187920268E-02  0.29756326480E-02 -0.35134325873E-01  0.35750994182E-01  0.10000000475E-02 0. -1.
</event>
<event>
 4   0  0.2441219E-02  0.9118800E+02  0.7818609E-02  0.1379984E+01
      -11   -1    0    0    0    0  0.00000000000E+00  0.00000000000E+00  0.35740347158E-01  0.35744000000E-01  0.51099999109E-03 0.  1.
       11   -1    0    0    0    0 -0.00000000000E+00 -0.00000000000E+00 -0.35740347158E-01  0.35744000000E-01  0.51099999109E-03 0. -1.
       22    1    1    2    0    0  0.52283219554E-02  0.15248388168E-02 -0.35319585232E-01  0.35737005818E-01  0.00000000000E+00 0. -1.
  9000001    1    1    2    0    0 -0.52283219554E-02 -0.15248388168E-02  0.35319585232E-01  0.35750994182E-01  0.10000000475E-02 0.  1.
</event>
<event>
 4   0  0.2441219E-02  0.9118800E+02  0.7818609E-02  0.1379984E+01
      -11   -1    0    0    0    0  0.00000000000E+00  0.00000000000E+00  0.35740347158E-01  0.35744000000E-01  0.51099999109E-03 0.  1.
       11   -1    0    0    0    0 -0.00000000000E+00 -0.00000000000E+00 -0.35740347158E-01  0.35744000000E-01  0.51099999109E-03 0. -1.
       22    1    1    2    0    0 -0.43885829600E-02  0.77001387002E-02  0.34620539979E-01  0.35737005818E-01  0.00000000000E+00 0.  1.
  9000001    1    1    2    0    0  0.43885829600E-02 -0.77001387002E-02 -0.34620539979E-01  0.35750994182E-01  0.10000000475E-02 0. -1.
</event>
<event>
 4   0  0.2441219E-02  0.9118800E+02  0.7818609E-02  0.1379984E+01
      -11   -1    0    0    0    0  0.00000000000E+00  0.00000000000E+00  0.35740347158E-01  0.35744000000E-01  0.51099999109E-03 0.  1.
       11   -1    0    0    0    0 -0.00000000000E+00 -0.00000000000E+00 -0.35740347158E-01  0.35744000000E-01  0.51099999109E-03 0. -1.
       22    1    1    2    0    0  0.51310357821E-02  0.12764667210E-01 -0.32982864152E-01  0.35737005818E-01  0.00000000000E+00 0. -1.
  9000001    1    1    2    0    0 -0.51310357821E-02 -0.12764667210E-01  0.32982864152E-01  0.35750994182E-01  0.10000000475E-02 0.  1.
</event>
<event>
 4   0  0.2441219E-02  0.9118800E+02  0.7818609E-02  0.1379984E+01
      -11   -1    0    0    0    0  0.00000000000E+00  0.00000000000E+00  0.35740347158E-01  0.35744000000E-01  0.51099999109E-03 0.  1.
       11   -1    0    0    0    0 -0.00000000000E+00 -0.00000000000E+00 -0.35740347158E-01  0.35744000000E-01  0.51099999109E-03 0. -1.
       22    1    1    2    0    0 -0.31495711978E-03 -0.34042934293E-02  0.35573096198E-01  0.35737005818E-01  0.00000000000E+00 0.  1.
  9000001    1    1    2    0    0  0.31495711978E-03  0.34042934293E-02 -0.35573096198E-01  0.35750994182E-01  0.10000000475E-02 0. -1.
</event>
<event>
 4   0  0.2441219E-02  0.9118800E+02  0.7818609E-02  0.1379984E+01
      -11   -1    0    0    0    0  0.00000000000E+00  0.00000000000E+00  0.35740347158E-01  0.35744000000E-01  0.51099999109E-03 0.  1.
       11   -1    0    0    0    0 -0.00000000000E+00 -0.00000000000E+00 -0.35740347158E-01  0.35744000000E-01  0.51099999109E-03 0. -1.
       22    1    1    2    0    0  0.18235371807E-01  0.89389157283E-02  0.29405791701E-01  0.35737005818E-01  0.00000000000E+00 0.  1.
  9000001    1    1    2    0    0 -0.18235371807E-01 -0.89389157283E-02 -0.29405791701E-01  0.35750994182E-01  0.10000000475E-02 0. -1.
</event>
<event>
 4   0  0.2441219E-02  0.9118800E+02  0.7818609E-02  0.1379984E+01
      -11   -1    0    0    0    0  0.00000000000E+00  0.00000000000E+00  0.35740347158E-01  0.35744000000E-01  0.51099999109E-03 0. -1.
       11   -1    0    0    0    0 -0.00000000000E+00 -0.00000000000E+00 -0.35740347158E-01  0.35744000000E-01  0.51099999109E-03 0.  1.
       22    1    1    2    0    0 -0.45588517744E-02 -0.57997095747E-02 -0.34967325094E-01  0.35737005818E-01  0.00000000000E+00 0.  1.
  9000001    1    1    2    0    0  0.45588517744E-02  0.57997095747E-02  0.34967325094E-01  0.35750994182E-01  0.10000000475E-02 0. -1.
</event>
<event>
 4   0  0.2441219E-02  0.9118800E+02  0.7818609E-02  0.1379984E+01
      -11   -1    0    0    0    0  0.00000000000E+00  0.00000000000E+00  0.35740347158E-01  0.35744000000E-01  0.51099999109E-03 0.  1.
       11   -1    0    0    0    0 -0.00000000000E+00 -0.00000000000E+00 -0.35740347158E-01  0.35744000000E-01  0.51099999109E-03 0. -1.
       22    1    1    2    0    0 -0.28020237624E-02 -0.30056595031E-02 -0.35499975474E-01  0.35737005818E-01  0.00000000000E+00 0. -1.
  9000001    1    1    2    0    0  0.28020237624E-02  0.30056595031E-02  0.35499975474E-01  0.35750994182E-01  0.10000000475E-02 0.  1.
</event>
<event>
 4   0  0.2441219E-02  0.9118800E+02  0.7818609E-02  0.1379984E+01
      -11   -1    0    0    0    0  0.00000000000E+00  0.00000000000E+00  0.35740347158E-01  0.35744000000E-01  0.51099999109E-03 0.  1.
       11   -1    0    0    0    0 -0.00000000000E+00 -0.00000000000E+00 -0.35740347158E-01  0.35744000000E-01  0.51099999109E-03 0. -1.
       22    1    1    2    0    0 -0.35022207105E-02  0.21514549541E-02  0.35499848965E-01  0.35737005818E-01  0.00000000000E+00 0.  1.
  9000001    1    1    2    0    0  0.35022207105E-02 -0.21514549541E-02 -0.35499848965E-01  0.35750994182E-01  0.10000000475E-02 0. -1.
</event>
<event>
 4   0  0.2441219E-02  0.9118800E+02  0.7818609E-02  0.1379984E+01
      -11   -1    0    0    0    0  0.00000000000E+00  0.00000000000E+00  0.35740347158E-01  0.35744000000E-01  0.51099999109E-03 0.  1.
       11   -1    0    0    0    0 -0.00000000000E+00 -0.00000000000E+00 -0.35740347158E-01  0.35744000000E-01  0.51099999109E-03 0. -1.
       22    1    1    2    0    0 -0.72174857690E-03 -0.35712360289E-01  0.11135467850E-02  0.35737005818E-01  0.00000000000E+00 0.  1.
  9000001    1    1    2    0    0  0.72174857690E-03  0.35712360289E-01 -0.11135467850E-02  0.35750994182E-01  0.10000000475E-02 0. -1.
</event>
<event>
 4   0  0.2441219E-02  0.9118800E+02  0.7818609E-02  0.1379984E+01
      -11   -1    0    0    0    0  0.00000000000E+00  0.00000000000E+00  0.35740347158E-01  0.35744000000E-01  0.51099999109E-03 0. -1.
       11   -1    0    0    0    0 -0.00000000000E+00 -0.00000000000E+00 -0.35740347158E-01  0.35744000000E-01  0.51099999109E-03 0.  1.
       22    1    1    2    0    0 -0.21912793854E-02 -0.22220346572E-02  0.35600483726E-01  0.35737005818E-01  0.00000000000E+00 0. -1.
  9000001    1    1    2    0    0  0.21912793854E-02  0.22220346572E-02 -0.35600483726E-01  0.35750994182E-01  0.10000000475E-02 0.  1.
</event>
<event>
 4   0  0.2441219E-02  0.9118800E+02  0.7818609E-02  0.1379984E+01
      -11   -1    0    0    0    0  0.00000000000E+00  0.00000000000E+00  0.35740347158E-01  0.35744000000E-01  0.51099999109E-03 0.  1.
       11   -1    0    0    0    0 -0.00000000000E+00 -0.00000000000E+00 -0.35740347158E-01  0.35744000000E-01  0.51099999109E-03 0. -1.
       22    1    1    2    0    0  0.46003711509E-02  0.35929719640E-02 -0.35257066279E-01  0.35737005818E-01  0.00000000000E+00 0. -1.
  9000001    1    1    2    0    0 -0.46003711509E-02 -0.35929719640E-02  0.35257066279E-01  0.35750994182E-01  0.10000000475E-02 0.  1.
</event>
<event>
 4   0  0.2441219E-02  0.9118800E+02  0.7818609E-02  0.1379984E+01
      -11   -1    0    0    0    0  0.00000000000E+00  0.00000000000E+00  0.35740347158E-01  0.35744000000E-01  0.51099999109E-03 0. -1.
       11   -1    0    0    0    0 -0.00000000000E+00 -0.00000000000E+00 -0.35740347158E-01  0.35744000000E-01  0.51099999109E-03 0.  1.
       22    1    1    2    0    0  0.48247153606E-02 -0.46943751282E-03  0.35406713134E-01  0.35737005818E-01  0.00000000000E+00 0. -1.
  9000001    1    1    2    0    0 -0.48247153606E-02  0.46943751282E-03 -0.35406713134E-01  0.35750994182E-01  0.10000000475E-02 0.  1.
</event>
<event>
 4   0  0.2441219E-02  0.9118800E+02  0.7818609E-02  0.1379984E+01
      -11   -1    0    0    0    0  0.00000000000E+00  0.00000000000E+00  0.35740347158E-01  0.35744000000E-01  0.51099999109E-03 0.  1.
       11   -1    0    0    0    0 -0.00000000000E+00 -0.00000000000E+00 -0.35740347158E-01  0.35744000000E-01  0.51099999109E-03 0. -1.
       22    1    1    2    0    0  0.21790374432E-01  0.13635736920E-02  0.28292292834E-01  0.35737005818E-01  0.00000000000E+00 0.  1.
  9000001    1    1    2    0    0 -0.21790374432E-01 -0.13635736920E-02 -0.28292292834E-01  0.35750994182E-01  0.10000000475E-02 0. -1.
</event>
<event>
 4   0  0.2441219E-02  0.9118800E+02  0.7818609E-02  0.1379984E+01
      -11   -1    0    0    0    0  0.00000000000E+00  0.00000000000E+00  0.35740347158E-01  0.35744000000E-01  0.51099999109E-03 0. -1.
       11   -1    0    0    0    0 -0.00000000000E+00 -0.00000000000E+00 -0.35740347158E-01  0.35744000000E-01  0.51099999109E-03 0.  1.
       22    1    1    2    0    0 -0.72686980272E-02 -0.21405322688E-01  0.27678724221E-01  0.35737005818E-01  0.00000000000E+00 0. -1.
  9000001    1    1    2    0    0  0.72686980272E-02  0.21405322688E-01 -0.27678724221E-01  0.35750994182E-01  0.10000000475E-02 0.  1.
</event>
<event>
 4   0  0.2441219E-02  0.9118800E+02  0.7818609E-02  0.1379984E+01
      -11   -1    0    0    0    0  0.00000000000E+00  0.00000000000E+00  0.35740347158E-01  0.35744000000E-01  0.51099999109E-03 0.  1.
       11   -1    0    0    0    0 -0.00000000000E+00 -0.00000000000E+00 -0.35740347158E-01  0.35744000000E-01  0.51099999109E-03 0. -1.
       22    1    1    2    0    0 -0.58766611095E-02 -0.21437448915E-02 -0.35185263917E-01  0.35737005818E-01  0.00000000000E+00 0. -1.
  9000001    1    1    2    0    0  0.58766611095E-02  0.21437448915E-02  0.35185263917E-01  0.35750994182E-01  0.10000000475E-02 0.  1.
</event>
<event>
 4   0  0.2441219E-02  0.9118800E+02  0.7818609E-02  0.1379984E+01
      -11   -1    0    0    0    0  0.00000000000E+00  0.00000000000E+00  0.35740347158E-01  0.35744000000E-01  0.51099999109E-03 0. -1.
       11   -1    0    0    0    0 -0.00000000000E+00 -0.00000000000E+00 -0.35740347158E-01  0.35744000000E-01  0.51099999109E-03 0.  1.
       22    1    1    2    0    0  0.18551512558E-02  0.25123881487E-02  0.35600279556E-01  0.35737005818E-01  0.00000000000E+00 0. -1.
  9000001    1    1    2    0    0 -0.18551512558E-02 -0.25123881487E-02 -0.35600279556E-01  0.35750994182E-01  0.10000000475E-02 0.  1.
</event>
<event>
 4   0  0.2441219E-02  0.9118800E+02  0.7818609E-02  0.1379984E+01
      -11   -1    0    0    0    0  0.00000000000E+00  0.00000000000E+00  0.35740347158E-01  0.35744000000E-01  0.51099999109E-03 0.  1.
       11   -1    0    0    0    0 -0.00000000000E+00 -0.00000000000E+00 -0.35740347158E-01  0.35744000000E-01  0.51099999109E-03 0. -1.
       22    1    1    2    0    0  0.15663983575E-01 -0.12446564776E-01  0.29611758285E-01  0.35737005818E-01  0.00000000000E+00 0.  1.
  9000001    1    1    2    0    0 -0.15663983575E-01  0.12446564776E-01 -0.29611758285E-01  0.35750994182E-01  0.10000000475E-02 0. -1.
</event>
<event>
 4   0  0.2441219E-02  0.9118800E+02  0.7818609E-02  0.1379984E+01
      -11   -1    0    0    0    0  0.00000000000E+00  0.00000000000E+00  0.35740347158E-01  0.35744000000E-01  0.51099999109E-03 0.  1.
       11   -1    0    0    0    0 -0.00000000000E+00 -0.00000000000E+00 -0.35740347158E-01  0.35744000000E-01  0.51099999109E-03 0. -1.
       22    1    1    2    0    0  0.11206827479E-02  0.29712206871E-01 -0.19825801822E-01  0.35737005818E-01  0.00000000000E+00 0. -1.
  9000001    1    1    2    0    0 -0.11206827479E-02 -0.29712206871E-01  0.19825801822E-01  0.35750994182E-01  0.10000000475E-02 0.  1.
</event>
<event>
 4   0  0.2441219E-02  0.9118800E+02  0.7818609E-02  0.1379984E+01
      -11   -1    0    0    0    0  0.00000000000E+00  0.00000000000E+00  0.35740347158E-01  0.35744000000E-01  0.51099999109E-03 0.  1.
       11   -1    0    0    0    0 -0.00000000000E+00 -0.00000000000E+00 -0.35740347158E-01  0.35744000000E-01  0.51099999109E-03 0. -1.
       22    1    1    2    0    0 -0.34697636608E-01 -0.65229813273E-02 -0.55369949723E-02  0.35737005818E-01  0.00000000000E+00 0.  1.
  9000001    1    1    2    0    0  0.34697636608E-01  0.65229813273E-02  0.55369949723E-02  0.35750994182E-01  0.10000000475E-02 0. -1.
</event>
<event>
 4   0  0.2441219E-02  0.9118800E+02  0.7818609E-02  0.1379984E+01
      -11   -1    0    0    0    0  0.00000000000E+00  0.00000000000E+00  0.35740347158E-01  0.35744000000E-01  0.51099999109E-03 0.  1.
       11   -1    0    0    0    0 -0.00000000000E+00 -0.00000000000E+00 -0.35740347158E-01  0.35744000000E-01  0.51099999109E-03 0. -1.
       22    1    1    2    0    0 -0.25949761926E-02 -0.11145041777E-01  0.33855394359E-01  0.35737005818E-01  0.00000000000E+00 0.  1.
  9000001    1    1    2    0    0  0.25949761926E-02  0.11145041777E-01 -0.33855394359E-01  0.35750994182E-01  0.10000000475E-02 0. -1.
</event>
<event>
 4   0  0.2441219E-02  0.9118800E+02  0.7818609E-02  0.1379984E+01
      -11   -1    0    0    0    0  0.00000000000E+00  0.00000000000E+00  0.35740347158E-01  0.35744000000E-01  0.51099999109E-03 0.  1.
       11   -1    0    0    0    0 -0.00000000000E+00 -0.00000000000E+00 -0.35740347158E-01  0.35744000000E-01  0.51099999109E-03 0. -1.
       22    1    1    2    0    0 -0.64696117824E-03  0.46380020640E-02 -0.35428857771E-01  0.35737005818E-01  0.00000000000E+00 0. -1.
  9000001    1    1    2    0    0  0.64696117824E-03 -0.46380020640E-02  0.35428857771E-01  0.35750994182E-01  0.10000000475E-02 0.  1.
</event>
<event>
 4   0  0.2441219E-02  0.9118800E+02  0.7818609E-02  0.1379984E+01
      -11   -1    0    0    0    0  0.00000000000E+00  0.00000000000E+00  0.35740347158E-01  0.35744000000E-01  0.51099999109E-03 0. -1.
       11   -1    0    0    0    0 -0.00000000000E+00 -0.00000000000E+00 -0.35740347158E-01  0.35744000000E-01  0.51099999109E-03 0.  1.
       22    1    1    2    0    0  0.83924380795E-02  0.35133121980E-02  0.34559473453E-01  0.35737005818E-01  0.00000000000E+00 0. -1.
  9000001    1    1    2    0    0 -0.83924380795E-02 -0.35133121980E-02 -0.34559473453E-01  0.35750994182E-01  0.10000000475E-02 0.  1.
</event>
<event>
 4   0  0.2441219E-02  0.9118800E+02  0.7818609E-02  0.1379984E+01
      -11   -1    0    0    0    0  0.00000000000E+00  0.00000000000E+00  0.35740347158E-01  0.35744000000E-01  0.51099999109E-03 0.  1.
       11   -1    0    0    0    0 -0.00000000000E+00 -0.00000000000E+00 -0.35740347158E-01  0.35744000000E-01  0.51099999109E-03 0. -1.
       22    1    1    2    0    0 -0.37892523450E-02 -0.27232556248E-02 -0.35431046137E-01  0.35737005818E-01  0.00000000000E+00 0. -1.
  9000001    1    1    2    0    0  0.37892523450E-02  0.27232556248E-02  0.35431046137E-01  0.35750994182E-01  0.10000000475E-02 0.  1.
</event>
<event>
 4   0  0.2441219E-02  0.9118800E+02  0.7818609E-02  0.1379984E+01
      -11   -1    0    0    0    0  0.00000000000E+00  0.00000000000E+00  0.35740347158E-01  0.35744000000E-01  0.51099999109E-03 0.  1.
       11   -1    0    0    0    0 -0.00000000000E+00 -0.00000000000E+00 -0.35740347158E-01  0.35744000000E-01  0.51099999109E-03 0. -1.
       22    1    1    2    0    0  0.21355939135E-02  0.41690562707E-02  0.35428686023E-01  0.35737005818E-01  0.00000000000E+00 0.  1.
  9000001    1    1    2    0    0 -0.21355939135E-02 -0.41690562707E-02 -0.35428686023E-01  0.35750994182E-01  0.10000000475E-02 0. -1.
</event>
<event>
 4   0  0.2441219E-02  0.9118800E+02  0.7818609E-02  0.1379984E+01
      -11   -1    0    0    0    0  0.00000000000E+00  0.00000000000E+00  0.35740347158E-01  0.35744000000E-01  0.51099999109E-03 0. -1.
       11   -1    0    0    0    0 -0.00000000000E+00 -0.00000000000E+00 -0.35740347158E-01  0.35744000000E-01  0.51099999109E-03 0.  1.
       22    1    1    2    0    0 -0.80328392453E-02 -0.95673883298E-02 -0.33482415670E-01  0.35737005818E-01  0.00000000000E+00 0.  1.
  9000001    1    1    2    0    0  0.80328392453E-02  0.95673883298E-02  0.33482415670E-01  0.35750994182E-01  0.10000000475E-02 0. -1.
</event>
<event>
 4   0  0.2441219E-02  0.9118800E+02  0.7818609E-02  0.1379984E+01
      -11   -1    0    0    0    0  0.00000000000E+00  0.00000000000E+00  0.35740347158E-01  0.35744000000E-01  0.51099999109E-03 0. -1.
       11   -1    0    0    0    0 -0.00000000000E+00 -0.00000000000E+00 -0.35740347158E-01  0.35744000000E-01  0.51099999109E-03 0.  1.
       22    1    1    2    0    0 -0.32617954171E-01 -0.72547136938E-02  0.12671692065E-01  0.35737005818E-01  0.00000000000E+00 0. -1.
  9000001    1    1    2    0    0  0.32617954171E-01  0.72547136938E-02 -0.12671692065E-01  0.35750994182E-01  0.10000000475E-02 0.  1.
</event>
<event>
 4   0  0.2441219E-02  0.9118800E+02  0.7818609E-02  0.1379984E+01
      -11   -1    0    0    0    0  0.00000000000E+00  0.00000000000E+00  0.35740347158E-01  0.35744000000E-01  0.51099999109E-03 0.  1.
       11   -1    0    0    0    0 -0.00000000000E+00 -0.00000000000E+00 -0.35740347158E-01  0.35744000000E-01  0.51099999109E-03 0. -1.
       22    1    1    2    0    0 -0.31417415542E-02  0.38285898750E-03  0.35596579384E-01  0.35737005818E-01  0.00000000000E+00 0.  1.
  9000001    1    1    2    0    0  0.31417415542E-02 -0.38285898750E-03 -0.35596579384E-01  0.35750994182E-01  0.10000000475E-02 0. -1.
</event>
<event>
 4   0  0.2441219E-02  0.9118800E+02  0.7818609E-02  0.1379984E+01
      -11   -1    0    0    0    0  0.00000000000E+00  0.00000000000E+00  0.35740347158E-01  0.35744000000E-01  0.51099999109E-03 0. -1.
       11   -1    0    0    0    0 -0.00000000000E+00 -0.00000000000E+00 -0.35740347158E-01  0.35744000000E-01  0.51099999109E-03 0.  1.
       22    1    1    2    0    0  0.55127388146E-02  0.52578035929E-02 -0.34915595327E-01  0.35737005818E-01  0.00000000000E+00 0.  1.
  9000001    1    1    2    0    0 -0.55127388146E-02 -0.52578035929E-02  0.34915595327E-01  0.35750994182E-01  0.10000000475E-02 0. -1.
</event>
<event>
 4   0  0.2441219E-02  0.9118800E+02  0.7818609E-02  0.1379984E+01
      -11   -1    0    0    0    0  0.00000000000E+00  0.00000000000E+00  0.35740347158E-01  0.35744000000E-01  0.51099999109E-03 0. -1.
       11   -1    0    0    0    0 -0.00000000000E+00 -0.00000000000E+00 -0.35740347158E-01  0.35744000000E-01  0.51099999109E-03 0.  1.
       22    1    1    2    0    0 -0.14935783014E-01 -0.27412222307E-01 -0.17396150114E-01  0.35737005818E-01  0.00000000000E+00 0.  1.
  9000001    1    1    2    0    0  0.14935783014E-01  0.27412222307E-01  0.17396150114E-01  0.35750994182E-01  0.10000000475E-02 0. -1.
</event>
<event>
 4   0  0.2441219E-02  0.9118800E+02  0.7818609E-02  0.1379984E+01
      -11   -1    0    0    0    0  0.00000000000E+00  0.00000000000E+00  0.35740347158E-01  0.35744000000E-01  0.51099999109E-03 0. -1.
       11   -1    0    0    0    0 -0.00000000000E+00 -0.00000000000E+00 -0.35740347158E-01  0.35744000000E-01  0.51099999109E-03 0.  1.
       22    1    1    2    0    0  0.12489781726E-01 -0.18419487402E-01  0.27961785014E-01  0.35737005818E-01  0.00000000000E+00 0. -1.
  9000001    1    1    2    0    0 -0.12489781726E-01  0.18419487402E-01 -0.27961785014E-01  0.35750994182E-01  0.10000000475E-02 0.  1.
</event>
<event>
 4   0  0.2441219E-02  0.9118800E+02  0.7818609E-02  0.1379984E+01
      -11   -1    0    0    0    0  0.00000000000E+00  0.00000000000E+00  0.35740347158E-01  0.35744000000E-01  0.51099999109E-03 0. -1.
       11   -1    0    0    0    0 -0.00000000000E+00 -0.00000000000E+00 -0.35740347158E-01  0.35744000000E-01  0.51099999109E-03 0.  1.
       22    1    1    2    0    0 -0.34251715530E-02  0.56044248122E-03  0.35568071201E-01  0.35737005818E-01  0.00000000000E+00 0. -1.
  9000001    1    1    2    0    0  0.34251715530E-02 -0.56044248122E-03 -0.35568071201E-01  0.35750994182E-01  0.10000000475E-02 0.  1.
</event>
<event>
 4   0  0.2441219E-02  0.9118800E+02  0.7818609E-02  0.1379984E+01
      -11   -1    0    0    0    0  0.00000000000E+00  0.00000000000E+00  0.35740347158E-01  0.35744000000E-01  0.51099999109E-03 0. -1.
       11   -1    0    0    0    0 -0.00000000000E+00 -0.00000000000E+00 -0.35740347158E-01  0.35744000000E-01  0.51099999109E-03 0.  1.
       22    1    1    2    0    0 -0.25204442273E-01  0.72890298978E-02 -0.24263959234E-01  0.35737005818E-01  0.00000000000E+00 0.  1.
  9000001    1    1    2    0    0  0.25204442273E-01 -0.72890298978E-02  0.24263959234E-01  0.35750994182E-01  0.10000000475E-02 0. -1.
</event>
<event>
 4   0  0.2441219E-02  0.9118800E+02  0.7818609E-02  0.1379984E+01
      -11   -1    0    0    0    0  0.00000000000E+00  0.00000000000E+00  0.35740347158E-01  0.35744000000E-01  0.51099999109E-03 0. -1.
       11   -1    0    0    0    0 -0.00000000000E+00 -0.00000000000E+00 -0.35740347158E-01  0.35744000000E-01  0.51099999109E-03 0.  1.
       22    1    1    2    0    0 -0.63153640482E-02  0.30037859461E-02  0.35046070133E-01  0.35737005818E-01  0.00000000000E+00 0. -1.
  9000001    1    1    2    0    0  0.63153640482E-02 -0.30037859461E-02 -0.35046070133E-01  0.35750994182E-01  0.10000000475E-02 0.  1.
</event>
<event>
 4   0  0.2441219E-02  0.9118800E+02  0.7818609E-02  0.1379984E+01
      -11   -1    0    0    0    0  0.00000000000E+00  0.00000000000E+00  0.35740347158E-01  0.35744000000E-01  0.51099999109E-03 0. -1.
       11   -1    0    0    0    0 -0.00000000000E+00 -0.00000000000E+00 -0.35740347158E-01  0.35744000000E-01  0.51099999109E-03 0.  1.
       22    1    1    2    0    0 -0.18395291730E-02 -0.77088943508E-02  0.34847132811E-01  0.35737005818E-01  0.00000000000E+00 0. -1.
  9000001    1    1    2    0    0  0.18395291730E-02  0.77088943508E-02 -0.34847132811E-01  0.35750994182E-01  0.10000000475E-02 0.  1.
</event>
<event>
 4   0  0.2441219E-02  0.9118800E+02  0.7818609E-02  0.1379984E+01
      -11   -1    0    0    0    0  0.00000000000E+00  0.00000000000E+00  0.35740347158E-01  0.35744000000E-01  0.51099999109E-03 0.  1.
       11   -1    0    0    0    0 -0.00000000000E+00 -0.00000000000E+00 -0.35740347158E-01  0.35744000000E-01  0.51099999109E-03 0. -1.
       22    1    1    2    0    0 -0.40423821562E-02 -0.10882304874E-01 -0.33798937439E-01  0.35737005818E-01  0.00000000000E+00 0. -1.
  9000001    1    1    2    0    0  0.40423821562E-02  0.10882304874E-01  0.33798937439E-01  0.35750994182E-01  0.10000000475E-02 0.  1.
</event>
<event>
 4   0  0.2441219E-02  0.9118800E+02  0.7818609E-02  0.1379984E+01
      -11   -1    0    0    0    0  0.00000000000E+00  0.00000000000E+00  0.35740347158E-01  0.35744000000E-01  0.51099999109E-03 0. -1.
       11   -1    0    0    0    0 -0.00000000000E+00 -0.00000000000E+00 -0.35740347158E-01  0.35744000000E-01  0.51099999109E-03 0.  1.
       22    1    1    2    0    0 -0.13820755392E-01 -0.15828252800E-02 -0.32918307511E-01  0.35737005818E-01  0.00000000000E+00 0.  1.
  9000001    1    1    2    0    0  0.13820755392E-01  0.15828252800E-02  0.32918307511E-01  0.35750994182E-01  0.10000000475E-02 0. -1.
</event>
<event>
 4   0  0.2441219E-02  0.9118800E+02  0.7818609E-02  0.1379984E+01
      -11   -1    0    0    0    0  0.00000000000E+00  0.00000000000E+00  0.35740347158E-01  0.35744000000E-01  0.51099999109E-03 0.  1.
       11   -1    0    0    0    0 -0.00000000000E+00 -0.00000000000E+00 -0.35740347158E-01  0.35744000000E-01  0.51099999109E-03 0. -1.
       22    1    1    2    0    0 -0.25599369761E-01  0.23152060897E-01  0.92621773327E-02  0.35737005818E-01  0.00000000000E+00 0.  1.
  9000001    1    1    2    0    0  0.25599369761E-01 -0.23152060897E-01 -0.92621773327E-02  0.35750994182E-01  0.10000000475E-02 0. -1.
</event>
<event>
 4   0  0.2441219E-02  0.9118800E+02  0.7818609E-02  0.1379984E+01
      -11   -1    0    0    0    0  0.00000000000E+00  0.00000000000E+00  0.35740347158E-01  0.35744000000E-01  0.51099999109E-03 0.  1.
       11   -1    0    0    0    0 -0.00000000000E+00 -0.00000000000E+00 -0.35740347158E-01  0.35744000000E-01  0.51099999109E-03 0. -1.
       22    1    1    2    0    0  0.76852849081E-02 -0.18027187650E-01 -0.29884619559E-01  0.35737005818E-01  0.00000000000E+00 0. -1.
  9000001    1    1    2    0    0 -0.76852849081E-02  0.18027187650E-01  0.29884619559E-01  0.35750994182E-01  0.10000000475E-02 0.  1.
</event>
<event>
 4   0  0.2441219E-02  0.9118800E+02  0.7818609E-02  0.1379984E+01
      -11   -1    0    0    0    0  0.00000000000E+00  0.00000000000E+00  0.35740347158E-01  0.35744000000E-01  0.51099999109E-03 0. -1.
       11   -1    0    0    0    0 -0.00000000000E+00 -0.00000000000E+00 -0.35740347158E-01  0.35744000000E-01  0.51099999109E-03 0.  1.
       22    1    1    2    0    0  0.67784417601E-02 -0.40069725617E-02 -0.34858721765E-01  0.35737005818E-01  0.00000000000E+00 0.  1.
  9000001    1    1    2    0    0 -0.67784417601E-02  0.40069725617E-02  0.34858721765E-01  0.35750994182E-01  0.10000000475E-02 0. -1.
</event>
<event>
 4   0  0.2441219E-02  0.9118800E+02  0.7818609E-02  0.1379984E+01
      -11   -1    0    0    0    0  0.00000000000E+00  0.00000000000E+00  0.35740347158E-01  0.35744000000E-01  0.51099999109E-03 0. -1.
       11   -1    0    0    0    0 -0.00000000000E+00 -0.00000000000E+00 -0.35740347158E-01  0.35744000000E-01  0.51099999109E-03 0.  1.
       22    1    1    2    0    0 -0.10696076473E-01 -0.96845283014E-02 -0.32694608799E-01  0.35737005818E-01  0.00000000000E+00 0.  1.
  9000001    1    1    2    0    0  0.10696076473E-01  0.96845283014E-02  0.32694608799E-01  0.35750994182E-01  0.10000000475E-02 0. -1.
</event>
<event>
 4   0  0.2441219E-02  0.9118800E+02  0.7818609E-02  0.1379984E+01
      -11   -1    0    0    0    0  0.00000000000E+00  0.00000000000E+00  0.35740347158E-01  0.35744000000E-01  0.51099999109E-03 0.  1.
       11   -1    0    0    0    0 -0.00000000000E+00 -0.00000000000E+00 -0.35740347158E-01  0.35744000000E-01  0.51099999109E-03 0. -1.
       22    1    1    2    0    0 -0.18609073525E-01  0.25428644340E-02 -0.30403450592E-01  0.35737005818E-01  0.00000000000E+00 0. -1.
  9000001    1    1    2    0    0  0.18609073525E-01 -0.25428644340E-02  0.30403450592E-01  0.35750994182E-01  0.10000000475E-02 0.  1.
</event>
<event>
 4   0  0.2441219E-02  0.9118800E+02  0.7818609E-02  0.1379984E+01
      -11   -1    0    0    0    0  0.00000000000E+00  0.00000000000E+00  0.35740347158E-01  0.35744000000E-01  0.51099999109E-03 0.  1.
       11   -1    0    0    0    0 -0.00000000000E+00 -0.00000000000E+00 -0.35740347158E-01  0.35744000000E-01  0.51099999109E-03 0. -1.
       22    1    1    2    0    0 -0.71489964800E-02 -0.29089306325E-01  0.19489425126E-01  0.35737005818E-01  0.00000000000E+00 0.  1.
  9000001    1    1    2    0    0  0.71489964800E-02  0.29089306325E-01 -0.19489425126E-01  0.35750994182E-01  0.10000000475E-02 0. -1.
</event>
<event>
 4   0  0.2441219E-02  0.9118800E+02  0.7818609E-02  0.1379984E+01
      -11   -1    0    0    0    0  0.00000000000E+00  0.00000000000E+00  0.35740347158E-01  0.35744000000E-01  0.51099999109E-03 0.  1.
       11   -1    0    0    0    0 -0.00000000000E+00 -0.00000000000E+00 -0.35740347158E-01  0.35744000000E-01  0.51099999109E-03 0. -1.
       22    1    1    2    0    0 -0.20652552571E-02 -0.60419343793E-02  0.35161958628E-01  0.35737005818E-01  0.00000000000E+00 0.  1.
  9000001    1    1    2    0    0  0.20652552571E-02  0.60419343793E-02 -0.35161958628E-01  0.35750994182E-01  0.10000000475E-02 0. -1.
</event>
<event>
 4   0  0.2441219E-02  0.9118800E+02  0.7818609E-02  0.1379984E+01
      -11   -1    0    0    0    0  0.00000000000E+00  0.00000000000E+00  0.35740347158E-01  0.35744000000E-01  0.51099999109E-03 0.  1.
       11   -1    0    0    0    0 -0.00000000000E+00 -0.00000000000E+00 -0.35740347158E-01  0.35744000000E-01  0.51099999109E-03 0. -1.
       22    1    1    2    0    0  0.11227436847E-01  0.23358635076E-01 -0.24605942658E-01  0.35737005818E-01  0.00000000000E+00 0. -1.
  9000001    1    1    2    0    0 -0.11227436847E-01 -0.23358635076E-01  0.24605942658E-01  0.35750994182E-01  0.10000000475E-02 0.  1.
</event>
<event>
 4   0  0.2441219E-02  0.9118800E+02  0.7818609E-02  0.1379984E+01
      -11   -1    0    0    0    0  0.00000000000E+00  0.00000000000E+00  0.35740347158E-01  0.35744000000E-01  0.51099999109E-03 0.  1.
       11   -1    0    0    0    0 -0.00000000000E+00 -0.00000000000E+00 -0.35740347158E-01  0.35744000000E-01  0.51099999109E-03 0. -1.
       22    1    1    2    0    0 -0.29206383458E-02 -0.10388605899E-02 -0.35602306459E-01  0.35737005818E-01  0.00000000000E+00 0. -1.
  9000001    1    1    2    0    0  0.29206383458E-02  0.10388605899E-02  0.35602306459E-01  0.35750994182E-01  0.10000000475E-02 0.  1.
</event>
<event>
 4   0  0.2441219E-02  0.9118800E+02  0.7818609E-02  0.1379984E+01
      -11   -1    0    0    0    0  0.00000000000E+00  0.00000000000E+00  0.35740347158E-01  0.35744000000E-01  0.51099999109E-03 0. -1.
       11   -1    0    0    0    0 -0.00000000000E+00 -0.00000000000E+00 -0.35740347158E-01  0.35744000000E-01  0.51099999109E-03 0.  1.
       22    1    1    2    0    0  0.20122164867E-02 -0.35506833740E-02 -0.35503200099E-01  0.35737005818E-01  0.00000000000E+00 0.  1.
  9000001    1    1    2    0    0 -0.20122164867E-02  0.35506833740E-02  0.35503200099E-01  0.35750994182E-01  0.10000000475E-02 0. -1.
</event>
<event>
 4   0  0.2441219E-02  0.9118800E+02  0.7818609E-02  0.1379984E+01
      -11   -1    0    0    0    0  0.00000000000E+00  0.00000000000E+00  0.35740347158E-01  0.35744000000E-01  0.51099999109E-03 0. -1.
       11   -1    0    0    0    0 -0.00000000000E+00 -0.00000000000E+00 -0.35740347158E-01  0.35744000000E-01  0.51099999109E-03 0.  1.
       22    1    1    2    0    0  0.93937610977E-02 -0.34198558349E-01  0.43988003117E-02  0.35737005818E-01  0.00000000000E+00 0. -1.
  9000001    1    1    2    0    0 -0.93937610977E-02  0.34198558349E-01 -0.43988003117E-02  0.35750994182E-01  0.10000000475E-02 0.  1.
</event>
<event>
 4   0  0.2441219E-02  0.9118800E+02  0.7818609E-02  0.1379984E+01
      -11   -1    0    0    0    0  0.00000000000E+00  0.00000000000E+00  0.35740347158E-01  0.35744000000E-01  0.51099999109E-03 0.  1.
       11   -1    0    0    0    0 -0.00000000000E+00 -0.00000000000E+00 -0.35740347158E-01  0.35744000000E-01  0.51099999109E-03 0. -1.
       22    1    1    2    0    0  0.50300705017E-02  0.19741996523E-02 -0.35326116562E-01  0.35737005818E-01  0.00000000000E+00 0. -1.
  9000001    1    1    2    0    0 -0.50300705017E-02 -0.19741996523E-02  0.35326116562E-01  0.35750994182E-01  0.10000000475E-02 0.  1.
</event>
<event>
 4   0  0.2441219E-02  0.9118800E+02  0.7818609E-02  0.1379984E+01
      -11   -1    0    0    0    0  0.00000000000E+00  0.00000000000E+00  0.35740347158E-01  0.35744000000E-01  0.51099999109E-03 0.  1.
       11   -1    0    0    0    0 -0.00000000000E+00 -0.00000000000E+00 -0.35740347158E-01  0.35744000000E-01  0.51099999109E-03 0. -1.
       22    1    1    2    0    0 -0.17057671349E-02  0.47755252664E-02 -0.35375391189E-01  0.35737005818E-01  0.00000000000E+00 0. -1.
  9000001    1    1    2    0    0  0.17057671349E-02 -0.47755252664E-02  0.35375391189E-01  0.35750994182E-01  0.10000000475E-02 0.  1.
</event>
<event>
 4   0  0.2441219E-02  0.9118800E+02  0.7818609E-02  0.1379984E+01
      -11   -1    0    0    0    0  0.00000000000E+00  0.00000000000E+00  0.35740347158E-01  0.35744000000E-01  0.51099999109E-03 0. -1.
       11   -1    0    0    0    0 -0.00000000000E+00 -0.00000000000E+00 -0.35740347158E-01  0.35744000000E-01  0.51099999109E-03 0.  1.
       22    1    1    2    0    0  0.56814046873E-02 -0.16856947599E-02 -0.35242214159E-01  0.35737005818E-01  0.00000000000E+00 0.  1.
  9000001    1    1    2    0    0 -0.56814046873E-02  0.16856947599E-02  0.35242214159E-01  0.35750994182E-01  0.10000000475E-02 0. -1.
</event>
<event>
 4   0  0.2441219E-02  0.9118800E+02  0.7818609E-02  0.1379984E+01
      -11   -1    0    0    0    0  0.00000000000E+00  0.00000000000E+00  0.35740347158E-01  0.35744000000E-01  0.51099999109E-03 0. -1.
       11   -1    0    0    0    0 -0.00000000000E+00 -0.00000000000E+00 -0.35740347158E-01  0.35744000000E-01  0.51099999109E-03 0.  1.
       22    1    1    2    0    0  0.22876546997E-01 -0.17640838524E-02  0.27398634830E-01  0.35737005818E-01  0.00000000000E+00 0. -1.
  9000001    1    1    2    0    0 -0.22876546997E-01  0.17640838524E-02 -0.27398634830E-01  0.35750994182E-01  0.10000000475E-02 0.  1.
</event>
<event>
 4   0  0.2441219E-02  0.9118800E+02  0.7818609E-02  0.1379984E+01
      -11   -1    0    0    0    0  0.00000000000E+00  0.00000000000E+00  0.35740347158E-01  0.35744000000E-01  0.51099999109E-03 0. -1.
       11   -1    0    0    0    0 -0.00000000000E+00 -0.00000000000E+00 -0.35740347158E-01  0.35744000000E-01  0.51099999109E-03 0.  1.
       22    1    1    2    0    0 -0.10111002274E-01 -0.34276711069E-01 -0.91083411865E-04  0.35737005818E-01  0.00000000000E+00 0.  1.
  9000001    1    1    2    0    0  0.10111002274E-01  0.34276711069E-01  0.91083411865E-04  0.35750994182E-01  0.10000000475E-02 0. -1.
</event>
<event>
 4   0  0.2441219E-02  0.9118800E+02  0.7818609E-02  0.1379984E+01
      -11   -1    0    0    0    0  0.00000000000E+00  0.00000000000E+00  0.35740347158E-01  0.35744000000E-01  0.51099999109E-03 0. -1.
       11   -1    0    0    0    0 -0.00000000000E+00 -0.00000000000E+00 -0.35740347158E-01  0.35744000000E-01  0.51099999109E-03 0.  1.
       22    1    1    2    0    0  0.16632279765E-01 -0.99867521839E-02  0.30012757879E-01  0.35737005818E-01  0.00000000000E+00 0. -1.
  9000001    1    1    2    0    0 -0.16632279765E-01  0.99867521839E-02 -0.30012757879E-01  0.35750994182E-01  0.10000000475E-02 0.  1.
</event>
<event>
 4   0  0.2441219E-02  0.9118800E+02  0.7818609E-02  0.1379984E+01
      -11   -1    0    0    0    0  0.00000000000E+00  0.00000000000E+00  0.35740347158E-01  0.35744000000E-01  0.51099999109E-03 0.  1.
       11   -1    0    0    0    0 -0.00000000000E+00 -0.00000000000E+00 -0.35740347158E-01  0.35744000000E-01  0.51099999109E-03 0. -1.
       22    1    1    2    0    0  0.31576076169E-02 -0.61014019017E-02  0.35070443308E-01  0.35737005818E-01  0.00000000000E+00 0.  1.
  9000001    1    1    2    0    0 -0.31576076169E-02  0.61014019017E-02 -0.35070443308E-01  0.35750994182E-01  0.10000000475E-02 0. -1.
</event>
<event>
 4   0  0.2441219E-02  0.9118800E+02  0.7818609E-02  0.1379984E+01
      -11   -1    0    0    0    0  0.00000000000E+00  0.00000000000E+00  0.35740347158E-01  0.35744000000E-01  0.51099999109E-03 0.  1.
       11   -1    0    0    0    0 -0.00000000000E+00 -0.00000000000E+00 -0.35740347158E-01  0.35744000000E-01  0.51099999109E-03 0. -1.
       22    1    1    2    0    0 -0.36808590596E-02  0.54847637243E-02 -0.35121250381E-01  0.35737005818E-01  0.00000000000E+00 0. -1.
  9000001    1    1    2    0    0  0.36808590596E-02 -0.54847637243E-02  0.35121250381E-01  0.35750994182E-01  0.10000000475E-02 0.  1.
</event>
<event>
 4   0  0.2441219E-02  0.9118800E+02  0.7818609E-02  0.1379984E+01
      -11   -1    0    0    0    0  0.00000000000E+00  0.00000000000E+00  0.35740347158E-01  0.35744000000E-01  0.51099999109E-03 0. -1.
       11   -1    0    0    0    0 -0.00000000000E+00 -0.00000000000E+00 -0.35740347158E-01  0.35744000000E-01  0.51099999109E-03 0.  1.
       22    1    1    2    0    0  0.33265837862E-02 -0.63697724663E-02  0.35007048203E-01  0.35737005818E-01  0.00000000000E+00 0. -1.
  9000001    1    1    2    0    0 -0.33265837862E-02  0.63697724663E-02 -0.35007048203E-01  0.35750994182E-01  0.10000000475E-02 0.  1.
</event>
<event>
 4   0  0.2441219E-02  0.9118800E+02  0.7818609E-02  0.1379984E+01
      -11   -1    0    0    0    0  0.00000000000E+00  0.00000000000E+00  0.35740347158E-01  0.35744000000E-01  0.51099999109E-03 0. -1.
       11   -1    0    0    0    0 -0.00000000000E+00 -0.00000000000E+00 -0.35740347158E-01  0.35744000000E-01  0.51099999109E-03 0.  1.
       22    1    1    2    0    0  0.53851799210E-02 -0.36448922124E-03  0.35327051528E-01  0.35737005818E-01  0.00000000000E+00 0. -1.
  9000001    1    1    2    0    0 -0.53851799210E-02  0.36448922124E-03 -0.35327051528E-01  0.35750994182E-01  0.10000000475E-02 0.  1.
</event>
<event>
 4   0  0.2441219E-02  0.9118800E+02  0.7818609E-02  0.1379984E+01
      -11   -1    0    0    0    0  0.00000000000E+00  0.00000000000E+00  0.35740347158E-01  0.35744000000E-01  0.51099999109E-03 0. -1.
       11   -1    0    0    0    0 -0.00000000000E+00 -0.00000000000E+00 -0.35740347158E-01  0.35744000000E-01  0.51099999109E-03 0.  1.
       22    1    1    2    0    0  0.30661137269E-02 -0.13043215490E-02  0.35581333263E-01  0.35737005818E-01  0.00000000000E+00 0. -1.
  9000001    1    1    2    0    0 -0.30661137269E-02  0.13043215490E-02 -0.35581333263E-01  0.35750994182E-01  0.10000000475E-02 0.  1.
</event>
<event>
 4   0  0.2441219E-02  0.9118800E+02  0.7818609E-02  0.1379984E+01
      -11   -1    0    0    0    0  0.00000000000E+00  0.00000000000E+00  0.35740347158E-01  0.35744000000E-01  0.51099999109E-03 0.  1.
       11   -1    0    0    0    0 -0.00000000000E+00 -0.00000000000E+00 -0.35740347158E-01  0.35744000000E-01  0.51099999109E-03 0. -1.
       22    1    1    2    0    0  0.72358195218E-02  0.24169755131E-02  0.34913245768E-01  0.35737005818E-01  0.00000000000E+00 0.  1.
  9000001    1    1    2    0    0 -0.72358195218E-02 -0.24169755131E-02 -0.34913245768E-01  0.35750994182E-01  0.10000000475E-02 0. -1.
</event>
<event>
 4   0  0.2441219E-02  0.9118800E+02  0.7818609E-02  0.1379984E+01
      -11   -1    0    0    0    0  0.00000000000E+00  0.00000000000E+00  0.35740347158E-01  0.35744000000E-01  0.51099999109E-03 0.  1.
       11   -1    0    0    0    0 -0.00000000000E+00 -0.00000000000E+00 -0.35740347158E-01  0.35744000000E-01  0.51099999109E-03 0. -1.
       22    1    1    2    0    0  0.21711549777E-01 -0.13562473573E-01 -0.24935947982E-01  0.35737005818E-01  0.00000000000E+00 0.  1.
  9000001    1    1    2    0    0 -0.21711549777E-01  0.13562473573E-01  0.24935947982E-01  0.35750994182E-01  0.10000000475E-02 0. -1.
</event>
<event>
 4   0  0.2441219E-02  0.9118800E+02  0.7818609E-02  0.1379984E+01
      -11   -1    0    0    0    0  0.00000000000E+00  0.00000000000E+00  0.35740347158E-01  0.35744000000E-01  0.51099999109E-03 0.  1.
       11   -1    0    0    0    0 -0.00000000000E+00 -0.00000000000E+00 -0.35740347158E-01  0.35744000000E-01  0.51099999109E-03 0. -1.
       22    1    1    2    0    0  0.70578065578E-02  0.32494339425E-03 -0.35031633751E-01  0.35737005818E-01  0.00000000000E+00 0. -1.
  9000001    1    1    2    0    0 -0.70578065578E-02 -0.32494339425E-03  0.35031633751E-01  0.35750994182E-01  0.10000000475E-02 0.  1.
</event>
<event>
 4   0  0.2441219E-02  0.9118800E+02  0.7818609E-02  0.1379984E+01
      -11   -1    0    0    0    0  0.00000000000E+00  0.00000000000E+00  0.35740347158E-01  0.35744000000E-01  0.51099999109E-03 0.  1.
       11   -1    0    0    0    0 -0.00000000000E+00 -0.00000000000E+00 -0.35740347158E-01  0.35744000000E-01  0.51099999109E-03 0. -1.
       22    1    1    2    0    0 -0.81087007506E-02  0.81375331149E-02  0.33840258743E-01  0.35737005818E-01  0.00000000000E+00 0.  1.
  9000001    1    1    2    0    0  0.81087007506E-02 -0.81375331149E-02 -0.33840258743E-01  0.35750994182E-01  0.10000000475E-02 0. -1.
</event>
<event>
 4   0  0.2441219E-02  0.9118800E+02  0.7818609E-02  0.1379984E+01
      -11   -1    0    0    0    0  0.00000000000E+00  0.00000000000E+00  0.35740347158E-01  0.35744000000E-01  0.51099999109E-03 0.  1.
       11   -1    0    0    0    0 -0.00000000000E+00 -0.00000000000E+00 -0.35740347158E-01  0.35744000000E-01  0.51099999109E-03 0. -1.
       22    1    1    2    0    0  0.83667932455E-02  0.46689370630E-03  0.34740644293E-01  0.35737005818E-01  0.00000000000E+00 0.  1.
  9000001    1    1    2    0    0 -0.83667932455E-02 -0.46689370630E-03 -0.34740644293E-01  0.35750994182E-01  0.10000000475E-02 0. -1.
</event>
<event>
 4   0  0.2441219E-02  0.9118800E+02  0.7818609E-02  0.1379984E+01
      -11   -1    0    0    0    0  0.00000000000E+00  0.00000000000E+00  0.35740347158E-01  0.35744000000E-01  0.51099999109E-03 0. -1.
       11   -1    0    0    0    0 -0.00000000000E+00 -0.00000000000E+00 -0.35740347158E-01  0.35744000000E-01  0.51099999109E-03 0.  1.
       22    1    1    2    0    0  0.81401807002E-02  0.21608288216E-01 -0.27275500424E-01  0.35737005818E-01  0.00000000000E+00 0.  1.
  9000001    1    1    2    0    0 -0.81401807002E-02 -0.21608288216E-01  0.27275500424E-01  0.35750994182E-01  0.10000000475E-02 0. -1.
</event>
<event>
 4   0  0.2441219E-02  0.9118800E+02  0.7818609E-02  0.1379984E+01
      -11   -1    0    0    0    0  0.00000000000E+00  0.00000000000E+00  0.35740347158E-01  0.35744000000E-01  0.51099999109E-03 0. -1.
       11   -1    0    0    0    0 -0.00000000000E+00 -0.00000000000E+00 -0.35740347158E-01  0.35744000000E-01  0.51099999109E-03 0.  1.
       22    1    1    2    0    0  0.14510022961E-03 -0.68031144344E-02 -0.35083189205E-01  0.35737005818E-01  0.00000000000E+00 0.  1.
  9000001    1    1    2    0    0 -0.14510022961E-03  0.68031144344E-02  0.35083189205E-01  0.35750994182E-01  0.10000000475E-02 0. -1.
</event>
<event>
 4   0  0.2441219E-02  0.9118800E+02  0.7818609E-02  0.1379984E+01
      -11   -1    0    0    0    0  0.00000000000E+00  0.00000000000E+00  0.35740347158E-01  0.35744000000E-01  0.51099999109E-03 0.  1.
       11   -1    0    0    0    0 -0.00000000000E+00 -0.00000000000E+00 -0.35740347158E-01  0.35744000000E-01  0.51099999109E-03 0. -1.
       22    1    1    2    0    0  0.89658325579E-02  0.27770881990E-01 -0.20628270527E-01  0.35737005818E-01  0.00000000000E+00 0. -1.
  9000001    1    1    2    0    0 -0.89658325579E-02 -0.27770881990E-01  0.20628270527E-01  0.35750994182E-01  0.10000000475E-02 0.  1.
</event>
<event>
 4   0  0.2441219E-02  0.9118800E+02  0.7818609E-02  0.1379984E+01
      -11   -1    0    0    0    0  0.00000000000E+00  0.00000000000E+00  0.35740347158E-01  0.35744000000E-01  0.51099999109E-03 0.  1.
       11   -1    0    0    0    0 -0.00000000000E+00 -0.00000000000E+00 -0.35740347158E-01  0.35744000000E-01  0.51099999109E-03 0. -1.
       22    1    1    2    0    0  0.16296347167E-01 -0.58325694206E-02  0.31265696663E-01  0.35737005818E-01  0.00000000000E+00 0.  1.
  9000001    1    1    2    0    0 -0.16296347167E-01  0.58325694206E-02 -0.31265696663E-01  0.35750994182E-01  0.10000000475E-02 0. -1.
</event>
<event>
 4   0  0.2441219E-02  0.9118800E+02  0.7818609E-02  0.1379984E+01
      -11   -1    0    0    0    0  0.00000000000E+00  0.00000000000E+00  0.35740347158E-01  0.35744000000E-01  0.51099999109E-03 0. -1.
       11   -1    0    0    0    0 -0.00000000000E+00 -0.00000000000E+00 -0.35740347158E-01  0.35744000000E-01  0.51099999109E-03 0.  1.
       22    1    1    2    0    0  0.14846669781E-02  0.28220640385E-01  0.21875209829E-01  0.35737005818E-01  0.00000000000E+00 0. -1.
  9000001    1    1    2    0    0 -0.14846669781E-02 -0.28220640385E-01 -0.21875209829E-01  0.35750994182E-01  0.10000000475E-02 0.  1.
</event>
<event>
 4   0  0.2441219E-02  0.9118800E+02  0.7818609E-02  0.1379984E+01
      -11   -1    0    0    0    0  0.00000000000E+00  0.00000000000E+00  0.35740347158E-01  0.35744000000E-01  0.51099999109E-03 0. -1.
       11   -1    0    0    0    0 -0.00000000000E+00 -0.00000000000E+00 -0.35740347158E-01  0.35744000000E-01  0.51099999109E-03 0.  1.
       22    1    1    2    0    0  0.29342206743E-02 -0.12569488509E-02 -0.35594157013E-01  0.35737005818E-01  0.00000000000E+00 0.  1.
  9000001    1    1    2    0    0 -0.29342206743E-02  0.12569488509E-02  0.35594157013E-01  0.35750994182E-01  0.10000000475E-02 0. -1.
</event>
<event>
 4   0  0.2441219E-02  0.9118800E+02  0.7818609E-02  0.1379984E+01
      -11   -1    0    0    0    0  0.00000000000E+00  0.00000000000E+00  0.35740347158E-01  0.35744000000E-01  0.51099999109E-03 0. -1.
       11   -1    0    0    0    0 -0.00000000000E+00 -0.00000000000E+00 -0.35740347158E-01  0.35744000000E-01  0.51099999109E-03 0.  1.
       22    1    1    2    0    0  0.17443587515E-01 -0.52987500081E-02  0.30737242684E-01  0.35737005818E-01  0.00000000000E+00 0. -1.
  9000001    1    1    2    0    0 -0.17443587515E-01  0.52987500081E-02 -0.30737242684E-01  0.35750994182E-01  0.10000000475E-02 0.  1.
</event>
<event>
 4   0  0.2441219E-02  0.9118800E+02  0.7818609E-02  0.1379984E+01
      -11   -1    0    0    0    0  0.00000000000E+00  0.00000000000E+00  0.35740347158E-01  0.35744000000E-01  0.51099999109E-03 0. -1.
       11   -1    0    0    0    0 -0.00000000000E+00 -0.00000000000E+00 -0.35740347158E-01  0.35744000000E-01  0.51099999109E-03 0.  1.
       22    1    1    2    0    0  0.55403312483E-02  0.52651565987E-03 -0.35301007008E-01  0.35737005818E-01  0.00000000000E+00 0.  1.
  9000001    1    1    2    0    0 -0.55403312483E-02 -0.52651565987E-03  0.35301007008E-01  0.35750994182E-01  0.10000000475E-02 0. -1.
</event>
<event>
 4   0  0.2441219E-02  0.9118800E+02  0.7818609E-02  0.1379984E+01
      -11   -1    0    0    0    0  0.00000000000E+00  0.00000000000E+00  0.35740347158E-01  0.35744000000E-01  0.51099999109E-03 0. -1.
       11   -1    0    0    0    0 -0.00000000000E+00 -0.00000000000E+00 -0.35740347158E-01  0.35744000000E-01  0.51099999109E-03 0.  1.
       22    1    1    2    0    0  0.32142436125E-02  0.24543214761E-02  0.35507443290E-01  0.35737005818E-01  0.00000000000E+00 0. -1.
  9000001    1    1    2    0    0 -0.32142436125E-02 -0.24543214761E-02 -0.35507443290E-01  0.35750994182E-01  0.10000000475E-02 0.  1.
</event>
<event>
 4   0  0.2441219E-02  0.9118800E+02  0.7818609E-02  0.1379984E+01
      -11   -1    0    0    0    0  0.00000000000E+00  0.00000000000E+00  0.35740347158E-01  0.35744000000E-01  0.51099999109E-03 0.  1.
       11   -1    0    0    0    0 -0.00000000000E+00 -0.00000000000E+00 -0.35740347158E-01  0.35744000000E-01  0.51099999109E-03 0. -1.
       22    1    1    2    0    0  0.21585907066E-01  0.20063329331E-01  0.20214970125E-01  0.35737005818E-01  0.00000000000E+00 0.  1.
  9000001    1    1    2    0    0 -0.21585907066E-01 -0.20063329331E-01 -0.20214970125E-01  0.35750994182E-01  0.10000000475E-02 0. -1.
</event>
<event>
 4   0  0.2441219E-02  0.9118800E+02  0.7818609E-02  0.1379984E+01
      -11   -1    0    0    0    0  0.00000000000E+00  0.00000000000E+00  0.35740347158E-01  0.35744000000E-01  0.51099999109E-03 0. -1.
       11   -1    0    0    0    0 -0.00000000000E+00 -0.00000000000E+00 -0.35740347158E-01  0.35744000000E-01  0.51099999109E-03 0.  1.
       22    1    1    2    0    0 -0.80832898318E-02 -0.22526143973E-01 -0.26539910476E-01  0.35737005818E-01  0.00000000000E+00 0.  1.
  9000001    1    1    2    0    0  0.80832898318E-02  0.22526143973E-01  0.26539910476E-01  0.35750994182E-01  0.10000000475E-02 0. -1.
</event>
<event>
 4   0  0.2441219E-02  0.9118800E+02  0.7818609E-02  0.1379984E+01
      -11   -1    0    0    0    0  0.00000000000E+00  0.00000000000E+00  0.35740347158E-01  0.35744000000E-01  0.51099999109E-03 0.  1.
       11   -1    0    0    0    0 -0.00000000000E+00 -0.00000000000E+00 -0.35740347158E-01  0.35744000000E-01  0.51099999109E-03 0. -1.
       22    1    1    2    0    0  0.12749222602E-01 -0.62279206857E-02  0.32799449871E-01  0.35737005818E-01  0.00000000000E+00 0.  1.
  9000001    1    1    2    0    0 -0.12749222602E-01  0.62279206857E-02 -0.32799449871E-01  0.35750994182E-01  0.10000000475E-02 0. -1.
</event>
<event>
 4   0  0.2441219E-02  0.9118800E+02  0.7818609E-02  0.1379984E+01
      -11   -1    0    0    0    0  0.00000000000E+00  0.00000000000E+00  0.35740347158E-01  0.35744000000E-01  0.51099999109E-03 0. -1.
       11   -1    0    0    0    0 -0.00000000000E+00 -0.00000000000E+00 -0.35740347158E-01  0.35744000000E-01  0.51099999109E-03 0.  1.
       22    1    1    2    0    0 -0.13857349559E-01  0.62911386910E-02  0.32334641208E-01  0.35737005818E-01  0.00000000000E+00 0. -1.
  9000001    1    1    2    0    0  0.13857349559E-01 -0.62911386910E-02 -0.32334641208E-01  0.35750994182E-01  0.10000000475E-02 0.  1.
</event>
<event>
 4   0  0.2441219E-02  0.9118800E+02  0.7818609E-02  0.1379984E+01
      -11   -1    0    0    0    0  0.00000000000E+00  0.00000000000E+00  0.35740347158E-01  0.35744000000E-01  0.51099999109E-03 0. -1.
       11   -1    0    0    0    0 -0.00000000000E+00 -0.00000000000E+00 -0.35740347158E-01  0.35744000000E-01  0.51099999109E-03 0.  1.
       22    1    1    2    0    0  0.29079886537E-02  0.54655483068E-02  0.35196661327E-01  0.35737005818E-01  0.00000000000E+00 0. -1.
  9000001    1    1    2    0    0 -0.29079886537E-02 -0.54655483068E-02 -0.35196661327E-01  0.35750994182E-01  0.10000000475E-02 0.  1.
</event>
<event>
 4   0  0.2441219E-02  0.9118800E+02  0.7818609E-02  0.1379984E+01
      -11   -1    0    0    0    0  0.00000000000E+00  0.00000000000E+00  0.35740347158E-01  0.35744000000E-01  0.51099999109E-03 0.  1.
       11   -1    0    0    0    0 -0.00000000000E+00 -0.00000000000E+00 -0.35740347158E-01  0.35744000000E-01  0.51099999109E-03 0. -1.
       22    1    1    2    0    0 -0.62606552476E-02 -0.94762935435E-02  0.33884179810E-01  0.35737005818E-01  0.00000000000E+00 0.  1.
  9000001    1    1    2    0    0  0.62606552476E-02  0.94762935435E-02 -0.33884179810E-01  0.35750994182E-01  0.10000000475E-02 0. -1.
</event>
<event>
 4   0  0.2441219E-02  0.9118800E+02  0.7818609E-02  0.1379984E+01
      -11   -1    0    0    0    0  0.00000000000E+00  0.00000000000E+00  0.35740347158E-01  0.35744000000E-01  0.51099999109E-03 0. -1.
       11   -1    0    0    0    0 -0.00000000000E+00 -0.00000000000E+00 -0.35740347158E-01  0.35744000000E-01  0.51099999109E-03 0.  1.
       22    1    1    2    0    0 -0.13490426159E-01  0.27649175951E-01 -0.18184197979E-01  0.35737005818E-01  0.00000000000E+00 0.  1.
  9000001    1    1    2    0    0  0.13490426159E-01 -0.27649175951E-01  0.18184197979E-01  0.35750994182E-01  0.10000000475E-02 0. -1.
</event>
<event>
 4   0  0.2441219E-02  0.9118800E+02  0.7818609E-02  0.1379984E+01
      -11   -1    0    0    0    0  0.00000000000E+00  0.00000000000E+00  0.35740347158E-01  0.35744000000E-01  0.51099999109E-03 0. -1.
       11   -1    0    0    0    0 -0.00000000000E+00 -0.00000000000E+00 -0.35740347158E-01  0.35744000000E-01  0.51099999109E-03 0.  1.
       22    1    1    2    0    0  0.19484530739E-02 -0.41020386639E-02  0.35447290366E-01  0.35737005818E-01  0.00000000000E+00 0. -1.
  9000001    1    1    2    0    0 -0.19484530739E-02  0.41020386639E-02 -0.35447290366E-01  0.35750994182E-01  0.10000000475E-02 0.  1.
</event>
<event>
 4   0  0.2441219E-02  0.9118800E+02  0.7818609E-02  0.1379984E+01
      -11   -1    0    0    0    0  0.00000000000E+00  0.00000000000E+00  0.35740347158E-01  0.35744000000E-01  0.51099999109E-03 0. -1.
       11   -1    0    0    0    0 -0.00000000000E+00 -0.00000000000E+00 -0.35740347158E-01  0.35744000000E-01  0.51099999109E-03 0.  1.
       22    1    1    2    0    0  0.59189743691E-02 -0.47062840939E-02  0.34927785749E-01  0.35737005818E-01  0.00000000000E+00 0. -1.
  9000001    1    1    2    0    0 -0.59189743691E-02  0.47062840939E-02 -0.34927785749E-01  0.35750994182E-01  0.10000000475E-02 0.  1.
</event>
<event>
 4   0  0.2441219E-02  0.9118800E+02  0.7818609E-02  0.1379984E+01
      -11   -1    0    0    0    0  0.00000000000E+00  0.00000000000E+00  0.35740347158E-01  0.35744000000E-01  0.51099999109E-03 0. -1.
       11   -1    0    0    0    0 -0.00000000000E+00 -0.00000000000E+00 -0.35740347158E-01  0.35744000000E-01  0.51099999109E-03 0.  1.
       22    1    1    2    0    0 -0.82963243598E-02 -0.13459595824E-01 -0.32049085279E-01  0.35737005818E-01  0.00000000000E+00 0.  1.
  9000001    1    1    2    0    0  0.82963243598E-02  0.13459595824E-01  0.32049085279E-01  0.35750994182E-01  0.10000000475E-02 0. -1.
</event>
<event>
 4   0  0.2441219E-02  0.9118800E+02  0.7818609E-02  0.1379984E+01
      -11   -1    0    0    0    0  0.00000000000E+00  0.00000000000E+00  0.35740347158E-01  0.35744000000E-01  0.51099999109E-03 0. -1.
       11   -1    0    0    0    0 -0.00000000000E+00 -0.00000000000E+00 -0.35740347158E-01  0.35744000000E-01  0.51099999109E-03 0.  1.
       22    1    1    2    0    0 -0.93331009364E-02  0.94807788030E-02 -0.33168383215E-01  0.35737005818E-01  0.00000000000E+00 0.  1.
  9000001    1    1    2    0    0  0.93331009364E-02 -0.94807788030E-02  0.33168383215E-01  0.35750994182E-01  0.10000000475E-02 0. -1.
</event>
<event>
 4   0  0.2441219E-02  0.9118800E+02  0.7818609E-02  0.1379984E+01
      -11   -1    0    0    0    0  0.00000000000E+00  0.00000000000E+00  0.35740347158E-01  0.35744000000E-01  0.51099999109E-03 0. -1.
       11   -1    0    0    0    0 -0.00000000000E+00 -0.00000000000E+00 -0.35740347158E-01  0.35744000000E-01  0.51099999109E-03 0.  1.
       22    1    1    2    0    0  0.31408600188E-02  0.24009396479E-01 -0.26283406627E-01  0.35737005818E-01  0.00000000000E+00 0.  1.
  9000001    1    1    2    0    0 -0.31408600188E-02 -0.24009396479E-01  0.26283406627E-01  0.35750994182E-01  0.10000000475E-02 0. -1.
</event>
<event>
 4   0  0.2441219E-02  0.9118800E+02  0.7818609E-02  0.1379984E+01
      -11   -1    0    0    0    0  0.00000000000E+00  0.00000000000E+00  0.35740347158E-01  0.35744000000E-01  0.51099999109E-03 0. -1.
       11   -1    0    0    0    0 -0.00000000000E+00 -0.00000000000E+00 -0.35740347158E-01  0.35744000000E-01  0.51099999109E-03 0.  1.
       22    1    1    2    0    0 -0.22105729422E-01 -0.17401842526E-01  0.22037381611E-01  0.35737005818E-01  0.00000000000E+00 0. -1.
  9000001    1    1    2    0    0  0.22105729422E-01  0.17401842526E-01 -0.22037381611E-01  0.35750994182E-01  0.10000000475E-02 0.  1.
</event>
<event>
 4   0  0.2441219E-02  0.9118800E+02  0.7818609E-02  0.1379984E+01
      -11   -1    0    0    0    0  0.00000000000E+00  0.00000000000E+00  0.35740347158E-01  0.35744000000E-01  0.51099999109E-03 0. -1.
       11   -1    0    0    0    0 -0.00000000000E+00 -0.00000000000E+00 -0.35740347158E-01  0.35744000000E-01  0.51099999109E-03 0. -1.
       22    1    1    2    0    0 -0.26864605645E-02  0.52709324096E-02  0.35243918426E-01  0.35737005818E-01  0.00000000000E+00 0. -1.
  9000001    1    1    2    0    0  0.26864605645E-02 -0.52709324096E-02 -0.35243918426E-01  0.35750994182E-01  0.10000000475E-02 0. -1.
</event>
<event>
 4   0  0.2441219E-02  0.9118800E+02  0.7818609E-02  0.1379984E+01
      -11   -1    0    0    0    0  0.00000000000E+00  0.00000000000E+00  0.35740347158E-01  0.35744000000E-01  0.51099999109E-03 0. -1.
       11   -1    0    0    0    0 -0.00000000000E+00 -0.00000000000E+00 -0.35740347158E-01  0.35744000000E-01  0.51099999109E-03 0.  1.
       22    1    1    2    0    0 -0.17685416337E-01  0.21265934865E-02  0.30981240033E-01  0.35737005818E-01  0.00000000000E+00 0. -1.
  9000001    1    1    2    0    0  0.17685416337E-01 -0.21265934865E-02 -0.30981240033E-01  0.35750994182E-01  0.10000000475E-02 0.  1.
</event>
<event>
 4   0  0.2441219E-02  0.9118800E+02  0.7818609E-02  0.1379984E+01
      -11   -1    0    0    0    0  0.00000000000E+00  0.00000000000E+00  0.35740347158E-01  0.35744000000E-01  0.51099999109E-03 0. -1.
       11   -1    0    0    0    0 -0.00000000000E+00 -0.00000000000E+00 -0.35740347158E-01  0.35744000000E-01  0.51099999109E-03 0.  1.
       22    1    1    2    0    0 -0.39173351193E-02  0.44308095190E-02 -0.35244233535E-01  0.35737005818E-01  0.00000000000E+00 0.  1.
  9000001    1    1    2    0    0  0.39173351193E-02 -0.44308095190E-02  0.35244233535E-01  0.35750994182E-01  0.10000000475E-02 0. -1.
</event>
<event>
 4   0  0.2441219E-02  0.9118800E+02  0.7818609E-02  0.1379984E+01
      -11   -1    0    0    0    0  0.00000000000E+00  0.00000000000E+00  0.35740347158E-01  0.35744000000E-01  0.51099999109E-03 0. -1.
       11   -1    0    0    0    0 -0.00000000000E+00 -0.00000000000E+00 -0.35740347158E-01  0.35744000000E-01  0.51099999109E-03 0.  1.
       22    1    1    2    0    0 -0.24005353190E-02  0.19121469071E-02 -0.35604981523E-01  0.35737005818E-01  0.00000000000E+00 0.  1.
  9000001    1    1    2    0    0  0.24005353190E-02 -0.19121469071E-02  0.35604981523E-01  0.35750994182E-01  0.10000000475E-02 0. -1.
</event>
<event>
 4   0  0.2441219E-02  0.9118800E+02  0.7818609E-02  0.1379984E+01
      -11   -1    0    0    0    0  0.00000000000E+00  0.00000000000E+00  0.35740347158E-01  0.35744000000E-01  0.51099999109E-03 0. -1.
       11   -1    0    0    0    0 -0.00000000000E+00 -0.00000000000E+00 -0.35740347158E-01  0.35744000000E-01  0.51099999109E-03 0.  1.
       22    1    1    2    0    0 -0.86646834954E-02 -0.10730365983E-01  0.32968410497E-01  0.35737005818E-01  0.00000000000E+00 0. -1.
  9000001    1    1    2    0    0  0.86646834954E-02  0.10730365983E-01 -0.32968410497E-01  0.35750994182E-01  0.10000000475E-02 0.  1.
</event>
<event>
 4   0  0.2441219E-02  0.9118800E+02  0.7818609E-02  0.1379984E+01
      -11   -1    0    0    0    0  0.00000000000E+00  0.00000000000E+00  0.35740347158E-01  0.35744000000E-01  0.51099999109E-03 0. -1.
       11   -1    0    0    0    0 -0.00000000000E+00 -0.00000000000E+00 -0.35740347158E-01  0.35744000000E-01  0.51099999109E-03 0.  1.
       22    1    1    2    0    0 -0.18499377186E-02  0.78442954011E-02  0.34816351690E-01  0.35737005818E-01  0.00000000000E+00 0. -1.
  9000001    1    1    2    0    0  0.18499377186E-02 -0.78442954011E-02 -0.34816351690E-01  0.35750994182E-01  0.10000000475E-02 0.  1.
</event>
<event>
 4   0  0.2441219E-02  0.9118800E+02  0.7818609E-02  0.1379984E+01
      -11   -1    0    0    0    0  0.00000000000E+00  0.00000000000E+00  0.35740347158E-01  0.35744000000E-01  0.51099999109E-03 0.  1.
       11   -1    0    0    0    0 -0.00000000000E+00 -0.00000000000E+00 -0.35740347158E-01  0.35744000000E-01  0.51099999109E-03 0. -1.
       22    1    1    2    0    0 -0.47495514144E-03 -0.48040423680E-02 -0.35409450425E-01  0.35737005818E-01  0.00000000000E+00 0. -1.
  9000001    1    1    2    0    0  0.47495514144E-03  0.48040423680E-02  0.35409450425E-01  0.35750994182E-01  0.10000000475E-02 0.  1.
</event>
<event>
 4   0  0.2441219E-02  0.9118800E+02  0.7818609E-02  0.1379984E+01
      -11   -1    0    0    0    0  0.00000000000E+00  0.00000000000E+00  0.35740347158E-01  0.35744000000E-01  0.51099999109E-03 0. -1.
       11   -1    0    0    0    0 -0.00000000000E+00 -0.00000000000E+00 -0.35740347158E-01  0.35744000000E-01  0.51099999109E-03 0.  1.
       22    1    1    2    0    0  0.22137782038E-01  0.19453939401E-01  0.20213768404E-01  0.35737005818E-01  0.00000000000E+00 0. -1.
  9000001    1    1    2    0    0 -0.22137782038E-01 -0.19453939401E-01 -0.20213768404E-01  0.35750994182E-01  0.10000000475E-02 0.  1.
</event>
<event>
 4   0  0.2441219E-02  0.9118800E+02  0.7818609E-02  0.1379984E+01
      -11   -1    0    0    0    0  0.00000000000E+00  0.00000000000E+00  0.35740347158E-01  0.35744000000E-01  0.51099999109E-03 0. -1.
       11   -1    0    0    0    0 -0.00000000000E+00 -0.00000000000E+00 -0.35740347158E-01  0.35744000000E-01  0.51099999109E-03 0.  1.
       22    1    1    2    0    0 -0.10181235790E-01  0.41802767599E-02  0.34000019248E-01  0.35737005818E-01  0.00000000000E+00 0. -1.
  9000001    1    1    2    0    0  0.10181235790E-01 -0.41802767599E-02 -0.34000019248E-01  0.35750994182E-01  0.10000000475E-02 0.  1.
</event>
<event>
 4   0  0.2441219E-02  0.9118800E+02  0.7818609E-02  0.1379984E+01
      -11   -1    0    0    0    0  0.00000000000E+00  0.00000000000E+00  0.35740347158E-01  0.35744000000E-01  0.51099999109E-03 0. -1.
       11   -1    0    0    0    0 -0.00000000000E+00 -0.00000000000E+00 -0.35740347158E-01  0.35744000000E-01  0.51099999109E-03 0.  1.
       22    1    1    2    0    0 -0.42040852073E-02 -0.61511669699E-02  0.34951715228E-01  0.35737005818E-01  0.00000000000E+00 0. -1.
  9000001    1    1    2    0    0  0.42040852073E-02  0.61511669699E-02 -0.34951715228E-01  0.35750994182E-01  0.10000000475E-02 0.  1.
</event>
<event>
 4   0  0.2441219E-02  0.9118800E+02  0.7818609E-02  0.1379984E+01
      -11   -1    0    0    0    0  0.00000000000E+00  0.00000000000E+00  0.35740347158E-01  0.35744000000E-01  0.51099999109E-03 0. -1.
       11   -1    0    0    0    0 -0.00000000000E+00 -0.00000000000E+00 -0.35740347158E-01  0.35744000000E-01  0.51099999109E-03 0.  1.
       22    1    1    2    0    0  0.69280687641E-02 -0.58399891490E-02  0.34569205585E-01  0.35737005818E-01  0.00000000000E+00 0. -1.
  9000001    1    1    2    0    0 -0.69280687641E-02  0.58399891490E-02 -0.34569205585E-01  0.35750994182E-01  0.10000000475E-02 0.  1.
</event>
<event>
 4   0  0.2441219E-02  0.9118800E+02  0.7818609E-02  0.1379984E+01
      -11   -1    0    0    0    0  0.00000000000E+00  0.00000000000E+00  0.35740347158E-01  0.35744000000E-01  0.51099999109E-03 0.  1.
       11   -1    0    0    0    0 -0.00000000000E+00 -0.00000000000E+00 -0.35740347158E-01  0.35744000000E-01  0.51099999109E-03 0. -1.
       22    1    1    2    0    0 -0.22989410393E-01  0.10824953004E-02  0.27339509845E-01  0.35737005818E-01  0.00000000000E+00 0.  1.
  9000001    1    1    2    0    0  0.22989410393E-01 -0.10824953004E-02 -0.27339509845E-01  0.35750994182E-01  0.10000000475E-02 0. -1.
</event>
<event>
 4   0  0.2441219E-02  0.9118800E+02  0.7818609E-02  0.1379984E+01
      -11   -1    0    0    0    0  0.00000000000E+00  0.00000000000E+00  0.35740347158E-01  0.35744000000E-01  0.51099999109E-03 0. -1.
       11   -1    0    0    0    0 -0.00000000000E+00 -0.00000000000E+00 -0.35740347158E-01  0.35744000000E-01  0.51099999109E-03 0.  1.
       22    1    1    2    0    0  0.34151794867E-01 -0.23323121683E-02  0.10263956946E-01  0.35737005818E-01  0.00000000000E+00 0. -1.
  9000001    1    1    2    0    0 -0.34151794867E-01  0.23323121683E-02 -0.10263956946E-01  0.35750994182E-01  0.10000000475E-02 0.  1.
</event>
<event>
 4   0  0.2441219E-02  0.9118800E+02  0.7818609E-02  0.1379984E+01
      -11   -1    0    0    0    0  0.00000000000E+00  0.00000000000E+00  0.35740347158E-01  0.35744000000E-01  0.51099999109E-03 0. -1.
       11   -1    0    0    0    0 -0.00000000000E+00 -0.00000000000E+00 -0.35740347158E-01  0.35744000000E-01  0.51099999109E-03 0.  1.
       22    1    1    2    0    0 -0.34736597604E-01  0.51396948188E-02  0.66397220548E-02  0.35737005818E-01  0.00000000000E+00 0.  1.
  9000001    1    1    2    0    0  0.34736597604E-01 -0.51396948188E-02 -0.66397220548E-02  0.35750994182E-01  0.10000000475E-02 0. -1.
</event>
<event>
 4   0  0.2441219E-02  0.9118800E+02  0.7818609E-02  0.1379984E+01
      -11   -1    0    0    0    0  0.00000000000E+00  0.00000000000E+00  0.35740347158E-01  0.35744000000E-01  0.51099999109E-03 0. -1.
       11   -1    0    0    0    0 -0.00000000000E+00 -0.00000000000E+00 -0.35740347158E-01  0.35744000000E-01  0.51099999109E-03 0.  1.
       22    1    1    2    0    0 -0.12669255062E-02  0.63073699658E-02  0.35153172954E-01  0.35737005818E-01  0.00000000000E+00 0. -1.
  9000001    1    1    2    0    0  0.12669255062E-02 -0.63073699658E-02 -0.35153172954E-01  0.35750994182E-01  0.10000000475E-02 0.  1.
</event>
<event>
 4   0  0.2441219E-02  0.9118800E+02  0.7818609E-02  0.1379984E+01
      -11   -1    0    0    0    0  0.00000000000E+00  0.00000000000E+00  0.35740347158E-01  0.35744000000E-01  0.51099999109E-03 0.  1.
       11   -1    0    0    0    0 -0.00000000000E+00 -0.00000000000E+00 -0.35740347158E-01  0.35744000000E-01  0.51099999109E-03 0. -1.
       22    1    1    2    0    0  0.32471809670E-02  0.20316982117E-02 -0.35531135684E-01  0.35737005818E-01  0.00000000000E+00 0. -1.
  9000001    1    1    2    0    0 -0.32471809670E-02 -0.20316982117E-02  0.35531135684E-01  0.35750994182E-01  0.10000000475E-02 0.  1.
</event>
<event>
 4   0  0.2441219E-02  0.9118800E+02  0.7818609E-02  0.1379984E+01
      -11   -1    0    0    0    0  0.00000000000E+00  0.00000000000E+00  0.35740347158E-01  0.35744000000E-01  0.51099999109E-03 0. -1.
       11   -1    0    0    0    0 -0.00000000000E+00 -0.00000000000E+00 -0.35740347158E-01  0.35744000000E-01  0.51099999109E-03 0.  1.
       22    1    1    2    0    0  0.19476731594E-01 -0.43026157088E-02  0.29652622302E-01  0.35737005818E-01  0.00000000000E+00 0. -1.
  9000001    1    1    2    0    0 -0.19476731594E-01  0.43026157088E-02 -0.29652622302E-01  0.35750994182E-01  0.10000000475E-02 0.  1.
</event>
<event>
 4   0  0.2441219E-02  0.9118800E+02  0.7818609E-02  0.1379984E+01
      -11   -1    0    0    0    0  0.00000000000E+00  0.00000000000E+00  0.35740347158E-01  0.35744000000E-01  0.51099999109E-03 0. -1.
       11   -1    0    0    0    0 -0.00000000000E+00 -0.00000000000E+00 -0.35740347158E-01  0.35744000000E-01  0.51099999109E-03 0.  1.
       22    1    1    2    0    0 -0.15095993268E-02  0.39437355094E-02 -0.35486640373E-01  0.35737005818E-01  0.00000000000E+00 0.  1.
  9000001    1    1    2    0    0  0.15095993268E-02 -0.39437355094E-02  0.35486640373E-01  0.35750994182E-01  0.10000000475E-02 0. -1.
</event>
<event>
 4   0  0.2441219E-02  0.9118800E+02  0.7818609E-02  0.1379984E+01
      -11   -1    0    0    0    0  0.00000000000E+00  0.00000000000E+00  0.35740347158E-01  0.35744000000E-01  0.51099999109E-03 0.  1.
       11   -1    0    0    0    0 -0.00000000000E+00 -0.00000000000E+00 -0.35740347158E-01  0.35744000000E-01  0.51099999109E-03 0. -1.
       22    1    1    2    0    0 -0.14602925867E-01 -0.34613177721E-02  0.32433122272E-01  0.35737005818E-01  0.00000000000E+00 0.  1.
  9000001    1    1    2    0    0  0.14602925867E-01  0.34613177721E-02 -0.32433122272E-01  0.35750994182E-01  0.10000000475E-02 0. -1.
</event>
<event>
 4   0  0.2441219E-02  0.9118800E+02  0.7818609E-02  0.1379984E+01
      -11   -1    0    0    0    0  0.00000000000E+00  0.00000000000E+00  0.35740347158E-01  0.35744000000E-01  0.51099999109E-03 0.  1.
       11   -1    0    0    0    0 -0.00000000000E+00 -0.00000000000E+00 -0.35740347158E-01  0.35744000000E-01  0.51099999109E-03 0. -1.
       22    1    1    2    0    0  0.13318616554E-02 -0.55020085449E-02 -0.35285799288E-01  0.35737005818E-01  0.00000000000E+00 0. -1.
  9000001    1    1    2    0    0 -0.13318616554E-02  0.55020085449E-02  0.35285799288E-01  0.35750994182E-01  0.10000000475E-02 0.  1.
</event>
<event>
 4   0  0.2441219E-02  0.9118800E+02  0.7818609E-02  0.1379984E+01
      -11   -1    0    0    0    0  0.00000000000E+00  0.00000000000E+00  0.35740347158E-01  0.35744000000E-01  0.51099999109E-03 0.  1.
       11   -1    0    0    0    0 -0.00000000000E+00 -0.00000000000E+00 -0.35740347158E-01  0.35744000000E-01  0.51099999109E-03 0. -1.
       22    1    1    2    0    0  0.11738036456E-01 -0.17840430729E-01  0.28654338527E-01  0.35737005818E-01  0.00000000000E+00 0.  1.
  9000001    1    1    2    0    0 -0.11738036456E-01  0.17840430729E-01 -0.28654338527E-01  0.35750994182E-01  0.10000000475E-02 0. -1.
</event>
<event>
 4   0  0.2441219E-02  0.9118800E+02  0.7818609E-02  0.1379984E+01
      -11   -1    0    0    0    0  0.00000000000E+00  0.00000000000E+00  0.35740347158E-01  0.35744000000E-01  0.51099999109E-03 0.  1.
       11   -1    0    0    0    0 -0.00000000000E+00 -0.00000000000E+00 -0.35740347158E-01  0.35744000000E-01  0.51099999109E-03 0. -1.
       22    1    1    2    0    0 -0.29279021390E-01  0.25241339290E-02  0.20334729879E-01  0.35737005818E-01  0.00000000000E+00 0.  1.
  9000001    1    1    2    0    0  0.29279021390E-01 -0.25241339290E-02 -0.20334729879E-01  0.35750994182E-01  0.10000000475E-02 0. -1.
</event>
<event>
 4   0  0.2441219E-02  0.9118800E+02  0.7818609E-02  0.1379984E+01
      -11   -1    0    0    0    0  0.00000000000E+00  0.00000000000E+00  0.35740347158E-01  0.35744000000E-01  0.51099999109E-03 0. -1.
       11   -1    0    0    0    0 -0.00000000000E+00 -0.00000000000E+00 -0.35740347158E-01  0.35744000000E-01  0.51099999109E-03 0.  1.
       22    1    1    2    0    0  0.55102408222E-02 -0.16043007108E-01 -0.31454614191E-01  0.35737005818E-01  0.00000000000E+00 0.  1.
  9000001    1    1    2    0    0 -0.55102408222E-02  0.16043007108E-01  0.31454614191E-01  0.35750994182E-01  0.10000000475E-02 0. -1.
</event>
<event>
 4   0  0.2441219E-02  0.9118800E+02  0.7818609E-02  0.1379984E+01
      -11   -1    0    0    0    0  0.00000000000E+00  0.00000000000E+00  0.35740347158E-01  0.35744000000E-01  0.51099999109E-03 0.  1.
       11   -1    0    0    0    0 -0.00000000000E+00 -0.00000000000E+00 -0.35740347158E-01  0.35744000000E-01  0.51099999109E-03 0. -1.
       22    1    1    2    0    0  0.53187714276E-02 -0.14554110735E-01  0.32202827765E-01  0.35737005818E-01  0.00000000000E+00 0.  1.
  9000001    1    1    2    0    0 -0.53187714276E-02  0.14554110735E-01 -0.32202827765E-01  0.35750994182E-01  0.10000000475E-02 0. -1.
</event>
<event>
 4   0  0.2441219E-02  0.9118800E+02  0.7818609E-02  0.1379984E+01
      -11   -1    0    0    0    0  0.00000000000E+00  0.00000000000E+00  0.35740347158E-01  0.35744000000E-01  0.51099999109E-03 0. -1.
       11   -1    0    0    0    0 -0.00000000000E+00 -0.00000000000E+00 -0.35740347158E-01  0.35744000000E-01  0.51099999109E-03 0.  1.
       22    1    1    2    0    0  0.21154272026E-02 -0.32835129351E-02  0.35522909445E-01  0.35737005818E-01  0.00000000000E+00 0. -1.
  9000001    1    1    2    0    0 -0.21154272026E-02  0.32835129351E-02 -0.35522909445E-01  0.35750994182E-01  0.10000000475E-02 0.  1.
</event>
<event>
 4   0  0.2441219E-02  0.9118800E+02  0.7818609E-02  0.1379984E+01
      -11   -1    0    0    0    0  0.00000000000E+00  0.00000000000E+00  0.35740347158E-01  0.35744000000E-01  0.51099999109E-03 0. -1.
       11   -1    0    0    0    0 -0.00000000000E+00 -0.00000000000E+00 -0.35740347158E-01  0.35744000000E-01  0.51099999109E-03 0.  1.
       22    1    1    2    0    0  0.15060061751E-01  0.29726141032E-01  0.12910641512E-01  0.35737005818E-01  0.00000000000E+00 0.  1.
  9000001    1    1    2    0    0 -0.15060061751E-01 -0.29726141032E-01 -0.12910641512E-01  0.35750994182E-01  0.10000000475E-02 0. -1.
</event>
<event>
 4   0  0.2441219E-02  0.9118800E+02  0.7818609E-02  0.1379984E+01
      -11   -1    0    0    0    0  0.00000000000E+00  0.00000000000E+00  0.35740347158E-01  0.35744000000E-01  0.51099999109E-03 0. -1.
       11   -1    0    0    0    0 -0.00000000000E+00 -0.00000000000E+00 -0.35740347158E-01  0.35744000000E-01  0.51099999109E-03 0.  1.
       22    1    1    2    0    0  0.40437938715E-02 -0.34391409078E-02 -0.35340537996E-01  0.35737005818E-01  0.00000000000E+00 0.  1.
  9000001    1    1    2    0    0 -0.40437938715E-02  0.34391409078E-02  0.35340537996E-01  0.35750994182E-01  0.10000000475E-02 0. -1.
</event>
<event>
 4   0  0.2441219E-02  0.9118800E+02  0.7818609E-02  0.1379984E+01
      -11   -1    0    0    0    0  0.00000000000E+00  0.00000000000E+00  0.35740347158E-01  0.35744000000E-01  0.51099999109E-03 0. -1.
       11   -1    0    0    0    0 -0.00000000000E+00 -0.00000000000E+00 -0.35740347158E-01  0.35744000000E-01  0.51099999109E-03 0.  1.
       22    1    1    2    0    0  0.15096806874E-01  0.31299075396E-01  0.83419354125E-02  0.35737005818E-01  0.00000000000E+00 0.  1.
  9000001    1    1    2    0    0 -0.15096806874E-01 -0.31299075396E-01 -0.83419354125E-02  0.35750994182E-01  0.10000000475E-02 0. -1.
</event>
<event>
 4   0  0.2441219E-02  0.9118800E+02  0.7818609E-02  0.1379984E+01
      -11   -1    0    0    0    0  0.00000000000E+00  0.00000000000E+00  0.35740347158E-01  0.35744000000E-01  0.51099999109E-03 0.  1.
       11   -1    0    0    0    0 -0.00000000000E+00 -0.00000000000E+00 -0.35740347158E-01  0.35744000000E-01  0.51099999109E-03 0. -1.
       22    1    1    2    0    0 -0.15881666236E-02  0.62529258520E-02  0.35149853911E-01  0.35737005818E-01  0.00000000000E+00 0.  1.
  9000001    1    1    2    0    0  0.15881666236E-02 -0.62529258520E-02 -0.35149853911E-01  0.35750994182E-01  0.10000000475E-02 0. -1.
</event>
<event>
 4   0  0.2441219E-02  0.9118800E+02  0.7818609E-02  0.1379984E+01
      -11   -1    0    0    0    0  0.00000000000E+00  0.00000000000E+00  0.35740347158E-01  0.35744000000E-01  0.51099999109E-03 0. -1.
       11   -1    0    0    0    0 -0.00000000000E+00 -0.00000000000E+00 -0.35740347158E-01  0.35744000000E-01  0.51099999109E-03 0.  1.
       22    1    1    2    0    0 -0.51546837856E-02 -0.20724464790E-01 -0.28654133718E-01  0.35737005818E-01  0.00000000000E+00 0.  1.
  9000001    1    1    2    0    0  0.51546837856E-02  0.20724464790E-01  0.28654133718E-01  0.35750994182E-01  0.10000000475E-02 0. -1.
</event>
<event>
 4   0  0.2441219E-02  0.9118800E+02  0.7818609E-02  0.1379984E+01
      -11   -1    0    0    0    0  0.00000000000E+00  0.00000000000E+00  0.35740347158E-01  0.35744000000E-01  0.51099999109E-03 0.  1.
       11   -1    0    0    0    0 -0.00000000000E+00 -0.00000000000E+00 -0.35740347158E-01  0.35744000000E-01  0.51099999109E-03 0. -1.
       22    1    1    2    0    0  0.65496339266E-02 -0.11132284504E-02 -0.35114051357E-01  0.35737005818E-01  0.00000000000E+00 0. -1.
  9000001    1    1    2    0    0 -0.65496339266E-02  0.11132284504E-02  0.35114051357E-01  0.35750994182E-01  0.10000000475E-02 0.  1.
</event>
<event>
 4   0  0.2441219E-02  0.9118800E+02  0.7818609E-02  0.1379984E+01
      -11   -1    0    0    0    0  0.00000000000E+00  0.00000000000E+00  0.35740347158E-01  0.35744000000E-01  0.51099999109E-03 0. -1.
       11   -1    0    0    0    0 -0.00000000000E+00 -0.00000000000E+00 -0.35740347158E-01  0.35744000000E-01  0.51099999109E-03 0.  1.
       22    1    1    2    0    0  0.18672139799E-01 -0.55915446018E-02  0.29953620969E-01  0.35737005818E-01  0.00000000000E+00 0. -1.
  9000001    1    1    2    0    0 -0.18672139799E-01  0.55915446018E-02 -0.29953620969E-01  0.35750994182E-01  0.10000000475E-02 0.  1.
</event>
<event>
 4   0  0.2441219E-02  0.9118800E+02  0.7818609E-02  0.1379984E+01
      -11   -1    0    0    0    0  0.00000000000E+00  0.00000000000E+00  0.35740347158E-01  0.35744000000E-01  0.51099999109E-03 0. -1.
       11   -1    0    0    0    0 -0.00000000000E+00 -0.00000000000E+00 -0.35740347158E-01  0.35744000000E-01  0.51099999109E-03 0.  1.
       22    1    1    2    0    0  0.79660740278E-02  0.14249649415E-01  0.31790293188E-01  0.35737005818E-01  0.00000000000E+00 0. -1.
  9000001    1    1    2    0    0 -0.79660740278E-02 -0.14249649415E-01 -0.31790293188E-01  0.35750994182E-01  0.10000000475E-02 0.  1.
</event>
<event>
 4   0  0.2441219E-02  0.9118800E+02  0.7818609E-02  0.1379984E+01
      -11   -1    0    0    0    0  0.00000000000E+00  0.00000000000E+00  0.35740347158E-01  0.35744000000E-01  0.51099999109E-03 0.  1.
       11   -1    0    0    0    0 -0.00000000000E+00 -0.00000000000E+00 -0.35740347158E-01  0.35744000000E-01  0.51099999109E-03 0. -1.
       22    1    1    2    0    0 -0.15810626338E-01  0.59920551271E-02 -0.31484169912E-01  0.35737005818E-01  0.00000000000E+00 0. -1.
  9000001    1    1    2    0    0  0.15810626338E-01 -0.59920551271E-02  0.31484169912E-01  0.35750994182E-01  0.10000000475E-02 0.  1.
</event>
<event>
 4   0  0.2441219E-02  0.9118800E+02  0.7818609E-02  0.1379984E+01
      -11   -1    0    0    0    0  0.00000000000E+00  0.00000000000E+00  0.35740347158E-01  0.35744000000E-01  0.51099999109E-03 0.  1.
       11   -1    0    0    0    0 -0.00000000000E+00 -0.00000000000E+00 -0.35740347158E-01  0.35744000000E-01  0.51099999109E-03 0. -1.
       22    1    1    2    0    0  0.19174960042E-02 -0.49515297377E-02 -0.35340333151E-01  0.35737005818E-01  0.00000000000E+00 0. -1.
  9000001    1    1    2    0    0 -0.19174960042E-02  0.49515297377E-02  0.35340333151E-01  0.35750994182E-01  0.10000000475E-02 0.  1.
</event>
<event>
 4   0  0.2441219E-02  0.9118800E+02  0.7818609E-02  0.1379984E+01
      -11   -1    0    0    0    0  0.00000000000E+00  0.00000000000E+00  0.35740347158E-01  0.35744000000E-01  0.51099999109E-03 0.  1.
       11   -1    0    0    0    0 -0.00000000000E+00 -0.00000000000E+00 -0.35740347158E-01  0.35744000000E-01  0.51099999109E-03 0. -1.
       22    1    1    2    0    0  0.18448396663E-01 -0.13143074188E-01  0.27641451596E-01  0.35737005818E-01  0.00000000000E+00 0.  1.
  9000001    1    1    2    0    0 -0.18448396663E-01  0.13143074188E-01 -0.27641451596E-01  0.35750994182E-01  0.10000000475E-02 0. -1.
</event>
<event>
 4   0  0.2441219E-02  0.9118800E+02  0.7818609E-02  0.1379984E+01
      -11   -1    0    0    0    0  0.00000000000E+00  0.00000000000E+00  0.35740347158E-01  0.35744000000E-01  0.51099999109E-03 0.  1.
       11   -1    0    0    0    0 -0.00000000000E+00 -0.00000000000E+00 -0.35740347158E-01  0.35744000000E-01  0.51099999109E-03 0. -1.
       22    1    1    2    0    0  0.86298774449E-02 -0.25916608340E-02  0.34582395728E-01  0.35737005818E-01  0.00000000000E+00 0.  1.
  9000001    1    1    2    0    0 -0.86298774449E-02  0.25916608340E-02 -0.34582395728E-01  0.35750994182E-01  0.10000000475E-02 0. -1.
</event>
<event>
 4   0  0.2441219E-02  0.9118800E+02  0.7818609E-02  0.1379984E+01
      -11   -1    0    0    0    0  0.00000000000E+00  0.00000000000E+00  0.35740347158E-01  0.35744000000E-01  0.51099999109E-03 0. -1.
       11   -1    0    0    0    0 -0.00000000000E+00 -0.00000000000E+00 -0.35740347158E-01  0.35744000000E-01  0.51099999109E-03 0.  1.
       22    1    1    2    0    0 -0.13594917376E-02  0.36931223380E-02  0.35519659549E-01  0.35737005818E-01  0.00000000000E+00 0. -1.
  9000001    1    1    2    0    0  0.13594917376E-02 -0.36931223380E-02 -0.35519659549E-01  0.35750994182E-01  0.10000000475E-02 0.  1.
</event>
<event>
 4   0  0.2441219E-02  0.9118800E+02  0.7818609E-02  0.1379984E+01
      -11   -1    0    0    0    0  0.00000000000E+00  0.00000000000E+00  0.35740347158E-01  0.35744000000E-01  0.51099999109E-03 0. -1.
       11   -1    0    0    0    0 -0.00000000000E+00 -0.00000000000E+00 -0.35740347158E-01  0.35744000000E-01  0.51099999109E-03 0.  1.
       22    1    1    2    0    0  0.57201078728E-02  0.39382273584E-02 -0.35055731572E-01  0.35737005818E-01  0.00000000000E+00 0.  1.
  9000001    1    1    2    0    0 -0.57201078728E-02 -0.39382273584E-02  0.35055731572E-01  0.35750994182E-01  0.10000000475E-02 0. -1.
</event>
<event>
 4   0  0.2441219E-02  0.9118800E+02  0.7818609E-02  0.1379984E+01
      -11   -1    0    0    0    0  0.00000000000E+00  0.00000000000E+00  0.35740347158E-01  0.35744000000E-01  0.51099999109E-03 0.  1.
       11   -1    0    0    0    0 -0.00000000000E+00 -0.00000000000E+00 -0.35740347158E-01  0.35744000000E-01  0.51099999109E-03 0. -1.
       22    1    1    2    0    0 -0.37941325178E-02  0.15564500402E-02 -0.35500924024E-01  0.35737005818E-01  0.00000000000E+00 0. -1.
  9000001    1    1    2    0    0  0.37941325178E-02 -0.15564500402E-02  0.35500924024E-01  0.35750994182E-01  0.10000000475E-02 0.  1.
</event>
<event>
 4   0  0.2441219E-02  0.9118800E+02  0.7818609E-02  0.1379984E+01
      -11   -1    0    0    0    0  0.00000000000E+00  0.00000000000E+00  0.35740347158E-01  0.35744000000E-01  0.51099999109E-03 0. -1.
       11   -1    0    0    0    0 -0.00000000000E+00 -0.00000000000E+00 -0.35740347158E-01  0.35744000000E-01  0.51099999109E-03 0.  1.
       22    1    1    2    0    0 -0.12450044936E-01  0.60459917059E-02 -0.32948079614E-01  0.35737005818E-01  0.00000000000E+00 0.  1.
  9000001    1    1    2    0    0  0.12450044936E-01 -0.60459917059E-02  0.32948079614E-01  0.35750994182E-01  0.10000000475E-02 0. -1.
</event>
<event>
 4   0  0.2441219E-02  0.9118800E+02  0.7818609E-02  0.1379984E+01
      -11   -1    0    0    0    0  0.00000000000E+00  0.00000000000E+00  0.35740347158E-01  0.35744000000E-01  0.51099999109E-03 0.  1.
       11   -1    0    0    0    0 -0.00000000000E+00 -0.00000000000E+00 -0.35740347158E-01  0.35744000000E-01  0.51099999109E-03 0. -1.
       22    1    1    2    0    0 -0.20505961680E-01  0.94524756624E-02  0.27699996828E-01  0.35737005818E-01  0.00000000000E+00 0.  1.
  9000001    1    1    2    0    0  0.20505961680E-01 -0.94524756624E-02 -0.27699996828E-01  0.35750994182E-01  0.10000000475E-02 0. -1.
</event>
<event>
 4   0  0.2441219E-02  0.9118800E+02  0.7818609E-02  0.1379984E+01
      -11   -1    0    0    0    0  0.00000000000E+00  0.00000000000E+00  0.35740347158E-01  0.35744000000E-01  0.51099999109E-03 0.  1.
       11   -1    0    0    0    0 -0.00000000000E+00 -0.00000000000E+00 -0.35740347158E-01  0.35744000000E-01  0.51099999109E-03 0. -1.
       22    1    1    2    0    0 -0.68456304584E-02 -0.13363586128E-02 -0.35049751414E-01  0.35737005818E-01  0.00000000000E+00 0. -1.
  9000001    1    1    2    0    0  0.68456304584E-02  0.13363586128E-02  0.35049751414E-01  0.35750994182E-01  0.10000000475E-02 0.  1.
</event>
<event>
 4   0  0.2441219E-02  0.9118800E+02  0.7818609E-02  0.1379984E+01
      -11   -1    0    0    0    0  0.00000000000E+00  0.00000000000E+00  0.35740347158E-01  0.35744000000E-01  0.51099999109E-03 0.  1.
       11   -1    0    0    0    0 -0.00000000000E+00 -0.00000000000E+00 -0.35740347158E-01  0.35744000000E-01  0.51099999109E-03 0. -1.
       22    1    1    2    0    0 -0.24803518619E-03 -0.10120720251E-01  0.34273066467E-01  0.35737005818E-01  0.00000000000E+00 0.  1.
  9000001    1    1    2    0    0  0.24803518619E-03  0.10120720251E-01 -0.34273066467E-01  0.35750994182E-01  0.10000000475E-02 0. -1.
</event>
<event>
 4   0  0.2441219E-02  0.9118800E+02  0.7818609E-02  0.1379984E+01
      -11   -1    0    0    0    0  0.00000000000E+00  0.00000000000E+00  0.35740347158E-01  0.35744000000E-01  0.51099999109E-03 0. -1.
       11   -1    0    0    0    0 -0.00000000000E+00 -0.00000000000E+00 -0.35740347158E-01  0.35744000000E-01  0.51099999109E-03 0.  1.
       22    1    1    2    0    0 -0.30760084883E-01  0.84376613114E-02 -0.16116967284E-01  0.35737005818E-01  0.00000000000E+00 0.  1.
  9000001    1    1    2    0    0  0.30760084883E-01 -0.84376613114E-02  0.16116967284E-01  0.35750994182E-01  0.10000000475E-02 0. -1.
</event>
<event>
 4   0  0.2441219E-02  0.9118800E+02  0.7818609E-02  0.1379984E+01
      -11   -1    0    0    0    0  0.00000000000E+00  0.00000000000E+00  0.35740347158E-01  0.35744000000E-01  0.51099999109E-03 0. -1.
       11   -1    0    0    0    0 -0.00000000000E+00 -0.00000000000E+00 -0.35740347158E-01  0.35744000000E-01  0.51099999109E-03 0.  1.
       22    1    1    2    0    0  0.60557044132E-02 -0.62265717209E-03 -0.35214689080E-01  0.35737005818E-01  0.00000000000E+00 0.  1.
  9000001    1    1    2    0    0 -0.60557044132E-02  0.62265717209E-03  0.35214689080E-01  0.35750994182E-01  0.10000000475E-02 0. -1.
</event>
<event>
 4   0  0.2441219E-02  0.9118800E+02  0.7818609E-02  0.1379984E+01
      -11   -1    0    0    0    0  0.00000000000E+00  0.00000000000E+00  0.35740347158E-01  0.35744000000E-01  0.51099999109E-03 0.  1.
       11   -1    0    0    0    0 -0.00000000000E+00 -0.00000000000E+00 -0.35740347158E-01  0.35744000000E-01  0.51099999109E-03 0. -1.
       22    1    1    2    0    0  0.47899389770E-02 -0.11046559396E-01  0.33647638773E-01  0.35737005818E-01  0.00000000000E+00 0.  1.
  9000001    1    1    2    0    0 -0.47899389770E-02  0.11046559396E-01 -0.33647638773E-01  0.35750994182E-01  0.10000000475E-02 0. -1.
</event>
<event>
 4   0  0.2441219E-02  0.9118800E+02  0.7818609E-02  0.1379984E+01
      -11   -1    0    0    0    0  0.00000000000E+00  0.00000000000E+00  0.35740347158E-01  0.35744000000E-01  0.51099999109E-03 0.  1.
       11   -1    0    0    0    0 -0.00000000000E+00 -0.00000000000E+00 -0.35740347158E-01  0.35744000000E-01  0.51099999109E-03 0. -1.
       22    1    1    2    0    0  0.56785814926E-02 -0.49348607838E-03 -0.35279509189E-01  0.35737005818E-01  0.00000000000E+00 0. -1.
  9000001    1    1    2    0    0 -0.56785814926E-02  0.49348607838E-03  0.35279509189E-01  0.35750994182E-01  0.10000000475E-02 0.  1.
</event>
<event>
 4   0  0.2441219E-02  0.9118800E+02  0.7818609E-02  0.1379984E+01
      -11   -1    0    0    0    0  0.00000000000E+00  0.00000000000E+00  0.35740347158E-01  0.35744000000E-01  0.51099999109E-03 0. -1.
       11   -1    0    0    0    0 -0.00000000000E+00 -0.00000000000E+00 -0.35740347158E-01  0.35744000000E-01  0.51099999109E-03 0.  1.
       22    1    1    2    0    0 -0.15744852189E-02 -0.25833484691E-02  0.35608719323E-01  0.35737005818E-01  0.00000000000E+00 0. -1.
  9000001    1    1    2    0    0  0.15744852189E-02  0.25833484691E-02 -0.35608719323E-01  0.35750994182E-01  0.10000000475E-02 0.  1.
</event>
<event>
 4   0  0.2441219E-02  0.9118800E+02  0.7818609E-02  0.1379984E+01
      -11   -1    0    0    0    0  0.00000000000E+00  0.00000000000E+00  0.35740347158E-01  0.35744000000E-01  0.51099999109E-03 0. -1.
       11   -1    0    0    0    0 -0.00000000000E+00 -0.00000000000E+00 -0.35740347158E-01  0.35744000000E-01  0.51099999109E-03 0.  1.
       22    1    1    2    0    0  0.27236422696E-02  0.21370130742E-02  0.35568926506E-01  0.35737005818E-01  0.00000000000E+00 0. -1.
  9000001    1    1    2    0    0 -0.27236422696E-02 -0.21370130742E-02 -0.35568926506E-01  0.35750994182E-01  0.10000000475E-02 0.  1.
</event>
<event>
 4   0  0.2441219E-02  0.9118800E+02  0.7818609E-02  0.1379984E+01
      -11   -1    0    0    0    0  0.00000000000E+00  0.00000000000E+00  0.35740347158E-01  0.35744000000E-01  0.51099999109E-03 0. -1.
       11   -1    0    0    0    0 -0.00000000000E+00 -0.00000000000E+00 -0.35740347158E-01  0.35744000000E-01  0.51099999109E-03 0.  1.
       22    1    1    2    0    0  0.25397721619E-01  0.21516065224E-01 -0.13005701008E-01  0.35737005818E-01  0.00000000000E+00 0.  1.
  9000001    1    1    2    0    0 -0.25397721619E-01 -0.21516065224E-01  0.13005701008E-01  0.35750994182E-01  0.10000000475E-02 0. -1.
</event>
<event>
 4   0  0.2441219E-02  0.9118800E+02  0.7818609E-02  0.1379984E+01
      -11   -1    0    0    0    0  0.00000000000E+00  0.00000000000E+00  0.35740347158E-01  0.35744000000E-01  0.51099999109E-03 0.  1.
       11   -1    0    0    0    0 -0.00000000000E+00 -0.00000000000E+00 -0.35740347158E-01  0.35744000000E-01  0.51099999109E-03 0. -1.
       22    1    1    2    0    0 -0.58056456491E-02 -0.28597093205E-01  0.20630907001E-01  0.35737005818E-01  0.00000000000E+00 0.  1.
  9000001    1    1    2    0    0  0.58056456491E-02  0.28597093205E-01 -0.20630907001E-01  0.35750994182E-01  0.10000000475E-02 0. -1.
</event>
<event>
 4   0  0.2441219E-02  0.9118800E+02  0.7818609E-02  0.1379984E+01
      -11   -1    0    0    0    0  0.00000000000E+00  0.00000000000E+00  0.35740347158E-01  0.35744000000E-01  0.51099999109E-03 0. -1.
       11   -1    0    0    0    0 -0.00000000000E+00 -0.00000000000E+00 -0.35740347158E-01  0.35744000000E-01  0.51099999109E-03 0.  1.
       22    1    1    2    0    0 -0.28328578674E-03  0.81415891749E-02 -0.34796089719E-01  0.35737005818E-01  0.00000000000E+00 0.  1.
  9000001    1    1    2    0    0  0.28328578674E-03 -0.81415891749E-02  0.34796089719E-01  0.35750994182E-01  0.10000000475E-02 0. -1.
</event>
<event>
 4   0  0.2441219E-02  0.9118800E+02  0.7818609E-02  0.1379984E+01
      -11   -1    0    0    0    0  0.00000000000E+00  0.00000000000E+00  0.35740347158E-01  0.35744000000E-01  0.51099999109E-03 0. -1.
       11   -1    0    0    0    0 -0.00000000000E+00 -0.00000000000E+00 -0.35740347158E-01  0.35744000000E-01  0.51099999109E-03 0.  1.
       22    1    1    2    0    0 -0.22140672073E-02 -0.25216765339E-01  0.25225904089E-01  0.35737005818E-01  0.00000000000E+00 0. -1.
  9000001    1    1    2    0    0  0.22140672073E-02  0.25216765339E-01 -0.25225904089E-01  0.35750994182E-01  0.10000000475E-02 0.  1.
</event>
<event>
 4   0  0.2441219E-02  0.9118800E+02  0.7818609E-02  0.1379984E+01
      -11   -1    0    0    0    0  0.00000000000E+00  0.00000000000E+00  0.35740347158E-01  0.35744000000E-01  0.51099999109E-03 0.  1.
       11   -1    0    0    0    0 -0.00000000000E+00 -0.00000000000E+00 -0.35740347158E-01  0.35744000000E-01  0.51099999109E-03 0. -1.
       22    1    1    2    0    0  0.27514733947E-01 -0.10982898139E-01  0.19986218981E-01  0.35737005818E-01  0.00000000000E+00 0.  1.
  9000001    1    1    2    0    0 -0.27514733947E-01  0.10982898139E-01 -0.19986218981E-01  0.35750994182E-01  0.10000000475E-02 0. -1.
</event>
<event>
 4   0  0.2441219E-02  0.9118800E+02  0.7818609E-02  0.1379984E+01
      -11   -1    0    0    0    0  0.00000000000E+00  0.00000000000E+00  0.35740347158E-01  0.35744000000E-01  0.51099999109E-03 0. -1.
       11   -1    0    0    0    0 -0.00000000000E+00 -0.00000000000E+00 -0.35740347158E-01  0.35744000000E-01  0.51099999109E-03 0.  1.
       22    1    1    2    0    0 -0.10665665037E-01  0.86949477814E-02  0.32981435040E-01  0.35737005818E-01  0.00000000000E+00 0. -1.
  9000001    1    1    2    0    0  0.10665665037E-01 -0.86949477814E-02 -0.32981435040E-01  0.35750994182E-01  0.10000000475E-02 0.  1.
</event>
<event>
 4   0  0.2441219E-02  0.9118800E+02  0.7818609E-02  0.1379984E+01
      -11   -1    0    0    0    0  0.00000000000E+00  0.00000000000E+00  0.35740347158E-01  0.35744000000E-01  0.51099999109E-03 0.  1.
       11   -1    0    0    0    0 -0.00000000000E+00 -0.00000000000E+00 -0.35740347158E-01  0.35744000000E-01  0.51099999109E-03 0. -1.
       22    1    1    2    0    0 -0.34458452005E-01 -0.43491874995E-02  0.84162484745E-02  0.35737005818E-01  0.00000000000E+00 0.  1.
  9000001    1    1    2    0    0  0.34458452005E-01  0.43491874995E-02 -0.84162484745E-02  0.35750994182E-01  0.10000000475E-02 0. -1.
</event>
<event>
 4   0  0.2441219E-02  0.9118800E+02  0.7818609E-02  0.1379984E+01
      -11   -1    0    0    0    0  0.00000000000E+00  0.00000000000E+00  0.35740347158E-01  0.35744000000E-01  0.51099999109E-03 0. -1.
       11   -1    0    0    0    0 -0.00000000000E+00 -0.00000000000E+00 -0.35740347158E-01  0.35744000000E-01  0.51099999109E-03 0.  1.
       22    1    1    2    0    0  0.35572469357E-02  0.13879699390E-02  0.35532423483E-01  0.35737005818E-01  0.00000000000E+00 0. -1.
  9000001    1    1    2    0    0 -0.35572469357E-02 -0.13879699390E-02 -0.35532423483E-01  0.35750994182E-01  0.10000000475E-02 0.  1.
</event>
<event>
 4   0  0.2441219E-02  0.9118800E+02  0.7818609E-02  0.1379984E+01
      -11   -1    0    0    0    0  0.00000000000E+00  0.00000000000E+00  0.35740347158E-01  0.35744000000E-01  0.51099999109E-03 0. -1.
       11   -1    0    0    0    0 -0.00000000000E+00 -0.00000000000E+00 -0.35740347158E-01  0.35744000000E-01  0.51099999109E-03 0.  1.
       22    1    1    2    0    0  0.94790365297E-02  0.22425146826E-01 -0.26160929670E-01  0.35737005818E-01  0.00000000000E+00 0.  1.
  9000001    1    1    2    0    0 -0.94790365297E-02 -0.22425146826E-01  0.26160929670E-01  0.35750994182E-01  0.10000000475E-02 0. -1.
</event>
<event>
 4   0  0.2441219E-02  0.9118800E+02  0.7818609E-02  0.1379984E+01
      -11   -1    0    0    0    0  0.00000000000E+00  0.00000000000E+00  0.35740347158E-01  0.35744000000E-01  0.51099999109E-03 0.  1.
       11   -1    0    0    0    0 -0.00000000000E+00 -0.00000000000E+00 -0.35740347158E-01  0.35744000000E-01  0.51099999109E-03 0. -1.
       22    1    1    2    0    0 -0.19294212970E-02  0.58917838387E-02  0.35195138891E-01  0.35737005818E-01  0.00000000000E+00 0.  1.
  9000001    1    1    2    0    0  0.19294212970E-02 -0.58917838387E-02 -0.35195138891E-01  0.35750994182E-01  0.10000000475E-02 0. -1.
</event>
<event>
 4   0  0.2441219E-02  0.9118800E+02  0.7818609E-02  0.1379984E+01
      -11   -1    0    0    0    0  0.00000000000E+00  0.00000000000E+00  0.35740347158E-01  0.35744000000E-01  0.51099999109E-03 0. -1.
       11   -1    0    0    0    0 -0.00000000000E+00 -0.00000000000E+00 -0.35740347158E-01  0.35744000000E-01  0.51099999109E-03 0.  1.
       22    1    1    2    0    0  0.20145620546E-01 -0.31618045796E-02 -0.29347752035E-01  0.35737005818E-01  0.00000000000E+00 0.  1.
  9000001    1    1    2    0    0 -0.20145620546E-01  0.31618045796E-02  0.29347752035E-01  0.35750994182E-01  0.10000000475E-02 0. -1.
</event>
<event>
 4   0  0.2441219E-02  0.9118800E+02  0.7818609E-02  0.1379984E+01
      -11   -1    0    0    0    0  0.00000000000E+00  0.00000000000E+00  0.35740347158E-01  0.35744000000E-01  0.51099999109E-03 0. -1.
       11   -1    0    0    0    0 -0.00000000000E+00 -0.00000000000E+00 -0.35740347158E-01  0.35744000000E-01  0.51099999109E-03 0.  1.
       22    1    1    2    0    0 -0.54887801480E-02 -0.95063695965E-02 -0.34009348927E-01  0.35737005818E-01  0.00000000000E+00 0.  1.
  9000001    1    1    2    0    0  0.54887801480E-02  0.95063695965E-02  0.34009348927E-01  0.35750994182E-01  0.10000000475E-02 0. -1.
</event>
<event>
 4   0  0.2441219E-02  0.9118800E+02  0.7818609E-02  0.1379984E+01
      -11   -1    0    0    0    0  0.00000000000E+00  0.00000000000E+00  0.35740347158E-01  0.35744000000E-01  0.51099999109E-03 0. -1.
       11   -1    0    0    0    0 -0.00000000000E+00 -0.00000000000E+00 -0.35740347158E-01  0.35744000000E-01  0.51099999109E-03 0.  1.
       22    1    1    2    0    0 -0.82841934114E-03 -0.40263583026E-02  0.35499799226E-01  0.35737005818E-01  0.00000000000E+00 0. -1.
  9000001    1    1    2    0    0  0.82841934114E-03  0.40263583026E-02 -0.35499799226E-01  0.35750994182E-01  0.10000000475E-02 0.  1.
</event>
<event>
 4   0  0.2441219E-02  0.9118800E+02  0.7818609E-02  0.1379984E+01
      -11   -1    0    0    0    0  0.00000000000E+00  0.00000000000E+00  0.35740347158E-01  0.35744000000E-01  0.51099999109E-03 0.  1.
       11   -1    0    0    0    0 -0.00000000000E+00 -0.00000000000E+00 -0.35740347158E-01  0.35744000000E-01  0.51099999109E-03 0. -1.
       22    1    1    2    0    0  0.15460621197E-01  0.36446345848E-02  0.32012800812E-01  0.35737005818E-01  0.00000000000E+00 0.  1.
  9000001    1    1    2    0    0 -0.15460621197E-01 -0.36446345848E-02 -0.32012800812E-01  0.35750994182E-01  0.10000000475E-02 0. -1.
</event>
<event>
 4   0  0.2441219E-02  0.9118800E+02  0.7818609E-02  0.1379984E+01
      -11   -1    0    0    0    0  0.00000000000E+00  0.00000000000E+00  0.35740347158E-01  0.35744000000E-01  0.51099999109E-03 0.  1.
       11   -1    0    0    0    0 -0.00000000000E+00 -0.00000000000E+00 -0.35740347158E-01  0.35744000000E-01  0.51099999109E-03 0. -1.
       22    1    1    2    0    0  0.30696646892E-02 -0.16422581519E-01  0.31591289303E-01  0.35737005818E-01  0.00000000000E+00 0.  1.
  9000001    1    1    2    0    0 -0.30696646892E-02  0.16422581519E-01 -0.31591289303E-01  0.35750994182E-01  0.10000000475E-02 0. -1.
</event>
<event>
 4   0  0.2441219E-02  0.9118800E+02  0.7818609E-02  0.1379984E+01
      -11   -1    0    0    0    0  0.00000000000E+00  0.00000000000E+00  0.35740347158E-01  0.35744000000E-01  0.51099999109E-03 0.  1.
       11   -1    0    0    0    0 -0.00000000000E+00 -0.00000000000E+00 -0.35740347158E-01  0.35744000000E-01  0.51099999109E-03 0. -1.
       22    1    1    2    0    0  0.91872153734E-03  0.29996237375E-02 -0.35599042024E-01  0.35737005818E-01  0.00000000000E+00 0. -1.
  9000001    1    1    2    0    0 -0.91872153734E-03 -0.29996237375E-02  0.35599042024E-01  0.35750994182E-01  0.10000000475E-02 0.  1.
</event>
<event>
 4   0  0.2441219E-02  0.9118800E+02  0.7818609E-02  0.1379984E+01
      -11   -1    0    0    0    0  0.00000000000E+00  0.00000000000E+00  0.35740347158E-01  0.35744000000E-01  0.51099999109E-03 0.  1.
       11   -1    0    0    0    0 -0.00000000000E+00 -0.00000000000E+00 -0.35740347158E-01  0.35744000000E-01  0.51099999109E-03 0. -1.
       22    1    1    2    0    0 -0.52247870665E-02 -0.40331256201E-02 -0.35122202134E-01  0.35737005818E-01  0.00000000000E+00 0. -1.
  9000001    1    1    2    0    0  0.52247870665E-02  0.40331256201E-02  0.35122202134E-01  0.35750994182E-01  0.10000000475E-02 0.  1.
</event>
<event>
 4   0  0.2441219E-02  0.9118800E+02  0.7818609E-02  0.1379984E+01
      -11   -1    0    0    0    0  0.00000000000E+00  0.00000000000E+00  0.35740347158E-01  0.35744000000E-01  0.51099999109E-03 0.  1.
       11   -1    0    0    0    0 -0.00000000000E+00 -0.00000000000E+00 -0.35740347158E-01  0.35744000000E-01  0.51099999109E-03 0. -1.
       22    1    1    2    0    0 -0.10888246088E-01 -0.45773996120E-02 -0.33728728034E-01  0.35737005818E-01  0.00000000000E+00 0. -1.
  9000001    1    1    2    0    0  0.10888246088E-01  0.45773996120E-02  0.33728728034E-01  0.35750994182E-01  0.10000000475E-02 0.  1.
</event>
<event>
 4   0  0.2441219E-02  0.9118800E+02  0.7818609E-02  0.1379984E+01
      -11   -1    0    0    0    0  0.00000000000E+00  0.00000000000E+00  0.35740347158E-01  0.35744000000E-01  0.51099999109E-03 0. -1.
       11   -1    0    0    0    0 -0.00000000000E+00 -0.00000000000E+00 -0.35740347158E-01  0.35744000000E-01  0.51099999109E-03 0.  1.
       22    1    1    2    0    0 -0.24263919273E-01 -0.25805856148E-01 -0.47385224301E-02  0.35737005818E-01  0.00000000000E+00 0. -1.
  9000001    1    1    2    0    0  0.24263919273E-01  0.25805856148E-01  0.47385224301E-02  0.35750994182E-01  0.10000000475E-02 0.  1.
</event>
<event>
 4   0  0.2441219E-02  0.9118800E+02  0.7818609E-02  0.1379984E+01
      -11   -1    0    0    0    0  0.00000000000E+00  0.00000000000E+00  0.35740347158E-01  0.35744000000E-01  0.51099999109E-03 0.  1.
       11   -1    0    0    0    0 -0.00000000000E+00 -0.00000000000E+00 -0.35740347158E-01  0.35744000000E-01  0.51099999109E-03 0. -1.
       22    1    1    2    0    0 -0.46400650863E-02 -0.11758748053E-01 -0.33426564662E-01  0.35737005818E-01  0.00000000000E+00 0. -1.
  9000001    1    1    2    0    0  0.46400650863E-02  0.11758748053E-01  0.33426564662E-01  0.35750994182E-01  0.10000000475E-02 0.  1.
</event>
<event>
 4   0  0.2441219E-02  0.9118800E+02  0.7818609E-02  0.1379984E+01
      -11   -1    0    0    0    0  0.00000000000E+00  0.00000000000E+00  0.35740347158E-01  0.35744000000E-01  0.51099999109E-03 0.  1.
       11   -1    0    0    0    0 -0.00000000000E+00 -0.00000000000E+00 -0.35740347158E-01  0.35744000000E-01  0.51099999109E-03 0. -1.
       22    1    1    2    0    0 -0.28334401993E-02 -0.22909462880E-01 -0.27281160387E-01  0.35737005818E-01  0.00000000000E+00 0. -1.
  9000001    1    1    2    0    0  0.28334401993E-02  0.22909462880E-01  0.27281160387E-01  0.35750994182E-01  0.10000000475E-02 0.  1.
</event>
<event>
 4   0  0.2441219E-02  0.9118800E+02  0.7818609E-02  0.1379984E+01
      -11   -1    0    0    0    0  0.00000000000E+00  0.00000000000E+00  0.35740347158E-01  0.35744000000E-01  0.51099999109E-03 0.  1.
       11   -1    0    0    0    0 -0.00000000000E+00 -0.00000000000E+00 -0.35740347158E-01  0.35744000000E-01  0.51099999109E-03 0. -1.
       22    1    1    2    0    0 -0.56697710853E-02  0.11011340552E-02  0.35267191333E-01  0.35737005818E-01  0.00000000000E+00 0.  1.
  9000001    1    1    2    0    0  0.56697710853E-02 -0.11011340552E-02 -0.35267191333E-01  0.35750994182E-01  0.10000000475E-02 0. -1.
</event>
<event>
 4   0  0.2441219E-02  0.9118800E+02  0.7818609E-02  0.1379984E+01
      -11   -1    0    0    0    0  0.00000000000E+00  0.00000000000E+00  0.35740347158E-01  0.35744000000E-01  0.51099999109E-03 0.  1.
       11   -1    0    0    0    0 -0.00000000000E+00 -0.00000000000E+00 -0.35740347158E-01  0.35744000000E-01  0.51099999109E-03 0. -1.
       22    1    1    2    0    0 -0.79369476802E-02  0.10706934862E-01 -0.33158709146E-01  0.35737005818E-01  0.00000000000E+00 0. -1.
  9000001    1    1    2    0    0  0.79369476802E-02 -0.10706934862E-01  0.33158709146E-01  0.35750994182E-01  0.10000000475E-02 0.  1.
</event>
<event>
 4   0  0.2441219E-02  0.9118800E+02  0.7818609E-02  0.1379984E+01
      -11   -1    0    0    0    0  0.00000000000E+00  0.00000000000E+00  0.35740347158E-01  0.35744000000E-01  0.51099999109E-03 0.  1.
       11   -1    0    0    0    0 -0.00000000000E+00 -0.00000000000E+00 -0.35740347158E-01  0.35744000000E-01  0.51099999109E-03 0. -1.
       22    1    1    2    0    0  0.22174363669E-02 -0.68287009896E-02 -0.35008361910E-01  0.35737005818E-01  0.00000000000E+00 0. -1.
  9000001    1    1    2    0    0 -0.22174363669E-02  0.68287009896E-02  0.35008361910E-01  0.35750994182E-01  0.10000000475E-02 0.  1.
</event>
<event>
 4   0  0.2441219E-02  0.9118800E+02  0.7818609E-02  0.1379984E+01
      -11   -1    0    0    0    0  0.00000000000E+00  0.00000000000E+00  0.35740347158E-01  0.35744000000E-01  0.51099999109E-03 0. -1.
       11   -1    0    0    0    0 -0.00000000000E+00 -0.00000000000E+00 -0.35740347158E-01  0.35744000000E-01  0.51099999109E-03 0.  1.
       22    1    1    2    0    0  0.29928000031E-02 -0.12789334077E-01  0.33235668594E-01  0.35737005818E-01  0.00000000000E+00 0. -1.
  9000001    1    1    2    0    0 -0.29928000031E-02  0.12789334077E-01 -0.33235668594E-01  0.35750994182E-01  0.10000000475E-02 0.  1.
</event>
<event>
 4   0  0.2441219E-02  0.9118800E+02  0.7818609E-02  0.1379984E+01
      -11   -1    0    0    0    0  0.00000000000E+00  0.00000000000E+00  0.35740347158E-01  0.35744000000E-01  0.51099999109E-03 0.  1.
       11   -1    0    0    0    0 -0.00000000000E+00 -0.00000000000E+00 -0.35740347158E-01  0.35744000000E-01  0.51099999109E-03 0. -1.
       22    1    1    2    0    0  0.98581526512E-02  0.11866832006E-03  0.34350201295E-01  0.35737005818E-01  0.00000000000E+00 0.  1.
  9000001    1    1    2    0    0 -0.98581526512E-02 -0.11866832006E-03 -0.34350201295E-01  0.35750994182E-01  0.10000000475E-02 0. -1.
</event>
<event>
 4   0  0.2441219E-02  0.9118800E+02  0.7818609E-02  0.1379984E+01
      -11   -1    0    0    0    0  0.00000000000E+00  0.00000000000E+00  0.35740347158E-01  0.35744000000E-01  0.51099999109E-03 0. -1.
       11   -1    0    0    0    0 -0.00000000000E+00 -0.00000000000E+00 -0.35740347158E-01  0.35744000000E-01  0.51099999109E-03 0.  1.
       22    1    1    2    0    0  0.68441065224E-02 -0.83270517154E-02 -0.34072745714E-01  0.35737005818E-01  0.00000000000E+00 0.  1.
  9000001    1    1    2    0    0 -0.68441065224E-02  0.83270517154E-02  0.34072745714E-01  0.35750994182E-01  0.10000000475E-02 0. -1.
</event>
<event>
 4   0  0.2441219E-02  0.9118800E+02  0.7818609E-02  0.1379984E+01
      -11   -1    0    0    0    0  0.00000000000E+00  0.00000000000E+00  0.35740347158E-01  0.35744000000E-01  0.51099999109E-03 0.  1.
       11   -1    0    0    0    0 -0.00000000000E+00 -0.00000000000E+00 -0.35740347158E-01  0.35744000000E-01  0.51099999109E-03 0. -1.
       22    1    1    2    0    0 -0.34173364381E-01 -0.10111413425E-01 -0.26597124497E-02  0.35737005818E-01  0.00000000000E+00 0.  1.
  9000001    1    1    2    0    0  0.34173364381E-01  0.10111413425E-01  0.26597124497E-02  0.35750994182E-01  0.10000000475E-02 0. -1.
</event>
<event>
 4   0  0.2441219E-02  0.9118800E+02  0.7818609E-02  0.1379984E+01
      -11   -1    0    0    0    0  0.00000000000E+00  0.00000000000E+00  0.35740347158E-01  0.35744000000E-01  0.51099999109E-03 0.  1.
       11   -1    0    0    0    0 -0.00000000000E+00 -0.00000000000E+00 -0.35740347158E-01  0.35744000000E-01  0.51099999109E-03 0. -1.
       22    1    1    2    0    0 -0.35900155853E-02 -0.43900691824E-04  0.35556201227E-01  0.35737005818E-01  0.00000000000E+00 0.  1.
  9000001    1    1    2    0    0  0.35900155853E-02  0.43900691824E-04 -0.35556201227E-01  0.35750994182E-01  0.10000000475E-02 0. -1.
</event>
<event>
 4   0  0.2441219E-02  0.9118800E+02  0.7818609E-02  0.1379984E+01
      -11   -1    0    0    0    0  0.00000000000E+00  0.00000000000E+00  0.35740347158E-01  0.35744000000E-01  0.51099999109E-03 0. -1.
       11   -1    0    0    0    0 -0.00000000000E+00 -0.00000000000E+00 -0.35740347158E-01  0.35744000000E-01  0.51099999109E-03 0.  1.
       22    1    1    2    0    0  0.33048318566E-01 -0.10705318991E-01 -0.83867973722E-02  0.35737005818E-01  0.00000000000E+00 0.  1.
  9000001    1    1    2    0    0 -0.33048318566E-01  0.10705318991E-01  0.83867973722E-02  0.35750994182E-01  0.10000000475E-02 0. -1.
</event>
<event>
 4   0  0.2441219E-02  0.9118800E+02  0.7818609E-02  0.1379984E+01
      -11   -1    0    0    0    0  0.00000000000E+00  0.00000000000E+00  0.35740347158E-01  0.35744000000E-01  0.51099999109E-03 0. -1.
       11   -1    0    0    0    0 -0.00000000000E+00 -0.00000000000E+00 -0.35740347158E-01  0.35744000000E-01  0.51099999109E-03 0.  1.
       22    1    1    2    0    0 -0.23294426841E-02  0.96593511340E-02 -0.34327892701E-01  0.35737005818E-01  0.00000000000E+00 0.  1.
  9000001    1    1    2    0    0  0.23294426841E-02 -0.96593511340E-02  0.34327892701E-01  0.35750994182E-01  0.10000000475E-02 0. -1.
</event>
<event>
 4   0  0.2441219E-02  0.9118800E+02  0.7818609E-02  0.1379984E+01
      -11   -1    0    0    0    0  0.00000000000E+00  0.00000000000E+00  0.35740347158E-01  0.35744000000E-01  0.51099999109E-03 0. -1.
       11   -1    0    0    0    0 -0.00000000000E+00 -0.00000000000E+00 -0.35740347158E-01  0.35744000000E-01  0.51099999109E-03 0.  1.
       22    1    1    2    0    0 -0.26299233745E-01  0.64267533192E-03  0.24188238003E-01  0.35737005818E-01  0.00000000000E+00 0. -1.
  9000001    1    1    2    0    0  0.26299233745E-01 -0.64267533192E-03 -0.24188238003E-01  0.35750994182E-01  0.10000000475E-02 0.  1.
</event>
<event>
 4   0  0.2441219E-02  0.9118800E+02  0.7818609E-02  0.1379984E+01
      -11   -1    0    0    0    0  0.00000000000E+00  0.00000000000E+00  0.35740347158E-01  0.35744000000E-01  0.51099999109E-03 0. -1.
       11   -1    0    0    0    0 -0.00000000000E+00 -0.00000000000E+00 -0.35740347158E-01  0.35744000000E-01  0.51099999109E-03 0.  1.
       22    1    1    2    0    0  0.18388619071E-02  0.63863130437E-02 -0.35113632359E-01  0.35737005818E-01  0.00000000000E+00 0.  1.
  9000001    1    1    2    0    0 -0.18388619071E-02 -0.63863130437E-02  0.35113632359E-01  0.35750994182E-01  0.10000000475E-02 0. -1.
</event>
<event>
 4   0  0.2441219E-02  0.9118800E+02  0.7818609E-02  0.1379984E+01
      -11   -1    0    0    0    0  0.00000000000E+00  0.00000000000E+00  0.35740347158E-01  0.35744000000E-01  0.51099999109E-03 0.  1.
       11   -1    0    0    0    0 -0.00000000000E+00 -0.00000000000E+00 -0.35740347158E-01  0.35744000000E-01  0.51099999109E-03 0. -1.
       22    1    1    2    0    0 -0.46205529942E-02 -0.11126864365E-02  0.35419570915E-01  0.35737005818E-01  0.00000000000E+00 0.  1.
  9000001    1    1    2    0    0  0.46205529942E-02  0.11126864365E-02 -0.35419570915E-01  0.35750994182E-01  0.10000000475E-02 0. -1.
</event>
<event>
 4   0  0.2441219E-02  0.9118800E+02  0.7818609E-02  0.1379984E+01
      -11   -1    0    0    0    0  0.00000000000E+00  0.00000000000E+00  0.35740347158E-01  0.35744000000E-01  0.51099999109E-03 0.  1.
       11   -1    0    0    0    0 -0.00000000000E+00 -0.00000000000E+00 -0.35740347158E-01  0.35744000000E-01  0.51099999109E-03 0. -1.
       22    1    1    2    0    0 -0.25527320765E-02  0.66785857248E-02 -0.35014477528E-01  0.35737005818E-01  0.00000000000E+00 0. -1.
  9000001    1    1    2    0    0  0.25527320765E-02 -0.66785857248E-02  0.35014477528E-01  0.35750994182E-01  0.10000000475E-02 0.  1.
</event>
<event>
 4   0  0.2441219E-02  0.9118800E+02  0.7818609E-02  0.1379984E+01
      -11   -1    0    0    0    0  0.00000000000E+00  0.00000000000E+00  0.35740347158E-01  0.35744000000E-01  0.51099999109E-03 0. -1.
       11   -1    0    0    0    0 -0.00000000000E+00 -0.00000000000E+00 -0.35740347158E-01  0.35744000000E-01  0.51099999109E-03 0.  1.
       22    1    1    2    0    0 -0.36092544247E-02 -0.16305206662E-02 -0.35516873029E-01  0.35737005818E-01  0.00000000000E+00 0.  1.
  9000001    1    1    2    0    0  0.36092544247E-02  0.16305206662E-02  0.35516873029E-01  0.35750994182E-01  0.10000000475E-02 0. -1.
</event>
<event>
 4   0  0.2441219E-02  0.9118800E+02  0.7818609E-02  0.1379984E+01
      -11   -1    0    0    0    0  0.00000000000E+00  0.00000000000E+00  0.35740347158E-01  0.35744000000E-01  0.51099999109E-03 0.  1.
       11   -1    0    0    0    0 -0.00000000000E+00 -0.00000000000E+00 -0.35740347158E-01  0.35744000000E-01  0.51099999109E-03 0. -1.
       22    1    1    2    0    0  0.29019364315E-02 -0.44448688228E-02 -0.35340564384E-01  0.35737005818E-01  0.00000000000E+00 0. -1.
  9000001    1    1    2    0    0 -0.29019364315E-02  0.44448688228E-02  0.35340564384E-01  0.35750994182E-01  0.10000000475E-02 0.  1.
</event>
<event>
 4   0  0.2441219E-02  0.9118800E+02  0.7818609E-02  0.1379984E+01
      -11   -1    0    0    0    0  0.00000000000E+00  0.00000000000E+00  0.35740347158E-01  0.35744000000E-01  0.51099999109E-03 0. -1.
       11   -1    0    0    0    0 -0.00000000000E+00 -0.00000000000E+00 -0.35740347158E-01  0.35744000000E-01  0.51099999109E-03 0.  1.
       22    1    1    2    0    0 -0.13777866343E-02 -0.28223548996E-01  0.21878449920E-01  0.35737005818E-01  0.00000000000E+00 0. -1.
  9000001    1    1    2    0    0  0.13777866343E-02  0.28223548996E-01 -0.21878449920E-01  0.35750994182E-01  0.10000000475E-02 0.  1.
</event>
<event>
 4   0  0.2441219E-02  0.9118800E+02  0.7818609E-02  0.1379984E+01
      -11   -1    0    0    0    0  0.00000000000E+00  0.00000000000E+00  0.35740347158E-01  0.35744000000E-01  0.51099999109E-03 0. -1.
       11   -1    0    0    0    0 -0.00000000000E+00 -0.00000000000E+00 -0.35740347158E-01  0.35744000000E-01  0.51099999109E-03 0.  1.
       22    1    1    2    0    0  0.37374877743E-02 -0.13094858924E-01 -0.33040723960E-01  0.35737005818E-01  0.00000000000E+00 0.  1.
  9000001    1    1    2    0    0 -0.37374877743E-02  0.13094858924E-01  0.33040723960E-01  0.35750994182E-01  0.10000000475E-02 0. -1.
</event>
<event>
 4   0  0.2441219E-02  0.9118800E+02  0.7818609E-02  0.1379984E+01
      -11   -1    0    0    0    0  0.00000000000E+00  0.00000000000E+00  0.35740347158E-01  0.35744000000E-01  0.51099999109E-03 0. -1.
       11   -1    0    0    0    0 -0.00000000000E+00 -0.00000000000E+00 -0.35740347158E-01  0.35744000000E-01  0.51099999109E-03 0.  1.
       22    1    1    2    0    0 -0.33822408314E-01 -0.11505932008E-01 -0.88983667898E-03  0.35737005818E-01  0.00000000000E+00 0.  1.
  9000001    1    1    2    0    0  0.33822408314E-01  0.11505932008E-01  0.88983667898E-03  0.35750994182E-01  0.10000000475E-02 0. -1.
</event>
<event>
 4   0  0.2441219E-02  0.9118800E+02  0.7818609E-02  0.1379984E+01
      -11   -1    0    0    0    0  0.00000000000E+00  0.00000000000E+00  0.35740347158E-01  0.35744000000E-01  0.51099999109E-03 0.  1.
       11   -1    0    0    0    0 -0.00000000000E+00 -0.00000000000E+00 -0.35740347158E-01  0.35744000000E-01  0.51099999109E-03 0. -1.
       22    1    1    2    0    0 -0.67956586267E-02 -0.12881797375E-01  0.32634520145E-01  0.35737005818E-01  0.00000000000E+00 0.  1.
  9000001    1    1    2    0    0  0.67956586267E-02  0.12881797375E-01 -0.32634520145E-01  0.35750994182E-01  0.10000000475E-02 0. -1.
</event>
<event>
 4   0  0.2441219E-02  0.9118800E+02  0.7818609E-02  0.1379984E+01
      -11   -1    0    0    0    0  0.00000000000E+00  0.00000000000E+00  0.35740347158E-01  0.35744000000E-01  0.51099999109E-03 0.  1.
       11   -1    0    0    0    0 -0.00000000000E+00 -0.00000000000E+00 -0.35740347158E-01  0.35744000000E-01  0.51099999109E-03 0. -1.
       22    1    1    2    0    0  0.23646944093E-01  0.25041610599E-01 -0.95327518884E-02  0.35737005818E-01  0.00000000000E+00 0. -1.
  9000001    1    1    2    0    0 -0.23646944093E-01 -0.25041610599E-01  0.95327518884E-02  0.35750994182E-01  0.10000000475E-02 0.  1.
</event>
<event>
 4   0  0.2441219E-02  0.9118800E+02  0.7818609E-02  0.1379984E+01
      -11   -1    0    0    0    0  0.00000000000E+00  0.00000000000E+00  0.35740347158E-01  0.35744000000E-01  0.51099999109E-03 0.  1.
       11   -1    0    0    0    0 -0.00000000000E+00 -0.00000000000E+00 -0.35740347158E-01  0.35744000000E-01  0.51099999109E-03 0. -1.
       22    1    1    2    0    0  0.18218032755E-01  0.14187955766E-02 -0.30711950223E-01  0.35737005818E-01  0.00000000000E+00 0. -1.
  9000001    1    1    2    0    0 -0.18218032755E-01 -0.14187955766E-02  0.30711950223E-01  0.35750994182E-01  0.10000000475E-02 0.  1.
</event>
<event>
 4   0  0.2441219E-02  0.9118800E+02  0.7818609E-02  0.1379984E+01
      -11   -1    0    0    0    0  0.00000000000E+00  0.00000000000E+00  0.35740347158E-01  0.35744000000E-01  0.51099999109E-03 0. -1.
       11   -1    0    0    0    0 -0.00000000000E+00 -0.00000000000E+00 -0.35740347158E-01  0.35744000000E-01  0.51099999109E-03 0.  1.
       22    1    1    2    0    0  0.11806529234E-02  0.12617646061E-01 -0.33414587405E-01  0.35737005818E-01  0.00000000000E+00 0.  1.
  9000001    1    1    2    0    0 -0.11806529234E-02 -0.12617646061E-01  0.33414587405E-01  0.35750994182E-01  0.10000000475E-02 0. -1.
</event>
<event>
 4   0  0.2441219E-02  0.9118800E+02  0.7818609E-02  0.1379984E+01
      -11   -1    0    0    0    0  0.00000000000E+00  0.00000000000E+00  0.35740347158E-01  0.35744000000E-01  0.51099999109E-03 0. -1.
       11   -1    0    0    0    0 -0.00000000000E+00 -0.00000000000E+00 -0.35740347158E-01  0.35744000000E-01  0.51099999109E-03 0.  1.
       22    1    1    2    0    0 -0.29986065218E-02 -0.11415356420E-01 -0.33731759243E-01  0.35737005818E-01  0.00000000000E+00 0.  1.
  9000001    1    1    2    0    0  0.29986065218E-02  0.11415356420E-01  0.33731759243E-01  0.35750994182E-01  0.10000000475E-02 0. -1.
</event>
<event>
 4   0  0.2441219E-02  0.9118800E+02  0.7818609E-02  0.1379984E+01
      -11   -1    0    0    0    0  0.00000000000E+00  0.00000000000E+00  0.35740347158E-01  0.35744000000E-01  0.51099999109E-03 0.  1.
       11   -1    0    0    0    0 -0.00000000000E+00 -0.00000000000E+00 -0.35740347158E-01  0.35744000000E-01  0.51099999109E-03 0. -1.
       22    1    1    2    0    0 -0.76519492182E-02 -0.16205954083E-02 -0.34870545286E-01  0.35737005818E-01  0.00000000000E+00 0. -1.
  9000001    1    1    2    0    0  0.76519492182E-02  0.16205954083E-02  0.34870545286E-01  0.35750994182E-01  0.10000000475E-02 0.  1.
</event>
<event>
 4   0  0.2441219E-02  0.9118800E+02  0.7818609E-02  0.1379984E+01
      -11   -1    0    0    0    0  0.00000000000E+00  0.00000000000E+00  0.35740347158E-01  0.35744000000E-01  0.51099999109E-03 0. -1.
       11   -1    0    0    0    0 -0.00000000000E+00 -0.00000000000E+00 -0.35740347158E-01  0.35744000000E-01  0.51099999109E-03 0.  1.
       22    1    1    2    0    0 -0.23681309042E-02 -0.12120073959E-01  0.33535493855E-01  0.35737005818E-01  0.00000000000E+00 0. -1.
  9000001    1    1    2    0    0  0.23681309042E-02  0.12120073959E-01 -0.33535493855E-01  0.35750994182E-01  0.10000000475E-02 0.  1.
</event>
<event>
 4   0  0.2441219E-02  0.9118800E+02  0.7818609E-02  0.1379984E+01
      -11   -1    0    0    0    0  0.00000000000E+00  0.00000000000E+00  0.35740347158E-01  0.35744000000E-01  0.51099999109E-03 0. -1.
       11   -1    0    0    0    0 -0.00000000000E+00 -0.00000000000E+00 -0.35740347158E-01  0.35744000000E-01  0.51099999109E-03 0.  1.
       22    1    1    2    0    0 -0.12291359387E-01 -0.15578034825E-01 -0.29721724383E-01  0.35737005818E-01  0.00000000000E+00 0.  1.
  9000001    1    1    2    0    0  0.12291359387E-01  0.15578034825E-01  0.29721724383E-01  0.35750994182E-01  0.10000000475E-02 0. -1.
</event>
<event>
 4   0  0.2441219E-02  0.9118800E+02  0.7818609E-02  0.1379984E+01
      -11   -1    0    0    0    0  0.00000000000E+00  0.00000000000E+00  0.35740347158E-01  0.35744000000E-01  0.51099999109E-03 0.  1.
       11   -1    0    0    0    0 -0.00000000000E+00 -0.00000000000E+00 -0.35740347158E-01  0.35744000000E-01  0.51099999109E-03 0. -1.
       22    1    1    2    0    0  0.21812680672E-02 -0.29417105080E-02  0.35548867686E-01  0.35737005818E-01  0.00000000000E+00 0.  1.
  9000001    1    1    2    0    0 -0.21812680672E-02  0.29417105080E-02 -0.35548867686E-01  0.35750994182E-01  0.10000000475E-02 0. -1.
</event>
<event>
 4   0  0.2441219E-02  0.9118800E+02  0.7818609E-02  0.1379984E+01
      -11   -1    0    0    0    0  0.00000000000E+00  0.00000000000E+00  0.35740347158E-01  0.35744000000E-01  0.51099999109E-03 0.  1.
       11   -1    0    0    0    0 -0.00000000000E+00 -0.00000000000E+00 -0.35740347158E-01  0.35744000000E-01  0.51099999109E-03 0. -1.
       22    1    1    2    0    0  0.23397156077E-02 -0.11566715826E-01 -0.33732334647E-01  0.35737005818E-01  0.00000000000E+00 0. -1.
  9000001    1    1    2    0    0 -0.23397156077E-02  0.11566715826E-01  0.33732334647E-01  0.35750994182E-01  0.10000000475E-02 0.  1.
</event>
<event>
 4   0  0.2441219E-02  0.9118800E+02  0.7818609E-02  0.1379984E+01
      -11   -1    0    0    0    0  0.00000000000E+00  0.00000000000E+00  0.35740347158E-01  0.35744000000E-01  0.51099999109E-03 0. -1.
       11   -1    0    0    0    0 -0.00000000000E+00 -0.00000000000E+00 -0.35740347158E-01  0.35744000000E-01  0.51099999109E-03 0.  1.
       22    1    1    2    0    0  0.10444704343E-01 -0.57445237476E-02 -0.33690387100E-01  0.35737005818E-01  0.00000000000E+00 0.  1.
  9000001    1    1    2    0    0 -0.10444704343E-01  0.57445237476E-02  0.33690387100E-01  0.35750994182E-01  0.10000000475E-02 0. -1.
</event>
<event>
 4   0  0.2441219E-02  0.9118800E+02  0.7818609E-02  0.1379984E+01
      -11   -1    0    0    0    0  0.00000000000E+00  0.00000000000E+00  0.35740347158E-01  0.35744000000E-01  0.51099999109E-03 0.  1.
       11   -1    0    0    0    0 -0.00000000000E+00 -0.00000000000E+00 -0.35740347158E-01  0.35744000000E-01  0.51099999109E-03 0. -1.
       22    1    1    2    0    0  0.12240576435E-03  0.13488361963E-01 -0.33093544586E-01  0.35737005818E-01  0.00000000000E+00 0. -1.
  9000001    1    1    2    0    0 -0.12240576435E-03 -0.13488361963E-01  0.33093544586E-01  0.35750994182E-01  0.10000000475E-02 0.  1.
</event>
<event>
 4   0  0.2441219E-02  0.9118800E+02  0.7818609E-02  0.1379984E+01
      -11   -1    0    0    0    0  0.00000000000E+00  0.00000000000E+00  0.35740347158E-01  0.35744000000E-01  0.51099999109E-03 0. -1.
       11   -1    0    0    0    0 -0.00000000000E+00 -0.00000000000E+00 -0.35740347158E-01  0.35744000000E-01  0.51099999109E-03 0.  1.
       22    1    1    2    0    0  0.15239537514E-01 -0.30239215862E-01 -0.11422780103E-01  0.35737005818E-01  0.00000000000E+00 0.  1.
  9000001    1    1    2    0    0 -0.15239537514E-01  0.30239215862E-01  0.11422780103E-01  0.35750994182E-01  0.10000000475E-02 0. -1.
</event>
<event>
 4   0  0.2441219E-02  0.9118800E+02  0.7818609E-02  0.1379984E+01
      -11   -1    0    0    0    0  0.00000000000E+00  0.00000000000E+00  0.35740347158E-01  0.35744000000E-01  0.51099999109E-03 0. -1.
       11   -1    0    0    0    0 -0.00000000000E+00 -0.00000000000E+00 -0.35740347158E-01  0.35744000000E-01  0.51099999109E-03 0.  1.
       22    1    1    2    0    0  0.38527142657E-02 -0.13663706685E-02  0.35502439478E-01  0.35737005818E-01  0.00000000000E+00 0. -1.
  9000001    1    1    2    0    0 -0.38527142657E-02  0.13663706685E-02 -0.35502439478E-01  0.35750994182E-01  0.10000000475E-02 0.  1.
</event>
<event>
 4   0  0.2441219E-02  0.9118800E+02  0.7818609E-02  0.1379984E+01
      -11   -1    0    0    0    0  0.00000000000E+00  0.00000000000E+00  0.35740347158E-01  0.35744000000E-01  0.51099999109E-03 0.  1.
       11   -1    0    0    0    0 -0.00000000000E+00 -0.00000000000E+00 -0.35740347158E-01  0.35744000000E-01  0.51099999109E-03 0. -1.
       22    1    1    2    0    0  0.51315959295E-02  0.69823686451E-02 -0.34670547100E-01  0.35737005818E-01  0.00000000000E+00 0. -1.
  9000001    1    1    2    0    0 -0.51315959295E-02 -0.69823686451E-02  0.34670547100E-01  0.35750994182E-01  0.10000000475E-02 0.  1.
</event>
<event>
 4   0  0.2441219E-02  0.9118800E+02  0.7818609E-02  0.1379984E+01
      -11   -1    0    0    0    0  0.00000000000E+00  0.00000000000E+00  0.35740347158E-01  0.35744000000E-01  0.51099999109E-03 0. -1.
       11   -1    0    0    0    0 -0.00000000000E+00 -0.00000000000E+00 -0.35740347158E-01  0.35744000000E-01  0.51099999109E-03 0.  1.
       22    1    1    2    0    0  0.29342536718E-02  0.12140441623E-01  0.33483330442E-01  0.35737005818E-01  0.00000000000E+00 0. -1.
  9000001    1    1    2    0    0 -0.29342536718E-02 -0.12140441623E-01 -0.33483330442E-01  0.35750994182E-01  0.10000000475E-02 0.  1.
</event>
<event>
 4   0  0.2441219E-02  0.9118800E+02  0.7818609E-02  0.1379984E+01
      -11   -1    0    0    0    0  0.00000000000E+00  0.00000000000E+00  0.35740347158E-01  0.35744000000E-01  0.51099999109E-03 0.  1.
       11   -1    0    0    0    0 -0.00000000000E+00 -0.00000000000E+00 -0.35740347158E-01  0.35744000000E-01  0.51099999109E-03 0. -1.
       22    1    1    2    0    0 -0.12382312020E-01 -0.56712540713E-02 -0.33040109128E-01  0.35737005818E-01  0.00000000000E+00 0. -1.
  9000001    1    1    2    0    0  0.12382312020E-01  0.56712540713E-02  0.33040109128E-01  0.35750994182E-01  0.10000000475E-02 0.  1.
</event>
<event>
 4   0  0.2441219E-02  0.9118800E+02  0.7818609E-02  0.1379984E+01
      -11   -1    0    0    0    0  0.00000000000E+00  0.00000000000E+00  0.35740347158E-01  0.35744000000E-01  0.51099999109E-03 0. -1.
       11   -1    0    0    0    0 -0.00000000000E+00 -0.00000000000E+00 -0.35740347158E-01  0.35744000000E-01  0.51099999109E-03 0.  1.
       22    1    1    2    0    0 -0.66587760054E-03 -0.83017775888E-02  0.34752995277E-01  0.35737005818E-01  0.00000000000E+00 0. -1.
  9000001    1    1    2    0    0  0.66587760054E-03  0.83017775888E-02 -0.34752995277E-01  0.35750994182E-01  0.10000000475E-02 0.  1.
</event>
<event>
 4   0  0.2441219E-02  0.9118800E+02  0.7818609E-02  0.1379984E+01
      -11   -1    0    0    0    0  0.00000000000E+00  0.00000000000E+00  0.35740347158E-01  0.35744000000E-01  0.51099999109E-03 0.  1.
       11   -1    0    0    0    0 -0.00000000000E+00 -0.00000000000E+00 -0.35740347158E-01  0.35744000000E-01  0.51099999109E-03 0. -1.
       22    1    1    2    0    0 -0.79185337996E-02  0.87963057126E-02 -0.33720252270E-01  0.35737005818E-01  0.00000000000E+00 0. -1.
  9000001    1    1    2    0    0  0.79185337996E-02 -0.87963057126E-02  0.33720252270E-01  0.35750994182E-01  0.10000000475E-02 0.  1.
</event>
<event>
 4   0  0.2441219E-02  0.9118800E+02  0.7818609E-02  0.1379984E+01
      -11   -1    0    0    0    0  0.00000000000E+00  0.00000000000E+00  0.35740347158E-01  0.35744000000E-01  0.51099999109E-03 0. -1.
       11   -1    0    0    0    0 -0.00000000000E+00 -0.00000000000E+00 -0.35740347158E-01  0.35744000000E-01  0.51099999109E-03 0.  1.
       22    1    1    2    0    0 -0.21235892832E-02 -0.79526212737E-02 -0.34776137915E-01  0.35737005818E-01  0.00000000000E+00 0.  1.
  9000001    1    1    2    0    0  0.21235892832E-02  0.79526212737E-02  0.34776137915E-01  0.35750994182E-01  0.10000000475E-02 0. -1.
</event>
<event>
 4   0  0.2441219E-02  0.9118800E+02  0.7818609E-02  0.1379984E+01
      -11   -1    0    0    0    0  0.00000000000E+00  0.00000000000E+00  0.35740347158E-01  0.35744000000E-01  0.51099999109E-03 0. -1.
       11   -1    0    0    0    0 -0.00000000000E+00 -0.00000000000E+00 -0.35740347158E-01  0.35744000000E-01  0.51099999109E-03 0.  1.
       22    1    1    2    0    0  0.46053560424E-02 -0.17783781099E-01  0.30653897149E-01  0.35737005818E-01  0.00000000000E+00 0. -1.
  9000001    1    1    2    0    0 -0.46053560424E-02  0.17783781099E-01 -0.30653897149E-01  0.35750994182E-01  0.10000000475E-02 0.  1.
</event>
<event>
 4   0  0.2441219E-02  0.9118800E+02  0.7818609E-02  0.1379984E+01
      -11   -1    0    0    0    0  0.00000000000E+00  0.00000000000E+00  0.35740347158E-01  0.35744000000E-01  0.51099999109E-03 0. -1.
       11   -1    0    0    0    0 -0.00000000000E+00 -0.00000000000E+00 -0.35740347158E-01  0.35744000000E-01  0.51099999109E-03 0.  1.
       22    1    1    2    0    0  0.29976349974E-02 -0.86287174779E-02 -0.34549862575E-01  0.35737005818E-01  0.00000000000E+00 0.  1.
  9000001    1    1    2    0    0 -0.29976349974E-02  0.86287174779E-02  0.34549862575E-01  0.35750994182E-01  0.10000000475E-02 0. -1.
</event>
<event>
 4   0  0.2441219E-02  0.9118800E+02  0.7818609E-02  0.1379984E+01
      -11   -1    0    0    0    0  0.00000000000E+00  0.00000000000E+00  0.35740347158E-01  0.35744000000E-01  0.51099999109E-03 0. -1.
       11   -1    0    0    0    0 -0.00000000000E+00 -0.00000000000E+00 -0.35740347158E-01  0.35744000000E-01  0.51099999109E-03 0.  1.
       22    1    1    2    0    0  0.38947860226E-02 -0.46916607515E-03  0.35521037568E-01  0.35737005818E-01  0.00000000000E+00 0. -1.
  9000001    1    1    2    0    0 -0.38947860226E-02  0.46916607515E-03 -0.35521037568E-01  0.35750994182E-01  0.10000000475E-02 0.  1.
</event>
<event>
 4   0  0.2441219E-02  0.9118800E+02  0.7818609E-02  0.1379984E+01
      -11   -1    0    0    0    0  0.00000000000E+00  0.00000000000E+00  0.35740347158E-01  0.35744000000E-01  0.51099999109E-03 0.  1.
       11   -1    0    0    0    0 -0.00000000000E+00 -0.00000000000E+00 -0.35740347158E-01  0.35744000000E-01  0.51099999109E-03 0. -1.
       22    1    1    2    0    0  0.11823500142E-01 -0.32781907663E-01  0.79173833562E-02  0.35737005818E-01  0.00000000000E+00 0.  1.
  9000001    1    1    2    0    0 -0.11823500142E-01  0.32781907663E-01 -0.79173833562E-02  0.35750994182E-01  0.10000000475E-02 0. -1.
</event>
<event>
 4   0  0.2441219E-02  0.9118800E+02  0.7818609E-02  0.1379984E+01
      -11   -1    0    0    0    0  0.00000000000E+00  0.00000000000E+00  0.35740347158E-01  0.35744000000E-01  0.51099999109E-03 0. -1.
       11   -1    0    0    0    0 -0.00000000000E+00 -0.00000000000E+00 -0.35740347158E-01  0.35744000000E-01  0.51099999109E-03 0.  1.
       22    1    1    2    0    0  0.30030250465E-02  0.23742770036E-02  0.35531369720E-01  0.35737005818E-01  0.00000000000E+00 0. -1.
  9000001    1    1    2    0    0 -0.30030250465E-02 -0.23742770036E-02 -0.35531369720E-01  0.35750994182E-01  0.10000000475E-02 0.  1.
</event>
<event>
 4   0  0.2441219E-02  0.9118800E+02  0.7818609E-02  0.1379984E+01
      -11   -1    0    0    0    0  0.00000000000E+00  0.00000000000E+00  0.35740347158E-01  0.35744000000E-01  0.51099999109E-03 0.  1.
       11   -1    0    0    0    0 -0.00000000000E+00 -0.00000000000E+00 -0.35740347158E-01  0.35744000000E-01  0.51099999109E-03 0. -1.
       22    1    1    2    0    0 -0.11232763972E-02  0.31634783887E-02 -0.35578985926E-01  0.35737005818E-01  0.00000000000E+00 0. -1.
  9000001    1    1    2    0    0  0.11232763972E-02 -0.31634783887E-02  0.35578985926E-01  0.35750994182E-01  0.10000000475E-02 0.  1.
</event>
<event>
 4   0  0.2441219E-02  0.9118800E+02  0.7818609E-02  0.1379984E+01
      -11   -1    0    0    0    0  0.00000000000E+00  0.00000000000E+00  0.35740347158E-01  0.35744000000E-01  0.51099999109E-03 0. -1.
       11   -1    0    0    0    0 -0.00000000000E+00 -0.00000000000E+00 -0.35740347158E-01  0.35744000000E-01  0.51099999109E-03 0.  1.
       22    1    1    2    0    0 -0.63152194404E-03 -0.77406344942E-02 -0.34882909032E-01  0.35737005818E-01  0.00000000000E+00 0.  1.
  9000001    1    1    2    0    0  0.63152194404E-03  0.77406344942E-02  0.34882909032E-01  0.35750994182E-01  0.10000000475E-02 0. -1.
</event>
<event>
 4   0  0.2441219E-02  0.9118800E+02  0.7818609E-02  0.1379984E+01
      -11   -1    0    0    0    0  0.00000000000E+00  0.00000000000E+00  0.35740347158E-01  0.35744000000E-01  0.51099999109E-03 0.  1.
       11   -1    0    0    0    0 -0.00000000000E+00 -0.00000000000E+00 -0.35740347158E-01  0.35744000000E-01  0.51099999109E-03 0. -1.
       22    1    1    2    0    0  0.20448113060E-01 -0.11421755873E-02  0.29286578702E-01  0.35737005818E-01  0.00000000000E+00 0.  1.
  9000001    1    1    2    0    0 -0.20448113060E-01  0.11421755873E-02 -0.29286578702E-01  0.35750994182E-01  0.10000000475E-02 0. -1.
</event>
<event>
 4   0  0.2441219E-02  0.9118800E+02  0.7818609E-02  0.1379984E+01
      -11   -1    0    0    0    0  0.00000000000E+00  0.00000000000E+00  0.35740347158E-01  0.35744000000E-01  0.51099999109E-03 0. -1.
       11   -1    0    0    0    0 -0.00000000000E+00 -0.00000000000E+00 -0.35740347158E-01  0.35744000000E-01  0.51099999109E-03 0.  1.
       22    1    1    2    0    0  0.10469581720E-01  0.18828861626E-02  0.34117095175E-01  0.35737005818E-01  0.00000000000E+00 0. -1.
  9000001    1    1    2    0    0 -0.10469581720E-01 -0.18828861626E-02 -0.34117095175E-01  0.35750994182E-01  0.10000000475E-02 0.  1.
</event>
<event>
 4   0  0.2441219E-02  0.9118800E+02  0.7818609E-02  0.1379984E+01
      -11   -1    0    0    0    0  0.00000000000E+00  0.00000000000E+00  0.35740347158E-01  0.35744000000E-01  0.51099999109E-03 0.  1.
       11   -1    0    0    0    0 -0.00000000000E+00 -0.00000000000E+00 -0.35740347158E-01  0.35744000000E-01  0.51099999109E-03 0. -1.
       22    1    1    2    0    0  0.63912324814E-03  0.10622472909E-01  0.34115805364E-01  0.35737005818E-01  0.00000000000E+00 0.  1.
  9000001    1    1    2    0    0 -0.63912324814E-03 -0.10622472909E-01 -0.34115805364E-01  0.35750994182E-01  0.10000000475E-02 0. -1.
</event>
<event>
 4   0  0.2441219E-02  0.9118800E+02  0.7818609E-02  0.1379984E+01
      -11   -1    0    0    0    0  0.00000000000E+00  0.00000000000E+00  0.35740347158E-01  0.35744000000E-01  0.51099999109E-03 0.  1.
       11   -1    0    0    0    0 -0.00000000000E+00 -0.00000000000E+00 -0.35740347158E-01  0.35744000000E-01  0.51099999109E-03 0. -1.
       22    1    1    2    0    0 -0.14045964901E-01  0.79865095444E-02  0.31875697956E-01  0.35737005818E-01  0.00000000000E+00 0.  1.
  9000001    1    1    2    0    0  0.14045964901E-01 -0.79865095444E-02 -0.31875697956E-01  0.35750994182E-01  0.10000000475E-02 0. -1.
</event>
<event>
 4   0  0.2441219E-02  0.9118800E+02  0.7818609E-02  0.1379984E+01
      -11   -1    0    0    0    0  0.00000000000E+00  0.00000000000E+00  0.35740347158E-01  0.35744000000E-01  0.51099999109E-03 0. -1.
       11   -1    0    0    0    0 -0.00000000000E+00 -0.00000000000E+00 -0.35740347158E-01  0.35744000000E-01  0.51099999109E-03 0.  1.
       22    1    1    2    0    0 -0.15103100515E-01  0.29248101718E-01 -0.13913248564E-01  0.35737005818E-01  0.00000000000E+00 0. -1.
  9000001    1    1    2    0    0  0.15103100515E-01 -0.29248101718E-01  0.13913248564E-01  0.35750994182E-01  0.10000000475E-02 0.  1.
</event>
<event>
 4   0  0.2441219E-02  0.9118800E+02  0.7818609E-02  0.1379984E+01
      -11   -1    0    0    0    0  0.00000000000E+00  0.00000000000E+00  0.35740347158E-01  0.35744000000E-01  0.51099999109E-03 0.  1.
       11   -1    0    0    0    0 -0.00000000000E+00 -0.00000000000E+00 -0.35740347158E-01  0.35744000000E-01  0.51099999109E-03 0. -1.
       22    1    1    2    0    0  0.86888129445E-02 -0.11823359008E-01  0.32585983125E-01  0.35737005818E-01  0.00000000000E+00 0.  1.
  9000001    1    1    2    0    0 -0.86888129445E-02  0.11823359008E-01 -0.32585983125E-01  0.35750994182E-01  0.10000000475E-02 0. -1.
</event>
<event>
 4   0  0.2441219E-02  0.9118800E+02  0.7818609E-02  0.1379984E+01
      -11   -1    0    0    0    0  0.00000000000E+00  0.00000000000E+00  0.35740347158E-01  0.35744000000E-01  0.51099999109E-03 0.  1.
       11   -1    0    0    0    0 -0.00000000000E+00 -0.00000000000E+00 -0.35740347158E-01  0.35744000000E-01  0.51099999109E-03 0. -1.
       22    1    1    2    0    0 -0.21185885436E-01 -0.15218877095E-01  0.24426985552E-01  0.35737005818E-01  0.00000000000E+00 0.  1.
  9000001    1    1    2    0    0  0.21185885436E-01  0.15218877095E-01 -0.24426985552E-01  0.35750994182E-01  0.10000000475E-02 0. -1.
</event>
<event>
 4   0  0.2441219E-02  0.9118800E+02  0.7818609E-02  0.1379984E+01
      -11   -1    0    0    0    0  0.00000000000E+00  0.00000000000E+00  0.35740347158E-01  0.35744000000E-01  0.51099999109E-03 0.  1.
       11   -1    0    0    0    0 -0.00000000000E+00 -0.00000000000E+00 -0.35740347158E-01  0.35744000000E-01  0.51099999109E-03 0. -1.
       22    1    1    2    0    0  0.24066207754E-02 -0.28730663737E-02  0.35539938814E-01  0.35737005818E-01  0.00000000000E+00 0.  1.
  9000001    1    1    2    0    0 -0.24066207754E-02  0.28730663737E-02 -0.35539938814E-01  0.35750994182E-01  0.10000000475E-02 0. -1.
</event>
<event>
 4   0  0.2441219E-02  0.9118800E+02  0.7818609E-02  0.1379984E+01
      -11   -1    0    0    0    0  0.00000000000E+00  0.00000000000E+00  0.35740347158E-01  0.35744000000E-01  0.51099999109E-03 0.  1.
       11   -1    0    0    0    0 -0.00000000000E+00 -0.00000000000E+00 -0.35740347158E-01  0.35744000000E-01  0.51099999109E-03 0. -1.
       22    1    1    2    0    0 -0.96945778524E-02  0.28154382014E-01  0.19760554611E-01  0.35737005818E-01  0.00000000000E+00 0.  1.
  9000001    1    1    2    0    0  0.96945778524E-02 -0.28154382014E-01 -0.19760554611E-01  0.35750994182E-01  0.10000000475E-02 0. -1.
</event>
<event>
 4   0  0.2441219E-02  0.9118800E+02  0.7818609E-02  0.1379984E+01
      -11   -1    0    0    0    0  0.00000000000E+00  0.00000000000E+00  0.35740347158E-01  0.35744000000E-01  0.51099999109E-03 0. -1.
       11   -1    0    0    0    0 -0.00000000000E+00 -0.00000000000E+00 -0.35740347158E-01  0.35744000000E-01  0.51099999109E-03 0.  1.
       22    1    1    2    0    0 -0.14364596102E-02  0.14054532929E-01 -0.32825908560E-01  0.35737005818E-01  0.00000000000E+00 0.  1.
  9000001    1    1    2    0    0  0.14364596102E-02 -0.14054532929E-01  0.32825908560E-01  0.35750994182E-01  0.10000000475E-02 0. -1.
</event>
<event>
 4   0  0.2441219E-02  0.9118800E+02  0.7818609E-02  0.1379984E+01
      -11   -1    0    0    0    0  0.00000000000E+00  0.00000000000E+00  0.35740347158E-01  0.35744000000E-01  0.51099999109E-03 0. -1.
       11   -1    0    0    0    0 -0.00000000000E+00 -0.00000000000E+00 -0.35740347158E-01  0.35744000000E-01  0.51099999109E-03 0.  1.
       22    1    1    2    0    0  0.66594229756E-02 -0.33299944126E-01 -0.11131010363E-01  0.35737005818E-01  0.00000000000E+00 0.  1.
  9000001    1    1    2    0    0 -0.66594229756E-02  0.33299944126E-01  0.11131010363E-01  0.35750994182E-01  0.10000000475E-02 0. -1.
</event>
<event>
 4   0  0.2441219E-02  0.9118800E+02  0.7818609E-02  0.1379984E+01
      -11   -1    0    0    0    0  0.00000000000E+00  0.00000000000E+00  0.35740347158E-01  0.35744000000E-01  0.51099999109E-03 0.  1.
       11   -1    0    0    0    0 -0.00000000000E+00 -0.00000000000E+00 -0.35740347158E-01  0.35744000000E-01  0.51099999109E-03 0. -1.
       22    1    1    2    0    0 -0.25890391427E-01  0.23096488705E-01 -0.85658289812E-02  0.35737005818E-01  0.00000000000E+00 0. -1.
  9000001    1    1    2    0    0  0.25890391427E-01 -0.23096488705E-01  0.85658289812E-02  0.35750994182E-01  0.10000000475E-02 0.  1.
</event>
<event>
 4   0  0.2441219E-02  0.9118800E+02  0.7818609E-02  0.1379984E+01
      -11   -1    0    0    0    0  0.00000000000E+00  0.00000000000E+00  0.35740347158E-01  0.35744000000E-01  0.51099999109E-03 0. -1.
       11   -1    0    0    0    0 -0.00000000000E+00 -0.00000000000E+00 -0.35740347158E-01  0.35744000000E-01  0.51099999109E-03 0.  1.
       22    1    1    2    0    0  0.36989757163E-02 -0.15363656125E-01  0.32053225017E-01  0.35737005818E-01  0.00000000000E+00 0. -1.
  9000001    1    1    2    0    0 -0.36989757163E-02  0.15363656125E-01 -0.32053225017E-01  0.35750994182E-01  0.10000000475E-02 0.  1.
</event>
<event>
 4   0  0.2441219E-02  0.9118800E+02  0.7818609E-02  0.1379984E+01
      -11   -1    0    0    0    0  0.00000000000E+00  0.00000000000E+00  0.35740347158E-01  0.35744000000E-01  0.51099999109E-03 0.  1.
       11   -1    0    0    0    0 -0.00000000000E+00 -0.00000000000E+00 -0.35740347158E-01  0.35744000000E-01  0.51099999109E-03 0. -1.
       22    1    1    2    0    0  0.10187324220E-01  0.13416615536E-02  0.34227941136E-01  0.35737005818E-01  0.00000000000E+00 0.  1.
  9000001    1    1    2    0    0 -0.10187324220E-01 -0.13416615536E-02 -0.34227941136E-01  0.35750994182E-01  0.10000000475E-02 0. -1.
</event>
<event>
 4   0  0.2441219E-02  0.9118800E+02  0.7818609E-02  0.1379984E+01
      -11   -1    0    0    0    0  0.00000000000E+00  0.00000000000E+00  0.35740347158E-01  0.35744000000E-01  0.51099999109E-03 0.  1.
       11   -1    0    0    0    0 -0.00000000000E+00 -0.00000000000E+00 -0.35740347158E-01  0.35744000000E-01  0.51099999109E-03 0. -1.
       22    1    1    2    0    0  0.61702699907E-02 -0.84668719958E-02  0.34166846968E-01  0.35737005818E-01  0.00000000000E+00 0.  1.
  9000001    1    1    2    0    0 -0.61702699907E-02  0.84668719958E-02 -0.34166846968E-01  0.35750994182E-01  0.10000000475E-02 0. -1.
</event>
<event>
 4   0  0.2441219E-02  0.9118800E+02  0.7818609E-02  0.1379984E+01
      -11   -1    0    0    0    0  0.00000000000E+00  0.00000000000E+00  0.35740347158E-01  0.35744000000E-01  0.51099999109E-03 0. -1.
       11   -1    0    0    0    0 -0.00000000000E+00 -0.00000000000E+00 -0.35740347158E-01  0.35744000000E-01  0.51099999109E-03 0.  1.
       22    1    1    2    0    0 -0.17745796745E-01 -0.30887477123E-01 -0.28607760666E-02  0.35737005818E-01  0.00000000000E+00 0. -1.
  9000001    1    1    2    0    0  0.17745796745E-01  0.30887477123E-01  0.28607760666E-02  0.35750994182E-01  0.10000000475E-02 0.  1.
</event>
<event>
 4   0  0.2441219E-02  0.9118800E+02  0.7818609E-02  0.1379984E+01
      -11   -1    0    0    0    0  0.00000000000E+00  0.00000000000E+00  0.35740347158E-01  0.35744000000E-01  0.51099999109E-03 0.  1.
       11   -1    0    0    0    0 -0.00000000000E+00 -0.00000000000E+00 -0.35740347158E-01  0.35744000000E-01  0.51099999109E-03 0. -1.
       22    1    1    2    0    0 -0.43641627240E-02  0.16338240050E-01  0.31482528181E-01  0.35737005818E-01  0.00000000000E+00 0.  1.
  9000001    1    1    2    0    0  0.43641627240E-02 -0.16338240050E-01 -0.31482528181E-01  0.35750994182E-01  0.10000000475E-02 0. -1.
</event>
<event>
 4   0  0.2441219E-02  0.9118800E+02  0.7818609E-02  0.1379984E+01
      -11   -1    0    0    0    0  0.00000000000E+00  0.00000000000E+00  0.35740347158E-01  0.35744000000E-01  0.51099999109E-03 0. -1.
       11   -1    0    0    0    0 -0.00000000000E+00 -0.00000000000E+00 -0.35740347158E-01  0.35744000000E-01  0.51099999109E-03 0.  1.
       22    1    1    2    0    0 -0.14680208061E-02  0.27354832622E-02  0.35601904880E-01  0.35737005818E-01  0.00000000000E+00 0. -1.
  9000001    1    1    2    0    0  0.14680208061E-02 -0.27354832622E-02 -0.35601904880E-01  0.35750994182E-01  0.10000000475E-02 0.  1.
</event>
<event>
 4   0  0.2441219E-02  0.9118800E+02  0.7818609E-02  0.1379984E+01
      -11   -1    0    0    0    0  0.00000000000E+00  0.00000000000E+00  0.35740347158E-01  0.35744000000E-01  0.51099999109E-03 0. -1.
       11   -1    0    0    0    0 -0.00000000000E+00 -0.00000000000E+00 -0.35740347158E-01  0.35744000000E-01  0.51099999109E-03 0.  1.
       22    1    1    2    0    0  0.42636481385E-02  0.11284245030E-01  0.33639570501E-01  0.35737005818E-01  0.00000000000E+00 0. -1.
  9000001    1    1    2    0    0 -0.42636481385E-02 -0.11284245030E-01 -0.33639570501E-01  0.35750994182E-01  0.10000000475E-02 0.  1.
</event>
<event>
 4   0  0.2441219E-02  0.9118800E+02  0.7818609E-02  0.1379984E+01
      -11   -1    0    0    0    0  0.00000000000E+00  0.00000000000E+00  0.35740347158E-01  0.35744000000E-01  0.51099999109E-03 0. -1.
       11   -1    0    0    0    0 -0.00000000000E+00 -0.00000000000E+00 -0.35740347158E-01  0.35744000000E-01  0.51099999109E-03 0.  1.
       22    1    1    2    0    0 -0.99479957729E-02  0.18399924571E-02 -0.34275142490E-01  0.35737005818E-01  0.00000000000E+00 0.  1.
  9000001    1    1    2    0    0  0.99479957729E-02 -0.18399924571E-02  0.34275142490E-01  0.35750994182E-01  0.10000000475E-02 0. -1.
</event>
<event>
 4   0  0.2441219E-02  0.9118800E+02  0.7818609E-02  0.1379984E+01
      -11   -1    0    0    0    0  0.00000000000E+00  0.00000000000E+00  0.35740347158E-01  0.35744000000E-01  0.51099999109E-03 0. -1.
       11   -1    0    0    0    0 -0.00000000000E+00 -0.00000000000E+00 -0.35740347158E-01  0.35744000000E-01  0.51099999109E-03 0.  1.
       22    1    1    2    0    0  0.73615063529E-02 -0.24696357882E-03 -0.34969712868E-01  0.35737005818E-01  0.00000000000E+00 0.  1.
  9000001    1    1    2    0    0 -0.73615063529E-02  0.24696357882E-03  0.34969712868E-01  0.35750994182E-01  0.10000000475E-02 0. -1.
</event>
<event>
 4   0  0.2441219E-02  0.9118800E+02  0.7818609E-02  0.1379984E+01
      -11   -1    0    0    0    0  0.00000000000E+00  0.00000000000E+00  0.35740347158E-01  0.35744000000E-01  0.51099999109E-03 0.  1.
       11   -1    0    0    0    0 -0.00000000000E+00 -0.00000000000E+00 -0.35740347158E-01  0.35744000000E-01  0.51099999109E-03 0. -1.
       22    1    1    2    0    0 -0.14530735619E-01 -0.97839292824E-03 -0.32634859499E-01  0.35737005818E-01  0.00000000000E+00 0. -1.
  9000001    1    1    2    0    0  0.14530735619E-01  0.97839292824E-03  0.32634859499E-01  0.35750994182E-01  0.10000000475E-02 0.  1.
</event>
<event>
 4   0  0.2441219E-02  0.9118800E+02  0.7818609E-02  0.1379984E+01
      -11   -1    0    0    0    0  0.00000000000E+00  0.00000000000E+00  0.35740347158E-01  0.35744000000E-01  0.51099999109E-03 0. -1.
       11   -1    0    0    0    0 -0.00000000000E+00 -0.00000000000E+00 -0.35740347158E-01  0.35744000000E-01  0.51099999109E-03 0.  1.
       22    1    1    2    0    0 -0.53473978231E-02 -0.33959874775E-01 -0.97604214402E-02  0.35737005818E-01  0.00000000000E+00 0. -1.
  9000001    1    1    2    0    0  0.53473978231E-02  0.33959874775E-01  0.97604214402E-02  0.35750994182E-01  0.10000000475E-02 0.  1.
</event>
<event>
 4   0  0.2441219E-02  0.9118800E+02  0.7818609E-02  0.1379984E+01
      -11   -1    0    0    0    0  0.00000000000E+00  0.00000000000E+00  0.35740347158E-01  0.35744000000E-01  0.51099999109E-03 0. -1.
       11   -1    0    0    0    0 -0.00000000000E+00 -0.00000000000E+00 -0.35740347158E-01  0.35744000000E-01  0.51099999109E-03 0.  1.
       22    1    1    2    0    0 -0.42783890081E-02 -0.35149170324E-02  0.35305443357E-01  0.35737005818E-01  0.00000000000E+00 0. -1.
  9000001    1    1    2    0    0  0.42783890081E-02  0.35149170324E-02 -0.35305443357E-01  0.35750994182E-01  0.10000000475E-02 0.  1.
</event>
<event>
 4   0  0.2441219E-02  0.9118800E+02  0.7818609E-02  0.1379984E+01
      -11   -1    0    0    0    0  0.00000000000E+00  0.00000000000E+00  0.35740347158E-01  0.35744000000E-01  0.51099999109E-03 0.  1.
       11   -1    0    0    0    0 -0.00000000000E+00 -0.00000000000E+00 -0.35740347158E-01  0.35744000000E-01  0.51099999109E-03 0. -1.
       22    1    1    2    0    0 -0.26751320875E-01  0.53408286180E-02  0.23086272241E-01  0.35737005818E-01  0.00000000000E+00 0.  1.
  9000001    1    1    2    0    0  0.26751320875E-01 -0.53408286180E-02 -0.23086272241E-01  0.35750994182E-01  0.10000000475E-02 0. -1.
</event>
<event>
 4   0  0.2441219E-02  0.9118800E+02  0.7818609E-02  0.1379984E+01
      -11   -1    0    0    0    0  0.00000000000E+00  0.00000000000E+00  0.35740347158E-01  0.35744000000E-01  0.51099999109E-03 0.  1.
       11   -1    0    0    0    0 -0.00000000000E+00 -0.00000000000E+00 -0.35740347158E-01  0.35744000000E-01  0.51099999109E-03 0. -1.
       22    1    1    2    0    0 -0.17871562745E-01  0.23428653542E-01 -0.20219768127E-01  0.35737005818E-01  0.00000000000E+00 0. -1.
  9000001    1    1    2    0    0  0.17871562745E-01 -0.23428653542E-01  0.20219768127E-01  0.35750994182E-01  0.10000000475E-02 0.  1.
</event>
<event>
 4   0  0.2441219E-02  0.9118800E+02  0.7818609E-02  0.1379984E+01
      -11   -1    0    0    0    0  0.00000000000E+00  0.00000000000E+00  0.35740347158E-01  0.35744000000E-01  0.51099999109E-03 0.  1.
       11   -1    0    0    0    0 -0.00000000000E+00 -0.00000000000E+00 -0.35740347158E-01  0.35744000000E-01  0.51099999109E-03 0. -1.
       22    1    1    2    0    0 -0.17452489038E-01 -0.53342023786E-02  0.30726055657E-01  0.35737005818E-01  0.00000000000E+00 0.  1.
  9000001    1    1    2    0    0  0.17452489038E-01  0.53342023786E-02 -0.30726055657E-01  0.35750994182E-01  0.10000000475E-02 0. -1.
</event>
<event>
 4   0  0.2441219E-02  0.9118800E+02  0.7818609E-02  0.1379984E+01
      -11   -1    0    0    0    0  0.00000000000E+00  0.00000000000E+00  0.35740347158E-01  0.35744000000E-01  0.51099999109E-03 0. -1.
       11   -1    0    0    0    0 -0.00000000000E+00 -0.00000000000E+00 -0.35740347158E-01  0.35744000000E-01  0.51099999109E-03 0.  1.
       22    1    1    2    0    0  0.25360198843E-01  0.12588111051E-02 -0.25147749285E-01  0.35737005818E-01  0.00000000000E+00 0.  1.
  9000001    1    1    2    0    0 -0.25360198843E-01 -0.12588111051E-02  0.25147749285E-01  0.35750994182E-01  0.10000000475E-02 0. -1.
</event>
<event>
 4   0  0.2441219E-02  0.9118800E+02  0.7818609E-02  0.1379984E+01
      -11   -1    0    0    0    0  0.00000000000E+00  0.00000000000E+00  0.35740347158E-01  0.35744000000E-01  0.51099999109E-03 0. -1.
       11   -1    0    0    0    0 -0.00000000000E+00 -0.00000000000E+00 -0.35740347158E-01  0.35744000000E-01  0.51099999109E-03 0.  1.
       22    1    1    2    0    0 -0.89520497415E-03 -0.41095118236E-02  0.35488647558E-01  0.35737005818E-01  0.00000000000E+00 0. -1.
  9000001    1    1    2    0    0  0.89520497415E-03  0.41095118236E-02 -0.35488647558E-01  0.35750994182E-01  0.10000000475E-02 0.  1.
</event>
<event>
 4   0  0.2441219E-02  0.9118800E+02  0.7818609E-02  0.1379984E+01
      -11   -1    0    0    0    0  0.00000000000E+00  0.00000000000E+00  0.35740347158E-01  0.35744000000E-01  0.51099999109E-03 0. -1.
       11   -1    0    0    0    0 -0.00000000000E+00 -0.00000000000E+00 -0.35740347158E-01  0.35744000000E-01  0.51099999109E-03 0.  1.
       22    1    1    2    0    0  0.31417904312E-01  0.14303526467E-01 -0.92443498487E-02  0.35737005818E-01  0.00000000000E+00 0. -1.
  9000001    1    1    2    0    0 -0.31417904312E-01 -0.14303526467E-01  0.92443498487E-02  0.35750994182E-01  0.10000000475E-02 0.  1.
</event>
<event>
 4   0  0.2441219E-02  0.9118800E+02  0.7818609E-02  0.1379984E+01
      -11   -1    0    0    0    0  0.00000000000E+00  0.00000000000E+00  0.35740347158E-01  0.35744000000E-01  0.51099999109E-03 0. -1.
       11   -1    0    0    0    0 -0.00000000000E+00 -0.00000000000E+00 -0.35740347158E-01  0.35744000000E-01  0.51099999109E-03 0.  1.
       22    1    1    2    0    0  0.19917023618E-03 -0.31113441975E-02 -0.35600750742E-01  0.35737005818E-01  0.00000000000E+00 0.  1.
  9000001    1    1    2    0    0 -0.19917023618E-03  0.31113441975E-02  0.35600750742E-01  0.35750994182E-01  0.10000000475E-02 0. -1.
</event>
<event>
 4   0  0.2441219E-02  0.9118800E+02  0.7818609E-02  0.1379984E+01
      -11   -1    0    0    0    0  0.00000000000E+00  0.00000000000E+00  0.35740347158E-01  0.35744000000E-01  0.51099999109E-03 0. -1.
       11   -1    0    0    0    0 -0.00000000000E+00 -0.00000000000E+00 -0.35740347158E-01  0.35744000000E-01  0.51099999109E-03 0.  1.
       22    1    1    2    0    0 -0.33637468270E-01  0.89059760297E-02 -0.81448084198E-02  0.35737005818E-01  0.00000000000E+00 0.  1.
  9000001    1    1    2    0    0  0.33637468270E-01 -0.89059760297E-02  0.81448084198E-02  0.35750994182E-01  0.10000000475E-02 0. -1.
</event>
<event>
 4   0  0.2441219E-02  0.9118800E+02  0.7818609E-02  0.1379984E+01
      -11   -1    0    0    0    0  0.00000000000E+00  0.00000000000E+00  0.35740347158E-01  0.35744000000E-01  0.51099999109E-03 0.  1.
       11   -1    0    0    0    0 -0.00000000000E+00 -0.00000000000E+00 -0.35740347158E-01  0.35744000000E-01  0.51099999109E-03 0. -1.
       22    1    1    2    0    0 -0.40705361357E-02 -0.70351338646E-02 -0.34800448445E-01  0.35737005818E-01  0.00000000000E+00 0. -1.
  9000001    1    1    2    0    0  0.40705361357E-02  0.70351338646E-02  0.34800448445E-01  0.35750994182E-01  0.10000000475E-02 0.  1.
</event>
<event>
 4   0  0.2441219E-02  0.9118800E+02  0.7818609E-02  0.1379984E+01
      -11   -1    0    0    0    0  0.00000000000E+00  0.00000000000E+00  0.35740347158E-01  0.35744000000E-01  0.51099999109E-03 0. -1.
       11   -1    0    0    0    0 -0.00000000000E+00 -0.00000000000E+00 -0.35740347158E-01  0.35744000000E-01  0.51099999109E-03 0.  1.
       22    1    1    2    0    0 -0.34852384968E-02  0.16933178233E-02  0.35526319430E-01  0.35737005818E-01  0.00000000000E+00 0. -1.
  9000001    1    1    2    0    0  0.34852384968E-02 -0.16933178233E-02 -0.35526319430E-01  0.35750994182E-01  0.10000000475E-02 0.  1.
</event>
<event>
 4   0  0.2441219E-02  0.9118800E+02  0.7818609E-02  0.1379984E+01
      -11   -1    0    0    0    0  0.00000000000E+00  0.00000000000E+00  0.35740347158E-01  0.35744000000E-01  0.51099999109E-03 0.  1.
       11   -1    0    0    0    0 -0.00000000000E+00 -0.00000000000E+00 -0.35740347158E-01  0.35744000000E-01  0.51099999109E-03 0. -1.
       22    1    1    2    0    0 -0.48908350473E-02 -0.18287822108E-02  0.35353484595E-01  0.35737005818E-01  0.00000000000E+00 0.  1.
  9000001    1    1    2    0    0  0.48908350473E-02  0.18287822108E-02 -0.35353484595E-01  0.35750994182E-01  0.10000000475E-02 0. -1.
</event>
<event>
 4   0  0.2441219E-02  0.9118800E+02  0.7818609E-02  0.1379984E+01
      -11   -1    0    0    0    0  0.00000000000E+00  0.00000000000E+00  0.35740347158E-01  0.35744000000E-01  0.51099999109E-03 0.  1.
       11   -1    0    0    0    0 -0.00000000000E+00 -0.00000000000E+00 -0.35740347158E-01  0.35744000000E-01  0.51099999109E-03 0. -1.
       22    1    1    2    0    0  0.10952719394E-02 -0.68451866806E-02  0.35058199947E-01  0.35737005818E-01  0.00000000000E+00 0.  1.
  9000001    1    1    2    0    0 -0.10952719394E-02  0.68451866806E-02 -0.35058199947E-01  0.35750994182E-01  0.10000000475E-02 0. -1.
</event>
<event>
 4   0  0.2441219E-02  0.9118800E+02  0.7818609E-02  0.1379984E+01
      -11   -1    0    0    0    0  0.00000000000E+00  0.00000000000E+00  0.35740347158E-01  0.35744000000E-01  0.51099999109E-03 0.  1.
       11   -1    0    0    0    0 -0.00000000000E+00 -0.00000000000E+00 -0.35740347158E-01  0.35744000000E-01  0.51099999109E-03 0. -1.
       22    1    1    2    0    0  0.44758227333E-02 -0.54684502088E-03  0.35451397099E-01  0.35737005818E-01  0.00000000000E+00 0.  1.
  9000001    1    1    2    0    0 -0.44758227333E-02  0.54684502088E-03 -0.35451397099E-01  0.35750994182E-01  0.10000000475E-02 0. -1.
</event>
<event>
 4   0  0.2441219E-02  0.9118800E+02  0.7818609E-02  0.1379984E+01
      -11   -1    0    0    0    0  0.00000000000E+00  0.00000000000E+00  0.35740347158E-01  0.35744000000E-01  0.51099999109E-03 0. -1.
       11   -1    0    0    0    0 -0.00000000000E+00 -0.00000000000E+00 -0.35740347158E-01  0.35744000000E-01  0.51099999109E-03 0.  1.
       22    1    1    2    0    0 -0.77329488252E-03 -0.62645486823E-02 -0.35175147899E-01  0.35737005818E-01  0.00000000000E+00 0.  1.
  9000001    1    1    2    0    0  0.77329488252E-03  0.62645486823E-02  0.35175147899E-01  0.35750994182E-01  0.10000000475E-02 0. -1.
</event>
<event>
 4   0  0.2441219E-02  0.9118800E+02  0.7818609E-02  0.1379984E+01
      -11   -1    0    0    0    0  0.00000000000E+00  0.00000000000E+00  0.35740347158E-01  0.35744000000E-01  0.51099999109E-03 0. -1.
       11   -1    0    0    0    0 -0.00000000000E+00 -0.00000000000E+00 -0.35740347158E-01  0.35744000000E-01  0.51099999109E-03 0.  1.
       22    1    1    2    0    0 -0.16175923130E-01 -0.16133759245E-01  0.27480445928E-01  0.35737005818E-01  0.00000000000E+00 0. -1.
  9000001    1    1    2    0    0  0.16175923130E-01  0.16133759245E-01 -0.27480445928E-01  0.35750994182E-01  0.10000000475E-02 0.  1.
</event>
<event>
 4   0  0.2441219E-02  0.9118800E+02  0.7818609E-02  0.1379984E+01
      -11   -1    0    0    0    0  0.00000000000E+00  0.00000000000E+00  0.35740347158E-01  0.35744000000E-01  0.51099999109E-03 0. -1.
       11   -1    0    0    0    0 -0.00000000000E+00 -0.00000000000E+00 -0.35740347158E-01  0.35744000000E-01  0.51099999109E-03 0.  1.
       22    1    1    2    0    0  0.47664392247E-02 -0.79581486145E-03  0.35408774629E-01  0.35737005818E-01  0.00000000000E+00 0. -1.
  9000001    1    1    2    0    0 -0.47664392247E-02  0.79581486145E-03 -0.35408774629E-01  0.35750994182E-01  0.10000000475E-02 0.  1.
</event>
<event>
 4   0  0.2441219E-02  0.9118800E+02  0.7818609E-02  0.1379984E+01
      -11   -1    0    0    0    0  0.00000000000E+00  0.00000000000E+00  0.35740347158E-01  0.35744000000E-01  0.51099999109E-03 0.  1.
       11   -1    0    0    0    0 -0.00000000000E+00 -0.00000000000E+00 -0.35740347158E-01  0.35744000000E-01  0.51099999109E-03 0. -1.
       22    1    1    2    0    0  0.11985990023E-01  0.22438331783E-02  0.33592184221E-01  0.35737005818E-01  0.00000000000E+00 0.  1.
  9000001    1    1    2    0    0 -0.11985990023E-01 -0.22438331783E-02 -0.33592184221E-01  0.35750994182E-01  0.10000000475E-02 0. -1.
</event>
<event>
 4   0  0.2441219E-02  0.9118800E+02  0.7818609E-02  0.1379984E+01
      -11   -1    0    0    0    0  0.00000000000E+00  0.00000000000E+00  0.35740347158E-01  0.35744000000E-01  0.51099999109E-03 0.  1.
       11   -1    0    0    0    0 -0.00000000000E+00 -0.00000000000E+00 -0.35740347158E-01  0.35744000000E-01  0.51099999109E-03 0. -1.
       22    1    1    2    0    0 -0.51758260977E-03  0.14658210146E-01 -0.32588380881E-01  0.35737005818E-01  0.00000000000E+00 0. -1.
  9000001    1    1    2    0    0  0.51758260977E-03 -0.14658210146E-01  0.32588380881E-01  0.35750994182E-01  0.10000000475E-02 0.  1.
</event>
<event>
 4   0  0.2441219E-02  0.9118800E+02  0.7818609E-02  0.1379984E+01
      -11   -1    0    0    0    0  0.00000000000E+00  0.00000000000E+00  0.35740347158E-01  0.35744000000E-01  0.51099999109E-03 0.  1.
       11   -1    0    0    0    0 -0.00000000000E+00 -0.00000000000E+00 -0.35740347158E-01  0.35744000000E-01  0.51099999109E-03 0. -1.
       22    1    1    2    0    0 -0.15338927833E-02  0.55204099605E-02  0.35274719441E-01  0.35737005818E-01  0.00000000000E+00 0.  1.
  9000001    1    1    2    0    0  0.15338927833E-02 -0.55204099605E-02 -0.35274719441E-01  0.35750994182E-01  0.10000000475E-02 0. -1.
</event>
<event>
 4   0  0.2441219E-02  0.9118800E+02  0.7818609E-02  0.1379984E+01
      -11   -1    0    0    0    0  0.00000000000E+00  0.00000000000E+00  0.35740347158E-01  0.35744000000E-01  0.51099999109E-03 0.  1.
       11   -1    0    0    0    0 -0.00000000000E+00 -0.00000000000E+00 -0.35740347158E-01  0.35744000000E-01  0.51099999109E-03 0. -1.
       22    1    1    2    0    0 -0.65520251773E-02 -0.29241159551E-02  0.35009342993E-01  0.35737005818E-01  0.00000000000E+00 0.  1.
  9000001    1    1    2    0    0  0.65520251773E-02  0.29241159551E-02 -0.35009342993E-01  0.35750994182E-01  0.10000000475E-02 0. -1.
</event>
<event>
 4   0  0.2441219E-02  0.9118800E+02  0.7818609E-02  0.1379984E+01
      -11   -1    0    0    0    0  0.00000000000E+00  0.00000000000E+00  0.35740347158E-01  0.35744000000E-01  0.51099999109E-03 0.  1.
       11   -1    0    0    0    0 -0.00000000000E+00 -0.00000000000E+00 -0.35740347158E-01  0.35744000000E-01  0.51099999109E-03 0. -1.
       22    1    1    2    0    0 -0.39232324748E-03  0.46113705802E-02 -0.35436068189E-01  0.35737005818E-01  0.00000000000E+00 0. -1.
  9000001    1    1    2    0    0  0.39232324748E-03 -0.46113705802E-02  0.35436068189E-01  0.35750994182E-01  0.10000000475E-02 0.  1.
</event>
<event>
 4   0  0.2441219E-02  0.9118800E+02  0.7818609E-02  0.1379984E+01
      -11   -1    0    0    0    0  0.00000000000E+00  0.00000000000E+00  0.35740347158E-01  0.35744000000E-01  0.51099999109E-03 0. -1.
       11   -1    0    0    0    0 -0.00000000000E+00 -0.00000000000E+00 -0.35740347158E-01  0.35744000000E-01  0.51099999109E-03 0.  1.
       22    1    1    2    0    0  0.45571094852E-02  0.10792438309E-02  0.35428824010E-01  0.35737005818E-01  0.00000000000E+00 0. -1.
  9000001    1    1    2    0    0 -0.45571094852E-02 -0.10792438309E-02 -0.35428824010E-01  0.35750994182E-01  0.10000000475E-02 0.  1.
</event>
<event>
 4   0  0.2441219E-02  0.9118800E+02  0.7818609E-02  0.1379984E+01
      -11   -1    0    0    0    0  0.00000000000E+00  0.00000000000E+00  0.35740347158E-01  0.35744000000E-01  0.51099999109E-03 0. -1.
       11   -1    0    0    0    0 -0.00000000000E+00 -0.00000000000E+00 -0.35740347158E-01  0.35744000000E-01  0.51099999109E-03 0.  1.
       22    1    1    2    0    0  0.17923985870E-02  0.12348564809E-01 -0.33487816282E-01  0.35737005818E-01  0.00000000000E+00 0.  1.
  9000001    1    1    2    0    0 -0.17923985870E-02 -0.12348564809E-01  0.33487816282E-01  0.35750994182E-01  0.10000000475E-02 0. -1.
</event>
<event>
 4   0  0.2441219E-02  0.9118800E+02  0.7818609E-02  0.1379984E+01
      -11   -1    0    0    0    0  0.00000000000E+00  0.00000000000E+00  0.35740347158E-01  0.35744000000E-01  0.51099999109E-03 0. -1.
       11   -1    0    0    0    0 -0.00000000000E+00 -0.00000000000E+00 -0.35740347158E-01  0.35744000000E-01  0.51099999109E-03 0.  1.
       22    1    1    2    0    0  0.12544300202E-01 -0.59468733699E-02  0.32930363108E-01  0.35737005818E-01  0.00000000000E+00 0. -1.
  9000001    1    1    2    0    0 -0.12544300202E-01  0.59468733699E-02 -0.32930363108E-01  0.35750994182E-01  0.10000000475E-02 0.  1.
</event>
<event>
 4   0  0.2441219E-02  0.9118800E+02  0.7818609E-02  0.1379984E+01
      -11   -1    0    0    0    0  0.00000000000E+00  0.00000000000E+00  0.35740347158E-01  0.35744000000E-01  0.51099999109E-03 0.  1.
       11   -1    0    0    0    0 -0.00000000000E+00 -0.00000000000E+00 -0.35740347158E-01  0.35744000000E-01  0.51099999109E-03 0. -1.
       22    1    1    2    0    0  0.30168122459E-01 -0.19090811997E-01  0.15996466675E-02  0.35737005818E-01  0.00000000000E+00 0.  1.
  9000001    1    1    2    0    0 -0.30168122459E-01  0.19090811997E-01 -0.15996466675E-02  0.35750994182E-01  0.10000000475E-02 0. -1.
</event>
<event>
 4   0  0.2441219E-02  0.9118800E+02  0.7818609E-02  0.1379984E+01
      -11   -1    0    0    0    0  0.00000000000E+00  0.00000000000E+00  0.35740347158E-01  0.35744000000E-01  0.51099999109E-03 0.  1.
       11   -1    0    0    0    0 -0.00000000000E+00 -0.00000000000E+00 -0.35740347158E-01  0.35744000000E-01  0.51099999109E-03 0. -1.
       22    1    1    2    0    0 -0.63859899139E-03 -0.31892776950E-01 -0.16111379662E-01  0.35737005818E-01  0.00000000000E+00 0. -1.
  9000001    1    1    2    0    0  0.63859899139E-03  0.31892776950E-01  0.16111379662E-01  0.35750994182E-01  0.10000000475E-02 0.  1.
</event>
<event>
 4   0  0.2441219E-02  0.9118800E+02  0.7818609E-02  0.1379984E+01
      -11   -1    0    0    0    0  0.00000000000E+00  0.00000000000E+00  0.35740347158E-01  0.35744000000E-01  0.51099999109E-03 0. -1.
       11   -1    0    0    0    0 -0.00000000000E+00 -0.00000000000E+00 -0.35740347158E-01  0.35744000000E-01  0.51099999109E-03 0.  1.
       22    1    1    2    0    0 -0.17650071851E-01  0.73490798331E-02 -0.30192707300E-01  0.35737005818E-01  0.00000000000E+00 0.  1.
  9000001    1    1    2    0    0  0.17650071851E-01 -0.73490798331E-02  0.30192707300E-01  0.35750994182E-01  0.10000000475E-02 0. -1.
</event>
<event>
 4   0  0.2441219E-02  0.9118800E+02  0.7818609E-02  0.1379984E+01
      -11   -1    0    0    0    0  0.00000000000E+00  0.00000000000E+00  0.35740347158E-01  0.35744000000E-01  0.51099999109E-03 0.  1.
       11   -1    0    0    0    0 -0.00000000000E+00 -0.00000000000E+00 -0.35740347158E-01  0.35744000000E-01  0.51099999109E-03 0. -1.
       22    1    1    2    0    0  0.30218162028E-02 -0.22956867280E-01  0.27221029672E-01  0.35737005818E-01  0.00000000000E+00 0.  1.
  9000001    1    1    2    0    0 -0.30218162028E-02  0.22956867280E-01 -0.27221029672E-01  0.35750994182E-01  0.10000000475E-02 0. -1.
</event>
<event>
 4   0  0.2441219E-02  0.9118800E+02  0.7818609E-02  0.1379984E+01
      -11   -1    0    0    0    0  0.00000000000E+00  0.00000000000E+00  0.35740347158E-01  0.35744000000E-01  0.51099999109E-03 0.  1.
       11   -1    0    0    0    0 -0.00000000000E+00 -0.00000000000E+00 -0.35740347158E-01  0.35744000000E-01  0.51099999109E-03 0. -1.
       22    1    1    2    0    0  0.65278824448E-02  0.64315208223E-05  0.35135740981E-01  0.35737005818E-01  0.00000000000E+00 0.  1.
  9000001    1    1    2    0    0 -0.65278824448E-02 -0.64315208223E-05 -0.35135740981E-01  0.35750994182E-01  0.10000000475E-02 0. -1.
</event>
<event>
 4   0  0.2441219E-02  0.9118800E+02  0.7818609E-02  0.1379984E+01
      -11   -1    0    0    0    0  0.00000000000E+00  0.00000000000E+00  0.35740347158E-01  0.35744000000E-01  0.51099999109E-03 0.  1.
       11   -1    0    0    0    0 -0.00000000000E+00 -0.00000000000E+00 -0.35740347158E-01  0.35744000000E-01  0.51099999109E-03 0. -1.
       22    1    1    2    0    0  0.63614297167E-02 -0.41706257976E-02  0.34918070927E-01  0.35737005818E-01  0.00000000000E+00 0.  1.
  9000001    1    1    2    0    0 -0.63614297167E-02  0.41706257976E-02 -0.34918070927E-01  0.35750994182E-01  0.10000000475E-02 0. -1.
</event>
<event>
 4   0  0.2441219E-02  0.9118800E+02  0.7818609E-02  0.1379984E+01
      -11   -1    0    0    0    0  0.00000000000E+00  0.00000000000E+00  0.35740347158E-01  0.35744000000E-01  0.51099999109E-03 0.  1.
       11   -1    0    0    0    0 -0.00000000000E+00 -0.00000000000E+00 -0.35740347158E-01  0.35744000000E-01  0.51099999109E-03 0. -1.
       22    1    1    2    0    0 -0.20718439317E-01  0.29095577201E-01 -0.11520609781E-02  0.35737005818E-01  0.00000000000E+00 0.  1.
  9000001    1    1    2    0    0  0.20718439317E-01 -0.29095577201E-01  0.11520609781E-02  0.35750994182E-01  0.10000000475E-02 0. -1.
</event>
<event>
 4   0  0.2441219E-02  0.9118800E+02  0.7818609E-02  0.1379984E+01
      -11   -1    0    0    0    0  0.00000000000E+00  0.00000000000E+00  0.35740347158E-01  0.35744000000E-01  0.51099999109E-03 0.  1.
       11   -1    0    0    0    0 -0.00000000000E+00 -0.00000000000E+00 -0.35740347158E-01  0.35744000000E-01  0.51099999109E-03 0. -1.
       22    1    1    2    0    0 -0.21494777856E-02 -0.86300987278E-02 -0.34612638242E-01  0.35737005818E-01  0.00000000000E+00 0. -1.
  9000001    1    1    2    0    0  0.21494777856E-02  0.86300987278E-02  0.34612638242E-01  0.35750994182E-01  0.10000000475E-02 0.  1.
</event>
<event>
 4   0  0.2441219E-02  0.9118800E+02  0.7818609E-02  0.1379984E+01
      -11   -1    0    0    0    0  0.00000000000E+00  0.00000000000E+00  0.35740347158E-01  0.35744000000E-01  0.51099999109E-03 0.  1.
       11   -1    0    0    0    0 -0.00000000000E+00 -0.00000000000E+00 -0.35740347158E-01  0.35744000000E-01  0.51099999109E-03 0. -1.
       22    1    1    2    0    0  0.19605205432E-01  0.25612921483E-01 -0.15386609696E-01  0.35737005818E-01  0.00000000000E+00 0. -1.
  9000001    1    1    2    0    0 -0.19605205432E-01 -0.25612921483E-01  0.15386609696E-01  0.35750994182E-01  0.10000000475E-02 0.  1.
</event>
<event>
 4   0  0.2441219E-02  0.9118800E+02  0.7818609E-02  0.1379984E+01
      -11   -1    0    0    0    0  0.00000000000E+00  0.00000000000E+00  0.35740347158E-01  0.35744000000E-01  0.51099999109E-03 0. -1.
       11   -1    0    0    0    0 -0.00000000000E+00 -0.00000000000E+00 -0.35740347158E-01  0.35744000000E-01  0.51099999109E-03 0.  1.
       22    1    1    2    0    0 -0.36507047654E-02  0.41693060012E-03  0.35547603414E-01  0.35737005818E-01  0.00000000000E+00 0. -1.
  9000001    1    1    2    0    0  0.36507047654E-02 -0.41693060012E-03 -0.35547603414E-01  0.35750994182E-01  0.10000000475E-02 0.  1.
</event>
<event>
 4   0  0.2441219E-02  0.9118800E+02  0.7818609E-02  0.1379984E+01
      -11   -1    0    0    0    0  0.00000000000E+00  0.00000000000E+00  0.35740347158E-01  0.35744000000E-01  0.51099999109E-03 0.  1.
       11   -1    0    0    0    0 -0.00000000000E+00 -0.00000000000E+00 -0.35740347158E-01  0.35744000000E-01  0.51099999109E-03 0. -1.
       22    1    1    2    0    0 -0.14011702816E-01  0.10190079630E-01  0.31256488066E-01  0.35737005818E-01  0.00000000000E+00 0.  1.
  9000001    1    1    2    0    0  0.14011702816E-01 -0.10190079630E-01 -0.31256488066E-01  0.35750994182E-01  0.10000000475E-02 0. -1.
</event>
<event>
 4   0  0.2441219E-02  0.9118800E+02  0.7818609E-02  0.1379984E+01
      -11   -1    0    0    0    0  0.00000000000E+00  0.00000000000E+00  0.35740347158E-01  0.35744000000E-01  0.51099999109E-03 0.  1.
       11   -1    0    0    0    0 -0.00000000000E+00 -0.00000000000E+00 -0.35740347158E-01  0.35744000000E-01  0.51099999109E-03 0. -1.
       22    1    1    2    0    0 -0.20087075627E-01 -0.17109615008E-01 -0.24101951205E-01  0.35737005818E-01  0.00000000000E+00 0. -1.
  9000001    1    1    2    0    0  0.20087075627E-01  0.17109615008E-01  0.24101951205E-01  0.35750994182E-01  0.10000000475E-02 0.  1.
</event>
<event>
 4   0  0.2441219E-02  0.9118800E+02  0.7818609E-02  0.1379984E+01
      -11   -1    0    0    0    0  0.00000000000E+00  0.00000000000E+00  0.35740347158E-01  0.35744000000E-01  0.51099999109E-03 0.  1.
       11   -1    0    0    0    0 -0.00000000000E+00 -0.00000000000E+00 -0.35740347158E-01  0.35744000000E-01  0.51099999109E-03 0. -1.
       22    1    1    2    0    0  0.34212347193E-02  0.31616831125E-02 -0.35432082888E-01  0.35737005818E-01  0.00000000000E+00 0. -1.
  9000001    1    1    2    0    0 -0.34212347193E-02 -0.31616831125E-02  0.35432082888E-01  0.35750994182E-01  0.10000000475E-02 0.  1.
</event>
<event>
 4   0  0.2441219E-02  0.9118800E+02  0.7818609E-02  0.1379984E+01
      -11   -1    0    0    0    0  0.00000000000E+00  0.00000000000E+00  0.35740347158E-01  0.35744000000E-01  0.51099999109E-03 0.  1.
       11   -1    0    0    0    0 -0.00000000000E+00 -0.00000000000E+00 -0.35740347158E-01  0.35744000000E-01  0.51099999109E-03 0. -1.
       22    1    1    2    0    0  0.14485396703E-01 -0.10067483409E-01 -0.31079778716E-01  0.35737005818E-01  0.00000000000E+00 0. -1.
  9000001    1    1    2    0    0 -0.14485396703E-01  0.10067483409E-01  0.31079778716E-01  0.35750994182E-01  0.10000000475E-02 0.  1.
</event>
<event>
 4   0  0.2441219E-02  0.9118800E+02  0.7818609E-02  0.1379984E+01
      -11   -1    0    0    0    0  0.00000000000E+00  0.00000000000E+00  0.35740347158E-01  0.35744000000E-01  0.51099999109E-03 0. -1.
       11   -1    0    0    0    0 -0.00000000000E+00 -0.00000000000E+00 -0.35740347158E-01  0.35744000000E-01  0.51099999109E-03 0.  1.
       22    1    1    2    0    0  0.76141286860E-04  0.35826847936E-02 -0.35556886211E-01  0.35737005818E-01  0.00000000000E+00 0.  1.
  9000001    1    1    2    0    0 -0.76141286860E-04 -0.35826847936E-02  0.35556886211E-01  0.35750994182E-01  0.10000000475E-02 0. -1.
</event>
<event>
 4   0  0.2441219E-02  0.9118800E+02  0.7818609E-02  0.1379984E+01
      -11   -1    0    0    0    0  0.00000000000E+00  0.00000000000E+00  0.35740347158E-01  0.35744000000E-01  0.51099999109E-03 0. -1.
       11   -1    0    0    0    0 -0.00000000000E+00 -0.00000000000E+00 -0.35740347158E-01  0.35744000000E-01  0.51099999109E-03 0.  1.
       22    1    1    2    0    0  0.57078078109E-02  0.24194070704E-02 -0.35195184107E-01  0.35737005818E-01  0.00000000000E+00 0.  1.
  9000001    1    1    2    0    0 -0.57078078109E-02 -0.24194070704E-02  0.35195184107E-01  0.35750994182E-01  0.10000000475E-02 0. -1.
</event>
<event>
 4   0  0.2441219E-02  0.9118800E+02  0.7818609E-02  0.1379984E+01
      -11   -1    0    0    0    0  0.00000000000E+00  0.00000000000E+00  0.35740347158E-01  0.35744000000E-01  0.51099999109E-03 0.  1.
       11   -1    0    0    0    0 -0.00000000000E+00 -0.00000000000E+00 -0.35740347158E-01  0.35744000000E-01  0.51099999109E-03 0. -1.
       22    1    1    2    0    0 -0.65655709825E-02 -0.13207271729E-02 -0.35103882154E-01  0.35737005818E-01  0.00000000000E+00 0. -1.
  9000001    1    1    2    0    0  0.65655709825E-02  0.13207271729E-02  0.35103882154E-01  0.35750994182E-01  0.10000000475E-02 0.  1.
</event>
<event>
 4   0  0.2441219E-02  0.9118800E+02  0.7818609E-02  0.1379984E+01
      -11   -1    0    0    0    0  0.00000000000E+00  0.00000000000E+00  0.35740347158E-01  0.35744000000E-01  0.51099999109E-03 0. -1.
       11   -1    0    0    0    0 -0.00000000000E+00 -0.00000000000E+00 -0.35740347158E-01  0.35744000000E-01  0.51099999109E-03 0.  1.
       22    1    1    2    0    0 -0.32518697447E-02  0.15952476079E-02  0.35552976150E-01  0.35737005818E-01  0.00000000000E+00 0. -1.
  9000001    1    1    2    0    0  0.32518697447E-02 -0.15952476079E-02 -0.35552976150E-01  0.35750994182E-01  0.10000000475E-02 0.  1.
</event>
<event>
 4   0  0.2441219E-02  0.9118800E+02  0.7818609E-02  0.1379984E+01
      -11   -1    0    0    0    0  0.00000000000E+00  0.00000000000E+00  0.35740347158E-01  0.35744000000E-01  0.51099999109E-03 0. -1.
       11   -1    0    0    0    0 -0.00000000000E+00 -0.00000000000E+00 -0.35740347158E-01  0.35744000000E-01  0.51099999109E-03 0.  1.
       22    1    1    2    0    0  0.11051736066E-01  0.54575661508E-02 -0.33544115527E-01  0.35737005818E-01  0.00000000000E+00 0.  1.
  9000001    1    1    2    0    0 -0.11051736066E-01 -0.54575661508E-02  0.33544115527E-01  0.35750994182E-01  0.10000000475E-02 0. -1.
</event>
<event>
 4   0  0.2441219E-02  0.9118800E+02  0.7818609E-02  0.1379984E+01
      -11   -1    0    0    0    0  0.00000000000E+00  0.00000000000E+00  0.35740347158E-01  0.35744000000E-01  0.51099999109E-03 0.  1.
       11   -1    0    0    0    0 -0.00000000000E+00 -0.00000000000E+00 -0.35740347158E-01  0.35744000000E-01  0.51099999109E-03 0. -1.
       22    1    1    2    0    0  0.32654712789E-01 -0.10718353234E-01 -0.97938869446E-02  0.35737005818E-01  0.00000000000E+00 0.  1.
  9000001    1    1    2    0    0 -0.32654712789E-01  0.10718353234E-01  0.97938869446E-02  0.35750994182E-01  0.10000000475E-02 0. -1.
</event>
<event>
 4   0  0.2441219E-02  0.9118800E+02  0.7818609E-02  0.1379984E+01
      -11   -1    0    0    0    0  0.00000000000E+00  0.00000000000E+00  0.35740347158E-01  0.35744000000E-01  0.51099999109E-03 0. -1.
       11   -1    0    0    0    0 -0.00000000000E+00 -0.00000000000E+00 -0.35740347158E-01  0.35744000000E-01  0.51099999109E-03 0.  1.
       22    1    1    2    0    0 -0.18134188376E-01  0.10946809174E-02 -0.30774770032E-01  0.35737005818E-01  0.00000000000E+00 0.  1.
  9000001    1    1    2    0    0  0.18134188376E-01 -0.10946809174E-02  0.30774770032E-01  0.35750994182E-01  0.10000000475E-02 0. -1.
</event>
<event>
 4   0  0.2441219E-02  0.9118800E+02  0.7818609E-02  0.1379984E+01
      -11   -1    0    0    0    0  0.00000000000E+00  0.00000000000E+00  0.35740347158E-01  0.35744000000E-01  0.51099999109E-03 0. -1.
       11   -1    0    0    0    0 -0.00000000000E+00 -0.00000000000E+00 -0.35740347158E-01  0.35744000000E-01  0.51099999109E-03 0.  1.
       22    1    1    2    0    0  0.13697114253E-01 -0.14288934997E-01 -0.29754814445E-01  0.35737005818E-01  0.00000000000E+00 0.  1.
  9000001    1    1    2    0    0 -0.13697114253E-01  0.14288934997E-01  0.29754814445E-01  0.35750994182E-01  0.10000000475E-02 0. -1.
</event>
<event>
 4   0  0.2441219E-02  0.9118800E+02  0.7818609E-02  0.1379984E+01
      -11   -1    0    0    0    0  0.00000000000E+00  0.00000000000E+00  0.35740347158E-01  0.35744000000E-01  0.51099999109E-03 0. -1.
       11   -1    0    0    0    0 -0.00000000000E+00 -0.00000000000E+00 -0.35740347158E-01  0.35744000000E-01  0.51099999109E-03 0.  1.
       22    1    1    2    0    0 -0.28043124541E-02  0.97224597373E-02  0.34274526885E-01  0.35737005818E-01  0.00000000000E+00 0. -1.
  9000001    1    1    2    0    0  0.28043124541E-02 -0.97224597373E-02 -0.34274526885E-01  0.35750994182E-01  0.10000000475E-02 0.  1.
</event>
<event>
 4   0  0.2441219E-02  0.9118800E+02  0.7818609E-02  0.1379984E+01
      -11   -1    0    0    0    0  0.00000000000E+00  0.00000000000E+00  0.35740347158E-01  0.35744000000E-01  0.51099999109E-03 0. -1.
       11   -1    0    0    0    0 -0.00000000000E+00 -0.00000000000E+00 -0.35740347158E-01  0.35744000000E-01  0.51099999109E-03 0.  1.
       22    1    1    2    0    0 -0.70824905559E-03 -0.13101143089E-01  0.33241420215E-01  0.35737005818E-01  0.00000000000E+00 0. -1.
  9000001    1    1    2    0    0  0.70824905559E-03  0.13101143089E-01 -0.33241420215E-01  0.35750994182E-01  0.10000000475E-02 0.  1.
</event>
<event>
 4   0  0.2441219E-02  0.9118800E+02  0.7818609E-02  0.1379984E+01
      -11   -1    0    0    0    0  0.00000000000E+00  0.00000000000E+00  0.35740347158E-01  0.35744000000E-01  0.51099999109E-03 0. -1.
       11   -1    0    0    0    0 -0.00000000000E+00 -0.00000000000E+00 -0.35740347158E-01  0.35744000000E-01  0.51099999109E-03 0.  1.
       22    1    1    2    0    0 -0.11281516971E-01  0.87839599339E-04  0.33909486046E-01  0.35737005818E-01  0.00000000000E+00 0. -1.
  9000001    1    1    2    0    0  0.11281516971E-01 -0.87839599339E-04 -0.33909486046E-01  0.35750994182E-01  0.10000000475E-02 0.  1.
</event>
<event>
 4   0  0.2441219E-02  0.9118800E+02  0.7818609E-02  0.1379984E+01
      -11   -1    0    0    0    0  0.00000000000E+00  0.00000000000E+00  0.35740347158E-01  0.35744000000E-01  0.51099999109E-03 0. -1.
       11   -1    0    0    0    0 -0.00000000000E+00 -0.00000000000E+00 -0.35740347158E-01  0.35744000000E-01  0.51099999109E-03 0.  1.
       22    1    1    2    0    0 -0.46196997400E-02 -0.81848793925E-02 -0.34478974876E-01  0.35737005818E-01  0.00000000000E+00 0.  1.
  9000001    1    1    2    0    0  0.46196997400E-02  0.81848793925E-02  0.34478974876E-01  0.35750994182E-01  0.10000000475E-02 0. -1.
</event>
<event>
 4   0  0.2441219E-02  0.9118800E+02  0.7818609E-02  0.1379984E+01
      -11   -1    0    0    0    0  0.00000000000E+00  0.00000000000E+00  0.35740347158E-01  0.35744000000E-01  0.51099999109E-03 0.  1.
       11   -1    0    0    0    0 -0.00000000000E+00 -0.00000000000E+00 -0.35740347158E-01  0.35744000000E-01  0.51099999109E-03 0. -1.
       22    1    1    2    0    0  0.42053858199E-02 -0.17830399635E-01 -0.30684282032E-01  0.35737005818E-01  0.00000000000E+00 0. -1.
  9000001    1    1    2    0    0 -0.42053858199E-02  0.17830399635E-01  0.30684282032E-01  0.35750994182E-01  0.10000000475E-02 0.  1.
</event>
<event>
 4   0  0.2441219E-02  0.9118800E+02  0.7818609E-02  0.1379984E+01
      -11   -1    0    0    0    0  0.00000000000E+00  0.00000000000E+00  0.35740347158E-01  0.35744000000E-01  0.51099999109E-03 0.  1.
       11   -1    0    0    0    0 -0.00000000000E+00 -0.00000000000E+00 -0.35740347158E-01  0.35744000000E-01  0.51099999109E-03 0. -1.
       22    1    1    2    0    0 -0.10677840692E-01  0.62437705055E-02 -0.33528087224E-01  0.35737005818E-01  0.00000000000E+00 0. -1.
  9000001    1    1    2    0    0  0.10677840692E-01 -0.62437705055E-02  0.33528087224E-01  0.35750994182E-01  0.10000000475E-02 0.  1.
</event>
<event>
 4   0  0.2441219E-02  0.9118800E+02  0.7818609E-02  0.1379984E+01
      -11   -1    0    0    0    0  0.00000000000E+00  0.00000000000E+00  0.35740347158E-01  0.35744000000E-01  0.51099999109E-03 0. -1.
       11   -1    0    0    0    0 -0.00000000000E+00 -0.00000000000E+00 -0.35740347158E-01  0.35744000000E-01  0.51099999109E-03 0.  1.
       22    1    1    2    0    0  0.59597226750E-02  0.44696023535E-02 -0.34951937647E-01  0.35737005818E-01  0.00000000000E+00 0.  1.
  9000001    1    1    2    0    0 -0.59597226750E-02 -0.44696023535E-02  0.34951937647E-01  0.35750994182E-01  0.10000000475E-02 0. -1.
</event>
<event>
 4   0  0.2441219E-02  0.9118800E+02  0.7818609E-02  0.1379984E+01
      -11   -1    0    0    0    0  0.00000000000E+00  0.00000000000E+00  0.35740347158E-01  0.35744000000E-01  0.51099999109E-03 0. -1.
       11   -1    0    0    0    0 -0.00000000000E+00 -0.00000000000E+00 -0.35740347158E-01  0.35744000000E-01  0.51099999109E-03 0.  1.
       22    1    1    2    0    0 -0.34147353619E-02 -0.28204750214E-02  0.35461501490E-01  0.35737005818E-01  0.00000000000E+00 0. -1.
  9000001    1    1    2    0    0  0.34147353619E-02  0.28204750214E-02 -0.35461501490E-01  0.35750994182E-01  0.10000000475E-02 0.  1.
</event>
<event>
 4   0  0.2441219E-02  0.9118800E+02  0.7818609E-02  0.1379984E+01
      -11   -1    0    0    0    0  0.00000000000E+00  0.00000000000E+00  0.35740347158E-01  0.35744000000E-01  0.51099999109E-03 0. -1.
       11   -1    0    0    0    0 -0.00000000000E+00 -0.00000000000E+00 -0.35740347158E-01  0.35744000000E-01  0.51099999109E-03 0.  1.
       22    1    1    2    0    0  0.64293209868E-03  0.47523087182E-02 -0.35413779593E-01  0.35737005818E-01  0.00000000000E+00 0.  1.
  9000001    1    1    2    0    0 -0.64293209868E-03 -0.47523087182E-02  0.35413779593E-01  0.35750994182E-01  0.10000000475E-02 0. -1.
</event>
<event>
 4   0  0.2441219E-02  0.9118800E+02  0.7818609E-02  0.1379984E+01
      -11   -1    0    0    0    0  0.00000000000E+00  0.00000000000E+00  0.35740347158E-01  0.35744000000E-01  0.51099999109E-03 0. -1.
       11   -1    0    0    0    0 -0.00000000000E+00 -0.00000000000E+00 -0.35740347158E-01  0.35744000000E-01  0.51099999109E-03 0.  1.
       22    1    1    2    0    0 -0.64365284223E-02 -0.19177201149E-01  0.29460815380E-01  0.35737005818E-01  0.00000000000E+00 0. -1.
  9000001    1    1    2    0    0  0.64365284223E-02  0.19177201149E-01 -0.29460815380E-01  0.35750994182E-01  0.10000000475E-02 0.  1.
</event>
<event>
 4   0  0.2441219E-02  0.9118800E+02  0.7818609E-02  0.1379984E+01
      -11   -1    0    0    0    0  0.00000000000E+00  0.00000000000E+00  0.35740347158E-01  0.35744000000E-01  0.51099999109E-03 0. -1.
       11   -1    0    0    0    0 -0.00000000000E+00 -0.00000000000E+00 -0.35740347158E-01  0.35744000000E-01  0.51099999109E-03 0.  1.
       22    1    1    2    0    0  0.67668249848E-03  0.17920293309E-01  0.30911790200E-01  0.35737005818E-01  0.00000000000E+00 0. -1.
  9000001    1    1    2    0    0 -0.67668249848E-03 -0.17920293309E-01 -0.30911790200E-01  0.35750994182E-01  0.10000000475E-02 0.  1.
</event>
<event>
 4   0  0.2441219E-02  0.9118800E+02  0.7818609E-02  0.1379984E+01
      -11   -1    0    0    0    0  0.00000000000E+00  0.00000000000E+00  0.35740347158E-01  0.35744000000E-01  0.51099999109E-03 0. -1.
       11   -1    0    0    0    0 -0.00000000000E+00 -0.00000000000E+00 -0.35740347158E-01  0.35744000000E-01  0.51099999109E-03 0.  1.
       22    1    1    2    0    0  0.21871249150E-01  0.13329190561E-01  0.24922173350E-01  0.35737005818E-01  0.00000000000E+00 0. -1.
  9000001    1    1    2    0    0 -0.21871249150E-01 -0.13329190561E-01 -0.24922173350E-01  0.35750994182E-01  0.10000000475E-02 0.  1.
</event>
<event>
 4   0  0.2441219E-02  0.9118800E+02  0.7818609E-02  0.1379984E+01
      -11   -1    0    0    0    0  0.00000000000E+00  0.00000000000E+00  0.35740347158E-01  0.35744000000E-01  0.51099999109E-03 0. -1.
       11   -1    0    0    0    0 -0.00000000000E+00 -0.00000000000E+00 -0.35740347158E-01  0.35744000000E-01  0.51099999109E-03 0.  1.
       22    1    1    2    0    0 -0.82050927152E-02  0.58238263560E-03  0.34777447705E-01  0.35737005818E-01  0.00000000000E+00 0. -1.
  9000001    1    1    2    0    0  0.82050927152E-02 -0.58238263560E-03 -0.34777447705E-01  0.35750994182E-01  0.10000000475E-02 0.  1.
</event>
<event>
 4   0  0.2441219E-02  0.9118800E+02  0.7818609E-02  0.1379984E+01
      -11   -1    0    0    0    0  0.00000000000E+00  0.00000000000E+00  0.35740347158E-01  0.35744000000E-01  0.51099999109E-03 0.  1.
       11   -1    0    0    0    0 -0.00000000000E+00 -0.00000000000E+00 -0.35740347158E-01  0.35744000000E-01  0.51099999109E-03 0. -1.
       22    1    1    2    0    0  0.91973180300E-02 -0.22604076256E-02 -0.34459156741E-01  0.35737005818E-01  0.00000000000E+00 0. -1.
  9000001    1    1    2    0    0 -0.91973180300E-02  0.22604076256E-02  0.34459156741E-01  0.35750994182E-01  0.10000000475E-02 0.  1.
</event>
<event>
 4   0  0.2441219E-02  0.9118800E+02  0.7818609E-02  0.1379984E+01
      -11   -1    0    0    0    0  0.00000000000E+00  0.00000000000E+00  0.35740347158E-01  0.35744000000E-01  0.51099999109E-03 0. -1.
       11   -1    0    0    0    0 -0.00000000000E+00 -0.00000000000E+00 -0.35740347158E-01  0.35744000000E-01  0.51099999109E-03 0.  1.
       22    1    1    2    0    0 -0.27637607185E-01  0.20787723889E-01  0.90092613178E-02  0.35737005818E-01  0.00000000000E+00 0. -1.
  9000001    1    1    2    0    0  0.27637607185E-01 -0.20787723889E-01 -0.90092613178E-02  0.35750994182E-01  0.10000000475E-02 0.  1.
</event>
<event>
 4   0  0.2441219E-02  0.9118800E+02  0.7818609E-02  0.1379984E+01
      -11   -1    0    0    0    0  0.00000000000E+00  0.00000000000E+00  0.35740347158E-01  0.35744000000E-01  0.51099999109E-03 0.  1.
       11   -1    0    0    0    0 -0.00000000000E+00 -0.00000000000E+00 -0.35740347158E-01  0.35744000000E-01  0.51099999109E-03 0. -1.
       22    1    1    2    0    0  0.77200454714E-03 -0.34992457313E-02  0.35556896281E-01  0.35737005818E-01  0.00000000000E+00 0.  1.
  9000001    1    1    2    0    0 -0.77200454714E-03  0.34992457313E-02 -0.35556896281E-01  0.35750994182E-01  0.10000000475E-02 0. -1.
</event>
<event>
 4   0  0.2441219E-02  0.9118800E+02  0.7818609E-02  0.1379984E+01
      -11   -1    0    0    0    0  0.00000000000E+00  0.00000000000E+00  0.35740347158E-01  0.35744000000E-01  0.51099999109E-03 0.  1.
       11   -1    0    0    0    0 -0.00000000000E+00 -0.00000000000E+00 -0.35740347158E-01  0.35744000000E-01  0.51099999109E-03 0. -1.
       22    1    1    2    0    0 -0.10876459586E-02 -0.47480743509E-02  0.35403480070E-01  0.35737005818E-01  0.00000000000E+00 0.  1.
  9000001    1    1    2    0    0  0.10876459586E-02  0.47480743509E-02 -0.35403480070E-01  0.35750994182E-01  0.10000000475E-02 0. -1.
</event>
<event>
 4   0  0.2441219E-02  0.9118800E+02  0.7818609E-02  0.1379984E+01
      -11   -1    0    0    0    0  0.00000000000E+00  0.00000000000E+00  0.35740347158E-01  0.35744000000E-01  0.51099999109E-03 0.  1.
       11   -1    0    0    0    0 -0.00000000000E+00 -0.00000000000E+00 -0.35740347158E-01  0.35744000000E-01  0.51099999109E-03 0. -1.
       22    1    1    2    0    0 -0.15524943013E-01 -0.18902933066E-01 -0.26053576546E-01  0.35737005818E-01  0.00000000000E+00 0. -1.
  9000001    1    1    2    0    0  0.15524943013E-01  0.18902933066E-01  0.26053576546E-01  0.35750994182E-01  0.10000000475E-02 0.  1.
</event>
<event>
 4   0  0.2441219E-02  0.9118800E+02  0.7818609E-02  0.1379984E+01
      -11   -1    0    0    0    0  0.00000000000E+00  0.00000000000E+00  0.35740347158E-01  0.35744000000E-01  0.51099999109E-03 0. -1.
       11   -1    0    0    0    0 -0.00000000000E+00 -0.00000000000E+00 -0.35740347158E-01  0.35744000000E-01  0.51099999109E-03 0.  1.
       22    1    1    2    0    0  0.33456843588E-01 -0.76130962489E-02 -0.99906940453E-02  0.35737005818E-01  0.00000000000E+00 0.  1.
  9000001    1    1    2    0    0 -0.33456843588E-01  0.76130962489E-02  0.99906940453E-02  0.35750994182E-01  0.10000000475E-02 0. -1.
</event>
<event>
 4   0  0.2441219E-02  0.9118800E+02  0.7818609E-02  0.1379984E+01
      -11   -1    0    0    0    0  0.00000000000E+00  0.00000000000E+00  0.35740347158E-01  0.35744000000E-01  0.51099999109E-03 0.  1.
       11   -1    0    0    0    0 -0.00000000000E+00 -0.00000000000E+00 -0.35740347158E-01  0.35744000000E-01  0.51099999109E-03 0. -1.
       22    1    1    2    0    0 -0.22728789497E-02 -0.45988249213E-02 -0.35366911308E-01  0.35737005818E-01  0.00000000000E+00 0. -1.
  9000001    1    1    2    0    0  0.22728789497E-02  0.45988249213E-02  0.35366911308E-01  0.35750994182E-01  0.10000000475E-02 0.  1.
</event>
<event>
 4   0  0.2441219E-02  0.9118800E+02  0.7818609E-02  0.1379984E+01
      -11   -1    0    0    0    0  0.00000000000E+00  0.00000000000E+00  0.35740347158E-01  0.35744000000E-01  0.51099999109E-03 0. -1.
       11   -1    0    0    0    0 -0.00000000000E+00 -0.00000000000E+00 -0.35740347158E-01  0.35744000000E-01  0.51099999109E-03 0.  1.
       22    1    1    2    0    0  0.11908314001E-02 -0.12142345179E-01 -0.33589863932E-01  0.35737005818E-01  0.00000000000E+00 0.  1.
  9000001    1    1    2    0    0 -0.11908314001E-02  0.12142345179E-01  0.33589863932E-01  0.35750994182E-01  0.10000000475E-02 0. -1.
</event>
<event>
 4   0  0.2441219E-02  0.9118800E+02  0.7818609E-02  0.1379984E+01
      -11   -1    0    0    0    0  0.00000000000E+00  0.00000000000E+00  0.35740347158E-01  0.35744000000E-01  0.51099999109E-03 0.  1.
       11   -1    0    0    0    0 -0.00000000000E+00 -0.00000000000E+00 -0.35740347158E-01  0.35744000000E-01  0.51099999109E-03 0. -1.
       22    1    1    2    0    0 -0.44647697763E-02  0.30008486202E-02 -0.35329793706E-01  0.35737005818E-01  0.00000000000E+00 0. -1.
  9000001    1    1    2    0    0  0.44647697763E-02 -0.30008486202E-02  0.35329793706E-01  0.35750994182E-01  0.10000000475E-02 0.  1.
</event>
<event>
 4   0  0.2441219E-02  0.9118800E+02  0.7818609E-02  0.1379984E+01
      -11   -1    0    0    0    0  0.00000000000E+00  0.00000000000E+00  0.35740347158E-01  0.35744000000E-01  0.51099999109E-03 0.  1.
       11   -1    0    0    0    0 -0.00000000000E+00 -0.00000000000E+00 -0.35740347158E-01  0.35744000000E-01  0.51099999109E-03 0. -1.
       22    1    1    2    0    0 -0.36970375537E-02 -0.22574408956E-02  0.35473503616E-01  0.35737005818E-01  0.00000000000E+00 0.  1.
  9000001    1    1    2    0    0  0.36970375537E-02  0.22574408956E-02 -0.35473503616E-01  0.35750994182E-01  0.10000000475E-02 0. -1.
</event>
<event>
 4   0  0.2441219E-02  0.9118800E+02  0.7818609E-02  0.1379984E+01
      -11   -1    0    0    0    0  0.00000000000E+00  0.00000000000E+00  0.35740347158E-01  0.35744000000E-01  0.51099999109E-03 0. -1.
       11   -1    0    0    0    0 -0.00000000000E+00 -0.00000000000E+00 -0.35740347158E-01  0.35744000000E-01  0.51099999109E-03 0.  1.
       22    1    1    2    0    0  0.23040196688E-02 -0.23352118026E-02  0.35586118980E-01  0.35737005818E-01  0.00000000000E+00 0. -1.
  9000001    1    1    2    0    0 -0.23040196688E-02  0.23352118026E-02 -0.35586118980E-01  0.35750994182E-01  0.10000000475E-02 0.  1.
</event>
<event>
 4   0  0.2441219E-02  0.9118800E+02  0.7818609E-02  0.1379984E+01
      -11   -1    0    0    0    0  0.00000000000E+00  0.00000000000E+00  0.35740347158E-01  0.35744000000E-01  0.51099999109E-03 0.  1.
       11   -1    0    0    0    0 -0.00000000000E+00 -0.00000000000E+00 -0.35740347158E-01  0.35744000000E-01  0.51099999109E-03 0. -1.
       22    1    1    2    0    0  0.50578609286E-02 -0.55082064900E-02 -0.34945833642E-01  0.35737005818E-01  0.00000000000E+00 0. -1.
  9000001    1    1    2    0    0 -0.50578609286E-02  0.55082064900E-02  0.34945833642E-01  0.35750994182E-01  0.10000000475E-02 0.  1.
</event>
<event>
 4   0  0.2441219E-02  0.9118800E+02  0.7818609E-02  0.1379984E+01
      -11   -1    0    0    0    0  0.00000000000E+00  0.00000000000E+00  0.35740347158E-01  0.35744000000E-01  0.51099999109E-03 0.  1.
       11   -1    0    0    0    0 -0.00000000000E+00 -0.00000000000E+00 -0.35740347158E-01  0.35744000000E-01  0.51099999109E-03 0. -1.
       22    1    1    2    0    0  0.10253652210E-02 -0.13836297656E-01 -0.32933859146E-01  0.35737005818E-01  0.00000000000E+00 0. -1.
  9000001    1    1    2    0    0 -0.10253652210E-02  0.13836297656E-01  0.32933859146E-01  0.35750994182E-01  0.10000000475E-02 0.  1.
</event>
<event>
 4   0  0.2441219E-02  0.9118800E+02  0.7818609E-02  0.1379984E+01
      -11   -1    0    0    0    0  0.00000000000E+00  0.00000000000E+00  0.35740347158E-01  0.35744000000E-01  0.51099999109E-03 0.  1.
       11   -1    0    0    0    0 -0.00000000000E+00 -0.00000000000E+00 -0.35740347158E-01  0.35744000000E-01  0.51099999109E-03 0. -1.
       22    1    1    2    0    0  0.62060680995E-02 -0.18962439280E-01  0.29648679569E-01  0.35737005818E-01  0.00000000000E+00 0.  1.
  9000001    1    1    2    0    0 -0.62060680995E-02  0.18962439280E-01 -0.29648679569E-01  0.35750994182E-01  0.10000000475E-02 0. -1.
</event>
<event>
 4   0  0.2441219E-02  0.9118800E+02  0.7818609E-02  0.1379984E+01
      -11   -1    0    0    0    0  0.00000000000E+00  0.00000000000E+00  0.35740347158E-01  0.35744000000E-01  0.51099999109E-03 0.  1.
       11   -1    0    0    0    0 -0.00000000000E+00 -0.00000000000E+00 -0.35740347158E-01  0.35744000000E-01  0.51099999109E-03 0. -1.
       22    1    1    2    0    0  0.90005351352E-02  0.87539610994E-02  0.33458812251E-01  0.35737005818E-01  0.00000000000E+00 0.  1.
  9000001    1    1    2    0    0 -0.90005351352E-02 -0.87539610994E-02 -0.33458812251E-01  0.35750994182E-01  0.10000000475E-02 0. -1.
</event>
<event>
 4   0  0.2441219E-02  0.9118800E+02  0.7818609E-02  0.1379984E+01
      -11   -1    0    0    0    0  0.00000000000E+00  0.00000000000E+00  0.35740347158E-01  0.35744000000E-01  0.51099999109E-03 0. -1.
       11   -1    0    0    0    0 -0.00000000000E+00 -0.00000000000E+00 -0.35740347158E-01  0.35744000000E-01  0.51099999109E-03 0.  1.
       22    1    1    2    0    0  0.10769403915E-01 -0.10584837771E-02 -0.34059259186E-01  0.35737005818E-01  0.00000000000E+00 0.  1.
  9000001    1    1    2    0    0 -0.10769403915E-01  0.10584837771E-02  0.34059259186E-01  0.35750994182E-01  0.10000000475E-02 0. -1.
</event>
<event>
 4   0  0.2441219E-02  0.9118800E+02  0.7818609E-02  0.1379984E+01
      -11   -1    0    0    0    0  0.00000000000E+00  0.00000000000E+00  0.35740347158E-01  0.35744000000E-01  0.51099999109E-03 0. -1.
       11   -1    0    0    0    0 -0.00000000000E+00 -0.00000000000E+00 -0.35740347158E-01  0.35744000000E-01  0.51099999109E-03 0.  1.
       22    1    1    2    0    0  0.88718896692E-02  0.36543747747E-02  0.34424826849E-01  0.35737005818E-01  0.00000000000E+00 0. -1.
  9000001    1    1    2    0    0 -0.88718896692E-02 -0.36543747747E-02 -0.34424826849E-01  0.35750994182E-01  0.10000000475E-02 0.  1.
</event>
<event>
 4   0  0.2441219E-02  0.9118800E+02  0.7818609E-02  0.1379984E+01
      -11   -1    0    0    0    0  0.00000000000E+00  0.00000000000E+00  0.35740347158E-01  0.35744000000E-01  0.51099999109E-03 0.  1.
       11   -1    0    0    0    0 -0.00000000000E+00 -0.00000000000E+00 -0.35740347158E-01  0.35744000000E-01  0.51099999109E-03 0. -1.
       22    1    1    2    0    0 -0.26001945425E-02  0.30355275552E-02  0.35512788481E-01  0.35737005818E-01  0.00000000000E+00 0.  1.
  9000001    1    1    2    0    0  0.26001945425E-02 -0.30355275552E-02 -0.35512788481E-01  0.35750994182E-01  0.10000000475E-02 0. -1.
</event>
<event>
 4   0  0.2441219E-02  0.9118800E+02  0.7818609E-02  0.1379984E+01
      -11   -1    0    0    0    0  0.00000000000E+00  0.00000000000E+00  0.35740347158E-01  0.35744000000E-01  0.51099999109E-03 0. -1.
       11   -1    0    0    0    0 -0.00000000000E+00 -0.00000000000E+00 -0.35740347158E-01  0.35744000000E-01  0.51099999109E-03 0.  1.
       22    1    1    2    0    0  0.20353231727E-02  0.29763769509E-02 -0.35554637176E-01  0.35737005818E-01  0.00000000000E+00 0.  1.
  9000001    1    1    2    0    0 -0.20353231727E-02 -0.29763769509E-02  0.35554637176E-01  0.35750994182E-01  0.10000000475E-02 0. -1.
</event>
<event>
 4   0  0.2441219E-02  0.9118800E+02  0.7818609E-02  0.1379984E+01
      -11   -1    0    0    0    0  0.00000000000E+00  0.00000000000E+00  0.35740347158E-01  0.35744000000E-01  0.51099999109E-03 0. -1.
       11   -1    0    0    0    0 -0.00000000000E+00 -0.00000000000E+00 -0.35740347158E-01  0.35744000000E-01  0.51099999109E-03 0.  1.
       22    1    1    2    0    0  0.96672129079E-02 -0.57062777825E-02 -0.33928114792E-01  0.35737005818E-01  0.00000000000E+00 0.  1.
  9000001    1    1    2    0    0 -0.96672129079E-02  0.57062777825E-02  0.33928114792E-01  0.35750994182E-01  0.10000000475E-02 0. -1.
</event>
<event>
 4   0  0.2441219E-02  0.9118800E+02  0.7818609E-02  0.1379984E+01
      -11   -1    0    0    0    0  0.00000000000E+00  0.00000000000E+00  0.35740347158E-01  0.35744000000E-01  0.51099999109E-03 0.  1.
       11   -1    0    0    0    0 -0.00000000000E+00 -0.00000000000E+00 -0.35740347158E-01  0.35744000000E-01  0.51099999109E-03 0. -1.
       22    1    1    2    0    0  0.51952611719E-02  0.69499367906E-02 -0.34667581756E-01  0.35737005818E-01  0.00000000000E+00 0. -1.
  9000001    1    1    2    0    0 -0.51952611719E-02 -0.69499367906E-02  0.34667581756E-01  0.35750994182E-01  0.10000000475E-02 0.  1.
</event>
<event>
 4   0  0.2441219E-02  0.9118800E+02  0.7818609E-02  0.1379984E+01
      -11   -1    0    0    0    0  0.00000000000E+00  0.00000000000E+00  0.35740347158E-01  0.35744000000E-01  0.51099999109E-03 0. -1.
       11   -1    0    0    0    0 -0.00000000000E+00 -0.00000000000E+00 -0.35740347158E-01  0.35744000000E-01  0.51099999109E-03 0.  1.
       22    1    1    2    0    0 -0.31474815299E-01  0.23893073086E-03  0.16923725916E-01  0.35737005818E-01  0.00000000000E+00 0. -1.
  9000001    1    1    2    0    0  0.31474815299E-01 -0.23893073086E-03 -0.16923725916E-01  0.35750994182E-01  0.10000000475E-02 0.  1.
</event>
<event>
 4   0  0.2441219E-02  0.9118800E+02  0.7818609E-02  0.1379984E+01
      -11   -1    0    0    0    0  0.00000000000E+00  0.00000000000E+00  0.35740347158E-01  0.35744000000E-01  0.51099999109E-03 0. -1.
       11   -1    0    0    0    0 -0.00000000000E+00 -0.00000000000E+00 -0.35740347158E-01  0.35744000000E-01  0.51099999109E-03 0.  1.
       22    1    1    2    0    0 -0.10837702752E-01 -0.41153105933E-02  0.33804467199E-01  0.35737005818E-01  0.00000000000E+00 0. -1.
  9000001    1    1    2    0    0  0.10837702752E-01  0.41153105933E-02 -0.33804467199E-01  0.35750994182E-01  0.10000000475E-02 0.  1.
</event>
<event>
 4   0  0.2441219E-02  0.9118800E+02  0.7818609E-02  0.1379984E+01
      -11   -1    0    0    0    0  0.00000000000E+00  0.00000000000E+00  0.35740347158E-01  0.35744000000E-01  0.51099999109E-03 0.  1.
       11   -1    0    0    0    0 -0.00000000000E+00 -0.00000000000E+00 -0.35740347158E-01  0.35744000000E-01  0.51099999109E-03 0. -1.
       22    1    1    2    0    0  0.26793400926E-02  0.27267265335E-02  0.35531952999E-01  0.35737005818E-01  0.00000000000E+00 0.  1.
  9000001    1    1    2    0    0 -0.26793400926E-02 -0.27267265335E-02 -0.35531952999E-01  0.35750994182E-01  0.10000000475E-02 0. -1.
</event>
<event>
 4   0  0.2441219E-02  0.9118800E+02  0.7818609E-02  0.1379984E+01
      -11   -1    0    0    0    0  0.00000000000E+00  0.00000000000E+00  0.35740347158E-01  0.35744000000E-01  0.51099999109E-03 0. -1.
       11   -1    0    0    0    0 -0.00000000000E+00 -0.00000000000E+00 -0.35740347158E-01  0.35744000000E-01  0.51099999109E-03 0.  1.
       22    1    1    2    0    0 -0.20695258203E-02  0.47053947504E-02 -0.35365377249E-01  0.35737005818E-01  0.00000000000E+00 0.  1.
  9000001    1    1    2    0    0  0.20695258203E-02 -0.47053947504E-02  0.35365377249E-01  0.35750994182E-01  0.10000000475E-02 0. -1.
</event>
<event>
 4   0  0.2441219E-02  0.9118800E+02  0.7818609E-02  0.1379984E+01
      -11   -1    0    0    0    0  0.00000000000E+00  0.00000000000E+00  0.35740347158E-01  0.35744000000E-01  0.51099999109E-03 0. -1.
       11   -1    0    0    0    0 -0.00000000000E+00 -0.00000000000E+00 -0.35740347158E-01  0.35744000000E-01  0.51099999109E-03 0.  1.
       22    1    1    2    0    0 -0.44450757123E-02 -0.15599218858E-02  0.35425153923E-01  0.35737005818E-01  0.00000000000E+00 0. -1.
  9000001    1    1    2    0    0  0.44450757123E-02  0.15599218858E-02 -0.35425153923E-01  0.35750994182E-01  0.10000000475E-02 0.  1.
</event>
<event>
 4   0  0.2441219E-02  0.9118800E+02  0.7818609E-02  0.1379984E+01
      -11   -1    0    0    0    0  0.00000000000E+00  0.00000000000E+00  0.35740347158E-01  0.35744000000E-01  0.51099999109E-03 0.  1.
       11   -1    0    0    0    0 -0.00000000000E+00 -0.00000000000E+00 -0.35740347158E-01  0.35744000000E-01  0.51099999109E-03 0. -1.
       22    1    1    2    0    0 -0.19715237695E-01  0.24912616965E-01 -0.16364733528E-01  0.35737005818E-01  0.00000000000E+00 0. -1.
  9000001    1    1    2    0    0  0.19715237695E-01 -0.24912616965E-01  0.16364733528E-01  0.35750994182E-01  0.10000000475E-02 0.  1.
</event>
<event>
 4   0  0.2441219E-02  0.9118800E+02  0.7818609E-02  0.1379984E+01
      -11   -1    0    0    0    0  0.00000000000E+00  0.00000000000E+00  0.35740347158E-01  0.35744000000E-01  0.51099999109E-03 0.  1.
       11   -1    0    0    0    0 -0.00000000000E+00 -0.00000000000E+00 -0.35740347158E-01  0.35744000000E-01  0.51099999109E-03 0. -1.
       22    1    1    2    0    0 -0.59183105189E-02 -0.22216469896E-02  0.35173448368E-01  0.35737005818E-01  0.00000000000E+00 0.  1.
  9000001    1    1    2    0    0  0.59183105189E-02  0.22216469896E-02 -0.35173448368E-01  0.35750994182E-01  0.10000000475E-02 0. -1.
</event>
<event>
 4   0  0.2441219E-02  0.9118800E+02  0.7818609E-02  0.1379984E+01
      -11   -1    0    0    0    0  0.00000000000E+00  0.00000000000E+00  0.35740347158E-01  0.35744000000E-01  0.51099999109E-03 0.  1.
       11   -1    0    0    0    0 -0.00000000000E+00 -0.00000000000E+00 -0.35740347158E-01  0.35744000000E-01  0.51099999109E-03 0. -1.
       22    1    1    2    0    0  0.25864992892E-02 -0.11077037175E-01 -0.33878353764E-01  0.35737005818E-01  0.00000000000E+00 0. -1.
  9000001    1    1    2    0    0 -0.25864992892E-02  0.11077037175E-01  0.33878353764E-01  0.35750994182E-01  0.10000000475E-02 0.  1.
</event>
<event>
 4   0  0.2441219E-02  0.9118800E+02  0.7818609E-02  0.1379984E+01
      -11   -1    0    0    0    0  0.00000000000E+00  0.00000000000E+00  0.35740347158E-01  0.35744000000E-01  0.51099999109E-03 0. -1.
       11   -1    0    0    0    0 -0.00000000000E+00 -0.00000000000E+00 -0.35740347158E-01  0.35744000000E-01  0.51099999109E-03 0.  1.
       22    1    1    2    0    0 -0.16230561228E-02  0.26377550800E-02  0.35602549373E-01  0.35737005818E-01  0.00000000000E+00 0. -1.
  9000001    1    1    2    0    0  0.16230561228E-02 -0.26377550800E-02 -0.35602549373E-01  0.35750994182E-01  0.10000000475E-02 0.  1.
</event>
<event>
 4   0  0.2441219E-02  0.9118800E+02  0.7818609E-02  0.1379984E+01
      -11   -1    0    0    0    0  0.00000000000E+00  0.00000000000E+00  0.35740347158E-01  0.35744000000E-01  0.51099999109E-03 0.  1.
       11   -1    0    0    0    0 -0.00000000000E+00 -0.00000000000E+00 -0.35740347158E-01  0.35744000000E-01  0.51099999109E-03 0. -1.
       22    1    1    2    0    0  0.43409776204E-02 -0.71928149582E-02  0.34735470504E-01  0.35737005818E-01  0.00000000000E+00 0.  1.
  9000001    1    1    2    0    0 -0.43409776204E-02  0.71928149582E-02 -0.34735470504E-01  0.35750994182E-01  0.10000000475E-02 0. -1.
</event>
<event>
 4   0  0.2441219E-02  0.9118800E+02  0.7818609E-02  0.1379984E+01
      -11   -1    0    0    0    0  0.00000000000E+00  0.00000000000E+00  0.35740347158E-01  0.35744000000E-01  0.51099999109E-03 0.  1.
       11   -1    0    0    0    0 -0.00000000000E+00 -0.00000000000E+00 -0.35740347158E-01  0.35744000000E-01  0.51099999109E-03 0. -1.
       22    1    1    2    0    0  0.18414134204E-01 -0.11438620534E-01 -0.28411462593E-01  0.35737005818E-01  0.00000000000E+00 0. -1.
  9000001    1    1    2    0    0 -0.18414134204E-01  0.11438620534E-01  0.28411462593E-01  0.35750994182E-01  0.10000000475E-02 0.  1.
</event>
<event>
 4   0  0.2441219E-02  0.9118800E+02  0.7818609E-02  0.1379984E+01
      -11   -1    0    0    0    0  0.00000000000E+00  0.00000000000E+00  0.35740347158E-01  0.35744000000E-01  0.51099999109E-03 0. -1.
       11   -1    0    0    0    0 -0.00000000000E+00 -0.00000000000E+00 -0.35740347158E-01  0.35744000000E-01  0.51099999109E-03 0.  1.
       22    1    1    2    0    0  0.28844303427E-02 -0.45574353512E-02  0.35327658138E-01  0.35737005818E-01  0.00000000000E+00 0. -1.
  9000001    1    1    2    0    0 -0.28844303427E-02  0.45574353512E-02 -0.35327658138E-01  0.35750994182E-01  0.10000000475E-02 0.  1.
</event>
<event>
 4   0  0.2441219E-02  0.9118800E+02  0.7818609E-02  0.1379984E+01
      -11   -1    0    0    0    0  0.00000000000E+00  0.00000000000E+00  0.35740347158E-01  0.35744000000E-01  0.51099999109E-03 0.  1.
       11   -1    0    0    0    0 -0.00000000000E+00 -0.00000000000E+00 -0.35740347158E-01  0.35744000000E-01  0.51099999109E-03 0. -1.
       22    1    1    2    0    0 -0.11375723307E-01 -0.24672782385E-01  0.23215949550E-01  0.35737005818E-01  0.00000000000E+00 0.  1.
  9000001    1    1    2    0    0  0.11375723307E-01  0.24672782385E-01 -0.23215949550E-01  0.35750994182E-01  0.10000000475E-02 0. -1.
</event>
<event>
 4   0  0.2441219E-02  0.9118800E+02  0.7818609E-02  0.1379984E+01
      -11   -1    0    0    0    0  0.00000000000E+00  0.00000000000E+00  0.35740347158E-01  0.35744000000E-01  0.51099999109E-03 0. -1.
       11   -1    0    0    0    0 -0.00000000000E+00 -0.00000000000E+00 -0.35740347158E-01  0.35744000000E-01  0.51099999109E-03 0.  1.
       22    1    1    2    0    0 -0.29277876361E-02 -0.42729635931E-02 -0.35359629899E-01  0.35737005818E-01  0.00000000000E+00 0.  1.
  9000001    1    1    2    0    0  0.29277876361E-02  0.42729635931E-02  0.35359629899E-01  0.35750994182E-01  0.10000000475E-02 0. -1.
</event>
<event>
 4   0  0.2441219E-02  0.9118800E+02  0.7818609E-02  0.1379984E+01
      -11   -1    0    0    0    0  0.00000000000E+00  0.00000000000E+00  0.35740347158E-01  0.35744000000E-01  0.51099999109E-03 0.  1.
       11   -1    0    0    0    0 -0.00000000000E+00 -0.00000000000E+00 -0.35740347158E-01  0.35744000000E-01  0.51099999109E-03 0. -1.
       22    1    1    2    0    0  0.49183866573E-02 -0.80041270355E-02  0.34480095823E-01  0.35737005818E-01  0.00000000000E+00 0.  1.
  9000001    1    1    2    0    0 -0.49183866573E-02  0.80041270355E-02 -0.34480095823E-01  0.35750994182E-01  0.10000000475E-02 0. -1.
</event>
<event>
 4   0  0.2441219E-02  0.9118800E+02  0.7818609E-02  0.1379984E+01
      -11   -1    0    0    0    0  0.00000000000E+00  0.00000000000E+00  0.35740347158E-01  0.35744000000E-01  0.51099999109E-03 0. -1.
       11   -1    0    0    0    0 -0.00000000000E+00 -0.00000000000E+00 -0.35740347158E-01  0.35744000000E-01  0.51099999109E-03 0.  1.
       22    1    1    2    0    0 -0.50651542948E-02  0.14153616684E-02  0.35347907267E-01  0.35737005818E-01  0.00000000000E+00 0. -1.
  9000001    1    1    2    0    0  0.50651542948E-02 -0.14153616684E-02 -0.35347907267E-01  0.35750994182E-01  0.10000000475E-02 0.  1.
</event>
<event>
 4   0  0.2441219E-02  0.9118800E+02  0.7818609E-02  0.1379984E+01
      -11   -1    0    0    0    0  0.00000000000E+00  0.00000000000E+00  0.35740347158E-01  0.35744000000E-01  0.51099999109E-03 0. -1.
       11   -1    0    0    0    0 -0.00000000000E+00 -0.00000000000E+00 -0.35740347158E-01  0.35744000000E-01  0.51099999109E-03 0.  1.
       22    1    1    2    0    0  0.25199607847E-03  0.53148265609E-02  0.35338685622E-01  0.35737005818E-01  0.00000000000E+00 0. -1.
  9000001    1    1    2    0    0 -0.25199607847E-03 -0.53148265609E-02 -0.35338685622E-01  0.35750994182E-01  0.10000000475E-02 0.  1.
</event>
<event>
 4   0  0.2441219E-02  0.9118800E+02  0.7818609E-02  0.1379984E+01
      -11   -1    0    0    0    0  0.00000000000E+00  0.00000000000E+00  0.35740347158E-01  0.35744000000E-01  0.51099999109E-03 0. -1.
       11   -1    0    0    0    0 -0.00000000000E+00 -0.00000000000E+00 -0.35740347158E-01  0.35744000000E-01  0.51099999109E-03 0.  1.
       22    1    1    2    0    0 -0.78711978321E-03 -0.33103616876E-02 -0.35574647332E-01  0.35737005818E-01  0.00000000000E+00 0.  1.
  9000001    1    1    2    0    0  0.78711978321E-03  0.33103616876E-02  0.35574647332E-01  0.35750994182E-01  0.10000000475E-02 0. -1.
</event>
<event>
 4   0  0.2441219E-02  0.9118800E+02  0.7818609E-02  0.1379984E+01
      -11   -1    0    0    0    0  0.00000000000E+00  0.00000000000E+00  0.35740347158E-01  0.35744000000E-01  0.51099999109E-03 0. -1.
       11   -1    0    0    0    0 -0.00000000000E+00 -0.00000000000E+00 -0.35740347158E-01  0.35744000000E-01  0.51099999109E-03 0.  1.
       22    1    1    2    0    0  0.31647772297E-02 -0.25538854146E-02  0.35504865008E-01  0.35737005818E-01  0.00000000000E+00 0. -1.
  9000001    1    1    2    0    0 -0.31647772297E-02  0.25538854146E-02 -0.35504865008E-01  0.35750994182E-01  0.10000000475E-02 0.  1.
</event>
<event>
 4   0  0.2441219E-02  0.9118800E+02  0.7818609E-02  0.1379984E+01
      -11   -1    0    0    0    0  0.00000000000E+00  0.00000000000E+00  0.35740347158E-01  0.35744000000E-01  0.51099999109E-03 0. -1.
       11   -1    0    0    0    0 -0.00000000000E+00 -0.00000000000E+00 -0.35740347158E-01  0.35744000000E-01  0.51099999109E-03 0.  1.
       22    1    1    2    0    0  0.51855489644E-02  0.10655912746E-01 -0.33714910505E-01  0.35737005818E-01  0.00000000000E+00 0.  1.
  9000001    1    1    2    0    0 -0.51855489644E-02 -0.10655912746E-01  0.33714910505E-01  0.35750994182E-01  0.10000000475E-02 0. -1.
</event>
<event>
 4   0  0.2441219E-02  0.9118800E+02  0.7818609E-02  0.1379984E+01
      -11   -1    0    0    0    0  0.00000000000E+00  0.00000000000E+00  0.35740347158E-01  0.35744000000E-01  0.51099999109E-03 0.  1.
       11   -1    0    0    0    0 -0.00000000000E+00 -0.00000000000E+00 -0.35740347158E-01  0.35744000000E-01  0.51099999109E-03 0. -1.
       22    1    1    2    0    0  0.49795281398E-02  0.17569804683E-01  0.30718721454E-01  0.35737005818E-01  0.00000000000E+00 0.  1.
  9000001    1    1    2    0    0 -0.49795281398E-02 -0.17569804683E-01 -0.30718721454E-01  0.35750994182E-01  0.10000000475E-02 0. -1.
</event>
<event>
 4   0  0.2441219E-02  0.9118800E+02  0.7818609E-02  0.1379984E+01
      -11   -1    0    0    0    0  0.00000000000E+00  0.00000000000E+00  0.35740347158E-01  0.35744000000E-01  0.51099999109E-03 0.  1.
       11   -1    0    0    0    0 -0.00000000000E+00 -0.00000000000E+00 -0.35740347158E-01  0.35744000000E-01  0.51099999109E-03 0. -1.
       22    1    1    2    0    0  0.48370987907E-02 -0.10214256209E-02  0.35393399806E-01  0.35737005818E-01  0.00000000000E+00 0.  1.
  9000001    1    1    2    0    0 -0.48370987907E-02  0.10214256209E-02 -0.35393399806E-01  0.35750994182E-01  0.10000000475E-02 0. -1.
</event>
<event>
 4   0  0.2441219E-02  0.9118800E+02  0.7818609E-02  0.1379984E+01
      -11   -1    0    0    0    0  0.00000000000E+00  0.00000000000E+00  0.35740347158E-01  0.35744000000E-01  0.51099999109E-03 0. -1.
       11   -1    0    0    0    0 -0.00000000000E+00 -0.00000000000E+00 -0.35740347158E-01  0.35744000000E-01  0.51099999109E-03 0.  1.
       22    1    1    2    0    0  0.11827248626E-01  0.18487448831E-01 -0.28203971538E-01  0.35737005818E-01  0.00000000000E+00 0.  1.
  9000001    1    1    2    0    0 -0.11827248626E-01 -0.18487448831E-01  0.28203971538E-01  0.35750994182E-01  0.10000000475E-02 0. -1.
</event>
<event>
 4   0  0.2441219E-02  0.9118800E+02  0.7818609E-02  0.1379984E+01
      -11   -1    0    0    0    0  0.00000000000E+00  0.00000000000E+00  0.35740347158E-01  0.35744000000E-01  0.51099999109E-03 0. -1.
       11   -1    0    0    0    0 -0.00000000000E+00 -0.00000000000E+00 -0.35740347158E-01  0.35744000000E-01  0.51099999109E-03 0.  1.
       22    1    1    2    0    0 -0.25057279849E-01 -0.46148962709E-02  0.25059310522E-01  0.35737005818E-01  0.00000000000E+00 0. -1.
  9000001    1    1    2    0    0  0.25057279849E-01  0.46148962709E-02 -0.25059310522E-01  0.35750994182E-01  0.10000000475E-02 0.  1.
</event>
<event>
 4   0  0.2441219E-02  0.9118800E+02  0.7818609E-02  0.1379984E+01
      -11   -1    0    0    0    0  0.00000000000E+00  0.00000000000E+00  0.35740347158E-01  0.35744000000E-01  0.51099999109E-03 0. -1.
       11   -1    0    0    0    0 -0.00000000000E+00 -0.00000000000E+00 -0.35740347158E-01  0.35744000000E-01  0.51099999109E-03 0.  1.
       22    1    1    2    0    0 -0.38761435117E-02 -0.35785669073E-02  0.35345479983E-01  0.35737005818E-01  0.00000000000E+00 0. -1.
  9000001    1    1    2    0    0  0.38761435117E-02  0.35785669073E-02 -0.35345479983E-01  0.35750994182E-01  0.10000000475E-02 0.  1.
</event>
<event>
 4   0  0.2441219E-02  0.9118800E+02  0.7818609E-02  0.1379984E+01
      -11   -1    0    0    0    0  0.00000000000E+00  0.00000000000E+00  0.35740347158E-01  0.35744000000E-01  0.51099999109E-03 0. -1.
       11   -1    0    0    0    0 -0.00000000000E+00 -0.00000000000E+00 -0.35740347158E-01  0.35744000000E-01  0.51099999109E-03 0.  1.
       22    1    1    2    0    0 -0.29726805338E-02  0.12070925273E-02 -0.35592691426E-01  0.35737005818E-01  0.00000000000E+00 0.  1.
  9000001    1    1    2    0    0  0.29726805338E-02 -0.12070925273E-02  0.35592691426E-01  0.35750994182E-01  0.10000000475E-02 0. -1.
</event>
<event>
 4   0  0.2441219E-02  0.9118800E+02  0.7818609E-02  0.1379984E+01
      -11   -1    0    0    0    0  0.00000000000E+00  0.00000000000E+00  0.35740347158E-01  0.35744000000E-01  0.51099999109E-03 0. -1.
       11   -1    0    0    0    0 -0.00000000000E+00 -0.00000000000E+00 -0.35740347158E-01  0.35744000000E-01  0.51099999109E-03 0.  1.
       22    1    1    2    0    0 -0.23292180555E-02 -0.13392227951E-01  0.33050817821E-01  0.35737005818E-01  0.00000000000E+00 0. -1.
  9000001    1    1    2    0    0  0.23292180555E-02  0.13392227951E-01 -0.33050817821E-01  0.35750994182E-01  0.10000000475E-02 0.  1.
</event>
<event>
 4   0  0.2441219E-02  0.9118800E+02  0.7818609E-02  0.1379984E+01
      -11   -1    0    0    0    0  0.00000000000E+00  0.00000000000E+00  0.35740347158E-01  0.35744000000E-01  0.51099999109E-03 0. -1.
       11   -1    0    0    0    0 -0.00000000000E+00 -0.00000000000E+00 -0.35740347158E-01  0.35744000000E-01  0.51099999109E-03 0.  1.
       22    1    1    2    0    0 -0.43196505027E-02 -0.90823996976E-03 -0.35463351570E-01  0.35737005818E-01  0.00000000000E+00 0.  1.
  9000001    1    1    2    0    0  0.43196505027E-02  0.90823996976E-03  0.35463351570E-01  0.35750994182E-01  0.10000000475E-02 0. -1.
</event>
<event>
 4   0  0.2441219E-02  0.9118800E+02  0.7818609E-02  0.1379984E+01
      -11   -1    0    0    0    0  0.00000000000E+00  0.00000000000E+00  0.35740347158E-01  0.35744000000E-01  0.51099999109E-03 0.  1.
       11   -1    0    0    0    0 -0.00000000000E+00 -0.00000000000E+00 -0.35740347158E-01  0.35744000000E-01  0.51099999109E-03 0. -1.
       22    1    1    2    0    0  0.13416847649E-01  0.13842335515E-01  0.30091718653E-01  0.35737005818E-01  0.00000000000E+00 0.  1.
  9000001    1    1    2    0    0 -0.13416847649E-01 -0.13842335515E-01 -0.30091718653E-01  0.35750994182E-01  0.10000000475E-02 0. -1.
</event>
<event>
 4   0  0.2441219E-02  0.9118800E+02  0.7818609E-02  0.1379984E+01
      -11   -1    0    0    0    0  0.00000000000E+00  0.00000000000E+00  0.35740347158E-01  0.35744000000E-01  0.51099999109E-03 0.  1.
       11   -1    0    0    0    0 -0.00000000000E+00 -0.00000000000E+00 -0.35740347158E-01  0.35744000000E-01  0.51099999109E-03 0. -1.
       22    1    1    2    0    0 -0.32465353334E-02  0.38185123999E-02  0.35383789456E-01  0.35737005818E-01  0.00000000000E+00 0.  1.
  9000001    1    1    2    0    0  0.32465353334E-02 -0.38185123999E-02 -0.35383789456E-01  0.35750994182E-01  0.10000000475E-02 0. -1.
</event>
<event>
 4   0  0.2441219E-02  0.9118800E+02  0.7818609E-02  0.1379984E+01
      -11   -1    0    0    0    0  0.00000000000E+00  0.00000000000E+00  0.35740347158E-01  0.35744000000E-01  0.51099999109E-03 0. -1.
       11   -1    0    0    0    0 -0.00000000000E+00 -0.00000000000E+00 -0.35740347158E-01  0.35744000000E-01  0.51099999109E-03 0.  1.
       22    1    1    2    0    0  0.46878241238E-02  0.55483617668E-02  0.34991049878E-01  0.35737005818E-01  0.00000000000E+00 0. -1.
  9000001    1    1    2    0    0 -0.46878241238E-02 -0.55483617668E-02 -0.34991049878E-01  0.35750994182E-01  0.10000000475E-02 0.  1.
</event>
<event>
 4   0  0.2441219E-02  0.9118800E+02  0.7818609E-02  0.1379984E+01
      -11   -1    0    0    0    0  0.00000000000E+00  0.00000000000E+00  0.35740347158E-01  0.35744000000E-01  0.51099999109E-03 0.  1.
       11   -1    0    0    0    0 -0.00000000000E+00 -0.00000000000E+00 -0.35740347158E-01  0.35744000000E-01  0.51099999109E-03 0. -1.
       22    1    1    2    0    0 -0.28484287123E-02 -0.12543591625E-02 -0.35601216578E-01  0.35737005818E-01  0.00000000000E+00 0. -1.
  9000001    1    1    2    0    0  0.28484287123E-02  0.12543591625E-02  0.35601216578E-01  0.35750994182E-01  0.10000000475E-02 0.  1.
</event>
<event>
 4   0  0.2441219E-02  0.9118800E+02  0.7818609E-02  0.1379984E+01
      -11   -1    0    0    0    0  0.00000000000E+00  0.00000000000E+00  0.35740347158E-01  0.35744000000E-01  0.51099999109E-03 0.  1.
       11   -1    0    0    0    0 -0.00000000000E+00 -0.00000000000E+00 -0.35740347158E-01  0.35744000000E-01  0.51099999109E-03 0. -1.
       22    1    1    2    0    0 -0.28997990738E-02 -0.33270808510E-02  0.35463435863E-01  0.35737005818E-01  0.00000000000E+00 0.  1.
  9000001    1    1    2    0    0  0.28997990738E-02  0.33270808510E-02 -0.35463435863E-01  0.35750994182E-01  0.10000000475E-02 0. -1.
</event>
<event>
 4   0  0.2441219E-02  0.9118800E+02  0.7818609E-02  0.1379984E+01
      -11   -1    0    0    0    0  0.00000000000E+00  0.00000000000E+00  0.35740347158E-01  0.35744000000E-01  0.51099999109E-03 0.  1.
       11   -1    0    0    0    0 -0.00000000000E+00 -0.00000000000E+00 -0.35740347158E-01  0.35744000000E-01  0.51099999109E-03 0. -1.
       22    1    1    2    0    0 -0.30636865724E-01 -0.58387090744E-02  0.17447794126E-01  0.35737005818E-01  0.00000000000E+00 0.  1.
  9000001    1    1    2    0    0  0.30636865724E-01  0.58387090744E-02 -0.17447794126E-01  0.35750994182E-01  0.10000000475E-02 0. -1.
</event>
<event>
 4   0  0.2441219E-02  0.9118800E+02  0.7818609E-02  0.1379984E+01
      -11   -1    0    0    0    0  0.00000000000E+00  0.00000000000E+00  0.35740347158E-01  0.35744000000E-01  0.51099999109E-03 0.  1.
       11   -1    0    0    0    0 -0.00000000000E+00 -0.00000000000E+00 -0.35740347158E-01  0.35744000000E-01  0.51099999109E-03 0. -1.
       22    1    1    2    0    0 -0.67099978682E-02 -0.28554437893E-02  0.34985081881E-01  0.35737005818E-01  0.00000000000E+00 0.  1.
  9000001    1    1    2    0    0  0.67099978682E-02  0.28554437893E-02 -0.34985081881E-01  0.35750994182E-01  0.10000000475E-02 0. -1.
</event>
<event>
 4   0  0.2441219E-02  0.9118800E+02  0.7818609E-02  0.1379984E+01
      -11   -1    0    0    0    0  0.00000000000E+00  0.00000000000E+00  0.35740347158E-01  0.35744000000E-01  0.51099999109E-03 0. -1.
       11   -1    0    0    0    0 -0.00000000000E+00 -0.00000000000E+00 -0.35740347158E-01  0.35744000000E-01  0.51099999109E-03 0.  1.
       22    1    1    2    0    0 -0.14620036807E-01 -0.30074195820E-02  0.32470656539E-01  0.35737005818E-01  0.00000000000E+00 0. -1.
  9000001    1    1    2    0    0  0.14620036807E-01  0.30074195820E-02 -0.32470656539E-01  0.35750994182E-01  0.10000000475E-02 0.  1.
</event>
<event>
 4   0  0.2441219E-02  0.9118800E+02  0.7818609E-02  0.1379984E+01
      -11   -1    0    0    0    0  0.00000000000E+00  0.00000000000E+00  0.35740347158E-01  0.35744000000E-01  0.51099999109E-03 0. -1.
       11   -1    0    0    0    0 -0.00000000000E+00 -0.00000000000E+00 -0.35740347158E-01  0.35744000000E-01  0.51099999109E-03 0.  1.
       22    1    1    2    0    0 -0.32937102864E-02  0.17060095424E-02 -0.35543981050E-01  0.35737005818E-01  0.00000000000E+00 0.  1.
  9000001    1    1    2    0    0  0.32937102864E-02 -0.17060095424E-02  0.35543981050E-01  0.35750994182E-01  0.10000000475E-02 0. -1.
</event>
<event>
 4   0  0.2441219E-02  0.9118800E+02  0.7818609E-02  0.1379984E+01
      -11   -1    0    0    0    0  0.00000000000E+00  0.00000000000E+00  0.35740347158E-01  0.35744000000E-01  0.51099999109E-03 0.  1.
       11   -1    0    0    0    0 -0.00000000000E+00 -0.00000000000E+00 -0.35740347158E-01  0.35744000000E-01  0.51099999109E-03 0. -1.
       22    1    1    2    0    0 -0.41176828975E-02 -0.23592348734E-01 -0.26525070285E-01  0.35737005818E-01  0.00000000000E+00 0. -1.
  9000001    1    1    2    0    0  0.41176828975E-02  0.23592348734E-01  0.26525070285E-01  0.35750994182E-01  0.10000000475E-02 0.  1.
</event>
<event>
 4   0  0.2441219E-02  0.9118800E+02  0.7818609E-02  0.1379984E+01
      -11   -1    0    0    0    0  0.00000000000E+00  0.00000000000E+00  0.35740347158E-01  0.35744000000E-01  0.51099999109E-03 0. -1.
       11   -1    0    0    0    0 -0.00000000000E+00 -0.00000000000E+00 -0.35740347158E-01  0.35744000000E-01  0.51099999109E-03 0.  1.
       22    1    1    2    0    0  0.51033373404E-02  0.17470053200E-01  0.30755272297E-01  0.35737005818E-01  0.00000000000E+00 0. -1.
  9000001    1    1    2    0    0 -0.51033373404E-02 -0.17470053200E-01 -0.30755272297E-01  0.35750994182E-01  0.10000000475E-02 0.  1.
</event>
<event>
 4   0  0.2441219E-02  0.9118800E+02  0.7818609E-02  0.1379984E+01
      -11   -1    0    0    0    0  0.00000000000E+00  0.00000000000E+00  0.35740347158E-01  0.35744000000E-01  0.51099999109E-03 0.  1.
       11   -1    0    0    0    0 -0.00000000000E+00 -0.00000000000E+00 -0.35740347158E-01  0.35744000000E-01  0.51099999109E-03 0. -1.
       22    1    1    2    0    0 -0.52262245419E-02  0.22700069709E-02 -0.35279841698E-01  0.35737005818E-01  0.00000000000E+00 0. -1.
  9000001    1    1    2    0    0  0.52262245419E-02 -0.22700069709E-02  0.35279841698E-01  0.35750994182E-01  0.10000000475E-02 0.  1.
</event>
<event>
 4   0  0.2441219E-02  0.9118800E+02  0.7818609E-02  0.1379984E+01
      -11   -1    0    0    0    0  0.00000000000E+00  0.00000000000E+00  0.35740347158E-01  0.35744000000E-01  0.51099999109E-03 0.  1.
       11   -1    0    0    0    0 -0.00000000000E+00 -0.00000000000E+00 -0.35740347158E-01  0.35744000000E-01  0.51099999109E-03 0. -1.
       22    1    1    2    0    0 -0.42685525716E-02  0.19261228550E-01 -0.29797954939E-01  0.35737005818E-01  0.00000000000E+00 0. -1.
  9000001    1    1    2    0    0  0.42685525716E-02 -0.19261228550E-01  0.29797954939E-01  0.35750994182E-01  0.10000000475E-02 0.  1.
</event>
<event>
 4   0  0.2441219E-02  0.9118800E+02  0.7818609E-02  0.1379984E+01
      -11   -1    0    0    0    0  0.00000000000E+00  0.00000000000E+00  0.35740347158E-01  0.35744000000E-01  0.51099999109E-03 0. -1.
       11   -1    0    0    0    0 -0.00000000000E+00 -0.00000000000E+00 -0.35740347158E-01  0.35744000000E-01  0.51099999109E-03 0.  1.
       22    1    1    2    0    0  0.31525490330E-02  0.56612582206E-03 -0.35593180822E-01  0.35737005818E-01  0.00000000000E+00 0.  1.
  9000001    1    1    2    0    0 -0.31525490330E-02 -0.56612582206E-03  0.35593180822E-01  0.35750994182E-01  0.10000000475E-02 0. -1.
</event>
<event>
 4   0  0.2441219E-02  0.9118800E+02  0.7818609E-02  0.1379984E+01
      -11   -1    0    0    0    0  0.00000000000E+00  0.00000000000E+00  0.35740347158E-01  0.35744000000E-01  0.51099999109E-03 0. -1.
       11   -1    0    0    0    0 -0.00000000000E+00 -0.00000000000E+00 -0.35740347158E-01  0.35744000000E-01  0.51099999109E-03 0.  1.
       22    1    1    2    0    0  0.63681810959E-02  0.33479475786E-02 -0.35005301047E-01  0.35737005818E-01  0.00000000000E+00 0.  1.
  9000001    1    1    2    0    0 -0.63681810959E-02 -0.33479475786E-02  0.35005301047E-01  0.35750994182E-01  0.10000000475E-02 0. -1.
</event>
<event>
 4   0  0.2441219E-02  0.9118800E+02  0.7818609E-02  0.1379984E+01
      -11   -1    0    0    0    0  0.00000000000E+00  0.00000000000E+00  0.35740347158E-01  0.35744000000E-01  0.51099999109E-03 0.  1.
       11   -1    0    0    0    0 -0.00000000000E+00 -0.00000000000E+00 -0.35740347158E-01  0.35744000000E-01  0.51099999109E-03 0. -1.
       22    1    1    2    0    0  0.25641619147E-02  0.17329931500E-02 -0.35602744182E-01  0.35737005818E-01  0.00000000000E+00 0. -1.
  9000001    1    1    2    0    0 -0.25641619147E-02 -0.17329931500E-02  0.35602744182E-01  0.35750994182E-01  0.10000000475E-02 0.  1.
</event>
<event>
 4   0  0.2441219E-02  0.9118800E+02  0.7818609E-02  0.1379984E+01
      -11   -1    0    0    0    0  0.00000000000E+00  0.00000000000E+00  0.35740347158E-01  0.35744000000E-01  0.51099999109E-03 0. -1.
       11   -1    0    0    0    0 -0.00000000000E+00 -0.00000000000E+00 -0.35740347158E-01  0.35744000000E-01  0.51099999109E-03 0.  1.
       22    1    1    2    0    0 -0.57795458420E-03  0.43498812750E-02  0.35466577031E-01  0.35737005818E-01  0.00000000000E+00 0. -1.
  9000001    1    1    2    0    0  0.57795458420E-03 -0.43498812750E-02 -0.35466577031E-01  0.35750994182E-01  0.10000000475E-02 0.  1.
</event>
<event>
 4   0  0.2441219E-02  0.9118800E+02  0.7818609E-02  0.1379984E+01
      -11   -1    0    0    0    0  0.00000000000E+00  0.00000000000E+00  0.35740347158E-01  0.35744000000E-01  0.51099999109E-03 0. -1.
       11   -1    0    0    0    0 -0.00000000000E+00 -0.00000000000E+00 -0.35740347158E-01  0.35744000000E-01  0.51099999109E-03 0.  1.
       22    1    1    2    0    0 -0.31613033395E-02 -0.12870769002E-02 -0.35573630390E-01  0.35737005818E-01  0.00000000000E+00 0.  1.
  9000001    1    1    2    0    0  0.31613033395E-02  0.12870769002E-02  0.35573630390E-01  0.35750994182E-01  0.10000000475E-02 0. -1.
</event>
<event>
 4   0  0.2441219E-02  0.9118800E+02  0.7818609E-02  0.1379984E+01
      -11   -1    0    0    0    0  0.00000000000E+00  0.00000000000E+00  0.35740347158E-01  0.35744000000E-01  0.51099999109E-03 0.  1.
       11   -1    0    0    0    0 -0.00000000000E+00 -0.00000000000E+00 -0.35740347158E-01  0.35744000000E-01  0.51099999109E-03 0. -1.
       22    1    1    2    0    0 -0.59154723579E-02  0.44772722044E-02 -0.34958472582E-01  0.35737005818E-01  0.00000000000E+00 0. -1.
  9000001    1    1    2    0    0  0.59154723579E-02 -0.44772722044E-02  0.34958472582E-01  0.35750994182E-01  0.10000000475E-02 0.  1.
</event>
<event>
 4   0  0.2441219E-02  0.9118800E+02  0.7818609E-02  0.1379984E+01
      -11   -1    0    0    0    0  0.00000000000E+00  0.00000000000E+00  0.35740347158E-01  0.35744000000E-01  0.51099999109E-03 0.  1.
       11   -1    0    0    0    0 -0.00000000000E+00 -0.00000000000E+00 -0.35740347158E-01  0.35744000000E-01  0.51099999109E-03 0. -1.
       22    1    1    2    0    0  0.70216334268E-02  0.83491775403E-02 -0.34031183983E-01  0.35737005818E-01  0.00000000000E+00 0. -1.
  9000001    1    1    2    0    0 -0.70216334268E-02 -0.83491775403E-02  0.34031183983E-01  0.35750994182E-01  0.10000000475E-02 0.  1.
</event>
<event>
 4   0  0.2441219E-02  0.9118800E+02  0.7818609E-02  0.1379984E+01
      -11   -1    0    0    0    0  0.00000000000E+00  0.00000000000E+00  0.35740347158E-01  0.35744000000E-01  0.51099999109E-03 0. -1.
       11   -1    0    0    0    0 -0.00000000000E+00 -0.00000000000E+00 -0.35740347158E-01  0.35744000000E-01  0.51099999109E-03 0.  1.
       22    1    1    2    0    0  0.55503630800E-02  0.11020076198E-01 -0.33539304929E-01  0.35737005818E-01  0.00000000000E+00 0.  1.
  9000001    1    1    2    0    0 -0.55503630800E-02 -0.11020076198E-01  0.33539304929E-01  0.35750994182E-01  0.10000000475E-02 0. -1.
</event>
<event>
 4   0  0.2441219E-02  0.9118800E+02  0.7818609E-02  0.1379984E+01
      -11   -1    0    0    0    0  0.00000000000E+00  0.00000000000E+00  0.35740347158E-01  0.35744000000E-01  0.51099999109E-03 0. -1.
       11   -1    0    0    0    0 -0.00000000000E+00 -0.00000000000E+00 -0.35740347158E-01  0.35744000000E-01  0.51099999109E-03 0.  1.
       22    1    1    2    0    0  0.98033873513E-02 -0.95727509768E-02 -0.33005902806E-01  0.35737005818E-01  0.00000000000E+00 0.  1.
  9000001    1    1    2    0    0 -0.98033873513E-02  0.95727509768E-02  0.33005902806E-01  0.35750994182E-01  0.10000000475E-02 0. -1.
</event>
<event>
 4   0  0.2441219E-02  0.9118800E+02  0.7818609E-02  0.1379984E+01
      -11   -1    0    0    0    0  0.00000000000E+00  0.00000000000E+00  0.35740347158E-01  0.35744000000E-01  0.51099999109E-03 0. -1.
       11   -1    0    0    0    0 -0.00000000000E+00 -0.00000000000E+00 -0.35740347158E-01  0.35744000000E-01  0.51099999109E-03 0.  1.
       22    1    1    2    0    0 -0.35088300679E-01  0.45535015396E-02  0.50209923350E-02  0.35737005818E-01  0.00000000000E+00 0. -1.
  9000001    1    1    2    0    0  0.35088300679E-01 -0.45535015396E-02 -0.50209923350E-02  0.35750994182E-01  0.10000000475E-02 0.  1.
</event>
<event>
 4   0  0.2441219E-02  0.9118800E+02  0.7818609E-02  0.1379984E+01
      -11   -1    0    0    0    0  0.00000000000E+00  0.00000000000E+00  0.35740347158E-01  0.35744000000E-01  0.51099999109E-03 0. -1.
       11   -1    0    0    0    0 -0.00000000000E+00 -0.00000000000E+00 -0.35740347158E-01  0.35744000000E-01  0.51099999109E-03 0.  1.
       22    1    1    2    0    0  0.33757138310E-02 -0.17402323951E-02 -0.35534627228E-01  0.35737005818E-01  0.00000000000E+00 0.  1.
  9000001    1    1    2    0    0 -0.33757138310E-02  0.17402323951E-02  0.35534627228E-01  0.35750994182E-01  0.10000000475E-02 0. -1.
</event>
<event>
 4   0  0.2441219E-02  0.9118800E+02  0.7818609E-02  0.1379984E+01
      -11   -1    0    0    0    0  0.00000000000E+00  0.00000000000E+00  0.35740347158E-01  0.35744000000E-01  0.51099999109E-03 0.  1.
       11   -1    0    0    0    0 -0.00000000000E+00 -0.00000000000E+00 -0.35740347158E-01  0.35744000000E-01  0.51099999109E-03 0. -1.
       22    1    1    2    0    0 -0.16958599745E-02 -0.41341040799E-02 -0.35456548440E-01  0.35737005818E-01  0.00000000000E+00 0. -1.
  9000001    1    1    2    0    0  0.16958599745E-02  0.41341040799E-02  0.35456548440E-01  0.35750994182E-01  0.10000000475E-02 0.  1.
</event>
<event>
 4   0  0.2441219E-02  0.9118800E+02  0.7818609E-02  0.1379984E+01
      -11   -1    0    0    0    0  0.00000000000E+00  0.00000000000E+00  0.35740347158E-01  0.35744000000E-01  0.51099999109E-03 0.  1.
       11   -1    0    0    0    0 -0.00000000000E+00 -0.00000000000E+00 -0.35740347158E-01  0.35744000000E-01  0.51099999109E-03 0. -1.
       22    1    1    2    0    0 -0.18346972678E-01  0.84184731193E-02  0.29489853997E-01  0.35737005818E-01  0.00000000000E+00 0.  1.
  9000001    1    1    2    0    0  0.18346972678E-01 -0.84184731193E-02 -0.29489853997E-01  0.35750994182E-01  0.10000000475E-02 0. -1.
</event>
<event>
 4   0  0.2441219E-02  0.9118800E+02  0.7818609E-02  0.1379984E+01
      -11   -1    0    0    0    0  0.00000000000E+00  0.00000000000E+00  0.35740347158E-01  0.35744000000E-01  0.51099999109E-03 0. -1.
       11   -1    0    0    0    0 -0.00000000000E+00 -0.00000000000E+00 -0.35740347158E-01  0.35744000000E-01  0.51099999109E-03 0.  1.
       22    1    1    2    0    0 -0.96746294849E-02  0.55046619724E-02 -0.33959296603E-01  0.35737005818E-01  0.00000000000E+00 0.  1.
  9000001    1    1    2    0    0  0.96746294849E-02 -0.55046619724E-02  0.33959296603E-01  0.35750994182E-01  0.10000000475E-02 0. -1.
</event>
<event>
 4   0  0.2441219E-02  0.9118800E+02  0.7818609E-02  0.1379984E+01
      -11   -1    0    0    0    0  0.00000000000E+00  0.00000000000E+00  0.35740347158E-01  0.35744000000E-01  0.51099999109E-03 0.  1.
       11   -1    0    0    0    0 -0.00000000000E+00 -0.00000000000E+00 -0.35740347158E-01  0.35744000000E-01  0.51099999109E-03 0. -1.
       22    1    1    2    0    0 -0.37707635405E-02 -0.18264849453E-02 -0.35490546346E-01  0.35737005818E-01  0.00000000000E+00 0. -1.
  9000001    1    1    2    0    0  0.37707635405E-02  0.18264849453E-02  0.35490546346E-01  0.35750994182E-01  0.10000000475E-02 0.  1.
</event>
<event>
 4   0  0.2441219E-02  0.9118800E+02  0.7818609E-02  0.1379984E+01
      -11   -1    0    0    0    0  0.00000000000E+00  0.00000000000E+00  0.35740347158E-01  0.35744000000E-01  0.51099999109E-03 0. -1.
       11   -1    0    0    0    0 -0.00000000000E+00 -0.00000000000E+00 -0.35740347158E-01  0.35744000000E-01  0.51099999109E-03 0.  1.
       22    1    1    2    0    0 -0.42433653499E-02  0.18757236385E-01 -0.30121313360E-01  0.35737005818E-01  0.00000000000E+00 0.  1.
  9000001    1    1    2    0    0  0.42433653499E-02 -0.18757236385E-01  0.30121313360E-01  0.35750994182E-01  0.10000000475E-02 0. -1.
</event>
<event>
 4   0  0.2441219E-02  0.9118800E+02  0.7818609E-02  0.1379984E+01
      -11   -1    0    0    0    0  0.00000000000E+00  0.00000000000E+00  0.35740347158E-01  0.35744000000E-01  0.51099999109E-03 0. -1.
       11   -1    0    0    0    0 -0.00000000000E+00 -0.00000000000E+00 -0.35740347158E-01  0.35744000000E-01  0.51099999109E-03 0.  1.
       22    1    1    2    0    0  0.14027093705E-01 -0.13207672174E-01  0.30098698025E-01  0.35737005818E-01  0.00000000000E+00 0. -1.
  9000001    1    1    2    0    0 -0.14027093705E-01  0.13207672174E-01 -0.30098698025E-01  0.35750994182E-01  0.10000000475E-02 0.  1.
</event>
<event>
 4   0  0.2441219E-02  0.9118800E+02  0.7818609E-02  0.1379984E+01
      -11   -1    0    0    0    0  0.00000000000E+00  0.00000000000E+00  0.35740347158E-01  0.35744000000E-01  0.51099999109E-03 0.  1.
       11   -1    0    0    0    0 -0.00000000000E+00 -0.00000000000E+00 -0.35740347158E-01  0.35744000000E-01  0.51099999109E-03 0. -1.
       22    1    1    2    0    0  0.22877978153E-01 -0.19246245584E-01  0.19578399613E-01  0.35737005818E-01  0.00000000000E+00 0. -1.
  9000001    1    1    2    0    0 -0.22877978153E-01  0.19246245584E-01 -0.19578399613E-01  0.35750994182E-01  0.10000000475E-02 0.  1.
</event>
<event>
 4   0  0.2441219E-02  0.9118800E+02  0.7818609E-02  0.1379984E+01
      -11   -1    0    0    0    0  0.00000000000E+00  0.00000000000E+00  0.35740347158E-01  0.35744000000E-01  0.51099999109E-03 0.  1.
       11   -1    0    0    0    0 -0.00000000000E+00 -0.00000000000E+00 -0.35740347158E-01  0.35744000000E-01  0.51099999109E-03 0. -1.
       22    1    1    2    0    0  0.28157606835E-01  0.67396735334E-02 -0.20948975222E-01  0.35737005818E-01  0.00000000000E+00 0. -1.
  9000001    1    1    2    0    0 -0.28157606835E-01 -0.67396735334E-02  0.20948975222E-01  0.35750994182E-01  0.10000000475E-02 0.  1.
</event>
<event>
 4   0  0.2441219E-02  0.9118800E+02  0.7818609E-02  0.1379984E+01
      -11   -1    0    0    0    0  0.00000000000E+00  0.00000000000E+00  0.35740347158E-01  0.35744000000E-01  0.51099999109E-03 0. -1.
       11   -1    0    0    0    0 -0.00000000000E+00 -0.00000000000E+00 -0.35740347158E-01  0.35744000000E-01  0.51099999109E-03 0.  1.
       22    1    1    2    0    0 -0.94607717251E-02 -0.66493104828E-02  0.33814406003E-01  0.35737005818E-01  0.00000000000E+00 0. -1.
  9000001    1    1    2    0    0  0.94607717251E-02  0.66493104828E-02 -0.33814406003E-01  0.35750994182E-01  0.10000000475E-02 0.  1.
</event>
<event>
 4   0  0.2441219E-02  0.9118800E+02  0.7818609E-02  0.1379984E+01
      -11   -1    0    0    0    0  0.00000000000E+00  0.00000000000E+00  0.35740347158E-01  0.35744000000E-01  0.51099999109E-03 0.  1.
       11   -1    0    0    0    0 -0.00000000000E+00 -0.00000000000E+00 -0.35740347158E-01  0.35744000000E-01  0.51099999109E-03 0. -1.
       22    1    1    2    0    0  0.35070077293E-02  0.67307239272E-02  0.34921796017E-01  0.35737005818E-01  0.00000000000E+00 0.  1.
  9000001    1    1    2    0    0 -0.35070077293E-02 -0.67307239272E-02 -0.34921796017E-01  0.35750994182E-01  0.10000000475E-02 0. -1.
</event>
<event>
 4   0  0.2441219E-02  0.9118800E+02  0.7818609E-02  0.1379984E+01
      -11   -1    0    0    0    0  0.00000000000E+00  0.00000000000E+00  0.35740347158E-01  0.35744000000E-01  0.51099999109E-03 0.  1.
       11   -1    0    0    0    0 -0.00000000000E+00 -0.00000000000E+00 -0.35740347158E-01  0.35744000000E-01  0.51099999109E-03 0. -1.
       22    1    1    2    0    0 -0.91433157505E-02  0.21130249760E-01 -0.27332140550E-01  0.35737005818E-01  0.00000000000E+00 0. -1.
  9000001    1    1    2    0    0  0.91433157505E-02 -0.21130249760E-01  0.27332140550E-01  0.35750994182E-01  0.10000000475E-02 0.  1.
</event>
<event>
 4   0  0.2441219E-02  0.9118800E+02  0.7818609E-02  0.1379984E+01
      -11   -1    0    0    0    0  0.00000000000E+00  0.00000000000E+00  0.35740347158E-01  0.35744000000E-01  0.51099999109E-03 0. -1.
       11   -1    0    0    0    0 -0.00000000000E+00 -0.00000000000E+00 -0.35740347158E-01  0.35744000000E-01  0.51099999109E-03 0.  1.
       22    1    1    2    0    0  0.13908588133E-01  0.26265309733E-02 -0.32814419027E-01  0.35737005818E-01  0.00000000000E+00 0.  1.
  9000001    1    1    2    0    0 -0.13908588133E-01 -0.26265309733E-02  0.32814419027E-01  0.35750994182E-01  0.10000000475E-02 0. -1.
</event>
<event>
 4   0  0.2441219E-02  0.9118800E+02  0.7818609E-02  0.1379984E+01
      -11   -1    0    0    0    0  0.00000000000E+00  0.00000000000E+00  0.35740347158E-01  0.35744000000E-01  0.51099999109E-03 0.  1.
       11   -1    0    0    0    0 -0.00000000000E+00 -0.00000000000E+00 -0.35740347158E-01  0.35744000000E-01  0.51099999109E-03 0. -1.
       22    1    1    2    0    0 -0.28631993965E-02  0.18391865940E-01  0.30506965456E-01  0.35737005818E-01  0.00000000000E+00 0.  1.
  9000001    1    1    2    0    0  0.28631993965E-02 -0.18391865940E-01 -0.30506965456E-01  0.35750994182E-01  0.10000000475E-02 0. -1.
</event>
<event>
 4   0  0.2441219E-02  0.9118800E+02  0.7818609E-02  0.1379984E+01
      -11   -1    0    0    0    0  0.00000000000E+00  0.00000000000E+00  0.35740347158E-01  0.35744000000E-01  0.51099999109E-03 0. -1.
       11   -1    0    0    0    0 -0.00000000000E+00 -0.00000000000E+00 -0.35740347158E-01  0.35744000000E-01  0.51099999109E-03 0.  1.
       22    1    1    2    0    0  0.43093483901E-02  0.10328330484E-02  0.35461195090E-01  0.35737005818E-01  0.00000000000E+00 0. -1.
  9000001    1    1    2    0    0 -0.43093483901E-02 -0.10328330484E-02 -0.35461195090E-01  0.35750994182E-01  0.10000000475E-02 0.  1.
</event>
<event>
 4   0  0.2441219E-02  0.9118800E+02  0.7818609E-02  0.1379984E+01
      -11   -1    0    0    0    0  0.00000000000E+00  0.00000000000E+00  0.35740347158E-01  0.35744000000E-01  0.51099999109E-03 0. -1.
       11   -1    0    0    0    0 -0.00000000000E+00 -0.00000000000E+00 -0.35740347158E-01  0.35744000000E-01  0.51099999109E-03 0.  1.
       22    1    1    2    0    0  0.58005597364E-02 -0.15261760294E-01  0.31789397043E-01  0.35737005818E-01  0.00000000000E+00 0. -1.
  9000001    1    1    2    0    0 -0.58005597364E-02  0.15261760294E-01 -0.31789397043E-01  0.35750994182E-01  0.10000000475E-02 0.  1.
</event>
<event>
 4   0  0.2441219E-02  0.9118800E+02  0.7818609E-02  0.1379984E+01
      -11   -1    0    0    0    0  0.00000000000E+00  0.00000000000E+00  0.35740347158E-01  0.35744000000E-01  0.51099999109E-03 0.  1.
       11   -1    0    0    0    0 -0.00000000000E+00 -0.00000000000E+00 -0.35740347158E-01  0.35744000000E-01  0.51099999109E-03 0. -1.
       22    1    1    2    0    0  0.52729574241E-02  0.61269299914E-02  0.34810777552E-01  0.35737005818E-01  0.00000000000E+00 0.  1.
  9000001    1    1    2    0    0 -0.52729574241E-02 -0.61269299914E-02 -0.34810777552E-01  0.35750994182E-01  0.10000000475E-02 0. -1.
</event>
<event>
 4   0  0.2441219E-02  0.9118800E+02  0.7818609E-02  0.1379984E+01
      -11   -1    0    0    0    0  0.00000000000E+00  0.00000000000E+00  0.35740347158E-01  0.35744000000E-01  0.51099999109E-03 0. -1.
       11   -1    0    0    0    0 -0.00000000000E+00 -0.00000000000E+00 -0.35740347158E-01  0.35744000000E-01  0.51099999109E-03 0.  1.
       22    1    1    2    0    0  0.89292961810E-02  0.87150230956E-02  0.33488052004E-01  0.35737005818E-01  0.00000000000E+00 0. -1.
  9000001    1    1    2    0    0 -0.89292961810E-02 -0.87150230956E-02 -0.33488052004E-01  0.35750994182E-01  0.10000000475E-02 0.  1.
</event>
<event>
 4   0  0.2441219E-02  0.9118800E+02  0.7818609E-02  0.1379984E+01
      -11   -1    0    0    0    0  0.00000000000E+00  0.00000000000E+00  0.35740347158E-01  0.35744000000E-01  0.51099999109E-03 0. -1.
       11   -1    0    0    0    0 -0.00000000000E+00 -0.00000000000E+00 -0.35740347158E-01  0.35744000000E-01  0.51099999109E-03 0.  1.
       22    1    1    2    0    0  0.34916370861E-01  0.26376241669E-02 -0.71430784332E-02  0.35737005818E-01  0.00000000000E+00 0. -1.
  9000001    1    1    2    0    0 -0.34916370861E-01 -0.26376241669E-02  0.71430784332E-02  0.35750994182E-01  0.10000000475E-02 0.  1.
</event>
<event>
 4   0  0.2441219E-02  0.9118800E+02  0.7818609E-02  0.1379984E+01
      -11   -1    0    0    0    0  0.00000000000E+00  0.00000000000E+00  0.35740347158E-01  0.35744000000E-01  0.51099999109E-03 0.  1.
       11   -1    0    0    0    0 -0.00000000000E+00 -0.00000000000E+00 -0.35740347158E-01  0.35744000000E-01  0.51099999109E-03 0. -1.
       22    1    1    2    0    0  0.22762341097E-02 -0.61104430471E-02 -0.35137086233E-01  0.35737005818E-01  0.00000000000E+00 0. -1.
  9000001    1    1    2    0    0 -0.22762341097E-02  0.61104430471E-02  0.35137086233E-01  0.35750994182E-01  0.10000000475E-02 0.  1.
</event>
<event>
 4   0  0.2441219E-02  0.9118800E+02  0.7818609E-02  0.1379984E+01
      -11   -1    0    0    0    0  0.00000000000E+00  0.00000000000E+00  0.35740347158E-01  0.35744000000E-01  0.51099999109E-03 0.  1.
       11   -1    0    0    0    0 -0.00000000000E+00 -0.00000000000E+00 -0.35740347158E-01  0.35744000000E-01  0.51099999109E-03 0. -1.
       22    1    1    2    0    0  0.55514830209E-03 -0.65097985112E-02 -0.35134711022E-01  0.35737005818E-01  0.00000000000E+00 0. -1.
  9000001    1    1    2    0    0 -0.55514830209E-03  0.65097985112E-02  0.35134711022E-01  0.35750994182E-01  0.10000000475E-02 0.  1.
</event>
<event>
 4   0  0.2441219E-02  0.9118800E+02  0.7818609E-02  0.1379984E+01
      -11   -1    0    0    0    0  0.00000000000E+00  0.00000000000E+00  0.35740347158E-01  0.35744000000E-01  0.51099999109E-03 0. -1.
       11   -1    0    0    0    0 -0.00000000000E+00 -0.00000000000E+00 -0.35740347158E-01  0.35744000000E-01  0.51099999109E-03 0.  1.
       22    1    1    2    0    0 -0.35062177625E-01 -0.26677326696E-02 -0.63765576513E-02  0.35737005818E-01  0.00000000000E+00 0.  1.
  9000001    1    1    2    0    0  0.35062177625E-01  0.26677326696E-02  0.63765576513E-02  0.35750994182E-01  0.10000000475E-02 0. -1.
</event>
<event>
 4   0  0.2441219E-02  0.9118800E+02  0.7818609E-02  0.1379984E+01
      -11   -1    0    0    0    0  0.00000000000E+00  0.00000000000E+00  0.35740347158E-01  0.35744000000E-01  0.51099999109E-03 0.  1.
       11   -1    0    0    0    0 -0.00000000000E+00 -0.00000000000E+00 -0.35740347158E-01  0.35744000000E-01  0.51099999109E-03 0. -1.
       22    1    1    2    0    0 -0.26186153113E-02  0.19006638665E-02 -0.35590222191E-01  0.35737005818E-01  0.00000000000E+00 0. -1.
  9000001    1    1    2    0    0  0.26186153113E-02 -0.19006638665E-02  0.35590222191E-01  0.35750994182E-01  0.10000000475E-02 0.  1.
</event>
<event>
 4   0  0.2441219E-02  0.9118800E+02  0.7818609E-02  0.1379984E+01
      -11   -1    0    0    0    0  0.00000000000E+00  0.00000000000E+00  0.35740347158E-01  0.35744000000E-01  0.51099999109E-03 0.  1.
       11   -1    0    0    0    0 -0.00000000000E+00 -0.00000000000E+00 -0.35740347158E-01  0.35744000000E-01  0.51099999109E-03 0. -1.
       22    1    1    2    0    0 -0.32929671547E-02  0.32160542705E-02  0.35439341799E-01  0.35737005818E-01  0.00000000000E+00 0.  1.
  9000001    1    1    2    0    0  0.32929671547E-02 -0.32160542705E-02 -0.35439341799E-01  0.35750994182E-01  0.10000000475E-02 0. -1.
</event>
<event>
 4   0  0.2441219E-02  0.9118800E+02  0.7818609E-02  0.1379984E+01
      -11   -1    0    0    0    0  0.00000000000E+00  0.00000000000E+00  0.35740347158E-01  0.35744000000E-01  0.51099999109E-03 0. -1.
       11   -1    0    0    0    0 -0.00000000000E+00 -0.00000000000E+00 -0.35740347158E-01  0.35744000000E-01  0.51099999109E-03 0.  1.
       22    1    1    2    0    0  0.18109160935E-02  0.48262638606E-02 -0.35363276784E-01  0.35737005818E-01  0.00000000000E+00 0.  1.
  9000001    1    1    2    0    0 -0.18109160935E-02 -0.48262638606E-02  0.35363276784E-01  0.35750994182E-01  0.10000000475E-02 0. -1.
</event>
<event>
 4   0  0.2441219E-02  0.9118800E+02  0.7818609E-02  0.1379984E+01
      -11   -1    0    0    0    0  0.00000000000E+00  0.00000000000E+00  0.35740347158E-01  0.35744000000E-01  0.51099999109E-03 0.  1.
       11   -1    0    0    0    0 -0.00000000000E+00 -0.00000000000E+00 -0.35740347158E-01  0.35744000000E-01  0.51099999109E-03 0. -1.
       22    1    1    2    0    0  0.21505955559E-01 -0.11169070041E-01 -0.26265554150E-01  0.35737005818E-01  0.00000000000E+00 0. -1.
  9000001    1    1    2    0    0 -0.21505955559E-01  0.11169070041E-01  0.26265554150E-01  0.35750994182E-01  0.10000000475E-02 0.  1.
</event>
<event>
 4   0  0.2441219E-02  0.9118800E+02  0.7818609E-02  0.1379984E+01
      -11   -1    0    0    0    0  0.00000000000E+00  0.00000000000E+00  0.35740347158E-01  0.35744000000E-01  0.51099999109E-03 0.  1.
       11   -1    0    0    0    0 -0.00000000000E+00 -0.00000000000E+00 -0.35740347158E-01  0.35744000000E-01  0.51099999109E-03 0. -1.
       22    1    1    2    0    0  0.93915027927E-02  0.23937895721E-02 -0.34397718408E-01  0.35737005818E-01  0.00000000000E+00 0. -1.
  9000001    1    1    2    0    0 -0.93915027927E-02 -0.23937895721E-02  0.34397718408E-01  0.35750994182E-01  0.10000000475E-02 0.  1.
</event>
<event>
 4   0  0.2441219E-02  0.9118800E+02  0.7818609E-02  0.1379984E+01
      -11   -1    0    0    0    0  0.00000000000E+00  0.00000000000E+00  0.35740347158E-01  0.35744000000E-01  0.51099999109E-03 0. -1.
       11   -1    0    0    0    0 -0.00000000000E+00 -0.00000000000E+00 -0.35740347158E-01  0.35744000000E-01  0.51099999109E-03 0.  1.
       22    1    1    2    0    0 -0.25776411184E-01 -0.14239401385E-01 -0.20247213624E-01  0.35737005818E-01  0.00000000000E+00 0.  1.
  9000001    1    1    2    0    0  0.25776411184E-01  0.14239401385E-01  0.20247213624E-01  0.35750994182E-01  0.10000000475E-02 0. -1.
</event>
<event>
 4   0  0.2441219E-02  0.9118800E+02  0.7818609E-02  0.1379984E+01
      -11   -1    0    0    0    0  0.00000000000E+00  0.00000000000E+00  0.35740347158E-01  0.35744000000E-01  0.51099999109E-03 0. -1.
       11   -1    0    0    0    0 -0.00000000000E+00 -0.00000000000E+00 -0.35740347158E-01  0.35744000000E-01  0.51099999109E-03 0.  1.
       22    1    1    2    0    0  0.35758065246E-02  0.26247794707E-02  0.35460650379E-01  0.35737005818E-01  0.00000000000E+00 0. -1.
  9000001    1    1    2    0    0 -0.35758065246E-02 -0.26247794707E-02 -0.35460650379E-01  0.35750994182E-01  0.10000000475E-02 0.  1.
</event>
<event>
 4   0  0.2441219E-02  0.9118800E+02  0.7818609E-02  0.1379984E+01
      -11   -1    0    0    0    0  0.00000000000E+00  0.00000000000E+00  0.35740347158E-01  0.35744000000E-01  0.51099999109E-03 0. -1.
       11   -1    0    0    0    0 -0.00000000000E+00 -0.00000000000E+00 -0.35740347158E-01  0.35744000000E-01  0.51099999109E-03 0.  1.
       22    1    1    2    0    0  0.76130654421E-02  0.19306609727E-02 -0.34863266738E-01  0.35737005818E-01  0.00000000000E+00 0.  1.
  9000001    1    1    2    0    0 -0.76130654421E-02 -0.19306609727E-02  0.34863266738E-01  0.35750994182E-01  0.10000000475E-02 0. -1.
</event>
<event>
 4   0  0.2441219E-02  0.9118800E+02  0.7818609E-02  0.1379984E+01
      -11   -1    0    0    0    0  0.00000000000E+00  0.00000000000E+00  0.35740347158E-01  0.35744000000E-01  0.51099999109E-03 0.  1.
       11   -1    0    0    0    0 -0.00000000000E+00 -0.00000000000E+00 -0.35740347158E-01  0.35744000000E-01  0.51099999109E-03 0. -1.
       22    1    1    2    0    0  0.74736388158E-02 -0.26237553084E-02 -0.34848159432E-01  0.35737005818E-01  0.00000000000E+00 0. -1.
  9000001    1    1    2    0    0 -0.74736388158E-02  0.26237553084E-02  0.34848159432E-01  0.35750994182E-01  0.10000000475E-02 0.  1.
</event>
<event>
 4   0  0.2441219E-02  0.9118800E+02  0.7818609E-02  0.1379984E+01
      -11   -1    0    0    0    0  0.00000000000E+00  0.00000000000E+00  0.35740347158E-01  0.35744000000E-01  0.51099999109E-03 0.  1.
       11   -1    0    0    0    0 -0.00000000000E+00 -0.00000000000E+00 -0.35740347158E-01  0.35744000000E-01  0.51099999109E-03 0. -1.
       22    1    1    2    0    0 -0.20246425595E-01  0.12370186272E-01 -0.26724414439E-01  0.35737005818E-01  0.00000000000E+00 0. -1.
  9000001    1    1    2    0    0  0.20246425595E-01 -0.12370186272E-01  0.26724414439E-01  0.35750994182E-01  0.10000000475E-02 0.  1.
</event>
<event>
 4   0  0.2441219E-02  0.9118800E+02  0.7818609E-02  0.1379984E+01
      -11   -1    0    0    0    0  0.00000000000E+00  0.00000000000E+00  0.35740347158E-01  0.35744000000E-01  0.51099999109E-03 0. -1.
       11   -1    0    0    0    0 -0.00000000000E+00 -0.00000000000E+00 -0.35740347158E-01  0.35744000000E-01  0.51099999109E-03 0.  1.
       22    1    1    2    0    0 -0.14354238980E-02  0.27270650150E-02  0.35603879838E-01  0.35737005818E-01  0.00000000000E+00 0. -1.
  9000001    1    1    2    0    0  0.14354238980E-02 -0.27270650150E-02 -0.35603879838E-01  0.35750994182E-01  0.10000000475E-02 0.  1.
</event>
<event>
 4   0  0.2441219E-02  0.9118800E+02  0.7818609E-02  0.1379984E+01
      -11   -1    0    0    0    0  0.00000000000E+00  0.00000000000E+00  0.35740347158E-01  0.35744000000E-01  0.51099999109E-03 0. -1.
       11   -1    0    0    0    0 -0.00000000000E+00 -0.00000000000E+00 -0.35740347158E-01  0.35744000000E-01  0.51099999109E-03 0.  1.
       22    1    1    2    0    0  0.20413436156E-02  0.36308276460E-02 -0.35493430261E-01  0.35737005818E-01  0.00000000000E+00 0.  1.
  9000001    1    1    2    0    0 -0.20413436156E-02 -0.36308276460E-02  0.35493430261E-01  0.35750994182E-01  0.10000000475E-02 0. -1.
</event>
<event>
 4   0  0.2441219E-02  0.9118800E+02  0.7818609E-02  0.1379984E+01
      -11   -1    0    0    0    0  0.00000000000E+00  0.00000000000E+00  0.35740347158E-01  0.35744000000E-01  0.51099999109E-03 0. -1.
       11   -1    0    0    0    0 -0.00000000000E+00 -0.00000000000E+00 -0.35740347158E-01  0.35744000000E-01  0.51099999109E-03 0.  1.
       22    1    1    2    0    0  0.23230657891E-02  0.15912023761E-01 -0.31914643192E-01  0.35737005818E-01  0.00000000000E+00 0.  1.
  9000001    1    1    2    0    0 -0.23230657891E-02 -0.15912023761E-01  0.31914643192E-01  0.35750994182E-01  0.10000000475E-02 0. -1.
</event>
<event>
 4   0  0.2441219E-02  0.9118800E+02  0.7818609E-02  0.1379984E+01
      -11   -1    0    0    0    0  0.00000000000E+00  0.00000000000E+00  0.35740347158E-01  0.35744000000E-01  0.51099999109E-03 0.  1.
       11   -1    0    0    0    0 -0.00000000000E+00 -0.00000000000E+00 -0.35740347158E-01  0.35744000000E-01  0.51099999109E-03 0. -1.
       22    1    1    2    0    0  0.16556818133E-02 -0.32008805578E-02 -0.35554840265E-01  0.35737005818E-01  0.00000000000E+00 0. -1.
  9000001    1    1    2    0    0 -0.16556818133E-02  0.32008805578E-02  0.35554840265E-01  0.35750994182E-01  0.10000000475E-02 0.  1.
</event>
<event>
 4   0  0.2441219E-02  0.9118800E+02  0.7818609E-02  0.1379984E+01
      -11   -1    0    0    0    0  0.00000000000E+00  0.00000000000E+00  0.35740347158E-01  0.35744000000E-01  0.51099999109E-03 0.  1.
       11   -1    0    0    0    0 -0.00000000000E+00 -0.00000000000E+00 -0.35740347158E-01  0.35744000000E-01  0.51099999109E-03 0. -1.
       22    1    1    2    0    0 -0.22231230742E-02 -0.34313636059E-02  0.35502352774E-01  0.35737005818E-01  0.00000000000E+00 0.  1.
  9000001    1    1    2    0    0  0.22231230742E-02  0.34313636059E-02 -0.35502352774E-01  0.35750994182E-01  0.10000000475E-02 0. -1.
</event>
<event>
 4   0  0.2441219E-02  0.9118800E+02  0.7818609E-02  0.1379984E+01
      -11   -1    0    0    0    0  0.00000000000E+00  0.00000000000E+00  0.35740347158E-01  0.35744000000E-01  0.51099999109E-03 0.  1.
       11   -1    0    0    0    0 -0.00000000000E+00 -0.00000000000E+00 -0.35740347158E-01  0.35744000000E-01  0.51099999109E-03 0. -1.
       22    1    1    2    0    0 -0.30322719069E-02 -0.16976177060E-02 -0.35567639872E-01  0.35737005818E-01  0.00000000000E+00 0. -1.
  9000001    1    1    2    0    0  0.30322719069E-02  0.16976177060E-02  0.35567639872E-01  0.35750994182E-01  0.10000000475E-02 0.  1.
</event>
<event>
 4   0  0.2441219E-02  0.9118800E+02  0.7818609E-02  0.1379984E+01
      -11   -1    0    0    0    0  0.00000000000E+00  0.00000000000E+00  0.35740347158E-01  0.35744000000E-01  0.51099999109E-03 0. -1.
       11   -1    0    0    0    0 -0.00000000000E+00 -0.00000000000E+00 -0.35740347158E-01  0.35744000000E-01  0.51099999109E-03 0.  1.
       22    1    1    2    0    0  0.14689433263E-01 -0.59853409815E-02 -0.32023894651E-01  0.35737005818E-01  0.00000000000E+00 0.  1.
  9000001    1    1    2    0    0 -0.14689433263E-01  0.59853409815E-02  0.32023894651E-01  0.35750994182E-01  0.10000000475E-02 0. -1.
</event>
<event>
 4   0  0.2441219E-02  0.9118800E+02  0.7818609E-02  0.1379984E+01
      -11   -1    0    0    0    0  0.00000000000E+00  0.00000000000E+00  0.35740347158E-01  0.35744000000E-01  0.51099999109E-03 0. -1.
       11   -1    0    0    0    0 -0.00000000000E+00 -0.00000000000E+00 -0.35740347158E-01  0.35744000000E-01  0.51099999109E-03 0.  1.
       22    1    1    2    0    0 -0.29836719931E-01  0.64489023114E-02 -0.18582663631E-01  0.35737005818E-01  0.00000000000E+00 0. -1.
  9000001    1    1    2    0    0  0.29836719931E-01 -0.64489023114E-02  0.18582663631E-01  0.35750994182E-01  0.10000000475E-02 0.  1.
</event>
<event>
 4   0  0.2441219E-02  0.9118800E+02  0.7818609E-02  0.1379984E+01
      -11   -1    0    0    0    0  0.00000000000E+00  0.00000000000E+00  0.35740347158E-01  0.35744000000E-01  0.51099999109E-03 0. -1.
       11   -1    0    0    0    0 -0.00000000000E+00 -0.00000000000E+00 -0.35740347158E-01  0.35744000000E-01  0.51099999109E-03 0.  1.
       22    1    1    2    0    0 -0.60960088404E-02 -0.20140617505E-01  0.28884732777E-01  0.35737005818E-01  0.00000000000E+00 0. -1.
  9000001    1    1    2    0    0  0.60960088404E-02  0.20140617505E-01 -0.28884732777E-01  0.35750994182E-01  0.10000000475E-02 0.  1.
</event>
<event>
 4   0  0.2441219E-02  0.9118800E+02  0.7818609E-02  0.1379984E+01
      -11   -1    0    0    0    0  0.00000000000E+00  0.00000000000E+00  0.35740347158E-01  0.35744000000E-01  0.51099999109E-03 0. -1.
       11   -1    0    0    0    0 -0.00000000000E+00 -0.00000000000E+00 -0.35740347158E-01  0.35744000000E-01  0.51099999109E-03 0.  1.
       22    1    1    2    0    0 -0.23929086695E-01 -0.31610000665E-02 -0.26354135793E-01  0.35737005818E-01  0.00000000000E+00 0.  1.
  9000001    1    1    2    0    0  0.23929086695E-01  0.31610000665E-02  0.26354135793E-01  0.35750994182E-01  0.10000000475E-02 0. -1.
</event>
<event>
 4   0  0.2441219E-02  0.9118800E+02  0.7818609E-02  0.1379984E+01
      -11   -1    0    0    0    0  0.00000000000E+00  0.00000000000E+00  0.35740347158E-01  0.35744000000E-01  0.51099999109E-03 0.  1.
       11   -1    0    0    0    0 -0.00000000000E+00 -0.00000000000E+00 -0.35740347158E-01  0.35744000000E-01  0.51099999109E-03 0. -1.
       22    1    1    2    0    0  0.14588553612E-01 -0.20272557053E-02 -0.32560680624E-01  0.35737005818E-01  0.00000000000E+00 0. -1.
  9000001    1    1    2    0    0 -0.14588553612E-01  0.20272557053E-02  0.32560680624E-01  0.35750994182E-01  0.10000000475E-02 0.  1.
</event>
<event>
 4   0  0.2441219E-02  0.9118800E+02  0.7818609E-02  0.1379984E+01
      -11   -1    0    0    0    0  0.00000000000E+00  0.00000000000E+00  0.35740347158E-01  0.35744000000E-01  0.51099999109E-03 0. -1.
       11   -1    0    0    0    0 -0.00000000000E+00 -0.00000000000E+00 -0.35740347158E-01  0.35744000000E-01  0.51099999109E-03 0.  1.
       22    1    1    2    0    0  0.75134315284E-03  0.62264777249E-02  0.35182382573E-01  0.35737005818E-01  0.00000000000E+00 0. -1.
  9000001    1    1    2    0    0 -0.75134315284E-03 -0.62264777249E-02 -0.35182382573E-01  0.35750994182E-01  0.10000000475E-02 0.  1.
</event>
<event>
 4   0  0.2441219E-02  0.9118800E+02  0.7818609E-02  0.1379984E+01
      -11   -1    0    0    0    0  0.00000000000E+00  0.00000000000E+00  0.35740347158E-01  0.35744000000E-01  0.51099999109E-03 0. -1.
       11   -1    0    0    0    0 -0.00000000000E+00 -0.00000000000E+00 -0.35740347158E-01  0.35744000000E-01  0.51099999109E-03 0.  1.
       22    1    1    2    0    0  0.46058213553E-03 -0.35902074784E-02 -0.35553225722E-01  0.35737005818E-01  0.00000000000E+00 0.  1.
  9000001    1    1    2    0    0 -0.46058213553E-03  0.35902074784E-02  0.35553225722E-01  0.35750994182E-01  0.10000000475E-02 0. -1.
</event>
<event>
 4   0  0.2441219E-02  0.9118800E+02  0.7818609E-02  0.1379984E+01
      -11   -1    0    0    0    0  0.00000000000E+00  0.00000000000E+00  0.35740347158E-01  0.35744000000E-01  0.51099999109E-03 0.  1.
       11   -1    0    0    0    0 -0.00000000000E+00 -0.00000000000E+00 -0.35740347158E-01  0.35744000000E-01  0.51099999109E-03 0. -1.
       22    1    1    2    0    0 -0.11334611120E-02  0.43072811465E-02 -0.35458372494E-01  0.35737005818E-01  0.00000000000E+00 0. -1.
  9000001    1    1    2    0    0  0.11334611120E-02 -0.43072811465E-02  0.35458372494E-01  0.35750994182E-01  0.10000000475E-02 0.  1.
</event>
<event>
 4   0  0.2441219E-02  0.9118800E+02  0.7818609E-02  0.1379984E+01
      -11   -1    0    0    0    0  0.00000000000E+00  0.00000000000E+00  0.35740347158E-01  0.35744000000E-01  0.51099999109E-03 0. -1.
       11   -1    0    0    0    0 -0.00000000000E+00 -0.00000000000E+00 -0.35740347158E-01  0.35744000000E-01  0.51099999109E-03 0.  1.
       22    1    1    2    0    0 -0.33494238144E-02 -0.32791592709E-01  0.13806751704E-01  0.35737005818E-01  0.00000000000E+00 0. -1.
  9000001    1    1    2    0    0  0.33494238144E-02  0.32791592709E-01 -0.13806751704E-01  0.35750994182E-01  0.10000000475E-02 0.  1.
</event>
<event>
 4   0  0.2441219E-02  0.9118800E+02  0.7818609E-02  0.1379984E+01
      -11   -1    0    0    0    0  0.00000000000E+00  0.00000000000E+00  0.35740347158E-01  0.35744000000E-01  0.51099999109E-03 0.  1.
       11   -1    0    0    0    0 -0.00000000000E+00 -0.00000000000E+00 -0.35740347158E-01  0.35744000000E-01  0.51099999109E-03 0. -1.
       22    1    1    2    0    0  0.13116683404E-01 -0.26683476772E-01  0.19826201571E-01  0.35737005818E-01  0.00000000000E+00 0.  1.
  9000001    1    1    2    0    0 -0.13116683404E-01  0.26683476772E-01 -0.19826201571E-01  0.35750994182E-01  0.10000000475E-02 0. -1.
</event>
<event>
 4   0  0.2441219E-02  0.9118800E+02  0.7818609E-02  0.1379984E+01
      -11   -1    0    0    0    0  0.00000000000E+00  0.00000000000E+00  0.35740347158E-01  0.35744000000E-01  0.51099999109E-03 0. -1.
       11   -1    0    0    0    0 -0.00000000000E+00 -0.00000000000E+00 -0.35740347158E-01  0.35744000000E-01  0.51099999109E-03 0.  1.
       22    1    1    2    0    0 -0.10778871861E-01  0.10097598107E-01  0.32542096102E-01  0.35737005818E-01  0.00000000000E+00 0. -1.
  9000001    1    1    2    0    0  0.10778871861E-01 -0.10097598107E-01 -0.32542096102E-01  0.35750994182E-01  0.10000000475E-02 0.  1.
</event>
<event>
 4   0  0.2441219E-02  0.9118800E+02  0.7818609E-02  0.1379984E+01
      -11   -1    0    0    0    0  0.00000000000E+00  0.00000000000E+00  0.35740347158E-01  0.35744000000E-01  0.51099999109E-03 0. -1.
       11   -1    0    0    0    0 -0.00000000000E+00 -0.00000000000E+00 -0.35740347158E-01  0.35744000000E-01  0.51099999109E-03 0.  1.
       22    1    1    2    0    0 -0.14444599981E-01 -0.30717288439E-03 -0.32686277871E-01  0.35737005818E-01  0.00000000000E+00 0.  1.
  9000001    1    1    2    0    0  0.14444599981E-01  0.30717288439E-03  0.32686277871E-01  0.35750994182E-01  0.10000000475E-02 0. -1.
</event>
<event>
 4   0  0.2441219E-02  0.9118800E+02  0.7818609E-02  0.1379984E+01
      -11   -1    0    0    0    0  0.00000000000E+00  0.00000000000E+00  0.35740347158E-01  0.35744000000E-01  0.51099999109E-03 0. -1.
       11   -1    0    0    0    0 -0.00000000000E+00 -0.00000000000E+00 -0.35740347158E-01  0.35744000000E-01  0.51099999109E-03 0.  1.
       22    1    1    2    0    0  0.21796359286E-01  0.96291275998E-02 -0.26633291356E-01  0.35737005818E-01  0.00000000000E+00 0.  1.
  9000001    1    1    2    0    0 -0.21796359286E-01 -0.96291275998E-02  0.26633291356E-01  0.35750994182E-01  0.10000000475E-02 0. -1.
</event>
<event>
 4   0  0.2441219E-02  0.9118800E+02  0.7818609E-02  0.1379984E+01
      -11   -1    0    0    0    0  0.00000000000E+00  0.00000000000E+00  0.35740347158E-01  0.35744000000E-01  0.51099999109E-03 0. -1.
       11   -1    0    0    0    0 -0.00000000000E+00 -0.00000000000E+00 -0.35740347158E-01  0.35744000000E-01  0.51099999109E-03 0.  1.
       22    1    1    2    0    0 -0.68149127477E-02 -0.15055819759E-01  0.31686161656E-01  0.35737005818E-01  0.00000000000E+00 0. -1.
  9000001    1    1    2    0    0  0.68149127477E-02  0.15055819759E-01 -0.31686161656E-01  0.35750994182E-01  0.10000000475E-02 0.  1.
</event>
<event>
 4   0  0.2441219E-02  0.9118800E+02  0.7818609E-02  0.1379984E+01
      -11   -1    0    0    0    0  0.00000000000E+00  0.00000000000E+00  0.35740347158E-01  0.35744000000E-01  0.51099999109E-03 0. -1.
       11   -1    0    0    0    0 -0.00000000000E+00 -0.00000000000E+00 -0.35740347158E-01  0.35744000000E-01  0.51099999109E-03 0.  1.
       22    1    1    2    0    0 -0.28601444926E-01 -0.19509507016E-01 -0.88583333091E-02  0.35737005818E-01  0.00000000000E+00 0.  1.
  9000001    1    1    2    0    0  0.28601444926E-01  0.19509507016E-01  0.88583333091E-02  0.35750994182E-01  0.10000000475E-02 0. -1.
</event>
<event>
 4   0  0.2441219E-02  0.9118800E+02  0.7818609E-02  0.1379984E+01
      -11   -1    0    0    0    0  0.00000000000E+00  0.00000000000E+00  0.35740347158E-01  0.35744000000E-01  0.51099999109E-03 0.  1.
       11   -1    0    0    0    0 -0.00000000000E+00 -0.00000000000E+00 -0.35740347158E-01  0.35744000000E-01  0.51099999109E-03 0. -1.
       22    1    1    2    0    0 -0.30900532234E-02  0.47477744056E-02  0.35285178108E-01  0.35737005818E-01  0.00000000000E+00 0.  1.
  9000001    1    1    2    0    0  0.30900532234E-02 -0.47477744056E-02 -0.35285178108E-01  0.35750994182E-01  0.10000000475E-02 0. -1.
</event>
<event>
 4   0  0.2441219E-02  0.9118800E+02  0.7818609E-02  0.1379984E+01
      -11   -1    0    0    0    0  0.00000000000E+00  0.00000000000E+00  0.35740347158E-01  0.35744000000E-01  0.51099999109E-03 0. -1.
       11   -1    0    0    0    0 -0.00000000000E+00 -0.00000000000E+00 -0.35740347158E-01  0.35744000000E-01  0.51099999109E-03 0.  1.
       22    1    1    2    0    0  0.95660796239E-02 -0.14639392490E-01  0.31165877062E-01  0.35737005818E-01  0.00000000000E+00 0. -1.
  9000001    1    1    2    0    0 -0.95660796239E-02  0.14639392490E-01 -0.31165877062E-01  0.35750994182E-01  0.10000000475E-02 0.  1.
</event>
<event>
 4   0  0.2441219E-02  0.9118800E+02  0.7818609E-02  0.1379984E+01
      -11   -1    0    0    0    0  0.00000000000E+00  0.00000000000E+00  0.35740347158E-01  0.35744000000E-01  0.51099999109E-03 0.  1.
       11   -1    0    0    0    0 -0.00000000000E+00 -0.00000000000E+00 -0.35740347158E-01  0.35744000000E-01  0.51099999109E-03 0. -1.
       22    1    1    2    0    0  0.14385343145E-02  0.73094617041E-02  0.34951909440E-01  0.35737005818E-01  0.00000000000E+00 0.  1.
  9000001    1    1    2    0    0 -0.14385343145E-02 -0.73094617041E-02 -0.34951909440E-01  0.35750994182E-01  0.10000000475E-02 0. -1.
</event>
<event>
 4   0  0.2441219E-02  0.9118800E+02  0.7818609E-02  0.1379984E+01
      -11   -1    0    0    0    0  0.00000000000E+00  0.00000000000E+00  0.35740347158E-01  0.35744000000E-01  0.51099999109E-03 0.  1.
       11   -1    0    0    0    0 -0.00000000000E+00 -0.00000000000E+00 -0.35740347158E-01  0.35744000000E-01  0.51099999109E-03 0. -1.
       22    1    1    2    0    0 -0.19095223214E-01 -0.28881790835E-01 -0.88514514869E-02  0.35737005818E-01  0.00000000000E+00 0.  1.
  9000001    1    1    2    0    0  0.19095223214E-01  0.28881790835E-01  0.88514514869E-02  0.35750994182E-01  0.10000000475E-02 0. -1.
</event>
<event>
 4   0  0.2441219E-02  0.9118800E+02  0.7818609E-02  0.1379984E+01
      -11   -1    0    0    0    0  0.00000000000E+00  0.00000000000E+00  0.35740347158E-01  0.35744000000E-01  0.51099999109E-03 0. -1.
       11   -1    0    0    0    0 -0.00000000000E+00 -0.00000000000E+00 -0.35740347158E-01  0.35744000000E-01  0.51099999109E-03 0.  1.
       22    1    1    2    0    0 -0.33638592508E-01  0.10851015650E-01 -0.52758068907E-02  0.35737005818E-01  0.00000000000E+00 0.  1.
  9000001    1    1    2    0    0  0.33638592508E-01 -0.10851015650E-01  0.52758068907E-02  0.35750994182E-01  0.10000000475E-02 0. -1.
</event>
<event>
 4   0  0.2441219E-02  0.9118800E+02  0.7818609E-02  0.1379984E+01
      -11   -1    0    0    0    0  0.00000000000E+00  0.00000000000E+00  0.35740347158E-01  0.35744000000E-01  0.51099999109E-03 0.  1.
       11   -1    0    0    0    0 -0.00000000000E+00 -0.00000000000E+00 -0.35740347158E-01  0.35744000000E-01  0.51099999109E-03 0. -1.
       22    1    1    2    0    0 -0.34286104912E-01 -0.56573324253E-02  0.83421331015E-02  0.35737005818E-01  0.00000000000E+00 0. -1.
  9000001    1    1    2    0    0  0.34286104912E-01  0.56573324253E-02 -0.83421331015E-02  0.35750994182E-01  0.10000000475E-02 0.  1.
</event>
<event>
 4   0  0.2441219E-02  0.9118800E+02  0.7818609E-02  0.1379984E+01
      -11   -1    0    0    0    0  0.00000000000E+00  0.00000000000E+00  0.35740347158E-01  0.35744000000E-01  0.51099999109E-03 0.  1.
       11   -1    0    0    0    0 -0.00000000000E+00 -0.00000000000E+00 -0.35740347158E-01  0.35744000000E-01  0.51099999109E-03 0. -1.
       22    1    1    2    0    0 -0.13993309013E-02 -0.94888458363E-02 -0.34425822613E-01  0.35737005818E-01  0.00000000000E+00 0. -1.
  9000001    1    1    2    0    0  0.13993309013E-02  0.94888458363E-02  0.34425822613E-01  0.35750994182E-01  0.10000000475E-02 0.  1.
</event>
<event>
 4   0  0.2441219E-02  0.9118800E+02  0.7818609E-02  0.1379984E+01
      -11   -1    0    0    0    0  0.00000000000E+00  0.00000000000E+00  0.35740347158E-01  0.35744000000E-01  0.51099999109E-03 0. -1.
       11   -1    0    0    0    0 -0.00000000000E+00 -0.00000000000E+00 -0.35740347158E-01  0.35744000000E-01  0.51099999109E-03 0.  1.
       22    1    1    2    0    0  0.23306259912E-02 -0.30503245793E-02  0.35530230612E-01  0.35737005818E-01  0.00000000000E+00 0. -1.
  9000001    1    1    2    0    0 -0.23306259912E-02  0.30503245793E-02 -0.35530230612E-01  0.35750994182E-01  0.10000000475E-02 0.  1.
</event>
<event>
 4   0  0.2441219E-02  0.9118800E+02  0.7818609E-02  0.1379984E+01
      -11   -1    0    0    0    0  0.00000000000E+00  0.00000000000E+00  0.35740347158E-01  0.35744000000E-01  0.51099999109E-03 0.  1.
       11   -1    0    0    0    0 -0.00000000000E+00 -0.00000000000E+00 -0.35740347158E-01  0.35744000000E-01  0.51099999109E-03 0. -1.
       22    1    1    2    0    0 -0.35460143312E-03  0.48195563258E-02 -0.35408752019E-01  0.35737005818E-01  0.00000000000E+00 0. -1.
  9000001    1    1    2    0    0  0.35460143312E-03 -0.48195563258E-02  0.35408752019E-01  0.35750994182E-01  0.10000000475E-02 0.  1.
</event>
<event>
 4   0  0.2441219E-02  0.9118800E+02  0.7818609E-02  0.1379984E+01
      -11   -1    0    0    0    0  0.00000000000E+00  0.00000000000E+00  0.35740347158E-01  0.35744000000E-01  0.51099999109E-03 0. -1.
       11   -1    0    0    0    0 -0.00000000000E+00 -0.00000000000E+00 -0.35740347158E-01  0.35744000000E-01  0.51099999109E-03 0.  1.
       22    1    1    2    0    0 -0.43363090757E-02 -0.58887671535E-02 -0.34980743701E-01  0.35737005818E-01  0.00000000000E+00 0.  1.
  9000001    1    1    2    0    0  0.43363090757E-02  0.58887671535E-02  0.34980743701E-01  0.35750994182E-01  0.10000000475E-02 0. -1.
</event>
<event>
 4   0  0.2441219E-02  0.9118800E+02  0.7818609E-02  0.1379984E+01
      -11   -1    0    0    0    0  0.00000000000E+00  0.00000000000E+00  0.35740347158E-01  0.35744000000E-01  0.51099999109E-03 0.  1.
       11   -1    0    0    0    0 -0.00000000000E+00 -0.00000000000E+00 -0.35740347158E-01  0.35744000000E-01  0.51099999109E-03 0. -1.
       22    1    1    2    0    0  0.32091072233E-02  0.48320714720E-02 -0.35263101126E-01  0.35737005818E-01  0.00000000000E+00 0. -1.
  9000001    1    1    2    0    0 -0.32091072233E-02 -0.48320714720E-02  0.35263101126E-01  0.35750994182E-01  0.10000000475E-02 0.  1.
</event>
<event>
 4   0  0.2441219E-02  0.9118800E+02  0.7818609E-02  0.1379984E+01
      -11   -1    0    0    0    0  0.00000000000E+00  0.00000000000E+00  0.35740347158E-01  0.35744000000E-01  0.51099999109E-03 0. -1.
       11   -1    0    0    0    0 -0.00000000000E+00 -0.00000000000E+00 -0.35740347158E-01  0.35744000000E-01  0.51099999109E-03 0.  1.
       22    1    1    2    0    0  0.80624033078E-03  0.17807086514E-01  0.30974041249E-01  0.35737005818E-01  0.00000000000E+00 0. -1.
  9000001    1    1    2    0    0 -0.80624033078E-03 -0.17807086514E-01 -0.30974041249E-01  0.35750994182E-01  0.10000000475E-02 0.  1.
</event>
<event>
 4   0  0.2441219E-02  0.9118800E+02  0.7818609E-02  0.1379984E+01
      -11   -1    0    0    0    0  0.00000000000E+00  0.00000000000E+00  0.35740347158E-01  0.35744000000E-01  0.51099999109E-03 0. -1.
       11   -1    0    0    0    0 -0.00000000000E+00 -0.00000000000E+00 -0.35740347158E-01  0.35744000000E-01  0.51099999109E-03 0.  1.
       22    1    1    2    0    0 -0.35218013972E-01  0.49004413948E-02  0.35792109267E-02  0.35737005818E-01  0.00000000000E+00 0.  1.
  9000001    1    1    2    0    0  0.35218013972E-01 -0.49004413948E-02 -0.35792109267E-02  0.35750994182E-01  0.10000000475E-02 0. -1.
</event>
<event>
 4   0  0.2441219E-02  0.9118800E+02  0.7818609E-02  0.1379984E+01
      -11   -1    0    0    0    0  0.00000000000E+00  0.00000000000E+00  0.35740347158E-01  0.35744000000E-01  0.51099999109E-03 0. -1.
       11   -1    0    0    0    0 -0.00000000000E+00 -0.00000000000E+00 -0.35740347158E-01  0.35744000000E-01  0.51099999109E-03 0.  1.
       22    1    1    2    0    0 -0.70132060499E-02  0.82680750095E-02 -0.34052715918E-01  0.35737005818E-01  0.00000000000E+00 0.  1.
  9000001    1    1    2    0    0  0.70132060499E-02 -0.82680750095E-02  0.34052715918E-01  0.35750994182E-01  0.10000000475E-02 0. -1.
</event>
<event>
 4   0  0.2441219E-02  0.9118800E+02  0.7818609E-02  0.1379984E+01
      -11   -1    0    0    0    0  0.00000000000E+00  0.00000000000E+00  0.35740347158E-01  0.35744000000E-01  0.51099999109E-03 0.  1.
       11   -1    0    0    0    0 -0.00000000000E+00 -0.00000000000E+00 -0.35740347158E-01  0.35744000000E-01  0.51099999109E-03 0. -1.
       22    1    1    2    0    0 -0.14128529700E-01 -0.90830490580E-02 -0.31543881391E-01  0.35737005818E-01  0.00000000000E+00 0. -1.
  9000001    1    1    2    0    0  0.14128529700E-01  0.90830490580E-02  0.31543881391E-01  0.35750994182E-01  0.10000000475E-02 0.  1.
</event>
<event>
 4   0  0.2441219E-02  0.9118800E+02  0.7818609E-02  0.1379984E+01
      -11   -1    0    0    0    0  0.00000000000E+00  0.00000000000E+00  0.35740347158E-01  0.35744000000E-01  0.51099999109E-03 0.  1.
       11   -1    0    0    0    0 -0.00000000000E+00 -0.00000000000E+00 -0.35740347158E-01  0.35744000000E-01  0.51099999109E-03 0. -1.
       22    1    1    2    0    0 -0.20196836826E-01 -0.45061673097E-02 -0.29136160064E-01  0.35737005818E-01  0.00000000000E+00 0. -1.
  9000001    1    1    2    0    0  0.20196836826E-01  0.45061673097E-02  0.29136160064E-01  0.35750994182E-01  0.10000000475E-02 0.  1.
</event>
<event>
 4   0  0.2441219E-02  0.9118800E+02  0.7818609E-02  0.1379984E+01
      -11   -1    0    0    0    0  0.00000000000E+00  0.00000000000E+00  0.35740347158E-01  0.35744000000E-01  0.51099999109E-03 0.  1.
       11   -1    0    0    0    0 -0.00000000000E+00 -0.00000000000E+00 -0.35740347158E-01  0.35744000000E-01  0.51099999109E-03 0. -1.
       22    1    1    2    0    0 -0.27297300044E-01 -0.97103839122E-02 -0.20921267636E-01  0.35737005818E-01  0.00000000000E+00 0. -1.
  9000001    1    1    2    0    0  0.27297300044E-01  0.97103839122E-02  0.20921267636E-01  0.35750994182E-01  0.10000000475E-02 0.  1.
</event>
<event>
 4   0  0.2441219E-02  0.9118800E+02  0.7818609E-02  0.1379984E+01
      -11   -1    0    0    0    0  0.00000000000E+00  0.00000000000E+00  0.35740347158E-01  0.35744000000E-01  0.51099999109E-03 0. -1.
       11   -1    0    0    0    0 -0.00000000000E+00 -0.00000000000E+00 -0.35740347158E-01  0.35744000000E-01  0.51099999109E-03 0.  1.
       22    1    1    2    0    0 -0.20293798184E-02 -0.27550897213E-02 -0.35572808197E-01  0.35737005818E-01  0.00000000000E+00 0.  1.
  9000001    1    1    2    0    0  0.20293798184E-02  0.27550897213E-02  0.35572808197E-01  0.35750994182E-01  0.10000000475E-02 0. -1.
</event>
<event>
 4   0  0.2441219E-02  0.9118800E+02  0.7818609E-02  0.1379984E+01
      -11   -1    0    0    0    0  0.00000000000E+00  0.00000000000E+00  0.35740347158E-01  0.35744000000E-01  0.51099999109E-03 0. -1.
       11   -1    0    0    0    0 -0.00000000000E+00 -0.00000000000E+00 -0.35740347158E-01  0.35744000000E-01  0.51099999109E-03 0.  1.
       22    1    1    2    0    0  0.30773266580E-02 -0.87299509478E-03 -0.35593560163E-01  0.35737005818E-01  0.00000000000E+00 0.  1.
  9000001    1    1    2    0    0 -0.30773266580E-02  0.87299509478E-03  0.35593560163E-01  0.35750994182E-01  0.10000000475E-02 0. -1.
</event>
<event>
 4   0  0.2441219E-02  0.9118800E+02  0.7818609E-02  0.1379984E+01
      -11   -1    0    0    0    0  0.00000000000E+00  0.00000000000E+00  0.35740347158E-01  0.35744000000E-01  0.51099999109E-03 0.  1.
       11   -1    0    0    0    0 -0.00000000000E+00 -0.00000000000E+00 -0.35740347158E-01  0.35744000000E-01  0.51099999109E-03 0. -1.
       22    1    1    2    0    0  0.62239708797E-02  0.35114630828E-01 -0.23148376132E-02  0.35737005818E-01  0.00000000000E+00 0. -1.
  9000001    1    1    2    0    0 -0.62239708797E-02 -0.35114630828E-01  0.23148376132E-02  0.35750994182E-01  0.10000000475E-02 0.  1.
</event>
<event>
 4   0  0.2441219E-02  0.9118800E+02  0.7818609E-02  0.1379984E+01
      -11   -1    0    0    0    0  0.00000000000E+00  0.00000000000E+00  0.35740347158E-01  0.35744000000E-01  0.51099999109E-03 0. -1.
       11   -1    0    0    0    0 -0.00000000000E+00 -0.00000000000E+00 -0.35740347158E-01  0.35744000000E-01  0.51099999109E-03 0.  1.
       22    1    1    2    0    0  0.21880495672E-01 -0.21796680448E-01  0.17980050486E-01  0.35737005818E-01  0.00000000000E+00 0. -1.
  9000001    1    1    2    0    0 -0.21880495672E-01  0.21796680448E-01 -0.17980050486E-01  0.35750994182E-01  0.10000000475E-02 0.  1.
</event>
<event>
 4   0  0.2441219E-02  0.9118800E+02  0.7818609E-02  0.1379984E+01
      -11   -1    0    0    0    0  0.00000000000E+00  0.00000000000E+00  0.35740347158E-01  0.35744000000E-01  0.51099999109E-03 0.  1.
       11   -1    0    0    0    0 -0.00000000000E+00 -0.00000000000E+00 -0.35740347158E-01  0.35744000000E-01  0.51099999109E-03 0. -1.
       22    1    1    2    0    0 -0.24435011860E-02  0.34612953531E-02  0.35484959086E-01  0.35737005818E-01  0.00000000000E+00 0.  1.
  9000001    1    1    2    0    0  0.24435011860E-02 -0.34612953531E-02 -0.35484959086E-01  0.35750994182E-01  0.10000000475E-02 0. -1.
</event>
<event>
 4   0  0.2441219E-02  0.9118800E+02  0.7818609E-02  0.1379984E+01
      -11   -1    0    0    0    0  0.00000000000E+00  0.00000000000E+00  0.35740347158E-01  0.35744000000E-01  0.51099999109E-03 0.  1.
       11   -1    0    0    0    0 -0.00000000000E+00 -0.00000000000E+00 -0.35740347158E-01  0.35744000000E-01  0.51099999109E-03 0. -1.
       22    1    1    2    0    0  0.74047174100E-02 -0.17719303588E-02  0.34916529148E-01  0.35737005818E-01  0.00000000000E+00 0.  1.
  9000001    1    1    2    0    0 -0.74047174100E-02  0.17719303588E-02 -0.34916529148E-01  0.35750994182E-01  0.10000000475E-02 0. -1.
</event>
<event>
 4   0  0.2441219E-02  0.9118800E+02  0.7818609E-02  0.1379984E+01
      -11   -1    0    0    0    0  0.00000000000E+00  0.00000000000E+00  0.35740347158E-01  0.35744000000E-01  0.51099999109E-03 0.  1.
       11   -1    0    0    0    0 -0.00000000000E+00 -0.00000000000E+00 -0.35740347158E-01  0.35744000000E-01  0.51099999109E-03 0. -1.
       22    1    1    2    0    0  0.76011611952E-02 -0.22522829797E-02  0.34846565896E-01  0.35737005818E-01  0.00000000000E+00 0.  1.
  9000001    1    1    2    0    0 -0.76011611952E-02  0.22522829797E-02 -0.34846565896E-01  0.35750994182E-01  0.10000000475E-02 0. -1.
</event>
<event>
 4   0  0.2441219E-02  0.9118800E+02  0.7818609E-02  0.1379984E+01
      -11   -1    0    0    0    0  0.00000000000E+00  0.00000000000E+00  0.35740347158E-01  0.35744000000E-01  0.51099999109E-03 0. -1.
       11   -1    0    0    0    0 -0.00000000000E+00 -0.00000000000E+00 -0.35740347158E-01  0.35744000000E-01  0.51099999109E-03 0.  1.
       22    1    1    2    0    0 -0.33170475745E-02 -0.10494137576E-01  0.34000056717E-01  0.35737005818E-01  0.00000000000E+00 0. -1.
  9000001    1    1    2    0    0  0.33170475745E-02  0.10494137576E-01 -0.34000056717E-01  0.35750994182E-01  0.10000000475E-02 0.  1.
</event>
<event>
 4   0  0.2441219E-02  0.9118800E+02  0.7818609E-02  0.1379984E+01
      -11   -1    0    0    0    0  0.00000000000E+00  0.00000000000E+00  0.35740347158E-01  0.35744000000E-01  0.51099999109E-03 0.  1.
       11   -1    0    0    0    0 -0.00000000000E+00 -0.00000000000E+00 -0.35740347158E-01  0.35744000000E-01  0.51099999109E-03 0. -1.
       22    1    1    2    0    0  0.37637922843E-02  0.54272055174E-02  0.35121402204E-01  0.35737005818E-01  0.00000000000E+00 0.  1.
  9000001    1    1    2    0    0 -0.37637922843E-02 -0.54272055174E-02 -0.35121402204E-01  0.35750994182E-01  0.10000000475E-02 0. -1.
</event>
<event>
 4   0  0.2441219E-02  0.9118800E+02  0.7818609E-02  0.1379984E+01
      -11   -1    0    0    0    0  0.00000000000E+00  0.00000000000E+00  0.35740347158E-01  0.35744000000E-01  0.51099999109E-03 0.  1.
       11   -1    0    0    0    0 -0.00000000000E+00 -0.00000000000E+00 -0.35740347158E-01  0.35744000000E-01  0.51099999109E-03 0. -1.
       22    1    1    2    0    0  0.57953296450E-02 -0.17600569837E-02 -0.35220021843E-01  0.35737005818E-01  0.00000000000E+00 0. -1.
  9000001    1    1    2    0    0 -0.57953296450E-02  0.17600569837E-02  0.35220021843E-01  0.35750994182E-01  0.10000000475E-02 0.  1.
</event>
<event>
 4   0  0.2441219E-02  0.9118800E+02  0.7818609E-02  0.1379984E+01
      -11   -1    0    0    0    0  0.00000000000E+00  0.00000000000E+00  0.35740347158E-01  0.35744000000E-01  0.51099999109E-03 0. -1.
       11   -1    0    0    0    0 -0.00000000000E+00 -0.00000000000E+00 -0.35740347158E-01  0.35744000000E-01  0.51099999109E-03 0.  1.
       22    1    1    2    0    0  0.45100119674E-02 -0.10431044050E-02 -0.35435932472E-01  0.35737005818E-01  0.00000000000E+00 0.  1.
  9000001    1    1    2    0    0 -0.45100119674E-02  0.10431044050E-02  0.35435932472E-01  0.35750994182E-01  0.10000000475E-02 0. -1.
</event>
<event>
 4   0  0.2441219E-02  0.9118800E+02  0.7818609E-02  0.1379984E+01
      -11   -1    0    0    0    0  0.00000000000E+00  0.00000000000E+00  0.35740347158E-01  0.35744000000E-01  0.51099999109E-03 0. -1.
       11   -1    0    0    0    0 -0.00000000000E+00 -0.00000000000E+00 -0.35740347158E-01  0.35744000000E-01  0.51099999109E-03 0.  1.
       22    1    1    2    0    0 -0.19198404023E-02 -0.36183581034E-02 -0.35501482819E-01  0.35737005818E-01  0.00000000000E+00 0.  1.
  9000001    1    1    2    0    0  0.19198404023E-02  0.36183581034E-02  0.35501482819E-01  0.35750994182E-01  0.10000000475E-02 0. -1.
</event>
<event>
 4   0  0.2441219E-02  0.9118800E+02  0.7818609E-02  0.1379984E+01
      -11   -1    0    0    0    0  0.00000000000E+00  0.00000000000E+00  0.35740347158E-01  0.35744000000E-01  0.51099999109E-03 0.  1.
       11   -1    0    0    0    0 -0.00000000000E+00 -0.00000000000E+00 -0.35740347158E-01  0.35744000000E-01  0.51099999109E-03 0. -1.
       22    1    1    2    0    0 -0.24171686037E-02  0.24562996976E-02  0.35570457863E-01  0.35737005818E-01  0.00000000000E+00 0.  1.
  9000001    1    1    2    0    0  0.24171686037E-02 -0.24562996976E-02 -0.35570457863E-01  0.35750994182E-01  0.10000000475E-02 0. -1.
</event>
<event>
 4   0  0.2441219E-02  0.9118800E+02  0.7818609E-02  0.1379984E+01
      -11   -1    0    0    0    0  0.00000000000E+00  0.00000000000E+00  0.35740347158E-01  0.35744000000E-01  0.51099999109E-03 0.  1.
       11   -1    0    0    0    0 -0.00000000000E+00 -0.00000000000E+00 -0.35740347158E-01  0.35744000000E-01  0.51099999109E-03 0. -1.
       22    1    1    2    0    0  0.19511908352E-01 -0.36874336231E-02 -0.29712318163E-01  0.35737005818E-01  0.00000000000E+00 0. -1.
  9000001    1    1    2    0    0 -0.19511908352E-01  0.36874336231E-02  0.29712318163E-01  0.35750994182E-01  0.10000000475E-02 0.  1.
</event>
<event>
 4   0  0.2441219E-02  0.9118800E+02  0.7818609E-02  0.1379984E+01
      -11   -1    0    0    0    0  0.00000000000E+00  0.00000000000E+00  0.35740347158E-01  0.35744000000E-01  0.51099999109E-03 0.  1.
       11   -1    0    0    0    0 -0.00000000000E+00 -0.00000000000E+00 -0.35740347158E-01  0.35744000000E-01  0.51099999109E-03 0. -1.
       22    1    1    2    0    0 -0.33102643163E-01  0.51633713416E-02  0.12437370979E-01  0.35737005818E-01  0.00000000000E+00 0.  1.
  9000001    1    1    2    0    0  0.33102643163E-01 -0.51633713416E-02 -0.12437370979E-01  0.35750994182E-01  0.10000000475E-02 0. -1.
</event>
<event>
 4   0  0.2441219E-02  0.9118800E+02  0.7818609E-02  0.1379984E+01
      -11   -1    0    0    0    0  0.00000000000E+00  0.00000000000E+00  0.35740347158E-01  0.35744000000E-01  0.51099999109E-03 0.  1.
       11   -1    0    0    0    0 -0.00000000000E+00 -0.00000000000E+00 -0.35740347158E-01  0.35744000000E-01  0.51099999109E-03 0. -1.
       22    1    1    2    0    0 -0.71194451897E-02 -0.18930802430E-01  0.29463058301E-01  0.35737005818E-01  0.00000000000E+00 0.  1.
  9000001    1    1    2    0    0  0.71194451897E-02  0.18930802430E-01 -0.29463058301E-01  0.35750994182E-01  0.10000000475E-02 0. -1.
</event>
<event>
 4   0  0.2441219E-02  0.9118800E+02  0.7818609E-02  0.1379984E+01
      -11   -1    0    0    0    0  0.00000000000E+00  0.00000000000E+00  0.35740347158E-01  0.35744000000E-01  0.51099999109E-03 0. -1.
       11   -1    0    0    0    0 -0.00000000000E+00 -0.00000000000E+00 -0.35740347158E-01  0.35744000000E-01  0.51099999109E-03 0.  1.
       22    1    1    2    0    0  0.39425107008E-02 -0.29086863273E-02  0.35399572569E-01  0.35737005818E-01  0.00000000000E+00 0. -1.
  9000001    1    1    2    0    0 -0.39425107008E-02  0.29086863273E-02 -0.35399572569E-01  0.35750994182E-01  0.10000000475E-02 0.  1.
</event>
<event>
 4   0  0.2441219E-02  0.9118800E+02  0.7818609E-02  0.1379984E+01
      -11   -1    0    0    0    0  0.00000000000E+00  0.00000000000E+00  0.35740347158E-01  0.35744000000E-01  0.51099999109E-03 0. -1.
       11   -1    0    0    0    0 -0.00000000000E+00 -0.00000000000E+00 -0.35740347158E-01  0.35744000000E-01  0.51099999109E-03 0.  1.
       22    1    1    2    0    0  0.35162920826E-02 -0.66141881649E-02  0.34943122210E-01  0.35737005818E-01  0.00000000000E+00 0. -1.
  9000001    1    1    2    0    0 -0.35162920826E-02  0.66141881649E-02 -0.34943122210E-01  0.35750994182E-01  0.10000000475E-02 0.  1.
</event>
<event>
 4   0  0.2441219E-02  0.9118800E+02  0.7818609E-02  0.1379984E+01
      -11   -1    0    0    0    0  0.00000000000E+00  0.00000000000E+00  0.35740347158E-01  0.35744000000E-01  0.51099999109E-03 0. -1.
       11   -1    0    0    0    0 -0.00000000000E+00 -0.00000000000E+00 -0.35740347158E-01  0.35744000000E-01  0.51099999109E-03 0.  1.
       22    1    1    2    0    0  0.19980343547E-01 -0.43841009223E-02 -0.29303568311E-01  0.35737005818E-01  0.00000000000E+00 0.  1.
  9000001    1    1    2    0    0 -0.19980343547E-01  0.43841009223E-02  0.29303568311E-01  0.35750994182E-01  0.10000000475E-02 0. -1.
</event>
<event>
 4   0  0.2441219E-02  0.9118800E+02  0.7818609E-02  0.1379984E+01
      -11   -1    0    0    0    0  0.00000000000E+00  0.00000000000E+00  0.35740347158E-01  0.35744000000E-01  0.51099999109E-03 0. -1.
       11   -1    0    0    0    0 -0.00000000000E+00 -0.00000000000E+00 -0.35740347158E-01  0.35744000000E-01  0.51099999109E-03 0.  1.
       22    1    1    2    0    0  0.34585929285E-01  0.89517231217E-02  0.90207178655E-03  0.35737005818E-01  0.00000000000E+00 0. -1.
  9000001    1    1    2    0    0 -0.34585929285E-01 -0.89517231217E-02 -0.90207178655E-03  0.35750994182E-01  0.10000000475E-02 0.  1.
</event>
<event>
 4   0  0.2441219E-02  0.9118800E+02  0.7818609E-02  0.1379984E+01
      -11   -1    0    0    0    0  0.00000000000E+00  0.00000000000E+00  0.35740347158E-01  0.35744000000E-01  0.51099999109E-03 0.  1.
       11   -1    0    0    0    0 -0.00000000000E+00 -0.00000000000E+00 -0.35740347158E-01  0.35744000000E-01  0.51099999109E-03 0. -1.
       22    1    1    2    0    0 -0.18921832106E-01 -0.43105543312E-02 -0.30008615029E-01  0.35737005818E-01  0.00000000000E+00 0. -1.
  9000001    1    1    2    0    0  0.18921832106E-01  0.43105543312E-02  0.30008615029E-01  0.35750994182E-01  0.10000000475E-02 0.  1.
</event>
<event>
 4   0  0.2441219E-02  0.9118800E+02  0.7818609E-02  0.1379984E+01
      -11   -1    0    0    0    0  0.00000000000E+00  0.00000000000E+00  0.35740347158E-01  0.35744000000E-01  0.51099999109E-03 0.  1.
       11   -1    0    0    0    0 -0.00000000000E+00 -0.00000000000E+00 -0.35740347158E-01  0.35744000000E-01  0.51099999109E-03 0. -1.
       22    1    1    2    0    0 -0.14210899509E-01  0.14123584108E-02 -0.32759565988E-01  0.35737005818E-01  0.00000000000E+00 0. -1.
  9000001    1    1    2    0    0  0.14210899509E-01 -0.14123584108E-02  0.32759565988E-01  0.35750994182E-01  0.10000000475E-02 0.  1.
</event>
<event>
 4   0  0.2441219E-02  0.9118800E+02  0.7818609E-02  0.1379984E+01
      -11   -1    0    0    0    0  0.00000000000E+00  0.00000000000E+00  0.35740347158E-01  0.35744000000E-01  0.51099999109E-03 0. -1.
       11   -1    0    0    0    0 -0.00000000000E+00 -0.00000000000E+00 -0.35740347158E-01  0.35744000000E-01  0.51099999109E-03 0.  1.
       22    1    1    2    0    0 -0.35707246203E-02 -0.22209154969E-04 -0.35558163863E-01  0.35737005818E-01  0.00000000000E+00 0.  1.
  9000001    1    1    2    0    0  0.35707246203E-02  0.22209154969E-04  0.35558163863E-01  0.35750994182E-01  0.10000000475E-02 0. -1.
</event>
<event>
 4   0  0.2441219E-02  0.9118800E+02  0.7818609E-02  0.1379984E+01
      -11   -1    0    0    0    0  0.00000000000E+00  0.00000000000E+00  0.35740347158E-01  0.35744000000E-01  0.51099999109E-03 0.  1.
       11   -1    0    0    0    0 -0.00000000000E+00 -0.00000000000E+00 -0.35740347158E-01  0.35744000000E-01  0.51099999109E-03 0. -1.
       22    1    1    2    0    0 -0.13359193588E-01  0.29262082920E-02  0.33016705417E-01  0.35737005818E-01  0.00000000000E+00 0.  1.
  9000001    1    1    2    0    0  0.13359193588E-01 -0.29262082920E-02 -0.33016705417E-01  0.35750994182E-01  0.10000000475E-02 0. -1.
</event>
<event>
 4   0  0.2441219E-02  0.9118800E+02  0.7818609E-02  0.1379984E+01
      -11   -1    0    0    0    0  0.00000000000E+00  0.00000000000E+00  0.35740347158E-01  0.35744000000E-01  0.51099999109E-03 0. -1.
       11   -1    0    0    0    0 -0.00000000000E+00 -0.00000000000E+00 -0.35740347158E-01  0.35744000000E-01  0.51099999109E-03 0.  1.
       22    1    1    2    0    0  0.17506890731E-01 -0.10128797370E-01  0.29462685309E-01  0.35737005818E-01  0.00000000000E+00 0. -1.
  9000001    1    1    2    0    0 -0.17506890731E-01  0.10128797370E-01 -0.29462685309E-01  0.35750994182E-01  0.10000000475E-02 0.  1.
</event>
<event>
 4   0  0.2441219E-02  0.9118800E+02  0.7818609E-02  0.1379984E+01
      -11   -1    0    0    0    0  0.00000000000E+00  0.00000000000E+00  0.35740347158E-01  0.35744000000E-01  0.51099999109E-03 0.  1.
       11   -1    0    0    0    0 -0.00000000000E+00 -0.00000000000E+00 -0.35740347158E-01  0.35744000000E-01  0.51099999109E-03 0. -1.
       22    1    1    2    0    0 -0.20200812363E-02  0.47148622355E-02 -0.35366975143E-01  0.35737005818E-01  0.00000000000E+00 0. -1.
  9000001    1    1    2    0    0  0.20200812363E-02 -0.47148622355E-02  0.35366975143E-01  0.35750994182E-01  0.10000000475E-02 0.  1.
</event>
<event>
 4   0  0.2441219E-02  0.9118800E+02  0.7818609E-02  0.1379984E+01
      -11   -1    0    0    0    0  0.00000000000E+00  0.00000000000E+00  0.35740347158E-01  0.35744000000E-01  0.51099999109E-03 0.  1.
       11   -1    0    0    0    0 -0.00000000000E+00 -0.00000000000E+00 -0.35740347158E-01  0.35744000000E-01  0.51099999109E-03 0. -1.
       22    1    1    2    0    0 -0.93626681593E-03  0.36980517657E-02 -0.35532821482E-01  0.35737005818E-01  0.00000000000E+00 0. -1.
  9000001    1    1    2    0    0  0.93626681593E-03 -0.36980517657E-02  0.35532821482E-01  0.35750994182E-01  0.10000000475E-02 0.  1.
</event>
<event>
 4   0  0.2441219E-02  0.9118800E+02  0.7818609E-02  0.1379984E+01
      -11   -1    0    0    0    0  0.00000000000E+00  0.00000000000E+00  0.35740347158E-01  0.35744000000E-01  0.51099999109E-03 0.  1.
       11   -1    0    0    0    0 -0.00000000000E+00 -0.00000000000E+00 -0.35740347158E-01  0.35744000000E-01  0.51099999109E-03 0. -1.
       22    1    1    2    0    0  0.21517636811E-01  0.65621656074E-02  0.27768018897E-01  0.35737005818E-01  0.00000000000E+00 0.  1.
  9000001    1    1    2    0    0 -0.21517636811E-01 -0.65621656074E-02 -0.27768018897E-01  0.35750994182E-01  0.10000000475E-02 0. -1.
</event>
<event>
 4   0  0.2441219E-02  0.9118800E+02  0.7818609E-02  0.1379984E+01
      -11   -1    0    0    0    0  0.00000000000E+00  0.00000000000E+00  0.35740347158E-01  0.35744000000E-01  0.51099999109E-03 0.  1.
       11   -1    0    0    0    0 -0.00000000000E+00 -0.00000000000E+00 -0.35740347158E-01  0.35744000000E-01  0.51099999109E-03 0. -1.
       22    1    1    2    0    0  0.41507350520E-02  0.28333885325E-02  0.35381872376E-01  0.35737005818E-01  0.00000000000E+00 0.  1.
  9000001    1    1    2    0    0 -0.41507350520E-02 -0.28333885325E-02 -0.35381872376E-01  0.35750994182E-01  0.10000000475E-02 0. -1.
</event>
<event>
 4   0  0.2441219E-02  0.9118800E+02  0.7818609E-02  0.1379984E+01
      -11   -1    0    0    0    0  0.00000000000E+00  0.00000000000E+00  0.35740347158E-01  0.35744000000E-01  0.51099999109E-03 0. -1.
       11   -1    0    0    0    0 -0.00000000000E+00 -0.00000000000E+00 -0.35740347158E-01  0.35744000000E-01  0.51099999109E-03 0.  1.
       22    1    1    2    0    0  0.85216666472E-03  0.30913437439E-02 -0.35592850275E-01  0.35737005818E-01  0.00000000000E+00 0.  1.
  9000001    1    1    2    0    0 -0.85216666472E-03 -0.30913437439E-02  0.35592850275E-01  0.35750994182E-01  0.10000000475E-02 0. -1.
</event>
<event>
 4   0  0.2441219E-02  0.9118800E+02  0.7818609E-02  0.1379984E+01
      -11   -1    0    0    0    0  0.00000000000E+00  0.00000000000E+00  0.35740347158E-01  0.35744000000E-01  0.51099999109E-03 0.  1.
       11   -1    0    0    0    0 -0.00000000000E+00 -0.00000000000E+00 -0.35740347158E-01  0.35744000000E-01  0.51099999109E-03 0. -1.
       22    1    1    2    0    0  0.29718258826E-02 -0.26666607198E-02 -0.35513247618E-01  0.35737005818E-01  0.00000000000E+00 0. -1.
  9000001    1    1    2    0    0 -0.29718258826E-02  0.26666607198E-02  0.35513247618E-01  0.35750994182E-01  0.10000000475E-02 0.  1.
</event>
<event>
 4   0  0.2441219E-02  0.9118800E+02  0.7818609E-02  0.1379984E+01
      -11   -1    0    0    0    0  0.00000000000E+00  0.00000000000E+00  0.35740347158E-01  0.35744000000E-01  0.51099999109E-03 0. -1.
       11   -1    0    0    0    0 -0.00000000000E+00 -0.00000000000E+00 -0.35740347158E-01  0.35744000000E-01  0.51099999109E-03 0.  1.
       22    1    1    2    0    0 -0.30382628842E-02 -0.29023510935E-02  0.35489137798E-01  0.35737005818E-01  0.00000000000E+00 0. -1.
  9000001    1    1    2    0    0  0.30382628842E-02  0.29023510935E-02 -0.35489137798E-01  0.35750994182E-01  0.10000000475E-02 0.  1.
</event>
<event>
 4   0  0.2441219E-02  0.9118800E+02  0.7818609E-02  0.1379984E+01
      -11   -1    0    0    0    0  0.00000000000E+00  0.00000000000E+00  0.35740347158E-01  0.35744000000E-01  0.51099999109E-03 0.  1.
       11   -1    0    0    0    0 -0.00000000000E+00 -0.00000000000E+00 -0.35740347158E-01  0.35744000000E-01  0.51099999109E-03 0. -1.
       22    1    1    2    0    0 -0.33367192383E-01  0.62705141438E-03  0.12781661232E-01  0.35737005818E-01  0.00000000000E+00 0.  1.
  9000001    1    1    2    0    0  0.33367192383E-01 -0.62705141438E-03 -0.12781661232E-01  0.35750994182E-01  0.10000000475E-02 0. -1.
</event>
<event>
 4   0  0.2441219E-02  0.9118800E+02  0.7818609E-02  0.1379984E+01
      -11   -1    0    0    0    0  0.00000000000E+00  0.00000000000E+00  0.35740347158E-01  0.35744000000E-01  0.51099999109E-03 0.  1.
       11   -1    0    0    0    0 -0.00000000000E+00 -0.00000000000E+00 -0.35740347158E-01  0.35744000000E-01  0.51099999109E-03 0. -1.
       22    1    1    2    0    0 -0.28034023625E-02  0.90585906558E-02  0.34456007537E-01  0.35737005818E-01  0.00000000000E+00 0.  1.
  9000001    1    1    2    0    0  0.28034023625E-02 -0.90585906558E-02 -0.34456007537E-01  0.35750994182E-01  0.10000000475E-02 0. -1.
</event>
<event>
 4   0  0.2441219E-02  0.9118800E+02  0.7818609E-02  0.1379984E+01
      -11   -1    0    0    0    0  0.00000000000E+00  0.00000000000E+00  0.35740347158E-01  0.35744000000E-01  0.51099999109E-03 0.  1.
       11   -1    0    0    0    0 -0.00000000000E+00 -0.00000000000E+00 -0.35740347158E-01  0.35744000000E-01  0.51099999109E-03 0. -1.
       22    1    1    2    0    0  0.11113188360E-01  0.16459555113E-01 -0.29710497721E-01  0.35737005818E-01  0.00000000000E+00 0. -1.
  9000001    1    1    2    0    0 -0.11113188360E-01 -0.16459555113E-01  0.29710497721E-01  0.35750994182E-01  0.10000000475E-02 0.  1.
</event>
<event>
 4   0  0.2441219E-02  0.9118800E+02  0.7818609E-02  0.1379984E+01
      -11   -1    0    0    0    0  0.00000000000E+00  0.00000000000E+00  0.35740347158E-01  0.35744000000E-01  0.51099999109E-03 0.  1.
       11   -1    0    0    0    0 -0.00000000000E+00 -0.00000000000E+00 -0.35740347158E-01  0.35744000000E-01  0.51099999109E-03 0. -1.
       22    1    1    2    0    0 -0.18272902908E-01  0.50839560574E-02 -0.30288413544E-01  0.35737005818E-01  0.00000000000E+00 0. -1.
  9000001    1    1    2    0    0  0.18272902908E-01 -0.50839560574E-02  0.30288413544E-01  0.35750994182E-01  0.10000000475E-02 0.  1.
</event>
<event>
 4   0  0.2441219E-02  0.9118800E+02  0.7818609E-02  0.1379984E+01
      -11   -1    0    0    0    0  0.00000000000E+00  0.00000000000E+00  0.35740347158E-01  0.35744000000E-01  0.51099999109E-03 0.  1.
       11   -1    0    0    0    0 -0.00000000000E+00 -0.00000000000E+00 -0.35740347158E-01  0.35744000000E-01  0.51099999109E-03 0. -1.
       22    1    1    2    0    0 -0.53595163679E-02 -0.35454913735E-02  0.35154497011E-01  0.35737005818E-01  0.00000000000E+00 0.  1.
  9000001    1    1    2    0    0  0.53595163679E-02  0.35454913735E-02 -0.35154497011E-01  0.35750994182E-01  0.10000000475E-02 0. -1.
</event>
<event>
 4   0  0.2441219E-02  0.9118800E+02  0.7818609E-02  0.1379984E+01
      -11   -1    0    0    0    0  0.00000000000E+00  0.00000000000E+00  0.35740347158E-01  0.35744000000E-01  0.51099999109E-03 0. -1.
       11   -1    0    0    0    0 -0.00000000000E+00 -0.00000000000E+00 -0.35740347158E-01  0.35744000000E-01  0.51099999109E-03 0.  1.
       22    1    1    2    0    0  0.15132064769E-01  0.10600078825E-01 -0.30590726203E-01  0.35737005818E-01  0.00000000000E+00 0.  1.
  9000001    1    1    2    0    0 -0.15132064769E-01 -0.10600078825E-01  0.30590726203E-01  0.35750994182E-01  0.10000000475E-02 0. -1.
</event>
<event>
 4   0  0.2441219E-02  0.9118800E+02  0.7818609E-02  0.1379984E+01
      -11   -1    0    0    0    0  0.00000000000E+00  0.00000000000E+00  0.35740347158E-01  0.35744000000E-01  0.51099999109E-03 0. -1.
       11   -1    0    0    0    0 -0.00000000000E+00 -0.00000000000E+00 -0.35740347158E-01  0.35744000000E-01  0.51099999109E-03 0.  1.
       22    1    1    2    0    0 -0.41234854245E-02 -0.30385295793E-03  0.35497015737E-01  0.35737005818E-01  0.00000000000E+00 0. -1.
  9000001    1    1    2    0    0  0.41234854245E-02  0.30385295793E-03 -0.35497015737E-01  0.35750994182E-01  0.10000000475E-02 0.  1.
</event>
<event>
 4   0  0.2441219E-02  0.9118800E+02  0.7818609E-02  0.1379984E+01
      -11   -1    0    0    0    0  0.00000000000E+00  0.00000000000E+00  0.35740347158E-01  0.35744000000E-01  0.51099999109E-03 0. -1.
       11   -1    0    0    0    0 -0.00000000000E+00 -0.00000000000E+00 -0.35740347158E-01  0.35744000000E-01  0.51099999109E-03 0.  1.
       22    1    1    2    0    0  0.41946507932E-02  0.92214810595E-02  0.34271019487E-01  0.35737005818E-01  0.00000000000E+00 0. -1.
  9000001    1    1    2    0    0 -0.41946507932E-02 -0.92214810595E-02 -0.34271019487E-01  0.35750994182E-01  0.10000000475E-02 0.  1.
</event>
<event>
 4   0  0.2441219E-02  0.9118800E+02  0.7818609E-02  0.1379984E+01
      -11   -1    0    0    0    0  0.00000000000E+00  0.00000000000E+00  0.35740347158E-01  0.35744000000E-01  0.51099999109E-03 0.  1.
       11   -1    0    0    0    0 -0.00000000000E+00 -0.00000000000E+00 -0.35740347158E-01  0.35744000000E-01  0.51099999109E-03 0. -1.
       22    1    1    2    0    0 -0.73903570120E-02 -0.29358833864E-01  0.18988814662E-01  0.35737005818E-01  0.00000000000E+00 0.  1.
  9000001    1    1    2    0    0  0.73903570120E-02  0.29358833864E-01 -0.18988814662E-01  0.35750994182E-01  0.10000000475E-02 0. -1.
</event>
<event>
 4   0  0.2441219E-02  0.9118800E+02  0.7818609E-02  0.1379984E+01
      -11   -1    0    0    0    0  0.00000000000E+00  0.00000000000E+00  0.35740347158E-01  0.35744000000E-01  0.51099999109E-03 0.  1.
       11   -1    0    0    0    0 -0.00000000000E+00 -0.00000000000E+00 -0.35740347158E-01  0.35744000000E-01  0.51099999109E-03 0. -1.
       22    1    1    2    0    0  0.38699325613E-02 -0.31077789118E-02 -0.35390661439E-01  0.35737005818E-01  0.00000000000E+00 0. -1.
  9000001    1    1    2    0    0 -0.38699325613E-02  0.31077789118E-02  0.35390661439E-01  0.35750994182E-01  0.10000000475E-02 0.  1.
</event>
<event>
 4   0  0.2441219E-02  0.9118800E+02  0.7818609E-02  0.1379984E+01
      -11   -1    0    0    0    0  0.00000000000E+00  0.00000000000E+00  0.35740347158E-01  0.35744000000E-01  0.51099999109E-03 0. -1.
       11   -1    0    0    0    0 -0.00000000000E+00 -0.00000000000E+00 -0.35740347158E-01  0.35744000000E-01  0.51099999109E-03 0.  1.
       22    1    1    2    0    0 -0.32590719627E-03 -0.13168969036E-01 -0.33220560259E-01  0.35737005818E-01  0.00000000000E+00 0.  1.
  9000001    1    1    2    0    0  0.32590719627E-03  0.13168969036E-01  0.33220560259E-01  0.35750994182E-01  0.10000000475E-02 0. -1.
</event>
<event>
 4   0  0.2441219E-02  0.9118800E+02  0.7818609E-02  0.1379984E+01
      -11   -1    0    0    0    0  0.00000000000E+00  0.00000000000E+00  0.35740347158E-01  0.35744000000E-01  0.51099999109E-03 0. -1.
       11   -1    0    0    0    0 -0.00000000000E+00 -0.00000000000E+00 -0.35740347158E-01  0.35744000000E-01  0.51099999109E-03 0.  1.
       22    1    1    2    0    0  0.50962372177E-02  0.47585799569E-02  0.35050219227E-01  0.35737005818E-01  0.00000000000E+00 0. -1.
  9000001    1    1    2    0    0 -0.50962372177E-02 -0.47585799569E-02 -0.35050219227E-01  0.35750994182E-01  0.10000000475E-02 0.  1.
</event>
<event>
 4   0  0.2441219E-02  0.9118800E+02  0.7818609E-02  0.1379984E+01
      -11   -1    0    0    0    0  0.00000000000E+00  0.00000000000E+00  0.35740347158E-01  0.35744000000E-01  0.51099999109E-03 0. -1.
       11   -1    0    0    0    0 -0.00000000000E+00 -0.00000000000E+00 -0.35740347158E-01  0.35744000000E-01  0.51099999109E-03 0.  1.
       22    1    1    2    0    0 -0.20353491651E-01  0.38309038872E-02  0.29123755559E-01  0.35737005818E-01  0.00000000000E+00 0. -1.
  9000001    1    1    2    0    0  0.20353491651E-01 -0.38309038872E-02 -0.29123755559E-01  0.35750994182E-01  0.10000000475E-02 0.  1.
</event>
<event>
 4   0  0.2441219E-02  0.9118800E+02  0.7818609E-02  0.1379984E+01
      -11   -1    0    0    0    0  0.00000000000E+00  0.00000000000E+00  0.35740347158E-01  0.35744000000E-01  0.51099999109E-03 0. -1.
       11   -1    0    0    0    0 -0.00000000000E+00 -0.00000000000E+00 -0.35740347158E-01  0.35744000000E-01  0.51099999109E-03 0.  1.
       22    1    1    2    0    0  0.20197923041E-01  0.12101706562E-01  0.26883567248E-01  0.35737005818E-01  0.00000000000E+00 0. -1.
  9000001    1    1    2    0    0 -0.20197923041E-01 -0.12101706562E-01 -0.26883567248E-01  0.35750994182E-01  0.10000000475E-02 0.  1.
</event>
<event>
 4   0  0.2441219E-02  0.9118800E+02  0.7818609E-02  0.1379984E+01
      -11   -1    0    0    0    0  0.00000000000E+00  0.00000000000E+00  0.35740347158E-01  0.35744000000E-01  0.51099999109E-03 0. -1.
       11   -1    0    0    0    0 -0.00000000000E+00 -0.00000000000E+00 -0.35740347158E-01  0.35744000000E-01  0.51099999109E-03 0.  1.
       22    1    1    2    0    0  0.33189521368E-02 -0.53729033704E-02  0.35174565398E-01  0.35737005818E-01  0.00000000000E+00 0. -1.
  9000001    1    1    2    0    0 -0.33189521368E-02  0.53729033704E-02 -0.35174565398E-01  0.35750994182E-01  0.10000000475E-02 0.  1.
</event>
<event>
 4   0  0.2441219E-02  0.9118800E+02  0.7818609E-02  0.1379984E+01
      -11   -1    0    0    0    0  0.00000000000E+00  0.00000000000E+00  0.35740347158E-01  0.35744000000E-01  0.51099999109E-03 0.  1.
       11   -1    0    0    0    0 -0.00000000000E+00 -0.00000000000E+00 -0.35740347158E-01  0.35744000000E-01  0.51099999109E-03 0. -1.
       22    1    1    2    0    0  0.12971699577E-01 -0.19989186728E-01  0.26632705625E-01  0.35737005818E-01  0.00000000000E+00 0.  1.
  9000001    1    1    2    0    0 -0.12971699577E-01  0.19989186728E-01 -0.26632705625E-01  0.35750994182E-01  0.10000000475E-02 0. -1.
</event>
<event>
 4   0  0.2441219E-02  0.9118800E+02  0.7818609E-02  0.1379984E+01
      -11   -1    0    0    0    0  0.00000000000E+00  0.00000000000E+00  0.35740347158E-01  0.35744000000E-01  0.51099999109E-03 0. -1.
       11   -1    0    0    0    0 -0.00000000000E+00 -0.00000000000E+00 -0.35740347158E-01  0.35744000000E-01  0.51099999109E-03 0.  1.
       22    1    1    2    0    0 -0.14783638486E-01  0.86410775785E-02  0.31367330079E-01  0.35737005818E-01  0.00000000000E+00 0. -1.
  9000001    1    1    2    0    0  0.14783638486E-01 -0.86410775785E-02 -0.31367330079E-01  0.35750994182E-01  0.10000000475E-02 0.  1.
</event>
<event>
 4   0  0.2441219E-02  0.9118800E+02  0.7818609E-02  0.1379984E+01
      -11   -1    0    0    0    0  0.00000000000E+00  0.00000000000E+00  0.35740347158E-01  0.35744000000E-01  0.51099999109E-03 0. -1.
       11   -1    0    0    0    0 -0.00000000000E+00 -0.00000000000E+00 -0.35740347158E-01  0.35744000000E-01  0.51099999109E-03 0.  1.
       22    1    1    2    0    0  0.73281254190E-02  0.33550979634E-01 -0.98875643262E-02  0.35737005818E-01  0.00000000000E+00 0.  1.
  9000001    1    1    2    0    0 -0.73281254190E-02 -0.33550979634E-01  0.98875643262E-02  0.35750994182E-01  0.10000000475E-02 0. -1.
</event>
<event>
 4   0  0.2441219E-02  0.9118800E+02  0.7818609E-02  0.1379984E+01
      -11   -1    0    0    0    0  0.00000000000E+00  0.00000000000E+00  0.35740347158E-01  0.35744000000E-01  0.51099999109E-03 0. -1.
       11   -1    0    0    0    0 -0.00000000000E+00 -0.00000000000E+00 -0.35740347158E-01  0.35744000000E-01  0.51099999109E-03 0.  1.
       22    1    1    2    0    0 -0.28434782435E-02 -0.44411929379E-02  0.35345777989E-01  0.35737005818E-01  0.00000000000E+00 0. -1.
  9000001    1    1    2    0    0  0.28434782435E-02  0.44411929379E-02 -0.35345777989E-01  0.35750994182E-01  0.10000000475E-02 0.  1.
</event>
<event>
 4   0  0.2441219E-02  0.9118800E+02  0.7818609E-02  0.1379984E+01
      -11   -1    0    0    0    0  0.00000000000E+00  0.00000000000E+00  0.35740347158E-01  0.35744000000E-01  0.51099999109E-03 0. -1.
       11   -1    0    0    0    0 -0.00000000000E+00 -0.00000000000E+00 -0.35740347158E-01  0.35744000000E-01  0.51099999109E-03 0.  1.
       22    1    1    2    0    0  0.83923339454E-02  0.10048354141E-01 -0.33252562230E-01  0.35737005818E-01  0.00000000000E+00 0.  1.
  9000001    1    1    2    0    0 -0.83923339454E-02 -0.10048354141E-01  0.33252562230E-01  0.35750994182E-01  0.10000000475E-02 0. -1.
</event>
<event>
 4   0  0.2441219E-02  0.9118800E+02  0.7818609E-02  0.1379984E+01
      -11   -1    0    0    0    0  0.00000000000E+00  0.00000000000E+00  0.35740347158E-01  0.35744000000E-01  0.51099999109E-03 0. -1.
       11   -1    0    0    0    0 -0.00000000000E+00 -0.00000000000E+00 -0.35740347158E-01  0.35744000000E-01  0.51099999109E-03 0.  1.
       22    1    1    2    0    0  0.23341433393E-01  0.20754306281E-01  0.17365766405E-01  0.35737005818E-01  0.00000000000E+00 0. -1.
  9000001    1    1    2    0    0 -0.23341433393E-01 -0.20754306281E-01 -0.17365766405E-01  0.35750994182E-01  0.10000000475E-02 0.  1.
</event>
<event>
 4   0  0.2441219E-02  0.9118800E+02  0.7818609E-02  0.1379984E+01
      -11   -1    0    0    0    0  0.00000000000E+00  0.00000000000E+00  0.35740347158E-01  0.35744000000E-01  0.51099999109E-03 0. -1.
       11   -1    0    0    0    0 -0.00000000000E+00 -0.00000000000E+00 -0.35740347158E-01  0.35744000000E-01  0.51099999109E-03 0.  1.
       22    1    1    2    0    0 -0.96935136241E-03 -0.49961329249E-02  0.35372766341E-01  0.35737005818E-01  0.00000000000E+00 0. -1.
  9000001    1    1    2    0    0  0.96935136241E-03  0.49961329249E-02 -0.35372766341E-01  0.35750994182E-01  0.10000000475E-02 0.  1.
</event>
<event>
 4   0  0.2441219E-02  0.9118800E+02  0.7818609E-02  0.1379984E+01
      -11   -1    0    0    0    0  0.00000000000E+00  0.00000000000E+00  0.35740347158E-01  0.35744000000E-01  0.51099999109E-03 0. -1.
       11   -1    0    0    0    0 -0.00000000000E+00 -0.00000000000E+00 -0.35740347158E-01  0.35744000000E-01  0.51099999109E-03 0.  1.
       22    1    1    2    0    0 -0.29884726660E-01 -0.34479667232E-02 -0.19291143637E-01  0.35737005818E-01  0.00000000000E+00 0.  1.
  9000001    1    1    2    0    0  0.29884726660E-01  0.34479667232E-02  0.19291143637E-01  0.35750994182E-01  0.10000000475E-02 0. -1.
</event>
<event>
 4   0  0.2441219E-02  0.9118800E+02  0.7818609E-02  0.1379984E+01
      -11   -1    0    0    0    0  0.00000000000E+00  0.00000000000E+00  0.35740347158E-01  0.35744000000E-01  0.51099999109E-03 0.  1.
       11   -1    0    0    0    0 -0.00000000000E+00 -0.00000000000E+00 -0.35740347158E-01  0.35744000000E-01  0.51099999109E-03 0. -1.
       22    1    1    2    0    0  0.33293956264E-02 -0.20133821914E-02 -0.35524568988E-01  0.35737005818E-01  0.00000000000E+00 0. -1.
  9000001    1    1    2    0    0 -0.33293956264E-02  0.20133821914E-02  0.35524568988E-01  0.35750994182E-01  0.10000000475E-02 0.  1.
</event>
<event>
 4   0  0.2441219E-02  0.9118800E+02  0.7818609E-02  0.1379984E+01
      -11   -1    0    0    0    0  0.00000000000E+00  0.00000000000E+00  0.35740347158E-01  0.35744000000E-01  0.51099999109E-03 0. -1.
       11   -1    0    0    0    0 -0.00000000000E+00 -0.00000000000E+00 -0.35740347158E-01  0.35744000000E-01  0.51099999109E-03 0.  1.
       22    1    1    2    0    0  0.31615759176E-01  0.49240063878E-03 -0.16653374980E-01  0.35737005818E-01  0.00000000000E+00 0.  1.
  9000001    1    1    2    0    0 -0.31615759176E-01 -0.49240063878E-03  0.16653374980E-01  0.35750994182E-01  0.10000000475E-02 0. -1.
</event>
<event>
 4   0  0.2441219E-02  0.9118800E+02  0.7818609E-02  0.1379984E+01
      -11   -1    0    0    0    0  0.00000000000E+00  0.00000000000E+00  0.35740347158E-01  0.35744000000E-01  0.51099999109E-03 0. -1.
       11   -1    0    0    0    0 -0.00000000000E+00 -0.00000000000E+00 -0.35740347158E-01  0.35744000000E-01  0.51099999109E-03 0.  1.
       22    1    1    2    0    0 -0.40166012843E-02 -0.66468644170E-02  0.34882942714E-01  0.35737005818E-01  0.00000000000E+00 0. -1.
  9000001    1    1    2    0    0  0.40166012843E-02  0.66468644170E-02 -0.34882942714E-01  0.35750994182E-01  0.10000000475E-02 0.  1.
</event>
<event>
 4   0  0.2441219E-02  0.9118800E+02  0.7818609E-02  0.1379984E+01
      -11   -1    0    0    0    0  0.00000000000E+00  0.00000000000E+00  0.35740347158E-01  0.35744000000E-01  0.51099999109E-03 0.  1.
       11   -1    0    0    0    0 -0.00000000000E+00 -0.00000000000E+00 -0.35740347158E-01  0.35744000000E-01  0.51099999109E-03 0. -1.
       22    1    1    2    0    0  0.59754516882E-03  0.61752288508E-02 -0.35194361385E-01  0.35737005818E-01  0.00000000000E+00 0. -1.
  9000001    1    1    2    0    0 -0.59754516882E-03 -0.61752288508E-02  0.35194361385E-01  0.35750994182E-01  0.10000000475E-02 0.  1.
</event>
<event>
 4   0  0.2441219E-02  0.9118800E+02  0.7818609E-02  0.1379984E+01
      -11   -1    0    0    0    0  0.00000000000E+00  0.00000000000E+00  0.35740347158E-01  0.35744000000E-01  0.51099999109E-03 0. -1.
       11   -1    0    0    0    0 -0.00000000000E+00 -0.00000000000E+00 -0.35740347158E-01  0.35744000000E-01  0.51099999109E-03 0.  1.
       22    1    1    2    0    0  0.13719479116E-01  0.11065777333E-02 -0.32980069184E-01  0.35737005818E-01  0.00000000000E+00 0.  1.
  9000001    1    1    2    0    0 -0.13719479116E-01 -0.11065777333E-02  0.32980069184E-01  0.35750994182E-01  0.10000000475E-02 0. -1.
</event>
<event>
 4   0  0.2441219E-02  0.9118800E+02  0.7818609E-02  0.1379984E+01
      -11   -1    0    0    0    0  0.00000000000E+00  0.00000000000E+00  0.35740347158E-01  0.35744000000E-01  0.51099999109E-03 0. -1.
       11   -1    0    0    0    0 -0.00000000000E+00 -0.00000000000E+00 -0.35740347158E-01  0.35744000000E-01  0.51099999109E-03 0.  1.
       22    1    1    2    0    0 -0.11193693446E-02  0.39235913618E-02  0.35503324182E-01  0.35737005818E-01  0.00000000000E+00 0. -1.
  9000001    1    1    2    0    0  0.11193693446E-02 -0.39235913618E-02 -0.35503324182E-01  0.35750994182E-01  0.10000000475E-02 0.  1.
</event>
<event>
 4   0  0.2441219E-02  0.9118800E+02  0.7818609E-02  0.1379984E+01
      -11   -1    0    0    0    0  0.00000000000E+00  0.00000000000E+00  0.35740347158E-01  0.35744000000E-01  0.51099999109E-03 0.  1.
       11   -1    0    0    0    0 -0.00000000000E+00 -0.00000000000E+00 -0.35740347158E-01  0.35744000000E-01  0.51099999109E-03 0. -1.
       22    1    1    2    0    0  0.68288514311E-02  0.10114483096E-01 -0.33588652916E-01  0.35737005818E-01  0.00000000000E+00 0. -1.
  9000001    1    1    2    0    0 -0.68288514311E-02 -0.10114483096E-01  0.33588652916E-01  0.35750994182E-01  0.10000000475E-02 0.  1.
</event>
<event>
 4   0  0.2441219E-02  0.9118800E+02  0.7818609E-02  0.1379984E+01
      -11   -1    0    0    0    0  0.00000000000E+00  0.00000000000E+00  0.35740347158E-01  0.35744000000E-01  0.51099999109E-03 0.  1.
       11   -1    0    0    0    0 -0.00000000000E+00 -0.00000000000E+00 -0.35740347158E-01  0.35744000000E-01  0.51099999109E-03 0. -1.
       22    1    1    2    0    0 -0.10481718554E-01 -0.27857432046E-01 -0.19779551078E-01  0.35737005818E-01  0.00000000000E+00 0. -1.
  9000001    1    1    2    0    0  0.10481718554E-01  0.27857432046E-01  0.19779551078E-01  0.35750994182E-01  0.10000000475E-02 0.  1.
</event>
<event>
 4   0  0.2441219E-02  0.9118800E+02  0.7818609E-02  0.1379984E+01
      -11   -1    0    0    0    0  0.00000000000E+00  0.00000000000E+00  0.35740347158E-01  0.35744000000E-01  0.51099999109E-03 0. -1.
       11   -1    0    0    0    0 -0.00000000000E+00 -0.00000000000E+00 -0.35740347158E-01  0.35744000000E-01  0.51099999109E-03 0.  1.
       22    1    1    2    0    0  0.29785193920E-01  0.19190301181E-01  0.46592004251E-02  0.35737005818E-01  0.00000000000E+00 0.  1.
  9000001    1    1    2    0    0 -0.29785193920E-01 -0.19190301181E-01 -0.46592004251E-02  0.35750994182E-01  0.10000000475E-02 0. -1.
</event>
<event>
 4   0  0.2441219E-02  0.9118800E+02  0.7818609E-02  0.1379984E+01
      -11   -1    0    0    0    0  0.00000000000E+00  0.00000000000E+00  0.35740347158E-01  0.35744000000E-01  0.51099999109E-03 0.  1.
       11   -1    0    0    0    0 -0.00000000000E+00 -0.00000000000E+00 -0.35740347158E-01  0.35744000000E-01  0.51099999109E-03 0. -1.
       22    1    1    2    0    0 -0.28538377254E-02 -0.31375827226E-02 -0.35484429963E-01  0.35737005818E-01  0.00000000000E+00 0. -1.
  9000001    1    1    2    0    0  0.28538377254E-02  0.31375827226E-02  0.35484429963E-01  0.35750994182E-01  0.10000000475E-02 0.  1.
</event>
<event>
 4   0  0.2441219E-02  0.9118800E+02  0.7818609E-02  0.1379984E+01
      -11   -1    0    0    0    0  0.00000000000E+00  0.00000000000E+00  0.35740347158E-01  0.35744000000E-01  0.51099999109E-03 0. -1.
       11   -1    0    0    0    0 -0.00000000000E+00 -0.00000000000E+00 -0.35740347158E-01  0.35744000000E-01  0.51099999109E-03 0.  1.
       22    1    1    2    0    0  0.35482869321E-03  0.86158067318E-02  0.34681054710E-01  0.35737005818E-01  0.00000000000E+00 0. -1.
  9000001    1    1    2    0    0 -0.35482869321E-03 -0.86158067318E-02 -0.34681054710E-01  0.35750994182E-01  0.10000000475E-02 0.  1.
</event>
<event>
 4   0  0.2441219E-02  0.9118800E+02  0.7818609E-02  0.1379984E+01
      -11   -1    0    0    0    0  0.00000000000E+00  0.00000000000E+00  0.35740347158E-01  0.35744000000E-01  0.51099999109E-03 0. -1.
       11   -1    0    0    0    0 -0.00000000000E+00 -0.00000000000E+00 -0.35740347158E-01  0.35744000000E-01  0.51099999109E-03 0.  1.
       22    1    1    2    0    0 -0.44696259114E-03 -0.38393863529E-02 -0.35527354556E-01  0.35737005818E-01  0.00000000000E+00 0.  1.
  9000001    1    1    2    0    0  0.44696259114E-03  0.38393863529E-02  0.35527354556E-01  0.35750994182E-01  0.10000000475E-02 0. -1.
</event>
<event>
 4   0  0.2441219E-02  0.9118800E+02  0.7818609E-02  0.1379984E+01
      -11   -1    0    0    0    0  0.00000000000E+00  0.00000000000E+00  0.35740347158E-01  0.35744000000E-01  0.51099999109E-03 0. -1.
       11   -1    0    0    0    0 -0.00000000000E+00 -0.00000000000E+00 -0.35740347158E-01  0.35744000000E-01  0.51099999109E-03 0.  1.
       22    1    1    2    0    0  0.79570738686E-02 -0.33951260544E-01 -0.78185975605E-02  0.35737005818E-01  0.00000000000E+00 0. -1.
  9000001    1    1    2    0    0 -0.79570738686E-02  0.33951260544E-01  0.78185975605E-02  0.35750994182E-01  0.10000000475E-02 0.  1.
</event>
<event>
 4   0  0.2441219E-02  0.9118800E+02  0.7818609E-02  0.1379984E+01
      -11   -1    0    0    0    0  0.00000000000E+00  0.00000000000E+00  0.35740347158E-01  0.35744000000E-01  0.51099999109E-03 0. -1.
       11   -1    0    0    0    0 -0.00000000000E+00 -0.00000000000E+00 -0.35740347158E-01  0.35744000000E-01  0.51099999109E-03 0.  1.
       22    1    1    2    0    0  0.19931976541E-02 -0.30253057521E-02  0.35552894018E-01  0.35737005818E-01  0.00000000000E+00 0. -1.
  9000001    1    1    2    0    0 -0.19931976541E-02  0.30253057521E-02 -0.35552894018E-01  0.35750994182E-01  0.10000000475E-02 0.  1.
</event>
<event>
 4   0  0.2441219E-02  0.9118800E+02  0.7818609E-02  0.1379984E+01
      -11   -1    0    0    0    0  0.00000000000E+00  0.00000000000E+00  0.35740347158E-01  0.35744000000E-01  0.51099999109E-03 0.  1.
       11   -1    0    0    0    0 -0.00000000000E+00 -0.00000000000E+00 -0.35740347158E-01  0.35744000000E-01  0.51099999109E-03 0. -1.
       22    1    1    2    0    0 -0.13076600628E-01 -0.20705991519E-01  0.26026871039E-01  0.35737005818E-01  0.00000000000E+00 0.  1.
  9000001    1    1    2    0    0  0.13076600628E-01  0.20705991519E-01 -0.26026871039E-01  0.35750994182E-01  0.10000000475E-02 0. -1.
</event>
<event>
 4   0  0.2441219E-02  0.9118800E+02  0.7818609E-02  0.1379984E+01
      -11   -1    0    0    0    0  0.00000000000E+00  0.00000000000E+00  0.35740347158E-01  0.35744000000E-01  0.51099999109E-03 0.  1.
       11   -1    0    0    0    0 -0.00000000000E+00 -0.00000000000E+00 -0.35740347158E-01  0.35744000000E-01  0.51099999109E-03 0. -1.
       22    1    1    2    0    0 -0.14742076497E-03  0.30711316942E-02 -0.35604494128E-01  0.35737005818E-01  0.00000000000E+00 0. -1.
  9000001    1    1    2    0    0  0.14742076497E-03 -0.30711316942E-02  0.35604494128E-01  0.35750994182E-01  0.10000000475E-02 0.  1.
</event>
<event>
 4   0  0.2441219E-02  0.9118800E+02  0.7818609E-02  0.1379984E+01
      -11   -1    0    0    0    0  0.00000000000E+00  0.00000000000E+00  0.35740347158E-01  0.35744000000E-01  0.51099999109E-03 0. -1.
       11   -1    0    0    0    0 -0.00000000000E+00 -0.00000000000E+00 -0.35740347158E-01  0.35744000000E-01  0.51099999109E-03 0.  1.
       22    1    1    2    0    0  0.21740653350E-01 -0.16704328586E-01  0.22922543125E-01  0.35737005818E-01  0.00000000000E+00 0. -1.
  9000001    1    1    2    0    0 -0.21740653350E-01  0.16704328586E-01 -0.22922543125E-01  0.35750994182E-01  0.10000000475E-02 0.  1.
</event>
<event>
 4   0  0.2441219E-02  0.9118800E+02  0.7818609E-02  0.1379984E+01
      -11   -1    0    0    0    0  0.00000000000E+00  0.00000000000E+00  0.35740347158E-01  0.35744000000E-01  0.51099999109E-03 0. -1.
       11   -1    0    0    0    0 -0.00000000000E+00 -0.00000000000E+00 -0.35740347158E-01  0.35744000000E-01  0.51099999109E-03 0.  1.
       22    1    1    2    0    0 -0.92282571864E-02 -0.13452007007E-01 -0.31796483480E-01  0.35737005818E-01  0.00000000000E+00 0.  1.
  9000001    1    1    2    0    0  0.92282571864E-02  0.13452007007E-01  0.31796483480E-01  0.35750994182E-01  0.10000000475E-02 0. -1.
</event>
<event>
 4   0  0.2441219E-02  0.9118800E+02  0.7818609E-02  0.1379984E+01
      -11   -1    0    0    0    0  0.00000000000E+00  0.00000000000E+00  0.35740347158E-01  0.35744000000E-01  0.51099999109E-03 0. -1.
       11   -1    0    0    0    0 -0.00000000000E+00 -0.00000000000E+00 -0.35740347158E-01  0.35744000000E-01  0.51099999109E-03 0.  1.
       22    1    1    2    0    0 -0.11205880992E-02 -0.11433614707E-01  0.33840069768E-01  0.35737005818E-01  0.00000000000E+00 0. -1.
  9000001    1    1    2    0    0  0.11205880992E-02  0.11433614707E-01 -0.33840069768E-01  0.35750994182E-01  0.10000000475E-02 0.  1.
</event>
<event>
 4   0  0.2441219E-02  0.9118800E+02  0.7818609E-02  0.1379984E+01
      -11   -1    0    0    0    0  0.00000000000E+00  0.00000000000E+00  0.35740347158E-01  0.35744000000E-01  0.51099999109E-03 0. -1.
       11   -1    0    0    0    0 -0.00000000000E+00 -0.00000000000E+00 -0.35740347158E-01  0.35744000000E-01  0.51099999109E-03 0.  1.
       22    1    1    2    0    0  0.97077145798E-02  0.82619806988E-02  0.33386127919E-01  0.35737005818E-01  0.00000000000E+00 0. -1.
  9000001    1    1    2    0    0 -0.97077145798E-02 -0.82619806988E-02 -0.33386127919E-01  0.35750994182E-01  0.10000000475E-02 0.  1.
</event>
<event>
 4   0  0.2441219E-02  0.9118800E+02  0.7818609E-02  0.1379984E+01
      -11   -1    0    0    0    0  0.00000000000E+00  0.00000000000E+00  0.35740347158E-01  0.35744000000E-01  0.51099999109E-03 0.  1.
       11   -1    0    0    0    0 -0.00000000000E+00 -0.00000000000E+00 -0.35740347158E-01  0.35744000000E-01  0.51099999109E-03 0. -1.
       22    1    1    2    0    0 -0.32612978865E-02 -0.16771495995E-01  0.31388125829E-01  0.35737005818E-01  0.00000000000E+00 0.  1.
  9000001    1    1    2    0    0  0.32612978865E-02  0.16771495995E-01 -0.31388125829E-01  0.35750994182E-01  0.10000000475E-02 0. -1.
</event>
<event>
 4   0  0.2441219E-02  0.9118800E+02  0.7818609E-02  0.1379984E+01
      -11   -1    0    0    0    0  0.00000000000E+00  0.00000000000E+00  0.35740347158E-01  0.35744000000E-01  0.51099999109E-03 0.  1.
       11   -1    0    0    0    0 -0.00000000000E+00 -0.00000000000E+00 -0.35740347158E-01  0.35744000000E-01  0.51099999109E-03 0. -1.
       22    1    1    2    0    0 -0.30634703413E-01  0.59320907571E-02 -0.17420069773E-01  0.35737005818E-01  0.00000000000E+00 0. -1.
  9000001    1    1    2    0    0  0.30634703413E-01 -0.59320907571E-02  0.17420069773E-01  0.35750994182E-01  0.10000000475E-02 0.  1.
</event>
<event>
 4   0  0.2441219E-02  0.9118800E+02  0.7818609E-02  0.1379984E+01
      -11   -1    0    0    0    0  0.00000000000E+00  0.00000000000E+00  0.35740347158E-01  0.35744000000E-01  0.51099999109E-03 0. -1.
       11   -1    0    0    0    0 -0.00000000000E+00 -0.00000000000E+00 -0.35740347158E-01  0.35744000000E-01  0.51099999109E-03 0.  1.
       22    1    1    2    0    0 -0.12174878417E-02 -0.19932310113E-01 -0.29637043068E-01  0.35737005818E-01  0.00000000000E+00 0.  1.
  9000001    1    1    2    0    0  0.12174878417E-02  0.19932310113E-01  0.29637043068E-01  0.35750994182E-01  0.10000000475E-02 0. -1.
</event>
<event>
 4   0  0.2441219E-02  0.9118800E+02  0.7818609E-02  0.1379984E+01
      -11   -1    0    0    0    0  0.00000000000E+00  0.00000000000E+00  0.35740347158E-01  0.35744000000E-01  0.51099999109E-03 0. -1.
       11   -1    0    0    0    0 -0.00000000000E+00 -0.00000000000E+00 -0.35740347158E-01  0.35744000000E-01  0.51099999109E-03 0.  1.
       22    1    1    2    0    0  0.38453591639E-03 -0.59247148926E-02 -0.35240367059E-01  0.35737005818E-01  0.00000000000E+00 0.  1.
  9000001    1    1    2    0    0 -0.38453591639E-03  0.59247148926E-02  0.35240367059E-01  0.35750994182E-01  0.10000000475E-02 0. -1.
</event>
<event>
 4   0  0.2441219E-02  0.9118800E+02  0.7818609E-02  0.1379984E+01
      -11   -1    0    0    0    0  0.00000000000E+00  0.00000000000E+00  0.35740347158E-01  0.35744000000E-01  0.51099999109E-03 0.  1.
       11   -1    0    0    0    0 -0.00000000000E+00 -0.00000000000E+00 -0.35740347158E-01  0.35744000000E-01  0.51099999109E-03 0. -1.
       22    1    1    2    0    0 -0.23603402885E-02  0.40172036722E-02  0.35431969367E-01  0.35737005818E-01  0.00000000000E+00 0.  1.
  9000001    1    1    2    0    0  0.23603402885E-02 -0.40172036722E-02 -0.35431969367E-01  0.35750994182E-01  0.10000000475E-02 0. -1.
</event>
<event>
 4   0  0.2441219E-02  0.9118800E+02  0.7818609E-02  0.1379984E+01
      -11   -1    0    0    0    0  0.00000000000E+00  0.00000000000E+00  0.35740347158E-01  0.35744000000E-01  0.51099999109E-03 0. -1.
       11   -1    0    0    0    0 -0.00000000000E+00 -0.00000000000E+00 -0.35740347158E-01  0.35744000000E-01  0.51099999109E-03 0.  1.
       22    1    1    2    0    0  0.13485172973E-01  0.13110615973E-01 -0.30387422457E-01  0.35737005818E-01  0.00000000000E+00 0.  1.
  9000001    1    1    2    0    0 -0.13485172973E-01 -0.13110615973E-01  0.30387422457E-01  0.35750994182E-01  0.10000000475E-02 0. -1.
</event>
<event>
 4   0  0.2441219E-02  0.9118800E+02  0.7818609E-02  0.1379984E+01
      -11   -1    0    0    0    0  0.00000000000E+00  0.00000000000E+00  0.35740347158E-01  0.35744000000E-01  0.51099999109E-03 0. -1.
       11   -1    0    0    0    0 -0.00000000000E+00 -0.00000000000E+00 -0.35740347158E-01  0.35744000000E-01  0.51099999109E-03 0.  1.
       22    1    1    2    0    0  0.53926966651E-02  0.32852338190E-02 -0.35174701794E-01  0.35737005818E-01  0.00000000000E+00 0.  1.
  9000001    1    1    2    0    0 -0.53926966651E-02 -0.32852338190E-02  0.35174701794E-01  0.35750994182E-01  0.10000000475E-02 0. -1.
</event>
<event>
 4   0  0.2441219E-02  0.9118800E+02  0.7818609E-02  0.1379984E+01
      -11   -1    0    0    0    0  0.00000000000E+00  0.00000000000E+00  0.35740347158E-01  0.35744000000E-01  0.51099999109E-03 0.  1.
       11   -1    0    0    0    0 -0.00000000000E+00 -0.00000000000E+00 -0.35740347158E-01  0.35744000000E-01  0.51099999109E-03 0. -1.
       22    1    1    2    0    0 -0.55255163888E-02  0.17477762484E-01 -0.30677843341E-01  0.35737005818E-01  0.00000000000E+00 0. -1.
  9000001    1    1    2    0    0  0.55255163888E-02 -0.17477762484E-01  0.30677843341E-01  0.35750994182E-01  0.10000000475E-02 0.  1.
</event>
<event>
 4   0  0.2441219E-02  0.9118800E+02  0.7818609E-02  0.1379984E+01
      -11   -1    0    0    0    0  0.00000000000E+00  0.00000000000E+00  0.35740347158E-01  0.35744000000E-01  0.51099999109E-03 0.  1.
       11   -1    0    0    0    0 -0.00000000000E+00 -0.00000000000E+00 -0.35740347158E-01  0.35744000000E-01  0.51099999109E-03 0. -1.
       22    1    1    2    0    0 -0.34909566876E-02 -0.23869973211E-03 -0.35565289662E-01  0.35737005818E-01  0.00000000000E+00 0. -1.
  9000001    1    1    2    0    0  0.34909566876E-02  0.23869973211E-03  0.35565289662E-01  0.35750994182E-01  0.10000000475E-02 0.  1.
</event>
<event>
 4   0  0.2441219E-02  0.9118800E+02  0.7818609E-02  0.1379984E+01
      -11   -1    0    0    0    0  0.00000000000E+00  0.00000000000E+00  0.35740347158E-01  0.35744000000E-01  0.51099999109E-03 0.  1.
       11   -1    0    0    0    0 -0.00000000000E+00 -0.00000000000E+00 -0.35740347158E-01  0.35744000000E-01  0.51099999109E-03 0. -1.
       22    1    1    2    0    0  0.65076701187E-02 -0.14648537036E-02 -0.35108944987E-01  0.35737005818E-01  0.00000000000E+00 0. -1.
  9000001    1    1    2    0    0 -0.65076701187E-02  0.14648537036E-02  0.35108944987E-01  0.35750994182E-01  0.10000000475E-02 0.  1.
</event>
<event>
 4   0  0.2441219E-02  0.9118800E+02  0.7818609E-02  0.1379984E+01
      -11   -1    0    0    0    0  0.00000000000E+00  0.00000000000E+00  0.35740347158E-01  0.35744000000E-01  0.51099999109E-03 0.  1.
       11   -1    0    0    0    0 -0.00000000000E+00 -0.00000000000E+00 -0.35740347158E-01  0.35744000000E-01  0.51099999109E-03 0. -1.
       22    1    1    2    0    0  0.78101345988E-03  0.40245023192E-02 -0.35501084264E-01  0.35737005818E-01  0.00000000000E+00 0. -1.
  9000001    1    1    2    0    0 -0.78101345988E-03 -0.40245023192E-02  0.35501084264E-01  0.35750994182E-01  0.10000000475E-02 0.  1.
</event>
<event>
 4   0  0.2441219E-02  0.9118800E+02  0.7818609E-02  0.1379984E+01
      -11   -1    0    0    0    0  0.00000000000E+00  0.00000000000E+00  0.35740347158E-01  0.35744000000E-01  0.51099999109E-03 0.  1.
       11   -1    0    0    0    0 -0.00000000000E+00 -0.00000000000E+00 -0.35740347158E-01  0.35744000000E-01  0.51099999109E-03 0. -1.
       22    1    1    2    0    0  0.76126672210E-02  0.42538198559E-02 -0.34656686213E-01  0.35737005818E-01  0.00000000000E+00 0. -1.
  9000001    1    1    2    0    0 -0.76126672210E-02 -0.42538198559E-02  0.34656686213E-01  0.35750994182E-01  0.10000000475E-02 0.  1.
</event>
<event>
 4   0  0.2441219E-02  0.9118800E+02  0.7818609E-02  0.1379984E+01
      -11   -1    0    0    0    0  0.00000000000E+00  0.00000000000E+00  0.35740347158E-01  0.35744000000E-01  0.51099999109E-03 0. -1.
       11   -1    0    0    0    0 -0.00000000000E+00 -0.00000000000E+00 -0.35740347158E-01  0.35744000000E-01  0.51099999109E-03 0.  1.
       22    1    1    2    0    0 -0.21254722719E-02 -0.45058907945E-02 -0.35388033297E-01  0.35737005818E-01  0.00000000000E+00 0.  1.
  9000001    1    1    2    0    0  0.21254722719E-02  0.45058907945E-02  0.35388033297E-01  0.35750994182E-01  0.10000000475E-02 0. -1.
</event>
<event>
 4   0  0.2441219E-02  0.9118800E+02  0.7818609E-02  0.1379984E+01
      -11   -1    0    0    0    0  0.00000000000E+00  0.00000000000E+00  0.35740347158E-01  0.35744000000E-01  0.51099999109E-03 0. -1.
       11   -1    0    0    0    0 -0.00000000000E+00 -0.00000000000E+00 -0.35740347158E-01  0.35744000000E-01  0.51099999109E-03 0.  1.
       22    1    1    2    0    0 -0.91324648891E-02 -0.72444882736E-02  0.33782377944E-01  0.35737005818E-01  0.00000000000E+00 0. -1.
  9000001    1    1    2    0    0  0.91324648891E-02  0.72444882736E-02 -0.33782377944E-01  0.35750994182E-01  0.10000000475E-02 0.  1.
</event>
<event>
 4   0  0.2441219E-02  0.9118800E+02  0.7818609E-02  0.1379984E+01
      -11   -1    0    0    0    0  0.00000000000E+00  0.00000000000E+00  0.35740347158E-01  0.35744000000E-01  0.51099999109E-03 0.  1.
       11   -1    0    0    0    0 -0.00000000000E+00 -0.00000000000E+00 -0.35740347158E-01  0.35744000000E-01  0.51099999109E-03 0. -1.
       22    1    1    2    0    0  0.29068078212E-02  0.77461458839E-02 -0.34766093786E-01  0.35737005818E-01  0.00000000000E+00 0. -1.
  9000001    1    1    2    0    0 -0.29068078212E-02 -0.77461458839E-02  0.34766093786E-01  0.35750994182E-01  0.10000000475E-02 0.  1.
</event>
<event>
 4   0  0.2441219E-02  0.9118800E+02  0.7818609E-02  0.1379984E+01
      -11   -1    0    0    0    0  0.00000000000E+00  0.00000000000E+00  0.35740347158E-01  0.35744000000E-01  0.51099999109E-03 0. -1.
       11   -1    0    0    0    0 -0.00000000000E+00 -0.00000000000E+00 -0.35740347158E-01  0.35744000000E-01  0.51099999109E-03 0.  1.
       22    1    1    2    0    0  0.47202107799E-02 -0.11532713471E-01 -0.33494025065E-01  0.35737005818E-01  0.00000000000E+00 0.  1.
  9000001    1    1    2    0    0 -0.47202107799E-02  0.11532713471E-01  0.33494025065E-01  0.35750994182E-01  0.10000000475E-02 0. -1.
</event>
<event>
 4   0  0.2441219E-02  0.9118800E+02  0.7818609E-02  0.1379984E+01
      -11   -1    0    0    0    0  0.00000000000E+00  0.00000000000E+00  0.35740347158E-01  0.35744000000E-01  0.51099999109E-03 0.  1.
       11   -1    0    0    0    0 -0.00000000000E+00 -0.00000000000E+00 -0.35740347158E-01  0.35744000000E-01  0.51099999109E-03 0. -1.
       22    1    1    2    0    0  0.18554763979E-02 -0.24908573816E-02 -0.35601775542E-01  0.35737005818E-01  0.00000000000E+00 0. -1.
  9000001    1    1    2    0    0 -0.18554763979E-02  0.24908573816E-02  0.35601775542E-01  0.35750994182E-01  0.10000000475E-02 0.  1.
</event>
<event>
 4   0  0.2441219E-02  0.9118800E+02  0.7818609E-02  0.1379984E+01
      -11   -1    0    0    0    0  0.00000000000E+00  0.00000000000E+00  0.35740347158E-01  0.35744000000E-01  0.51099999109E-03 0.  1.
       11   -1    0    0    0    0 -0.00000000000E+00 -0.00000000000E+00 -0.35740347158E-01  0.35744000000E-01  0.51099999109E-03 0. -1.
       22    1    1    2    0    0  0.79093907973E-02 -0.12789111654E-01 -0.32419342146E-01  0.35737005818E-01  0.00000000000E+00 0. -1.
  9000001    1    1    2    0    0 -0.79093907973E-02  0.12789111654E-01  0.32419342146E-01  0.35750994182E-01  0.10000000475E-02 0.  1.
</event>
<event>
 4   0  0.2441219E-02  0.9118800E+02  0.7818609E-02  0.1379984E+01
      -11   -1    0    0    0    0  0.00000000000E+00  0.00000000000E+00  0.35740347158E-01  0.35744000000E-01  0.51099999109E-03 0.  1.
       11   -1    0    0    0    0 -0.00000000000E+00 -0.00000000000E+00 -0.35740347158E-01  0.35744000000E-01  0.51099999109E-03 0. -1.
       22    1    1    2    0    0  0.10615862524E-02  0.10112307188E-01  0.34260003836E-01  0.35737005818E-01  0.00000000000E+00 0.  1.
  9000001    1    1    2    0    0 -0.10615862524E-02 -0.10112307188E-01 -0.34260003836E-01  0.35750994182E-01  0.10000000475E-02 0. -1.
</event>
<event>
 4   0  0.2441219E-02  0.9118800E+02  0.7818609E-02  0.1379984E+01
      -11   -1    0    0    0    0  0.00000000000E+00  0.00000000000E+00  0.35740347158E-01  0.35744000000E-01  0.51099999109E-03 0. -1.
       11   -1    0    0    0    0 -0.00000000000E+00 -0.00000000000E+00 -0.35740347158E-01  0.35744000000E-01  0.51099999109E-03 0.  1.
       22    1    1    2    0    0  0.35388627732E-02 -0.33467111275E-02  0.35403524680E-01  0.35737005818E-01  0.00000000000E+00 0. -1.
  9000001    1    1    2    0    0 -0.35388627732E-02  0.33467111275E-02 -0.35403524680E-01  0.35750994182E-01  0.10000000475E-02 0.  1.
</event>
<event>
 4   0  0.2441219E-02  0.9118800E+02  0.7818609E-02  0.1379984E+01
      -11   -1    0    0    0    0  0.00000000000E+00  0.00000000000E+00  0.35740347158E-01  0.35744000000E-01  0.51099999109E-03 0. -1.
       11   -1    0    0    0    0 -0.00000000000E+00 -0.00000000000E+00 -0.35740347158E-01  0.35744000000E-01  0.51099999109E-03 0.  1.
       22    1    1    2    0    0 -0.58410413723E-02 -0.24529496236E-02  0.35170994565E-01  0.35737005818E-01  0.00000000000E+00 0. -1.
  9000001    1    1    2    0    0  0.58410413723E-02  0.24529496236E-02 -0.35170994565E-01  0.35750994182E-01  0.10000000475E-02 0.  1.
</event>
<event>
 4   0  0.2441219E-02  0.9118800E+02  0.7818609E-02  0.1379984E+01
      -11   -1    0    0    0    0  0.00000000000E+00  0.00000000000E+00  0.35740347158E-01  0.35744000000E-01  0.51099999109E-03 0. -1.
       11   -1    0    0    0    0 -0.00000000000E+00 -0.00000000000E+00 -0.35740347158E-01  0.35744000000E-01  0.51099999109E-03 0.  1.
       22    1    1    2    0    0 -0.29865647135E-01 -0.15378525199E-01  0.12193345266E-01  0.35737005818E-01  0.00000000000E+00 0.  1.
  9000001    1    1    2    0    0  0.29865647135E-01  0.15378525199E-01 -0.12193345266E-01  0.35750994182E-01  0.10000000475E-02 0. -1.
</event>
<event>
 4   0  0.2441219E-02  0.9118800E+02  0.7818609E-02  0.1379984E+01
      -11   -1    0    0    0    0  0.00000000000E+00  0.00000000000E+00  0.35740347158E-01  0.35744000000E-01  0.51099999109E-03 0. -1.
       11   -1    0    0    0    0 -0.00000000000E+00 -0.00000000000E+00 -0.35740347158E-01  0.35744000000E-01  0.51099999109E-03 0.  1.
       22    1    1    2    0    0  0.87253537019E-03  0.27900894317E-01 -0.22313949969E-01  0.35737005818E-01  0.00000000000E+00 0.  1.
  9000001    1    1    2    0    0 -0.87253537019E-03 -0.27900894317E-01  0.22313949969E-01  0.35750994182E-01  0.10000000475E-02 0. -1.
</event>
<event>
 4   0  0.2441219E-02  0.9118800E+02  0.7818609E-02  0.1379984E+01
      -11   -1    0    0    0    0  0.00000000000E+00  0.00000000000E+00  0.35740347158E-01  0.35744000000E-01  0.51099999109E-03 0. -1.
       11   -1    0    0    0    0 -0.00000000000E+00 -0.00000000000E+00 -0.35740347158E-01  0.35744000000E-01  0.51099999109E-03 0.  1.
       22    1    1    2    0    0  0.10387262706E-02 -0.30477675614E-02 -0.35591652750E-01  0.35737005818E-01  0.00000000000E+00 0.  1.
  9000001    1    1    2    0    0 -0.10387262706E-02  0.30477675614E-02  0.35591652750E-01  0.35750994182E-01  0.10000000475E-02 0. -1.
</event>
<event>
 4   0  0.2441219E-02  0.9118800E+02  0.7818609E-02  0.1379984E+01
      -11   -1    0    0    0    0  0.00000000000E+00  0.00000000000E+00  0.35740347158E-01  0.35744000000E-01  0.51099999109E-03 0. -1.
       11   -1    0    0    0    0 -0.00000000000E+00 -0.00000000000E+00 -0.35740347158E-01  0.35744000000E-01  0.51099999109E-03 0. -1.
       22    1    1    2    0    0 -0.68357931835E-02  0.13877875528E-03 -0.35076862130E-01  0.35737005818E-01  0.00000000000E+00 0. -1.
  9000001    1    1    2    0    0  0.68357931835E-02 -0.13877875528E-03  0.35076862130E-01  0.35750994182E-01  0.10000000475E-02 0. -1.
</event>
<event>
 4   0  0.2441219E-02  0.9118800E+02  0.7818609E-02  0.1379984E+01
      -11   -1    0    0    0    0  0.00000000000E+00  0.00000000000E+00  0.35740347158E-01  0.35744000000E-01  0.51099999109E-03 0.  1.
       11   -1    0    0    0    0 -0.00000000000E+00 -0.00000000000E+00 -0.35740347158E-01  0.35744000000E-01  0.51099999109E-03 0. -1.
       22    1    1    2    0    0 -0.24491586348E-01  0.86483609132E-02  0.24545908754E-01  0.35737005818E-01  0.00000000000E+00 0.  1.
  9000001    1    1    2    0    0  0.24491586348E-01 -0.86483609132E-02 -0.24545908754E-01  0.35750994182E-01  0.10000000475E-02 0. -1.
</event>
<event>
 4   0  0.2441219E-02  0.9118800E+02  0.7818609E-02  0.1379984E+01
      -11   -1    0    0    0    0  0.00000000000E+00  0.00000000000E+00  0.35740347158E-01  0.35744000000E-01  0.51099999109E-03 0.  1.
       11   -1    0    0    0    0 -0.00000000000E+00 -0.00000000000E+00 -0.35740347158E-01  0.35744000000E-01  0.51099999109E-03 0. -1.
       22    1    1    2    0    0  0.19586435511E-02 -0.21491586483E-01  0.28485241982E-01  0.35737005818E-01  0.00000000000E+00 0.  1.
  9000001    1    1    2    0    0 -0.19586435511E-02  0.21491586483E-01 -0.28485241982E-01  0.35750994182E-01  0.10000000475E-02 0. -1.
</event>
<event>
 4   0  0.2441219E-02  0.9118800E+02  0.7818609E-02  0.1379984E+01
      -11   -1    0    0    0    0  0.00000000000E+00  0.00000000000E+00  0.35740347158E-01  0.35744000000E-01  0.51099999109E-03 0. -1.
       11   -1    0    0    0    0 -0.00000000000E+00 -0.00000000000E+00 -0.35740347158E-01  0.35744000000E-01  0.51099999109E-03 0.  1.
       22    1    1    2    0    0 -0.51420114819E-02  0.58477217049E-02  0.34878323550E-01  0.35737005818E-01  0.00000000000E+00 0. -1.
  9000001    1    1    2    0    0  0.51420114819E-02 -0.58477217049E-02 -0.34878323550E-01  0.35750994182E-01  0.10000000475E-02 0.  1.
</event>
<event>
 4   0  0.2441219E-02  0.9118800E+02  0.7818609E-02  0.1379984E+01
      -11   -1    0    0    0    0  0.00000000000E+00  0.00000000000E+00  0.35740347158E-01  0.35744000000E-01  0.51099999109E-03 0.  1.
       11   -1    0    0    0    0 -0.00000000000E+00 -0.00000000000E+00 -0.35740347158E-01  0.35744000000E-01  0.51099999109E-03 0. -1.
       22    1    1    2    0    0 -0.93642017972E-02 -0.67795740384E-02 -0.33815420823E-01  0.35737005818E-01  0.00000000000E+00 0. -1.
  9000001    1    1    2    0    0  0.93642017972E-02  0.67795740384E-02  0.33815420823E-01  0.35750994182E-01  0.10000000475E-02 0.  1.
</event>
<event>
 4   0  0.2441219E-02  0.9118800E+02  0.7818609E-02  0.1379984E+01
      -11   -1    0    0    0    0  0.00000000000E+00  0.00000000000E+00  0.35740347158E-01  0.35744000000E-01  0.51099999109E-03 0.  1.
       11   -1    0    0    0    0 -0.00000000000E+00 -0.00000000000E+00 -0.35740347158E-01  0.35744000000E-01  0.51099999109E-03 0. -1.
       22    1    1    2    0    0 -0.44759574586E-02  0.29251195338E-02  0.35334728886E-01  0.35737005818E-01  0.00000000000E+00 0.  1.
  9000001    1    1    2    0    0  0.44759574586E-02 -0.29251195338E-02 -0.35334728886E-01  0.35750994182E-01  0.10000000475E-02 0. -1.
</event>
<event>
 4   0  0.2441219E-02  0.9118800E+02  0.7818609E-02  0.1379984E+01
      -11   -1    0    0    0    0  0.00000000000E+00  0.00000000000E+00  0.35740347158E-01  0.35744000000E-01  0.51099999109E-03 0. -1.
       11   -1    0    0    0    0 -0.00000000000E+00 -0.00000000000E+00 -0.35740347158E-01  0.35744000000E-01  0.51099999109E-03 0.  1.
       22    1    1    2    0    0  0.83546223764E-02  0.72136539072E-03  0.34739221376E-01  0.35737005818E-01  0.00000000000E+00 0. -1.
  9000001    1    1    2    0    0 -0.83546223764E-02 -0.72136539072E-03 -0.34739221376E-01  0.35750994182E-01  0.10000000475E-02 0.  1.
</event>
<event>
 4   0  0.2441219E-02  0.9118800E+02  0.7818609E-02  0.1379984E+01
      -11   -1    0    0    0    0  0.00000000000E+00  0.00000000000E+00  0.35740347158E-01  0.35744000000E-01  0.51099999109E-03 0.  1.
       11   -1    0    0    0    0 -0.00000000000E+00 -0.00000000000E+00 -0.35740347158E-01  0.35744000000E-01  0.51099999109E-03 0. -1.
       22    1    1    2    0    0  0.26504721733E-01 -0.21680284655E-01 -0.10227344131E-01  0.35737005818E-01  0.00000000000E+00 0. -1.
  9000001    1    1    2    0    0 -0.26504721733E-01  0.21680284655E-01  0.10227344131E-01  0.35750994182E-01  0.10000000475E-02 0.  1.
</event>
<event>
 4   0  0.2441219E-02  0.9118800E+02  0.7818609E-02  0.1379984E+01
      -11   -1    0    0    0    0  0.00000000000E+00  0.00000000000E+00  0.35740347158E-01  0.35744000000E-01  0.51099999109E-03 0. -1.
       11   -1    0    0    0    0 -0.00000000000E+00 -0.00000000000E+00 -0.35740347158E-01  0.35744000000E-01  0.51099999109E-03 0.  1.
       22    1    1    2    0    0 -0.18364770026E-01  0.29701333116E-01  0.75960264558E-02  0.35737005818E-01  0.00000000000E+00 0. -1.
  9000001    1    1    2    0    0  0.18364770026E-01 -0.29701333116E-01 -0.75960264558E-02  0.35750994182E-01  0.10000000475E-02 0.  1.
</event>
<event>
 4   0  0.2441219E-02  0.9118800E+02  0.7818609E-02  0.1379984E+01
      -11   -1    0    0    0    0  0.00000000000E+00  0.00000000000E+00  0.35740347158E-01  0.35744000000E-01  0.51099999109E-03 0.  1.
       11   -1    0    0    0    0 -0.00000000000E+00 -0.00000000000E+00 -0.35740347158E-01  0.35744000000E-01  0.51099999109E-03 0. -1.
       22    1    1    2    0    0  0.35089479335E-03 -0.79526408590E-02  0.34839144092E-01  0.35737005818E-01  0.00000000000E+00 0.  1.
  9000001    1    1    2    0    0 -0.35089479335E-03  0.79526408590E-02 -0.34839144092E-01  0.35750994182E-01  0.10000000475E-02 0. -1.
</event>
<event>
 4   0  0.2441219E-02  0.9118800E+02  0.7818609E-02  0.1379984E+01
      -11   -1    0    0    0    0  0.00000000000E+00  0.00000000000E+00  0.35740347158E-01  0.35744000000E-01  0.51099999109E-03 0.  1.
       11   -1    0    0    0    0 -0.00000000000E+00 -0.00000000000E+00 -0.35740347158E-01  0.35744000000E-01  0.51099999109E-03 0. -1.
       22    1    1    2    0    0 -0.83713219231E-02  0.17590488812E-01  0.29960461570E-01  0.35737005818E-01  0.00000000000E+00 0.  1.
  9000001    1    1    2    0    0  0.83713219231E-02 -0.17590488812E-01 -0.29960461570E-01  0.35750994182E-01  0.10000000475E-02 0. -1.
</event>
<event>
 4   0  0.2441219E-02  0.9118800E+02  0.7818609E-02  0.1379984E+01
      -11   -1    0    0    0    0  0.00000000000E+00  0.00000000000E+00  0.35740347158E-01  0.35744000000E-01  0.51099999109E-03 0.  1.
       11   -1    0    0    0    0 -0.00000000000E+00 -0.00000000000E+00 -0.35740347158E-01  0.35744000000E-01  0.51099999109E-03 0. -1.
       22    1    1    2    0    0 -0.71431463577E-02 -0.44929204181E-02 -0.34726397900E-01  0.35737005818E-01  0.00000000000E+00 0. -1.
  9000001    1    1    2    0    0  0.71431463577E-02  0.44929204181E-02  0.34726397900E-01  0.35750994182E-01  0.10000000475E-02 0.  1.
</event>
<event>
 4   0  0.2441219E-02  0.9118800E+02  0.7818609E-02  0.1379984E+01
      -11   -1    0    0    0    0  0.00000000000E+00  0.00000000000E+00  0.35740347158E-01  0.35744000000E-01  0.51099999109E-03 0. -1.
       11   -1    0    0    0    0 -0.00000000000E+00 -0.00000000000E+00 -0.35740347158E-01  0.35744000000E-01  0.51099999109E-03 0.  1.
       22    1    1    2    0    0 -0.29012892871E-01  0.17250097491E-01  0.11739666464E-01  0.35737005818E-01  0.00000000000E+00 0. -1.
  9000001    1    1    2    0    0  0.29012892871E-01 -0.17250097491E-01 -0.11739666464E-01  0.35750994182E-01  0.10000000475E-02 0.  1.
</event>
<event>
 4   0  0.2441219E-02  0.9118800E+02  0.7818609E-02  0.1379984E+01
      -11   -1    0    0    0    0  0.00000000000E+00  0.00000000000E+00  0.35740347158E-01  0.35744000000E-01  0.51099999109E-03 0. -1.
       11   -1    0    0    0    0 -0.00000000000E+00 -0.00000000000E+00 -0.35740347158E-01  0.35744000000E-01  0.51099999109E-03 0.  1.
       22    1    1    2    0    0  0.86889713444E-02 -0.26281436161E-02 -0.34564840850E-01  0.35737005818E-01  0.00000000000E+00 0.  1.
  9000001    1    1    2    0    0 -0.86889713444E-02  0.26281436161E-02  0.34564840850E-01  0.35750994182E-01  0.10000000475E-02 0. -1.
</event>
<event>
 4   0  0.2441219E-02  0.9118800E+02  0.7818609E-02  0.1379984E+01
      -11   -1    0    0    0    0  0.00000000000E+00  0.00000000000E+00  0.35740347158E-01  0.35744000000E-01  0.51099999109E-03 0. -1.
       11   -1    0    0    0    0 -0.00000000000E+00 -0.00000000000E+00 -0.35740347158E-01  0.35744000000E-01  0.51099999109E-03 0.  1.
       22    1    1    2    0    0 -0.89099318911E-03 -0.42276794137E-02  0.35474870582E-01  0.35737005818E-01  0.00000000000E+00 0. -1.
  9000001    1    1    2    0    0  0.89099318911E-03  0.42276794137E-02 -0.35474870582E-01  0.35750994182E-01  0.10000000475E-02 0.  1.
</event>
<event>
 4   0  0.2441219E-02  0.9118800E+02  0.7818609E-02  0.1379984E+01
      -11   -1    0    0    0    0  0.00000000000E+00  0.00000000000E+00  0.35740347158E-01  0.35744000000E-01  0.51099999109E-03 0.  1.
       11   -1    0    0    0    0 -0.00000000000E+00 -0.00000000000E+00 -0.35740347158E-01  0.35744000000E-01  0.51099999109E-03 0. -1.
       22    1    1    2    0    0  0.50674755257E-02 -0.25180567897E-02  0.35286168206E-01  0.35737005818E-01  0.00000000000E+00 0.  1.
  9000001    1    1    2    0    0 -0.50674755257E-02  0.25180567897E-02 -0.35286168206E-01  0.35750994182E-01  0.10000000475E-02 0. -1.
</event>
<event>
 4   0  0.2441219E-02  0.9118800E+02  0.7818609E-02  0.1379984E+01
      -11   -1    0    0    0    0  0.00000000000E+00  0.00000000000E+00  0.35740347158E-01  0.35744000000E-01  0.51099999109E-03 0. -1.
       11   -1    0    0    0    0 -0.00000000000E+00 -0.00000000000E+00 -0.35740347158E-01  0.35744000000E-01  0.51099999109E-03 0.  1.
       22    1    1    2    0    0 -0.60488418939E-03  0.39615022290E-02 -0.35511606554E-01  0.35737005818E-01  0.00000000000E+00 0.  1.
  9000001    1    1    2    0    0  0.60488418939E-03 -0.39615022290E-02  0.35511606554E-01  0.35750994182E-01  0.10000000475E-02 0. -1.
</event>
<event>
 4   0  0.2441219E-02  0.9118800E+02  0.7818609E-02  0.1379984E+01
      -11   -1    0    0    0    0  0.00000000000E+00  0.00000000000E+00  0.35740347158E-01  0.35744000000E-01  0.51099999109E-03 0. -1.
       11   -1    0    0    0    0 -0.00000000000E+00 -0.00000000000E+00 -0.35740347158E-01  0.35744000000E-01  0.51099999109E-03 0.  1.
       22    1    1    2    0    0 -0.27998341838E-02  0.38110679690E-02  0.35422736686E-01  0.35737005818E-01  0.00000000000E+00 0. -1.
  9000001    1    1    2    0    0  0.27998341838E-02 -0.38110679690E-02 -0.35422736686E-01  0.35750994182E-01  0.10000000475E-02 0.  1.
</event>
<event>
 4   0  0.2441219E-02  0.9118800E+02  0.7818609E-02  0.1379984E+01
      -11   -1    0    0    0    0  0.00000000000E+00  0.00000000000E+00  0.35740347158E-01  0.35744000000E-01  0.51099999109E-03 0. -1.
       11   -1    0    0    0    0 -0.00000000000E+00 -0.00000000000E+00 -0.35740347158E-01  0.35744000000E-01  0.51099999109E-03 0.  1.
       22    1    1    2    0    0 -0.19296572180E-01 -0.13621859253E-03  0.30079184355E-01  0.35737005818E-01  0.00000000000E+00 0. -1.
  9000001    1    1    2    0    0  0.19296572180E-01  0.13621859253E-03 -0.30079184355E-01  0.35750994182E-01  0.10000000475E-02 0.  1.
</event>
<event>
 4   0  0.2441219E-02  0.9118800E+02  0.7818609E-02  0.1379984E+01
      -11   -1    0    0    0    0  0.00000000000E+00  0.00000000000E+00  0.35740347158E-01  0.35744000000E-01  0.51099999109E-03 0.  1.
       11   -1    0    0    0    0 -0.00000000000E+00 -0.00000000000E+00 -0.35740347158E-01  0.35744000000E-01  0.51099999109E-03 0. -1.
       22    1    1    2    0    0 -0.17060456810E-02  0.34613469986E-01  0.87252901708E-02  0.35737005818E-01  0.00000000000E+00 0.  1.
  9000001    1    1    2    0    0  0.17060456810E-02 -0.34613469986E-01 -0.87252901708E-02  0.35750994182E-01  0.10000000475E-02 0. -1.
</event>
<event>
 4   0  0.2441219E-02  0.9118800E+02  0.7818609E-02  0.1379984E+01
      -11   -1    0    0    0    0  0.00000000000E+00  0.00000000000E+00  0.35740347158E-01  0.35744000000E-01  0.51099999109E-03 0. -1.
       11   -1    0    0    0    0 -0.00000000000E+00 -0.00000000000E+00 -0.35740347158E-01  0.35744000000E-01  0.51099999109E-03 0.  1.
       22    1    1    2    0    0  0.37834751507E-02 -0.14499832272E-02 -0.35506569101E-01  0.35737005818E-01  0.00000000000E+00 0.  1.
  9000001    1    1    2    0    0 -0.37834751507E-02  0.14499832272E-02  0.35506569101E-01  0.35750994182E-01  0.10000000475E-02 0. -1.
</event>
<event>
 4   0  0.2441219E-02  0.9118800E+02  0.7818609E-02  0.1379984E+01
      -11   -1    0    0    0    0  0.00000000000E+00  0.00000000000E+00  0.35740347158E-01  0.35744000000E-01  0.51099999109E-03 0. -1.
       11   -1    0    0    0    0 -0.00000000000E+00 -0.00000000000E+00 -0.35740347158E-01  0.35744000000E-01  0.51099999109E-03 0.  1.
       22    1    1    2    0    0  0.31774908803E-02  0.13623415541E-03 -0.35595204408E-01  0.35737005818E-01  0.00000000000E+00 0.  1.
  9000001    1    1    2    0    0 -0.31774908803E-02 -0.13623415541E-03  0.35595204408E-01  0.35750994182E-01  0.10000000475E-02 0. -1.
</event>
<event>
 4   0  0.2441219E-02  0.9118800E+02  0.7818609E-02  0.1379984E+01
      -11   -1    0    0    0    0  0.00000000000E+00  0.00000000000E+00  0.35740347158E-01  0.35744000000E-01  0.51099999109E-03 0. -1.
       11   -1    0    0    0    0 -0.00000000000E+00 -0.00000000000E+00 -0.35740347158E-01  0.35744000000E-01  0.51099999109E-03 0.  1.
       22    1    1    2    0    0 -0.55430130549E-03 -0.68751582343E-02 -0.35065061446E-01  0.35737005818E-01  0.00000000000E+00 0.  1.
  9000001    1    1    2    0    0  0.55430130549E-03  0.68751582343E-02  0.35065061446E-01  0.35750994182E-01  0.10000000475E-02 0. -1.
</event>
<event>
 4   0  0.2441219E-02  0.9118800E+02  0.7818609E-02  0.1379984E+01
      -11   -1    0    0    0    0  0.00000000000E+00  0.00000000000E+00  0.35740347158E-01  0.35744000000E-01  0.51099999109E-03 0.  1.
       11   -1    0    0    0    0 -0.00000000000E+00 -0.00000000000E+00 -0.35740347158E-01  0.35744000000E-01  0.51099999109E-03 0. -1.
       22    1    1    2    0    0  0.23781734188E-01 -0.26602510978E-01 -0.19670062482E-02  0.35737005818E-01  0.00000000000E+00 0. -1.
  9000001    1    1    2    0    0 -0.23781734188E-01  0.26602510978E-01  0.19670062482E-02  0.35750994182E-01  0.10000000475E-02 0.  1.
</event>
<event>
 4   0  0.2441219E-02  0.9118800E+02  0.7818609E-02  0.1379984E+01
      -11   -1    0    0    0    0  0.00000000000E+00  0.00000000000E+00  0.35740347158E-01  0.35744000000E-01  0.51099999109E-03 0. -1.
       11   -1    0    0    0    0 -0.00000000000E+00 -0.00000000000E+00 -0.35740347158E-01  0.35744000000E-01  0.51099999109E-03 0.  1.
       22    1    1    2    0    0  0.10348640865E-01  0.47672030738E-02 -0.33872008975E-01  0.35737005818E-01  0.00000000000E+00 0.  1.
  9000001    1    1    2    0    0 -0.10348640865E-01 -0.47672030738E-02  0.33872008975E-01  0.35750994182E-01  0.10000000475E-02 0. -1.
</event>
<event>
 4   0  0.2441219E-02  0.9118800E+02  0.7818609E-02  0.1379984E+01
      -11   -1    0    0    0    0  0.00000000000E+00  0.00000000000E+00  0.35740347158E-01  0.35744000000E-01  0.51099999109E-03 0.  1.
       11   -1    0    0    0    0 -0.00000000000E+00 -0.00000000000E+00 -0.35740347158E-01  0.35744000000E-01  0.51099999109E-03 0. -1.
       22    1    1    2    0    0  0.11495189869E-01  0.32526606330E-01  0.93281335449E-02  0.35737005818E-01  0.00000000000E+00 0. -1.
  9000001    1    1    2    0    0 -0.11495189869E-01 -0.32526606330E-01 -0.93281335449E-02  0.35750994182E-01  0.10000000475E-02 0.  1.
</event>
<event>
 4   0  0.2441219E-02  0.9118800E+02  0.7818609E-02  0.1379984E+01
      -11   -1    0    0    0    0  0.00000000000E+00  0.00000000000E+00  0.35740347158E-01  0.35744000000E-01  0.51099999109E-03 0.  1.
       11   -1    0    0    0    0 -0.00000000000E+00 -0.00000000000E+00 -0.35740347158E-01  0.35744000000E-01  0.51099999109E-03 0. -1.
       22    1    1    2    0    0  0.53253611540E-02  0.87067611045E-02 -0.34248597410E-01  0.35737005818E-01  0.00000000000E+00 0. -1.
  9000001    1    1    2    0    0 -0.53253611540E-02 -0.87067611045E-02  0.34248597410E-01  0.35750994182E-01  0.10000000475E-02 0.  1.
</event>
<event>
 4   0  0.2441219E-02  0.9118800E+02  0.7818609E-02  0.1379984E+01
      -11   -1    0    0    0    0  0.00000000000E+00  0.00000000000E+00  0.35740347158E-01  0.35744000000E-01  0.51099999109E-03 0.  1.
       11   -1    0    0    0    0 -0.00000000000E+00 -0.00000000000E+00 -0.35740347158E-01  0.35744000000E-01  0.51099999109E-03 0. -1.
       22    1    1    2    0    0  0.11796091676E-03 -0.71020154951E-02  0.35024006710E-01  0.35737005818E-01  0.00000000000E+00 0.  1.
  9000001    1    1    2    0    0 -0.11796091676E-03  0.71020154951E-02 -0.35024006710E-01  0.35750994182E-01  0.10000000475E-02 0. -1.
</event>
<event>
 4   0  0.2441219E-02  0.9118800E+02  0.7818609E-02  0.1379984E+01
      -11   -1    0    0    0    0  0.00000000000E+00  0.00000000000E+00  0.35740347158E-01  0.35744000000E-01  0.51099999109E-03 0. -1.
       11   -1    0    0    0    0 -0.00000000000E+00 -0.00000000000E+00 -0.35740347158E-01  0.35744000000E-01  0.51099999109E-03 0.  1.
       22    1    1    2    0    0 -0.12855199351E-01  0.11165323971E-01 -0.31419945498E-01  0.35737005818E-01  0.00000000000E+00 0.  1.
  9000001    1    1    2    0    0  0.12855199351E-01 -0.11165323971E-01  0.31419945498E-01  0.35750994182E-01  0.10000000475E-02 0. -1.
</event>
<event>
 4   0  0.2441219E-02  0.9118800E+02  0.7818609E-02  0.1379984E+01
      -11   -1    0    0    0    0  0.00000000000E+00  0.00000000000E+00  0.35740347158E-01  0.35744000000E-01  0.51099999109E-03 0.  1.
       11   -1    0    0    0    0 -0.00000000000E+00 -0.00000000000E+00 -0.35740347158E-01  0.35744000000E-01  0.51099999109E-03 0. -1.
       22    1    1    2    0    0  0.12488099177E-01 -0.58277493151E-02  0.32972993521E-01  0.35737005818E-01  0.00000000000E+00 0.  1.
  9000001    1    1    2    0    0 -0.12488099177E-01  0.58277493151E-02 -0.32972993521E-01  0.35750994182E-01  0.10000000475E-02 0. -1.
</event>
<event>
 4   0  0.2441219E-02  0.9118800E+02  0.7818609E-02  0.1379984E+01
      -11   -1    0    0    0    0  0.00000000000E+00  0.00000000000E+00  0.35740347158E-01  0.35744000000E-01  0.51099999109E-03 0.  1.
       11   -1    0    0    0    0 -0.00000000000E+00 -0.00000000000E+00 -0.35740347158E-01  0.35744000000E-01  0.51099999109E-03 0. -1.
       22    1    1    2    0    0  0.30093578282E-01 -0.12353576125E-01  0.14795245451E-01  0.35737005818E-01  0.00000000000E+00 0.  1.
  9000001    1    1    2    0    0 -0.30093578282E-01  0.12353576125E-01 -0.14795245451E-01  0.35750994182E-01  0.10000000475E-02 0. -1.
</event>
<event>
 4   0  0.2441219E-02  0.9118800E+02  0.7818609E-02  0.1379984E+01
      -11   -1    0    0    0    0  0.00000000000E+00  0.00000000000E+00  0.35740347158E-01  0.35744000000E-01  0.51099999109E-03 0.  1.
       11   -1    0    0    0    0 -0.00000000000E+00 -0.00000000000E+00 -0.35740347158E-01  0.35744000000E-01  0.51099999109E-03 0. -1.
       22    1    1    2    0    0 -0.88466986701E-03 -0.27676118647E-01 -0.22591666621E-01  0.35737005818E-01  0.00000000000E+00 0. -1.
  9000001    1    1    2    0    0  0.88466986701E-03  0.27676118647E-01  0.22591666621E-01  0.35750994182E-01  0.10000000475E-02 0.  1.
</event>
<event>
 4   0  0.2441219E-02  0.9118800E+02  0.7818609E-02  0.1379984E+01
      -11   -1    0    0    0    0  0.00000000000E+00  0.00000000000E+00  0.35740347158E-01  0.35744000000E-01  0.51099999109E-03 0.  1.
       11   -1    0    0    0    0 -0.00000000000E+00 -0.00000000000E+00 -0.35740347158E-01  0.35744000000E-01  0.51099999109E-03 0. -1.
       22    1    1    2    0    0  0.40740171385E-02  0.27667246227E-01  0.22249931583E-01  0.35737005818E-01  0.00000000000E+00 0.  1.
  9000001    1    1    2    0    0 -0.40740171385E-02 -0.27667246227E-01 -0.22249931583E-01  0.35750994182E-01  0.10000000475E-02 0. -1.
</event>
<event>
 4   0  0.2441219E-02  0.9118800E+02  0.7818609E-02  0.1379984E+01
      -11   -1    0    0    0    0  0.00000000000E+00  0.00000000000E+00  0.35740347158E-01  0.35744000000E-01  0.51099999109E-03 0. -1.
       11   -1    0    0    0    0 -0.00000000000E+00 -0.00000000000E+00 -0.35740347158E-01  0.35744000000E-01  0.51099999109E-03 0.  1.
       22    1    1    2    0    0  0.56851423640E-04 -0.39429177220E-02  0.35518780281E-01  0.35737005818E-01  0.00000000000E+00 0. -1.
  9000001    1    1    2    0    0 -0.56851423640E-04  0.39429177220E-02 -0.35518780281E-01  0.35750994182E-01  0.10000000475E-02 0.  1.
</event>
<event>
 4   0  0.2441219E-02  0.9118800E+02  0.7818609E-02  0.1379984E+01
      -11   -1    0    0    0    0  0.00000000000E+00  0.00000000000E+00  0.35740347158E-01  0.35744000000E-01  0.51099999109E-03 0.  1.
       11   -1    0    0    0    0 -0.00000000000E+00 -0.00000000000E+00 -0.35740347158E-01  0.35744000000E-01  0.51099999109E-03 0. -1.
       22    1    1    2    0    0  0.58405020010E-02 -0.19562358028E-02 -0.35202205367E-01  0.35737005818E-01  0.00000000000E+00 0. -1.
  9000001    1    1    2    0    0 -0.58405020010E-02  0.19562358028E-02  0.35202205367E-01  0.35750994182E-01  0.10000000475E-02 0.  1.
</event>
<event>
 4   0  0.2441219E-02  0.9118800E+02  0.7818609E-02  0.1379984E+01
      -11   -1    0    0    0    0  0.00000000000E+00  0.00000000000E+00  0.35740347158E-01  0.35744000000E-01  0.51099999109E-03 0. -1.
       11   -1    0    0    0    0 -0.00000000000E+00 -0.00000000000E+00 -0.35740347158E-01  0.35744000000E-01  0.51099999109E-03 0.  1.
       22    1    1    2    0    0  0.23743951067E-01 -0.12203898611E-01  0.23757593129E-01  0.35737005818E-01  0.00000000000E+00 0. -1.
  9000001    1    1    2    0    0 -0.23743951067E-01  0.12203898611E-01 -0.23757593129E-01  0.35750994182E-01  0.10000000475E-02 0.  1.
</event>
<event>
 4   0  0.2441219E-02  0.9118800E+02  0.7818609E-02  0.1379984E+01
      -11   -1    0    0    0    0  0.00000000000E+00  0.00000000000E+00  0.35740347158E-01  0.35744000000E-01  0.51099999109E-03 0. -1.
       11   -1    0    0    0    0 -0.00000000000E+00 -0.00000000000E+00 -0.35740347158E-01  0.35744000000E-01  0.51099999109E-03 0.  1.
       22    1    1    2    0    0  0.24063931582E-02  0.38697570781E-02  0.35445279474E-01  0.35737005818E-01  0.00000000000E+00 0. -1.
  9000001    1    1    2    0    0 -0.24063931582E-02 -0.38697570781E-02 -0.35445279474E-01  0.35750994182E-01  0.10000000475E-02 0.  1.
</event>
<event>
 4   0  0.2441219E-02  0.9118800E+02  0.7818609E-02  0.1379984E+01
      -11   -1    0    0    0    0  0.00000000000E+00  0.00000000000E+00  0.35740347158E-01  0.35744000000E-01  0.51099999109E-03 0. -1.
       11   -1    0    0    0    0 -0.00000000000E+00 -0.00000000000E+00 -0.35740347158E-01  0.35744000000E-01  0.51099999109E-03 0.  1.
       22    1    1    2    0    0 -0.27242861673E-02 -0.12477438291E-01 -0.33377018792E-01  0.35737005818E-01  0.00000000000E+00 0.  1.
  9000001    1    1    2    0    0  0.27242861673E-02  0.12477438291E-01  0.33377018792E-01  0.35750994182E-01  0.10000000475E-02 0. -1.
</event>
<event>
 4   0  0.2441219E-02  0.9118800E+02  0.7818609E-02  0.1379984E+01
      -11   -1    0    0    0    0  0.00000000000E+00  0.00000000000E+00  0.35740347158E-01  0.35744000000E-01  0.51099999109E-03 0.  1.
       11   -1    0    0    0    0 -0.00000000000E+00 -0.00000000000E+00 -0.35740347158E-01  0.35744000000E-01  0.51099999109E-03 0. -1.
       22    1    1    2    0    0 -0.14699526566E-01 -0.51295677291E-02 -0.32167453093E-01  0.35737005818E-01  0.00000000000E+00 0. -1.
  9000001    1    1    2    0    0  0.14699526566E-01  0.51295677291E-02  0.32167453093E-01  0.35750994182E-01  0.10000000475E-02 0.  1.
</event>
<event>
 4   0  0.2441219E-02  0.9118800E+02  0.7818609E-02  0.1379984E+01
      -11   -1    0    0    0    0  0.00000000000E+00  0.00000000000E+00  0.35740347158E-01  0.35744000000E-01  0.51099999109E-03 0. -1.
       11   -1    0    0    0    0 -0.00000000000E+00 -0.00000000000E+00 -0.35740347158E-01  0.35744000000E-01  0.51099999109E-03 0.  1.
       22    1    1    2    0    0 -0.14462268901E-01 -0.17215153484E-01 -0.27777956253E-01  0.35737005818E-01  0.00000000000E+00 0.  1.
  9000001    1    1    2    0    0  0.14462268901E-01  0.17215153484E-01  0.27777956253E-01  0.35750994182E-01  0.10000000475E-02 0. -1.
</event>
<event>
 4   0  0.2441219E-02  0.9118800E+02  0.7818609E-02  0.1379984E+01
      -11   -1    0    0    0    0  0.00000000000E+00  0.00000000000E+00  0.35740347158E-01  0.35744000000E-01  0.51099999109E-03 0.  1.
       11   -1    0    0    0    0 -0.00000000000E+00 -0.00000000000E+00 -0.35740347158E-01  0.35744000000E-01  0.51099999109E-03 0. -1.
       22    1    1    2    0    0  0.58121244102E-02 -0.53760512270E-02 -0.34848972265E-01  0.35737005818E-01  0.00000000000E+00 0. -1.
  9000001    1    1    2    0    0 -0.58121244102E-02  0.53760512270E-02  0.34848972265E-01  0.35750994182E-01  0.10000000475E-02 0.  1.
</event>
<event>
 4   0  0.2441219E-02  0.9118800E+02  0.7818609E-02  0.1379984E+01
      -11   -1    0    0    0    0  0.00000000000E+00  0.00000000000E+00  0.35740347158E-01  0.35744000000E-01  0.51099999109E-03 0.  1.
       11   -1    0    0    0    0 -0.00000000000E+00 -0.00000000000E+00 -0.35740347158E-01  0.35744000000E-01  0.51099999109E-03 0. -1.
       22    1    1    2    0    0 -0.15564555908E-01 -0.12986322181E-01 -0.29431847045E-01  0.35737005818E-01  0.00000000000E+00 0. -1.
  9000001    1    1    2    0    0  0.15564555908E-01  0.12986322181E-01  0.29431847045E-01  0.35750994182E-01  0.10000000475E-02 0.  1.
</event>
<event>
 4   0  0.2441219E-02  0.9118800E+02  0.7818609E-02  0.1379984E+01
      -11   -1    0    0    0    0  0.00000000000E+00  0.00000000000E+00  0.35740347158E-01  0.35744000000E-01  0.51099999109E-03 0. -1.
       11   -1    0    0    0    0 -0.00000000000E+00 -0.00000000000E+00 -0.35740347158E-01  0.35744000000E-01  0.51099999109E-03 0.  1.
       22    1    1    2    0    0  0.34697507965E-02 -0.44929528828E-03 -0.35565327891E-01  0.35737005818E-01  0.00000000000E+00 0.  1.
  9000001    1    1    2    0    0 -0.34697507965E-02  0.44929528828E-03  0.35565327891E-01  0.35750994182E-01  0.10000000475E-02 0. -1.
</event>
<event>
 4   0  0.2441219E-02  0.9118800E+02  0.7818609E-02  0.1379984E+01
      -11   -1    0    0    0    0  0.00000000000E+00  0.00000000000E+00  0.35740347158E-01  0.35744000000E-01  0.51099999109E-03 0.  1.
       11   -1    0    0    0    0 -0.00000000000E+00 -0.00000000000E+00 -0.35740347158E-01  0.35744000000E-01  0.51099999109E-03 0. -1.
       22    1    1    2    0    0  0.52974768781E-02 -0.68436152041E-02 -0.34673264261E-01  0.35737005818E-01  0.00000000000E+00 0. -1.
  9000001    1    1    2    0    0 -0.52974768781E-02  0.68436152041E-02  0.34673264261E-01  0.35750994182E-01  0.10000000475E-02 0.  1.
</event>
<event>
 4   0  0.2441219E-02  0.9118800E+02  0.7818609E-02  0.1379984E+01
      -11   -1    0    0    0    0  0.00000000000E+00  0.00000000000E+00  0.35740347158E-01  0.35744000000E-01  0.51099999109E-03 0. -1.
       11   -1    0    0    0    0 -0.00000000000E+00 -0.00000000000E+00 -0.35740347158E-01  0.35744000000E-01  0.51099999109E-03 0.  1.
       22    1    1    2    0    0  0.82050275994E-02 -0.10916205734E-01  0.33024953586E-01  0.35737005818E-01  0.00000000000E+00 0. -1.
  9000001    1    1    2    0    0 -0.82050275994E-02  0.10916205734E-01 -0.33024953586E-01  0.35750994182E-01  0.10000000475E-02 0.  1.
</event>
<event>
 4   0  0.2441219E-02  0.9118800E+02  0.7818609E-02  0.1379984E+01
      -11   -1    0    0    0    0  0.00000000000E+00  0.00000000000E+00  0.35740347158E-01  0.35744000000E-01  0.51099999109E-03 0. -1.
       11   -1    0    0    0    0 -0.00000000000E+00 -0.00000000000E+00 -0.35740347158E-01  0.35744000000E-01  0.51099999109E-03 0.  1.
       22    1    1    2    0    0 -0.99902987475E-02 -0.19644069613E-02 -0.34255928262E-01  0.35737005818E-01  0.00000000000E+00 0.  1.
  9000001    1    1    2    0    0  0.99902987475E-02  0.19644069613E-02  0.34255928262E-01  0.35750994182E-01  0.10000000475E-02 0. -1.
</event>
<event>
 4   0  0.2441219E-02  0.9118800E+02  0.7818609E-02  0.1379984E+01
      -11   -1    0    0    0    0  0.00000000000E+00  0.00000000000E+00  0.35740347158E-01  0.35744000000E-01  0.51099999109E-03 0. -1.
       11   -1    0    0    0    0 -0.00000000000E+00 -0.00000000000E+00 -0.35740347158E-01  0.35744000000E-01  0.51099999109E-03 0. -1.
       22    1    1    2    0    0 -0.28998290502E-03 -0.46776851734E-02  0.35428360902E-01  0.35737005818E-01  0.00000000000E+00 0. -1.
  9000001    1    1    2    0    0  0.28998290502E-03  0.46776851734E-02 -0.35428360902E-01  0.35750994182E-01  0.10000000475E-02 0. -1.
</event>
<event>
 4   0  0.2441219E-02  0.9118800E+02  0.7818609E-02  0.1379984E+01
      -11   -1    0    0    0    0  0.00000000000E+00  0.00000000000E+00  0.35740347158E-01  0.35744000000E-01  0.51099999109E-03 0.  1.
       11   -1    0    0    0    0 -0.00000000000E+00 -0.00000000000E+00 -0.35740347158E-01  0.35744000000E-01  0.51099999109E-03 0. -1.
       22    1    1    2    0    0  0.73173360372E-03 -0.41772156790E-02 -0.35484489851E-01  0.35737005818E-01  0.00000000000E+00 0. -1.
  9000001    1    1    2    0    0 -0.73173360372E-03  0.41772156790E-02  0.35484489851E-01  0.35750994182E-01  0.10000000475E-02 0.  1.
</event>
<event>
 4   0  0.2441219E-02  0.9118800E+02  0.7818609E-02  0.1379984E+01
      -11   -1    0    0    0    0  0.00000000000E+00  0.00000000000E+00  0.35740347158E-01  0.35744000000E-01  0.51099999109E-03 0. -1.
       11   -1    0    0    0    0 -0.00000000000E+00 -0.00000000000E+00 -0.35740347158E-01  0.35744000000E-01  0.51099999109E-03 0.  1.
       22    1    1    2    0    0  0.41103013158E-02 -0.47012696938E-02 -0.35187171970E-01  0.35737005818E-01  0.00000000000E+00 0.  1.
  9000001    1    1    2    0    0 -0.41103013158E-02  0.47012696938E-02  0.35187171970E-01  0.35750994182E-01  0.10000000475E-02 0. -1.
</event>
<event>
 4   0  0.2441219E-02  0.9118800E+02  0.7818609E-02  0.1379984E+01
      -11   -1    0    0    0    0  0.00000000000E+00  0.00000000000E+00  0.35740347158E-01  0.35744000000E-01  0.51099999109E-03 0.  1.
       11   -1    0    0    0    0 -0.00000000000E+00 -0.00000000000E+00 -0.35740347158E-01  0.35744000000E-01  0.51099999109E-03 0. -1.
       22    1    1    2    0    0 -0.33175538385E-01  0.37086288659E-02  0.12757872458E-01  0.35737005818E-01  0.00000000000E+00 0. -1.
  9000001    1    1    2    0    0  0.33175538385E-01 -0.37086288659E-02 -0.12757872458E-01  0.35750994182E-01  0.10000000475E-02 0.  1.
</event>
<event>
 4   0  0.2441219E-02  0.9118800E+02  0.7818609E-02  0.1379984E+01
      -11   -1    0    0    0    0  0.00000000000E+00  0.00000000000E+00  0.35740347158E-01  0.35744000000E-01  0.51099999109E-03 0.  1.
       11   -1    0    0    0    0 -0.00000000000E+00 -0.00000000000E+00 -0.35740347158E-01  0.35744000000E-01  0.51099999109E-03 0. -1.
       22    1    1    2    0    0 -0.58310144260E-02  0.35427626302E-02 -0.35079647783E-01  0.35737005818E-01  0.00000000000E+00 0. -1.
  9000001    1    1    2    0    0  0.58310144260E-02 -0.35427626302E-02  0.35079647783E-01  0.35750994182E-01  0.10000000475E-02 0.  1.
</event>
<event>
 4   0  0.2441219E-02  0.9118800E+02  0.7818609E-02  0.1379984E+01
      -11   -1    0    0    0    0  0.00000000000E+00  0.00000000000E+00  0.35740347158E-01  0.35744000000E-01  0.51099999109E-03 0.  1.
       11   -1    0    0    0    0 -0.00000000000E+00 -0.00000000000E+00 -0.35740347158E-01  0.35744000000E-01  0.51099999109E-03 0. -1.
       22    1    1    2    0    0  0.28104629053E-02 -0.10724196928E-01  0.33973908862E-01  0.35737005818E-01  0.00000000000E+00 0.  1.
  9000001    1    1    2    0    0 -0.28104629053E-02  0.10724196928E-01 -0.33973908862E-01  0.35750994182E-01  0.10000000475E-02 0. -1.
</event>
<event>
 4   0  0.2441219E-02  0.9118800E+02  0.7818609E-02  0.1379984E+01
      -11   -1    0    0    0    0  0.00000000000E+00  0.00000000000E+00  0.35740347158E-01  0.35744000000E-01  0.51099999109E-03 0.  1.
       11   -1    0    0    0    0 -0.00000000000E+00 -0.00000000000E+00 -0.35740347158E-01  0.35744000000E-01  0.51099999109E-03 0. -1.
       22    1    1    2    0    0  0.22365110782E-01  0.15400217842E-01  0.23232922653E-01  0.35737005818E-01  0.00000000000E+00 0.  1.
  9000001    1    1    2    0    0 -0.22365110782E-01 -0.15400217842E-01 -0.23232922653E-01  0.35750994182E-01  0.10000000475E-02 0. -1.
</event>
<event>
 4   0  0.2441219E-02  0.9118800E+02  0.7818609E-02  0.1379984E+01
      -11   -1    0    0    0    0  0.00000000000E+00  0.00000000000E+00  0.35740347158E-01  0.35744000000E-01  0.51099999109E-03 0. -1.
       11   -1    0    0    0    0 -0.00000000000E+00 -0.00000000000E+00 -0.35740347158E-01  0.35744000000E-01  0.51099999109E-03 0.  1.
       22    1    1    2    0    0  0.22550057519E-01 -0.10844182762E-01 -0.25515332468E-01  0.35737005818E-01  0.00000000000E+00 0.  1.
  9000001    1    1    2    0    0 -0.22550057519E-01  0.10844182762E-01  0.25515332468E-01  0.35750994182E-01  0.10000000475E-02 0. -1.
</event>
<event>
 4   0  0.2441219E-02  0.9118800E+02  0.7818609E-02  0.1379984E+01
      -11   -1    0    0    0    0  0.00000000000E+00  0.00000000000E+00  0.35740347158E-01  0.35744000000E-01  0.51099999109E-03 0.  1.
       11   -1    0    0    0    0 -0.00000000000E+00 -0.00000000000E+00 -0.35740347158E-01  0.35744000000E-01  0.51099999109E-03 0. -1.
       22    1    1    2    0    0 -0.37588285415E-02  0.26761810801E-02 -0.35437873070E-01  0.35737005818E-01  0.00000000000E+00 0. -1.
  9000001    1    1    2    0    0  0.37588285415E-02 -0.26761810801E-02  0.35437873070E-01  0.35750994182E-01  0.10000000475E-02 0.  1.
</event>
<event>
 4   0  0.2441219E-02  0.9118800E+02  0.7818609E-02  0.1379984E+01
      -11   -1    0    0    0    0  0.00000000000E+00  0.00000000000E+00  0.35740347158E-01  0.35744000000E-01  0.51099999109E-03 0.  1.
       11   -1    0    0    0    0 -0.00000000000E+00 -0.00000000000E+00 -0.35740347158E-01  0.35744000000E-01  0.51099999109E-03 0. -1.
       22    1    1    2    0    0  0.10467555675E-01 -0.27591931491E-02  0.34058049213E-01  0.35737005818E-01  0.00000000000E+00 0.  1.
  9000001    1    1    2    0    0 -0.10467555675E-01  0.27591931491E-02 -0.34058049213E-01  0.35750994182E-01  0.10000000475E-02 0. -1.
</event>
<event>
 4   0  0.2441219E-02  0.9118800E+02  0.7818609E-02  0.1379984E+01
      -11   -1    0    0    0    0  0.00000000000E+00  0.00000000000E+00  0.35740347158E-01  0.35744000000E-01  0.51099999109E-03 0. -1.
       11   -1    0    0    0    0 -0.00000000000E+00 -0.00000000000E+00 -0.35740347158E-01  0.35744000000E-01  0.51099999109E-03 0.  1.
       22    1    1    2    0    0  0.40964287179E-02 -0.12615098066E-01 -0.33184516833E-01  0.35737005818E-01  0.00000000000E+00 0.  1.
  9000001    1    1    2    0    0 -0.40964287179E-02  0.12615098066E-01  0.33184516833E-01  0.35750994182E-01  0.10000000475E-02 0. -1.
</event>
<event>
 4   0  0.2441219E-02  0.9118800E+02  0.7818609E-02  0.1379984E+01
      -11   -1    0    0    0    0  0.00000000000E+00  0.00000000000E+00  0.35740347158E-01  0.35744000000E-01  0.51099999109E-03 0.  1.
       11   -1    0    0    0    0 -0.00000000000E+00 -0.00000000000E+00 -0.35740347158E-01  0.35744000000E-01  0.51099999109E-03 0. -1.
       22    1    1    2    0    0 -0.72476801308E-02 -0.34024577318E-01  0.81812502644E-02  0.35737005818E-01  0.00000000000E+00 0.  1.
  9000001    1    1    2    0    0  0.72476801308E-02  0.34024577318E-01 -0.81812502644E-02  0.35750994182E-01  0.10000000475E-02 0. -1.
</event>
<event>
 4   0  0.2441219E-02  0.9118800E+02  0.7818609E-02  0.1379984E+01
      -11   -1    0    0    0    0  0.00000000000E+00  0.00000000000E+00  0.35740347158E-01  0.35744000000E-01  0.51099999109E-03 0. -1.
       11   -1    0    0    0    0 -0.00000000000E+00 -0.00000000000E+00 -0.35740347158E-01  0.35744000000E-01  0.51099999109E-03 0.  1.
       22    1    1    2    0    0 -0.14626032456E-02 -0.68568630354E-02  0.35042514264E-01  0.35737005818E-01  0.00000000000E+00 0. -1.
  9000001    1    1    2    0    0  0.14626032456E-02  0.68568630354E-02 -0.35042514264E-01  0.35750994182E-01  0.10000000475E-02 0.  1.
</event>
<event>
 4   0  0.2441219E-02  0.9118800E+02  0.7818609E-02  0.1379984E+01
      -11   -1    0    0    0    0  0.00000000000E+00  0.00000000000E+00  0.35740347158E-01  0.35744000000E-01  0.51099999109E-03 0. -1.
       11   -1    0    0    0    0 -0.00000000000E+00 -0.00000000000E+00 -0.35740347158E-01  0.35744000000E-01  0.51099999109E-03 0.  1.
       22    1    1    2    0    0  0.48638188990E-02 -0.55512022699E-02 -0.34966569805E-01  0.35737005818E-01  0.00000000000E+00 0.  1.
  9000001    1    1    2    0    0 -0.48638188990E-02  0.55512022699E-02  0.34966569805E-01  0.35750994182E-01  0.10000000475E-02 0. -1.
</event>
<event>
 4   0  0.2441219E-02  0.9118800E+02  0.7818609E-02  0.1379984E+01
      -11   -1    0    0    0    0  0.00000000000E+00  0.00000000000E+00  0.35740347158E-01  0.35744000000E-01  0.51099999109E-03 0. -1.
       11   -1    0    0    0    0 -0.00000000000E+00 -0.00000000000E+00 -0.35740347158E-01  0.35744000000E-01  0.51099999109E-03 0.  1.
       22    1    1    2    0    0 -0.23612263572E-02  0.37922192662E-02 -0.35456695672E-01  0.35737005818E-01  0.00000000000E+00 0.  1.
  9000001    1    1    2    0    0  0.23612263572E-02 -0.37922192662E-02  0.35456695672E-01  0.35750994182E-01  0.10000000475E-02 0. -1.
</event>
<event>
 4   0  0.2441219E-02  0.9118800E+02  0.7818609E-02  0.1379984E+01
      -11   -1    0    0    0    0  0.00000000000E+00  0.00000000000E+00  0.35740347158E-01  0.35744000000E-01  0.51099999109E-03 0. -1.
       11   -1    0    0    0    0 -0.00000000000E+00 -0.00000000000E+00 -0.35740347158E-01  0.35744000000E-01  0.51099999109E-03 0.  1.
       22    1    1    2    0    0  0.25717621037E-01  0.12626821237E-01 -0.21361201710E-01  0.35737005818E-01  0.00000000000E+00 0.  1.
  9000001    1    1    2    0    0 -0.25717621037E-01 -0.12626821237E-01  0.21361201710E-01  0.35750994182E-01  0.10000000475E-02 0. -1.
</event>
<event>
 4   0  0.2441219E-02  0.9118800E+02  0.7818609E-02  0.1379984E+01
      -11   -1    0    0    0    0  0.00000000000E+00  0.00000000000E+00  0.35740347158E-01  0.35744000000E-01  0.51099999109E-03 0. -1.
       11   -1    0    0    0    0 -0.00000000000E+00 -0.00000000000E+00 -0.35740347158E-01  0.35744000000E-01  0.51099999109E-03 0.  1.
       22    1    1    2    0    0 -0.16787571140E-01 -0.30800286161E-01  0.68303303369E-02  0.35737005818E-01  0.00000000000E+00 0.  1.
  9000001    1    1    2    0    0  0.16787571140E-01  0.30800286161E-01 -0.68303303369E-02  0.35750994182E-01  0.10000000475E-02 0. -1.
</event>
<event>
 4   0  0.2441219E-02  0.9118800E+02  0.7818609E-02  0.1379984E+01
      -11   -1    0    0    0    0  0.00000000000E+00  0.00000000000E+00  0.35740347158E-01  0.35744000000E-01  0.51099999109E-03 0. -1.
       11   -1    0    0    0    0 -0.00000000000E+00 -0.00000000000E+00 -0.35740347158E-01  0.35744000000E-01  0.51099999109E-03 0.  1.
       22    1    1    2    0    0  0.13499166612E-01 -0.23650615573E-01 -0.23142049794E-01  0.35737005818E-01  0.00000000000E+00 0.  1.
  9000001    1    1    2    0    0 -0.13499166612E-01  0.23650615573E-01  0.23142049794E-01  0.35750994182E-01  0.10000000475E-02 0. -1.
</event>
<event>
 4   0  0.2441219E-02  0.9118800E+02  0.7818609E-02  0.1379984E+01
      -11   -1    0    0    0    0  0.00000000000E+00  0.00000000000E+00  0.35740347158E-01  0.35744000000E-01  0.51099999109E-03 0.  1.
       11   -1    0    0    0    0 -0.00000000000E+00 -0.00000000000E+00 -0.35740347158E-01  0.35744000000E-01  0.51099999109E-03 0. -1.
       22    1    1    2    0    0 -0.27204154336E-02 -0.16178595294E-02 -0.35596565217E-01  0.35737005818E-01  0.00000000000E+00 0. -1.
  9000001    1    1    2    0    0  0.27204154336E-02  0.16178595294E-02  0.35596565217E-01  0.35750994182E-01  0.10000000475E-02 0.  1.
</event>
<event>
 4   0  0.2441219E-02  0.9118800E+02  0.7818609E-02  0.1379984E+01
      -11   -1    0    0    0    0  0.00000000000E+00  0.00000000000E+00  0.35740347158E-01  0.35744000000E-01  0.51099999109E-03 0. -1.
       11   -1    0    0    0    0 -0.00000000000E+00 -0.00000000000E+00 -0.35740347158E-01  0.35744000000E-01  0.51099999109E-03 0.  1.
       22    1    1    2    0    0  0.24317249963E-01 -0.18419774687E-01 -0.18614962788E-01  0.35737005818E-01  0.00000000000E+00 0.  1.
  9000001    1    1    2    0    0 -0.24317249963E-01  0.18419774687E-01  0.18614962788E-01  0.35750994182E-01  0.10000000475E-02 0. -1.
</event>
<event>
 4   0  0.2441219E-02  0.9118800E+02  0.7818609E-02  0.1379984E+01
      -11   -1    0    0    0    0  0.00000000000E+00  0.00000000000E+00  0.35740347158E-01  0.35744000000E-01  0.51099999109E-03 0. -1.
       11   -1    0    0    0    0 -0.00000000000E+00 -0.00000000000E+00 -0.35740347158E-01  0.35744000000E-01  0.51099999109E-03 0.  1.
       22    1    1    2    0    0 -0.10137455593E-01  0.14466559349E-01  0.31065804988E-01  0.35737005818E-01  0.00000000000E+00 0. -1.
  9000001    1    1    2    0    0  0.10137455593E-01 -0.14466559349E-01 -0.31065804988E-01  0.35750994182E-01  0.10000000475E-02 0.  1.
</event>
<event>
 4   0  0.2441219E-02  0.9118800E+02  0.7818609E-02  0.1379984E+01
      -11   -1    0    0    0    0  0.00000000000E+00  0.00000000000E+00  0.35740347158E-01  0.35744000000E-01  0.51099999109E-03 0.  1.
       11   -1    0    0    0    0 -0.00000000000E+00 -0.00000000000E+00 -0.35740347158E-01  0.35744000000E-01  0.51099999109E-03 0. -1.
       22    1    1    2    0    0  0.30471177766E-02 -0.18907777362E-01 -0.30171917628E-01  0.35737005818E-01  0.00000000000E+00 0. -1.
  9000001    1    1    2    0    0 -0.30471177766E-02  0.18907777362E-01  0.30171917628E-01  0.35750994182E-01  0.10000000475E-02 0.  1.
</event>
<event>
 4   0  0.2441219E-02  0.9118800E+02  0.7818609E-02  0.1379984E+01
      -11   -1    0    0    0    0  0.00000000000E+00  0.00000000000E+00  0.35740347158E-01  0.35744000000E-01  0.51099999109E-03 0. -1.
       11   -1    0    0    0    0 -0.00000000000E+00 -0.00000000000E+00 -0.35740347158E-01  0.35744000000E-01  0.51099999109E-03 0.  1.
       22    1    1    2    0    0  0.80167618445E-02 -0.22529372796E-01 -0.26557343162E-01  0.35737005818E-01  0.00000000000E+00 0.  1.
  9000001    1    1    2    0    0 -0.80167618445E-02  0.22529372796E-01  0.26557343162E-01  0.35750994182E-01  0.10000000475E-02 0. -1.
</event>
<event>
 4   0  0.2441219E-02  0.9118800E+02  0.7818609E-02  0.1379984E+01
      -11   -1    0    0    0    0  0.00000000000E+00  0.00000000000E+00  0.35740347158E-01  0.35744000000E-01  0.51099999109E-03 0.  1.
       11   -1    0    0    0    0 -0.00000000000E+00 -0.00000000000E+00 -0.35740347158E-01  0.35744000000E-01  0.51099999109E-03 0. -1.
       22    1    1    2    0    0 -0.49917765089E-02  0.43154321688E-02 -0.35122539734E-01  0.35737005818E-01  0.00000000000E+00 0. -1.
  9000001    1    1    2    0    0  0.49917765089E-02 -0.43154321688E-02  0.35122539734E-01  0.35750994182E-01  0.10000000475E-02 0.  1.
</event>
<event>
 4   0  0.2441219E-02  0.9118800E+02  0.7818609E-02  0.1379984E+01
      -11   -1    0    0    0    0  0.00000000000E+00  0.00000000000E+00  0.35740347158E-01  0.35744000000E-01  0.51099999109E-03 0. -1.
       11   -1    0    0    0    0 -0.00000000000E+00 -0.00000000000E+00 -0.35740347158E-01  0.35744000000E-01  0.51099999109E-03 0.  1.
       22    1    1    2    0    0  0.11219602956E-01  0.27044490607E-02  0.33822182805E-01  0.35737005818E-01  0.00000000000E+00 0. -1.
  9000001    1    1    2    0    0 -0.11219602956E-01 -0.27044490607E-02 -0.33822182805E-01  0.35750994182E-01  0.10000000475E-02 0.  1.
</event>
<event>
 4   0  0.2441219E-02  0.9118800E+02  0.7818609E-02  0.1379984E+01
      -11   -1    0    0    0    0  0.00000000000E+00  0.00000000000E+00  0.35740347158E-01  0.35744000000E-01  0.51099999109E-03 0. -1.
       11   -1    0    0    0    0 -0.00000000000E+00 -0.00000000000E+00 -0.35740347158E-01  0.35744000000E-01  0.51099999109E-03 0.  1.
       22    1    1    2    0    0 -0.26761685417E-01  0.16171399131E-01 -0.17304092829E-01  0.35737005818E-01  0.00000000000E+00 0.  1.
  9000001    1    1    2    0    0  0.26761685417E-01 -0.16171399131E-01  0.17304092829E-01  0.35750994182E-01  0.10000000475E-02 0. -1.
</event>
<event>
 4   0  0.2441219E-02  0.9118800E+02  0.7818609E-02  0.1379984E+01
      -11   -1    0    0    0    0  0.00000000000E+00  0.00000000000E+00  0.35740347158E-01  0.35744000000E-01  0.51099999109E-03 0. -1.
       11   -1    0    0    0    0 -0.00000000000E+00 -0.00000000000E+00 -0.35740347158E-01  0.35744000000E-01  0.51099999109E-03 0.  1.
       22    1    1    2    0    0 -0.31175188028E-01  0.10488817819E-01  0.13972327546E-01  0.35737005818E-01  0.00000000000E+00 0.  1.
  9000001    1    1    2    0    0  0.31175188028E-01 -0.10488817819E-01 -0.13972327546E-01  0.35750994182E-01  0.10000000475E-02 0. -1.
</event>
<event>
 4   0  0.2441219E-02  0.9118800E+02  0.7818609E-02  0.1379984E+01
      -11   -1    0    0    0    0  0.00000000000E+00  0.00000000000E+00  0.35740347158E-01  0.35744000000E-01  0.51099999109E-03 0.  1.
       11   -1    0    0    0    0 -0.00000000000E+00 -0.00000000000E+00 -0.35740347158E-01  0.35744000000E-01  0.51099999109E-03 0. -1.
       22    1    1    2    0    0  0.12710017962E-01  0.15098948243E-01 -0.29792797623E-01  0.35737005818E-01  0.00000000000E+00 0. -1.
  9000001    1    1    2    0    0 -0.12710017962E-01 -0.15098948243E-01  0.29792797623E-01  0.35750994182E-01  0.10000000475E-02 0.  1.
</event>
<event>
 4   0  0.2441219E-02  0.9118800E+02  0.7818609E-02  0.1379984E+01
      -11   -1    0    0    0    0  0.00000000000E+00  0.00000000000E+00  0.35740347158E-01  0.35744000000E-01  0.51099999109E-03 0. -1.
       11   -1    0    0    0    0 -0.00000000000E+00 -0.00000000000E+00 -0.35740347158E-01  0.35744000000E-01  0.51099999109E-03 0.  1.
       22    1    1    2    0    0 -0.36050506082E-02  0.85059333106E-03 -0.35544531028E-01  0.35737005818E-01  0.00000000000E+00 0.  1.
  9000001    1    1    2    0    0  0.36050506082E-02 -0.85059333106E-03  0.35544531028E-01  0.35750994182E-01  0.10000000475E-02 0. -1.
</event>
<event>
 4   0  0.2441219E-02  0.9118800E+02  0.7818609E-02  0.1379984E+01
      -11   -1    0    0    0    0  0.00000000000E+00  0.00000000000E+00  0.35740347158E-01  0.35744000000E-01  0.51099999109E-03 0. -1.
       11   -1    0    0    0    0 -0.00000000000E+00 -0.00000000000E+00 -0.35740347158E-01  0.35744000000E-01  0.51099999109E-03 0.  1.
       22    1    1    2    0    0  0.13854464831E-01 -0.12910467727E-01 -0.30306883908E-01  0.35737005818E-01  0.00000000000E+00 0.  1.
  9000001    1    1    2    0    0 -0.13854464831E-01  0.12910467727E-01  0.30306883908E-01  0.35750994182E-01  0.10000000475E-02 0. -1.
</event>
<event>
 4   0  0.2441219E-02  0.9118800E+02  0.7818609E-02  0.1379984E+01
      -11   -1    0    0    0    0  0.00000000000E+00  0.00000000000E+00  0.35740347158E-01  0.35744000000E-01  0.51099999109E-03 0.  1.
       11   -1    0    0    0    0 -0.00000000000E+00 -0.00000000000E+00 -0.35740347158E-01  0.35744000000E-01  0.51099999109E-03 0. -1.
       22    1    1    2    0    0  0.53548911935E-02 -0.18888269574E-02  0.35283013730E-01  0.35737005818E-01  0.00000000000E+00 0.  1.
  9000001    1    1    2    0    0 -0.53548911935E-02  0.18888269574E-02 -0.35283013730E-01  0.35750994182E-01  0.10000000475E-02 0. -1.
</event>
<event>
 4   0  0.2441219E-02  0.9118800E+02  0.7818609E-02  0.1379984E+01
      -11   -1    0    0    0    0  0.00000000000E+00  0.00000000000E+00  0.35740347158E-01  0.35744000000E-01  0.51099999109E-03 0.  1.
       11   -1    0    0    0    0 -0.00000000000E+00 -0.00000000000E+00 -0.35740347158E-01  0.35744000000E-01  0.51099999109E-03 0. -1.
       22    1    1    2    0    0 -0.72478096019E-02  0.44146968744E-02 -0.34714741715E-01  0.35737005818E-01  0.00000000000E+00 0. -1.
  9000001    1    1    2    0    0  0.72478096019E-02 -0.44146968744E-02  0.34714741715E-01  0.35750994182E-01  0.10000000475E-02 0.  1.
</event>
<event>
 4   0  0.2441219E-02  0.9118800E+02  0.7818609E-02  0.1379984E+01
      -11   -1    0    0    0    0  0.00000000000E+00  0.00000000000E+00  0.35740347158E-01  0.35744000000E-01  0.51099999109E-03 0. -1.
       11   -1    0    0    0    0 -0.00000000000E+00 -0.00000000000E+00 -0.35740347158E-01  0.35744000000E-01  0.51099999109E-03 0.  1.
       22    1    1    2    0    0  0.44489035830E-02  0.23578837111E-03  0.35458218309E-01  0.35737005818E-01  0.00000000000E+00 0. -1.
  9000001    1    1    2    0    0 -0.44489035830E-02 -0.23578837111E-03 -0.35458218309E-01  0.35750994182E-01  0.10000000475E-02 0.  1.
</event>
<event>
 4   0  0.2441219E-02  0.9118800E+02  0.7818609E-02  0.1379984E+01
      -11   -1    0    0    0    0  0.00000000000E+00  0.00000000000E+00  0.35740347158E-01  0.35744000000E-01  0.51099999109E-03 0.  1.
       11   -1    0    0    0    0 -0.00000000000E+00 -0.00000000000E+00 -0.35740347158E-01  0.35744000000E-01  0.51099999109E-03 0. -1.
       22    1    1    2    0    0  0.37551581822E-02 -0.96507269606E-03  0.35526060950E-01  0.35737005818E-01  0.00000000000E+00 0.  1.
  9000001    1    1    2    0    0 -0.37551581822E-02  0.96507269606E-03 -0.35526060950E-01  0.35750994182E-01  0.10000000475E-02 0. -1.
</event>
<event>
 4   0  0.2441219E-02  0.9118800E+02  0.7818609E-02  0.1379984E+01
      -11   -1    0    0    0    0  0.00000000000E+00  0.00000000000E+00  0.35740347158E-01  0.35744000000E-01  0.51099999109E-03 0. -1.
       11   -1    0    0    0    0 -0.00000000000E+00 -0.00000000000E+00 -0.35740347158E-01  0.35744000000E-01  0.51099999109E-03 0.  1.
       22    1    1    2    0    0 -0.16724705626E-01  0.13268713781E-03 -0.31581643414E-01  0.35737005818E-01  0.00000000000E+00 0.  1.
  9000001    1    1    2    0    0  0.16724705626E-01 -0.13268713781E-03  0.31581643414E-01  0.35750994182E-01  0.10000000475E-02 0. -1.
</event>
<event>
 4   0  0.2441219E-02  0.9118800E+02  0.7818609E-02  0.1379984E+01
      -11   -1    0    0    0    0  0.00000000000E+00  0.00000000000E+00  0.35740347158E-01  0.35744000000E-01  0.51099999109E-03 0. -1.
       11   -1    0    0    0    0 -0.00000000000E+00 -0.00000000000E+00 -0.35740347158E-01  0.35744000000E-01  0.51099999109E-03 0.  1.
       22    1    1    2    0    0  0.11291434556E-01  0.48208162593E-02 -0.33561835783E-01  0.35737005818E-01  0.00000000000E+00 0.  1.
  9000001    1    1    2    0    0 -0.11291434556E-01 -0.48208162593E-02  0.33561835783E-01  0.35750994182E-01  0.10000000475E-02 0. -1.
</event>
<event>
 4   0  0.2441219E-02  0.9118800E+02  0.7818609E-02  0.1379984E+01
      -11   -1    0    0    0    0  0.00000000000E+00  0.00000000000E+00  0.35740347158E-01  0.35744000000E-01  0.51099999109E-03 0.  1.
       11   -1    0    0    0    0 -0.00000000000E+00 -0.00000000000E+00 -0.35740347158E-01  0.35744000000E-01  0.51099999109E-03 0. -1.
       22    1    1    2    0    0  0.14846541282E-01 -0.82991575238E-02  0.31429886752E-01  0.35737005818E-01  0.00000000000E+00 0.  1.
  9000001    1    1    2    0    0 -0.14846541282E-01  0.82991575238E-02 -0.31429886752E-01  0.35750994182E-01  0.10000000475E-02 0. -1.
</event>
<event>
 4   0  0.2441219E-02  0.9118800E+02  0.7818609E-02  0.1379984E+01
      -11   -1    0    0    0    0  0.00000000000E+00  0.00000000000E+00  0.35740347158E-01  0.35744000000E-01  0.51099999109E-03 0.  1.
       11   -1    0    0    0    0 -0.00000000000E+00 -0.00000000000E+00 -0.35740347158E-01  0.35744000000E-01  0.51099999109E-03 0. -1.
       22    1    1    2    0    0  0.67176944509E-02  0.13253927430E-01 -0.32501378029E-01  0.35737005818E-01  0.00000000000E+00 0. -1.
  9000001    1    1    2    0    0 -0.67176944509E-02 -0.13253927430E-01  0.32501378029E-01  0.35750994182E-01  0.10000000475E-02 0.  1.
</event>
<event>
 4   0  0.2441219E-02  0.9118800E+02  0.7818609E-02  0.1379984E+01
      -11   -1    0    0    0    0  0.00000000000E+00  0.00000000000E+00  0.35740347158E-01  0.35744000000E-01  0.51099999109E-03 0. -1.
       11   -1    0    0    0    0 -0.00000000000E+00 -0.00000000000E+00 -0.35740347158E-01  0.35744000000E-01  0.51099999109E-03 0.  1.
       22    1    1    2    0    0 -0.29846156015E-01 -0.13661163178E-01 -0.14131991248E-01  0.35737005818E-01  0.00000000000E+00 0.  1.
  9000001    1    1    2    0    0  0.29846156015E-01  0.13661163178E-01  0.14131991248E-01  0.35750994182E-01  0.10000000475E-02 0. -1.
</event>
<event>
 4   0  0.2441219E-02  0.9118800E+02  0.7818609E-02  0.1379984E+01
      -11   -1    0    0    0    0  0.00000000000E+00  0.00000000000E+00  0.35740347158E-01  0.35744000000E-01  0.51099999109E-03 0.  1.
       11   -1    0    0    0    0 -0.00000000000E+00 -0.00000000000E+00 -0.35740347158E-01  0.35744000000E-01  0.51099999109E-03 0. -1.
       22    1    1    2    0    0 -0.17118920445E-01  0.89109390937E-04  0.31369861447E-01  0.35737005818E-01  0.00000000000E+00 0.  1.
  9000001    1    1    2    0    0  0.17118920445E-01 -0.89109390937E-04 -0.31369861447E-01  0.35750994182E-01  0.10000000475E-02 0. -1.
</event>
<event>
 4   0  0.2441219E-02  0.9118800E+02  0.7818609E-02  0.1379984E+01
      -11   -1    0    0    0    0  0.00000000000E+00  0.00000000000E+00  0.35740347158E-01  0.35744000000E-01  0.51099999109E-03 0.  1.
       11   -1    0    0    0    0 -0.00000000000E+00 -0.00000000000E+00 -0.35740347158E-01  0.35744000000E-01  0.51099999109E-03 0. -1.
       22    1    1    2    0    0  0.26548445373E-01 -0.60402777047E-02  0.23147973527E-01  0.35737005818E-01  0.00000000000E+00 0.  1.
  9000001    1    1    2    0    0 -0.26548445373E-01  0.60402777047E-02 -0.23147973527E-01  0.35750994182E-01  0.10000000475E-02 0. -1.
</event>
<event>
 4   0  0.2441219E-02  0.9118800E+02  0.7818609E-02  0.1379984E+01
      -11   -1    0    0    0    0  0.00000000000E+00  0.00000000000E+00  0.35740347158E-01  0.35744000000E-01  0.51099999109E-03 0. -1.
       11   -1    0    0    0    0 -0.00000000000E+00 -0.00000000000E+00 -0.35740347158E-01  0.35744000000E-01  0.51099999109E-03 0.  1.
       22    1    1    2    0    0 -0.30942538099E-02 -0.49230820066E-02  0.35260777668E-01  0.35737005818E-01  0.00000000000E+00 0. -1.
  9000001    1    1    2    0    0  0.30942538099E-02  0.49230820066E-02 -0.35260777668E-01  0.35750994182E-01  0.10000000475E-02 0.  1.
</event>
<event>
 4   0  0.2441219E-02  0.9118800E+02  0.7818609E-02  0.1379984E+01
      -11   -1    0    0    0    0  0.00000000000E+00  0.00000000000E+00  0.35740347158E-01  0.35744000000E-01  0.51099999109E-03 0.  1.
       11   -1    0    0    0    0 -0.00000000000E+00 -0.00000000000E+00 -0.35740347158E-01  0.35744000000E-01  0.51099999109E-03 0. -1.
       22    1    1    2    0    0 -0.52534042631E-02  0.16381522313E-01 -0.31323809718E-01  0.35737005818E-01  0.00000000000E+00 0. -1.
  9000001    1    1    2    0    0  0.52534042631E-02 -0.16381522313E-01  0.31323809718E-01  0.35750994182E-01  0.10000000475E-02 0.  1.
</event>
<event>
 4   0  0.2441219E-02  0.9118800E+02  0.7818609E-02  0.1379984E+01
      -11   -1    0    0    0    0  0.00000000000E+00  0.00000000000E+00  0.35740347158E-01  0.35744000000E-01  0.51099999109E-03 0. -1.
       11   -1    0    0    0    0 -0.00000000000E+00 -0.00000000000E+00 -0.35740347158E-01  0.35744000000E-01  0.51099999109E-03 0.  1.
       22    1    1    2    0    0 -0.22595951212E-03 -0.34982280518E-02 -0.35564658408E-01  0.35737005818E-01  0.00000000000E+00 0.  1.
  9000001    1    1    2    0    0  0.22595951212E-03  0.34982280518E-02  0.35564658408E-01  0.35750994182E-01  0.10000000475E-02 0. -1.
</event>
<event>
 4   0  0.2441219E-02  0.9118800E+02  0.7818609E-02  0.1379984E+01
      -11   -1    0    0    0    0  0.00000000000E+00  0.00000000000E+00  0.35740347158E-01  0.35744000000E-01  0.51099999109E-03 0. -1.
       11   -1    0    0    0    0 -0.00000000000E+00 -0.00000000000E+00 -0.35740347158E-01  0.35744000000E-01  0.51099999109E-03 0.  1.
       22    1    1    2    0    0  0.94332863825E-02  0.16788684907E-02  0.34428594126E-01  0.35737005818E-01  0.00000000000E+00 0. -1.
  9000001    1    1    2    0    0 -0.94332863825E-02 -0.16788684907E-02 -0.34428594126E-01  0.35750994182E-01  0.10000000475E-02 0.  1.
</event>
<event>
 4   0  0.2441219E-02  0.9118800E+02  0.7818609E-02  0.1379984E+01
      -11   -1    0    0    0    0  0.00000000000E+00  0.00000000000E+00  0.35740347158E-01  0.35744000000E-01  0.51099999109E-03 0.  1.
       11   -1    0    0    0    0 -0.00000000000E+00 -0.00000000000E+00 -0.35740347158E-01  0.35744000000E-01  0.51099999109E-03 0. -1.
       22    1    1    2    0    0 -0.50856748166E-02  0.33603728852E-01  0.11048027144E-01  0.35737005818E-01  0.00000000000E+00 0.  1.
  9000001    1    1    2    0    0  0.50856748166E-02 -0.33603728852E-01 -0.11048027144E-01  0.35750994182E-01  0.10000000475E-02 0. -1.
</event>
<event>
 4   0  0.2441219E-02  0.9118800E+02  0.7818609E-02  0.1379984E+01
      -11   -1    0    0    0    0  0.00000000000E+00  0.00000000000E+00  0.35740347158E-01  0.35744000000E-01  0.51099999109E-03 0.  1.
       11   -1    0    0    0    0 -0.00000000000E+00 -0.00000000000E+00 -0.35740347158E-01  0.35744000000E-01  0.51099999109E-03 0. -1.
       22    1    1    2    0    0  0.29619422975E-02  0.73977879114E-02  0.34837238936E-01  0.35737005818E-01  0.00000000000E+00 0.  1.
  9000001    1    1    2    0    0 -0.29619422975E-02 -0.73977879114E-02 -0.34837238936E-01  0.35750994182E-01  0.10000000475E-02 0. -1.
</event>
<event>
 4   0  0.2441219E-02  0.9118800E+02  0.7818609E-02  0.1379984E+01
      -11   -1    0    0    0    0  0.00000000000E+00  0.00000000000E+00  0.35740347158E-01  0.35744000000E-01  0.51099999109E-03 0.  1.
       11   -1    0    0    0    0 -0.00000000000E+00 -0.00000000000E+00 -0.35740347158E-01  0.35744000000E-01  0.51099999109E-03 0. -1.
       22    1    1    2    0    0  0.44136887561E-02 -0.24566707173E-02  0.35378209472E-01  0.35737005818E-01  0.00000000000E+00 0.  1.
  9000001    1    1    2    0    0 -0.44136887561E-02  0.24566707173E-02 -0.35378209472E-01  0.35750994182E-01  0.10000000475E-02 0. -1.
</event>
<event>
 4   0  0.2441219E-02  0.9118800E+02  0.7818609E-02  0.1379984E+01
      -11   -1    0    0    0    0  0.00000000000E+00  0.00000000000E+00  0.35740347158E-01  0.35744000000E-01  0.51099999109E-03 0. -1.
       11   -1    0    0    0    0 -0.00000000000E+00 -0.00000000000E+00 -0.35740347158E-01  0.35744000000E-01  0.51099999109E-03 0.  1.
       22    1    1    2    0    0  0.53048695710E-02 -0.26334133593E-01  0.23569161029E-01  0.35737005818E-01  0.00000000000E+00 0. -1.
  9000001    1    1    2    0    0 -0.53048695710E-02  0.26334133593E-01 -0.23569161029E-01  0.35750994182E-01  0.10000000475E-02 0.  1.
</event>
<event>
 4   0  0.2441219E-02  0.9118800E+02  0.7818609E-02  0.1379984E+01
      -11   -1    0    0    0    0  0.00000000000E+00  0.00000000000E+00  0.35740347158E-01  0.35744000000E-01  0.51099999109E-03 0.  1.
       11   -1    0    0    0    0 -0.00000000000E+00 -0.00000000000E+00 -0.35740347158E-01  0.35744000000E-01  0.51099999109E-03 0. -1.
       22    1    1    2    0    0 -0.53321026116E-02  0.43644588145E-02  0.35066419348E-01  0.35737005818E-01  0.00000000000E+00 0.  1.
  9000001    1    1    2    0    0  0.53321026116E-02 -0.43644588145E-02 -0.35066419348E-01  0.35750994182E-01  0.10000000475E-02 0. -1.
</event>
<event>
 4   0  0.2441219E-02  0.9118800E+02  0.7818609E-02  0.1379984E+01
      -11   -1    0    0    0    0  0.00000000000E+00  0.00000000000E+00  0.35740347158E-01  0.35744000000E-01  0.51099999109E-03 0. -1.
       11   -1    0    0    0    0 -0.00000000000E+00 -0.00000000000E+00 -0.35740347158E-01  0.35744000000E-01  0.51099999109E-03 0.  1.
       22    1    1    2    0    0 -0.18044761069E-01 -0.12054012226E-01  0.28394030571E-01  0.35737005818E-01  0.00000000000E+00 0. -1.
  9000001    1    1    2    0    0  0.18044761069E-01  0.12054012226E-01 -0.28394030571E-01  0.35750994182E-01  0.10000000475E-02 0.  1.
</event>
<event>
 4   0  0.2441219E-02  0.9118800E+02  0.7818609E-02  0.1379984E+01
      -11   -1    0    0    0    0  0.00000000000E+00  0.00000000000E+00  0.35740347158E-01  0.35744000000E-01  0.51099999109E-03 0. -1.
       11   -1    0    0    0    0 -0.00000000000E+00 -0.00000000000E+00 -0.35740347158E-01  0.35744000000E-01  0.51099999109E-03 0.  1.
       22    1    1    2    0    0  0.24232572181E-01 -0.69171870590E-02  0.25339071679E-01  0.35737005818E-01  0.00000000000E+00 0. -1.
  9000001    1    1    2    0    0 -0.24232572181E-01  0.69171870590E-02 -0.25339071679E-01  0.35750994182E-01  0.10000000475E-02 0.  1.
</event>
<event>
 4   0  0.2441219E-02  0.9118800E+02  0.7818609E-02  0.1379984E+01
      -11   -1    0    0    0    0  0.00000000000E+00  0.00000000000E+00  0.35740347158E-01  0.35744000000E-01  0.51099999109E-03 0.  1.
       11   -1    0    0    0    0 -0.00000000000E+00 -0.00000000000E+00 -0.35740347158E-01  0.35744000000E-01  0.51099999109E-03 0. -1.
       22    1    1    2    0    0 -0.20389043050E-02 -0.23103928594E-02 -0.35603911849E-01  0.35737005818E-01  0.00000000000E+00 0. -1.
  9000001    1    1    2    0    0  0.20389043050E-02  0.23103928594E-02  0.35603911849E-01  0.35750994182E-01  0.10000000475E-02 0.  1.
</event>
<event>
 4   0  0.2441219E-02  0.9118800E+02  0.7818609E-02  0.1379984E+01
      -11   -1    0    0    0    0  0.00000000000E+00  0.00000000000E+00  0.35740347158E-01  0.35744000000E-01  0.51099999109E-03 0. -1.
       11   -1    0    0    0    0 -0.00000000000E+00 -0.00000000000E+00 -0.35740347158E-01  0.35744000000E-01  0.51099999109E-03 0.  1.
       22    1    1    2    0    0 -0.11392355329E-01  0.97148553543E-02 -0.32449490140E-01  0.35737005818E-01  0.00000000000E+00 0.  1.
  9000001    1    1    2    0    0  0.11392355329E-01 -0.97148553543E-02  0.32449490140E-01  0.35750994182E-01  0.10000000475E-02 0. -1.
</event>
<event>
 4   0  0.2441219E-02  0.9118800E+02  0.7818609E-02  0.1379984E+01
      -11   -1    0    0    0    0  0.00000000000E+00  0.00000000000E+00  0.35740347158E-01  0.35744000000E-01  0.51099999109E-03 0. -1.
       11   -1    0    0    0    0 -0.00000000000E+00 -0.00000000000E+00 -0.35740347158E-01  0.35744000000E-01  0.51099999109E-03 0.  1.
       22    1    1    2    0    0  0.15387830733E-01 -0.10335020708E-01  0.30553814773E-01  0.35737005818E-01  0.00000000000E+00 0. -1.
  9000001    1    1    2    0    0 -0.15387830733E-01  0.10335020708E-01 -0.30553814773E-01  0.35750994182E-01  0.10000000475E-02 0.  1.
</event>
<event>
 4   0  0.2441219E-02  0.9118800E+02  0.7818609E-02  0.1379984E+01
      -11   -1    0    0    0    0  0.00000000000E+00  0.00000000000E+00  0.35740347158E-01  0.35744000000E-01  0.51099999109E-03 0.  1.
       11   -1    0    0    0    0 -0.00000000000E+00 -0.00000000000E+00 -0.35740347158E-01  0.35744000000E-01  0.51099999109E-03 0. -1.
       22    1    1    2    0    0  0.18547579862E-02  0.95550814445E-02  0.34385954637E-01  0.35737005818E-01  0.00000000000E+00 0.  1.
  9000001    1    1    2    0    0 -0.18547579862E-02 -0.95550814445E-02 -0.34385954637E-01  0.35750994182E-01  0.10000000475E-02 0. -1.
</event>
<event>
 4   0  0.2441219E-02  0.9118800E+02  0.7818609E-02  0.1379984E+01
      -11   -1    0    0    0    0  0.00000000000E+00  0.00000000000E+00  0.35740347158E-01  0.35744000000E-01  0.51099999109E-03 0. -1.
       11   -1    0    0    0    0 -0.00000000000E+00 -0.00000000000E+00 -0.35740347158E-01  0.35744000000E-01  0.51099999109E-03 0.  1.
       22    1    1    2    0    0  0.23544850582E-02 -0.64487978735E-02 -0.35071398475E-01  0.35737005818E-01  0.00000000000E+00 0.  1.
  9000001    1    1    2    0    0 -0.23544850582E-02  0.64487978735E-02  0.35071398475E-01  0.35750994182E-01  0.10000000475E-02 0. -1.
</event>
<event>
 4   0  0.2441219E-02  0.9118800E+02  0.7818609E-02  0.1379984E+01
      -11   -1    0    0    0    0  0.00000000000E+00  0.00000000000E+00  0.35740347158E-01  0.35744000000E-01  0.51099999109E-03 0. -1.
       11   -1    0    0    0    0 -0.00000000000E+00 -0.00000000000E+00 -0.35740347158E-01  0.35744000000E-01  0.51099999109E-03 0.  1.
       22    1    1    2    0    0  0.38346613017E-03  0.94477059038E-02  0.34463421069E-01  0.35737005818E-01  0.00000000000E+00 0. -1.
  9000001    1    1    2    0    0 -0.38346613017E-03 -0.94477059038E-02 -0.34463421069E-01  0.35750994182E-01  0.10000000475E-02 0.  1.
</event>
<event>
 4   0  0.2441219E-02  0.9118800E+02  0.7818609E-02  0.1379984E+01
      -11   -1    0    0    0    0  0.00000000000E+00  0.00000000000E+00  0.35740347158E-01  0.35744000000E-01  0.51099999109E-03 0. -1.
       11   -1    0    0    0    0 -0.00000000000E+00 -0.00000000000E+00 -0.35740347158E-01  0.35744000000E-01  0.51099999109E-03 0.  1.
       22    1    1    2    0    0 -0.50522948395E-02  0.58765359340E-02  0.34886590936E-01  0.35737005818E-01  0.00000000000E+00 0. -1.
  9000001    1    1    2    0    0  0.50522948395E-02 -0.58765359340E-02 -0.34886590936E-01  0.35750994182E-01  0.10000000475E-02 0.  1.
</event>
<event>
 4   0  0.2441219E-02  0.9118800E+02  0.7818609E-02  0.1379984E+01
      -11   -1    0    0    0    0  0.00000000000E+00  0.00000000000E+00  0.35740347158E-01  0.35744000000E-01  0.51099999109E-03 0.  1.
       11   -1    0    0    0    0 -0.00000000000E+00 -0.00000000000E+00 -0.35740347158E-01  0.35744000000E-01  0.51099999109E-03 0. -1.
       22    1    1    2    0    0 -0.39684858464E-02 -0.64227292699E-02  0.34930405862E-01  0.35737005818E-01  0.00000000000E+00 0.  1.
  9000001    1    1    2    0    0  0.39684858464E-02  0.64227292699E-02 -0.34930405862E-01  0.35750994182E-01  0.10000000475E-02 0. -1.
</event>
<event>
 4   0  0.2441219E-02  0.9118800E+02  0.7818609E-02  0.1379984E+01
      -11   -1    0    0    0    0  0.00000000000E+00  0.00000000000E+00  0.35740347158E-01  0.35744000000E-01  0.51099999109E-03 0. -1.
       11   -1    0    0    0    0 -0.00000000000E+00 -0.00000000000E+00 -0.35740347158E-01  0.35744000000E-01  0.51099999109E-03 0.  1.
       22    1    1    2    0    0  0.35530026543E-02 -0.15719216413E-02 -0.35525185705E-01  0.35737005818E-01  0.00000000000E+00 0.  1.
  9000001    1    1    2    0    0 -0.35530026543E-02  0.15719216413E-02  0.35525185705E-01  0.35750994182E-01  0.10000000475E-02 0. -1.
</event>
<event>
 4   0  0.2441219E-02  0.9118800E+02  0.7818609E-02  0.1379984E+01
      -11   -1    0    0    0    0  0.00000000000E+00  0.00000000000E+00  0.35740347158E-01  0.35744000000E-01  0.51099999109E-03 0.  1.
       11   -1    0    0    0    0 -0.00000000000E+00 -0.00000000000E+00 -0.35740347158E-01  0.35744000000E-01  0.51099999109E-03 0. -1.
       22    1    1    2    0    0  0.62153581739E-03 -0.46046706426E-02 -0.35433660358E-01  0.35737005818E-01  0.00000000000E+00 0. -1.
  9000001    1    1    2    0    0 -0.62153581739E-03  0.46046706426E-02  0.35433660358E-01  0.35750994182E-01  0.10000000475E-02 0.  1.
</event>
<event>
 4   0  0.2441219E-02  0.9118800E+02  0.7818609E-02  0.1379984E+01
      -11   -1    0    0    0    0  0.00000000000E+00  0.00000000000E+00  0.35740347158E-01  0.35744000000E-01  0.51099999109E-03 0.  1.
       11   -1    0    0    0    0 -0.00000000000E+00 -0.00000000000E+00 -0.35740347158E-01  0.35744000000E-01  0.51099999109E-03 0. -1.
       22    1    1    2    0    0  0.69225377437E-02 -0.15882675243E-01 -0.31256242308E-01  0.35737005818E-01  0.00000000000E+00 0. -1.
  9000001    1    1    2    0    0 -0.69225377437E-02  0.15882675243E-01  0.31256242308E-01  0.35750994182E-01  0.10000000475E-02 0.  1.
</event>
<event>
 4   0  0.2441219E-02  0.9118800E+02  0.7818609E-02  0.1379984E+01
      -11   -1    0    0    0    0  0.00000000000E+00  0.00000000000E+00  0.35740347158E-01  0.35744000000E-01  0.51099999109E-03 0.  1.
       11   -1    0    0    0    0 -0.00000000000E+00 -0.00000000000E+00 -0.35740347158E-01  0.35744000000E-01  0.51099999109E-03 0. -1.
       22    1    1    2    0    0  0.65842154472E-02  0.67694290284E-02 -0.34466745168E-01  0.35737005818E-01  0.00000000000E+00 0. -1.
  9000001    1    1    2    0    0 -0.65842154472E-02 -0.67694290284E-02  0.34466745168E-01  0.35750994182E-01  0.10000000475E-02 0.  1.
</event>
<event>
 4   0  0.2441219E-02  0.9118800E+02  0.7818609E-02  0.1379984E+01
      -11   -1    0    0    0    0  0.00000000000E+00  0.00000000000E+00  0.35740347158E-01  0.35744000000E-01  0.51099999109E-03 0. -1.
       11   -1    0    0    0    0 -0.00000000000E+00 -0.00000000000E+00 -0.35740347158E-01  0.35744000000E-01  0.51099999109E-03 0.  1.
       22    1    1    2    0    0  0.17126388748E-02  0.82169136045E-02  0.34737339906E-01  0.35737005818E-01  0.00000000000E+00 0. -1.
  9000001    1    1    2    0    0 -0.17126388748E-02 -0.82169136045E-02 -0.34737339906E-01  0.35750994182E-01  0.10000000475E-02 0.  1.
</event>
<event>
 4   0  0.2441219E-02  0.9118800E+02  0.7818609E-02  0.1379984E+01
      -11   -1    0    0    0    0  0.00000000000E+00  0.00000000000E+00  0.35740347158E-01  0.35744000000E-01  0.51099999109E-03 0. -1.
       11   -1    0    0    0    0 -0.00000000000E+00 -0.00000000000E+00 -0.35740347158E-01  0.35744000000E-01  0.51099999109E-03 0.  1.
       22    1    1    2    0    0 -0.16187215005E-01  0.13636090713E-01  0.28795219834E-01  0.35737005818E-01  0.00000000000E+00 0. -1.
  9000001    1    1    2    0    0  0.16187215005E-01 -0.13636090713E-01 -0.28795219834E-01  0.35750994182E-01  0.10000000475E-02 0.  1.
</event>
<event>
 4   0  0.2441219E-02  0.9118800E+02  0.7818609E-02  0.1379984E+01
      -11   -1    0    0    0    0  0.00000000000E+00  0.00000000000E+00  0.35740347158E-01  0.35744000000E-01  0.51099999109E-03 0.  1.
       11   -1    0    0    0    0 -0.00000000000E+00 -0.00000000000E+00 -0.35740347158E-01  0.35744000000E-01  0.51099999109E-03 0. -1.
       22    1    1    2    0    0 -0.11739861948E-01  0.33292231315E-02 -0.33589068157E-01  0.35737005818E-01  0.00000000000E+00 0. -1.
  9000001    1    1    2    0    0  0.11739861948E-01 -0.33292231315E-02  0.33589068157E-01  0.35750994182E-01  0.10000000475E-02 0.  1.
</event>
<event>
 4   0  0.2441219E-02  0.9118800E+02  0.7818609E-02  0.1379984E+01
      -11   -1    0    0    0    0  0.00000000000E+00  0.00000000000E+00  0.35740347158E-01  0.35744000000E-01  0.51099999109E-03 0.  1.
       11   -1    0    0    0    0 -0.00000000000E+00 -0.00000000000E+00 -0.35740347158E-01  0.35744000000E-01  0.51099999109E-03 0. -1.
       22    1    1    2    0    0 -0.73891205211E-02  0.75275939194E-02 -0.34144835811E-01  0.35737005818E-01  0.00000000000E+00 0. -1.
  9000001    1    1    2    0    0  0.73891205211E-02 -0.75275939194E-02  0.34144835811E-01  0.35750994182E-01  0.10000000475E-02 0.  1.
</event>
<event>
 4   0  0.2441219E-02  0.9118800E+02  0.7818609E-02  0.1379984E+01
      -11   -1    0    0    0    0  0.00000000000E+00  0.00000000000E+00  0.35740347158E-01  0.35744000000E-01  0.51099999109E-03 0. -1.
       11   -1    0    0    0    0 -0.00000000000E+00 -0.00000000000E+00 -0.35740347158E-01  0.35744000000E-01  0.51099999109E-03 0.  1.
       22    1    1    2    0    0  0.15241935625E-01  0.87052176935E-02 -0.31129345772E-01  0.35737005818E-01  0.00000000000E+00 0.  1.
  9000001    1    1    2    0    0 -0.15241935625E-01 -0.87052176935E-02  0.31129345772E-01  0.35750994182E-01  0.10000000475E-02 0. -1.
</event>
<event>
 4   0  0.2441219E-02  0.9118800E+02  0.7818609E-02  0.1379984E+01
      -11   -1    0    0    0    0  0.00000000000E+00  0.00000000000E+00  0.35740347158E-01  0.35744000000E-01  0.51099999109E-03 0. -1.
       11   -1    0    0    0    0 -0.00000000000E+00 -0.00000000000E+00 -0.35740347158E-01  0.35744000000E-01  0.51099999109E-03 0.  1.
       22    1    1    2    0    0  0.21055303901E-02 -0.25288703119E-02 -0.35585181489E-01  0.35737005818E-01  0.00000000000E+00 0.  1.
  9000001    1    1    2    0    0 -0.21055303901E-02  0.25288703119E-02  0.35585181489E-01  0.35750994182E-01  0.10000000475E-02 0. -1.
</event>
<event>
 4   0  0.2441219E-02  0.9118800E+02  0.7818609E-02  0.1379984E+01
      -11   -1    0    0    0    0  0.00000000000E+00  0.00000000000E+00  0.35740347158E-01  0.35744000000E-01  0.51099999109E-03 0.  1.
       11   -1    0    0    0    0 -0.00000000000E+00 -0.00000000000E+00 -0.35740347158E-01  0.35744000000E-01  0.51099999109E-03 0. -1.
       22    1    1    2    0    0  0.13156690745E-02 -0.67020881048E-02  0.35078264136E-01  0.35737005818E-01  0.00000000000E+00 0.  1.
  9000001    1    1    2    0    0 -0.13156690745E-02  0.67020881048E-02 -0.35078264136E-01  0.35750994182E-01  0.10000000475E-02 0. -1.
</event>
<event>
 4   0  0.2441219E-02  0.9118800E+02  0.7818609E-02  0.1379984E+01
      -11   -1    0    0    0    0  0.00000000000E+00  0.00000000000E+00  0.35740347158E-01  0.35744000000E-01  0.51099999109E-03 0. -1.
       11   -1    0    0    0    0 -0.00000000000E+00 -0.00000000000E+00 -0.35740347158E-01  0.35744000000E-01  0.51099999109E-03 0.  1.
       22    1    1    2    0    0 -0.12407673454E-01 -0.12414705833E-02 -0.33490923772E-01  0.35737005818E-01  0.00000000000E+00 0.  1.
  9000001    1    1    2    0    0  0.12407673454E-01  0.12414705833E-02  0.33490923772E-01  0.35750994182E-01  0.10000000475E-02 0. -1.
</event>
<event>
 4   0  0.2441219E-02  0.9118800E+02  0.7818609E-02  0.1379984E+01
      -11   -1    0    0    0    0  0.00000000000E+00  0.00000000000E+00  0.35740347158E-01  0.35744000000E-01  0.51099999109E-03 0. -1.
       11   -1    0    0    0    0 -0.00000000000E+00 -0.00000000000E+00 -0.35740347158E-01  0.35744000000E-01  0.51099999109E-03 0.  1.
       22    1    1    2    0    0  0.99605848221E-03 -0.19121909514E-01  0.30174393596E-01  0.35737005818E-01  0.00000000000E+00 0. -1.
  9000001    1    1    2    0    0 -0.99605848221E-03  0.19121909514E-01 -0.30174393596E-01  0.35750994182E-01  0.10000000475E-02 0.  1.
</event>
<event>
 4   0  0.2441219E-02  0.9118800E+02  0.7818609E-02  0.1379984E+01
      -11   -1    0    0    0    0  0.00000000000E+00  0.00000000000E+00  0.35740347158E-01  0.35744000000E-01  0.51099999109E-03 0.  1.
       11   -1    0    0    0    0 -0.00000000000E+00 -0.00000000000E+00 -0.35740347158E-01  0.35744000000E-01  0.51099999109E-03 0. -1.
       22    1    1    2    0    0 -0.76283976298E-02 -0.12878356762E-01  0.32451333741E-01  0.35737005818E-01  0.00000000000E+00 0.  1.
  9000001    1    1    2    0    0  0.76283976298E-02  0.12878356762E-01 -0.32451333741E-01  0.35750994182E-01  0.10000000475E-02 0. -1.
</event>
<event>
 4   0  0.2441219E-02  0.9118800E+02  0.7818609E-02  0.1379984E+01
      -11   -1    0    0    0    0  0.00000000000E+00  0.00000000000E+00  0.35740347158E-01  0.35744000000E-01  0.51099999109E-03 0. -1.
       11   -1    0    0    0    0 -0.00000000000E+00 -0.00000000000E+00 -0.35740347158E-01  0.35744000000E-01  0.51099999109E-03 0.  1.
       22    1    1    2    0    0 -0.20243369688E-02 -0.42782807059E-02 -0.35422195851E-01  0.35737005818E-01  0.00000000000E+00 0.  1.
  9000001    1    1    2    0    0  0.20243369688E-02  0.42782807059E-02  0.35422195851E-01  0.35750994182E-01  0.10000000475E-02 0. -1.
</event>
<event>
 4   0  0.2441219E-02  0.9118800E+02  0.7818609E-02  0.1379984E+01
      -11   -1    0    0    0    0  0.00000000000E+00  0.00000000000E+00  0.35740347158E-01  0.35744000000E-01  0.51099999109E-03 0.  1.
       11   -1    0    0    0    0 -0.00000000000E+00 -0.00000000000E+00 -0.35740347158E-01  0.35744000000E-01  0.51099999109E-03 0. -1.
       22    1    1    2    0    0 -0.76590768664E-02 -0.12654995021E-02 -0.34883672935E-01  0.35737005818E-01  0.00000000000E+00 0. -1.
  9000001    1    1    2    0    0  0.76590768664E-02  0.12654995021E-02  0.34883672935E-01  0.35750994182E-01  0.10000000475E-02 0.  1.
</event>
<event>
 4   0  0.2441219E-02  0.9118800E+02  0.7818609E-02  0.1379984E+01
      -11   -1    0    0    0    0  0.00000000000E+00  0.00000000000E+00  0.35740347158E-01  0.35744000000E-01  0.51099999109E-03 0. -1.
       11   -1    0    0    0    0 -0.00000000000E+00 -0.00000000000E+00 -0.35740347158E-01  0.35744000000E-01  0.51099999109E-03 0.  1.
       22    1    1    2    0    0 -0.51443038263E-02  0.39534663865E-02  0.35143133420E-01  0.35737005818E-01  0.00000000000E+00 0. -1.
  9000001    1    1    2    0    0  0.51443038263E-02 -0.39534663865E-02 -0.35143133420E-01  0.35750994182E-01  0.10000000475E-02 0.  1.
</event>
<event>
 4   0  0.2441219E-02  0.9118800E+02  0.7818609E-02  0.1379984E+01
      -11   -1    0    0    0    0  0.00000000000E+00  0.00000000000E+00  0.35740347158E-01  0.35744000000E-01  0.51099999109E-03 0.  1.
       11   -1    0    0    0    0 -0.00000000000E+00 -0.00000000000E+00 -0.35740347158E-01  0.35744000000E-01  0.51099999109E-03 0. -1.
       22    1    1    2    0    0 -0.12562621991E-03 -0.52218844013E-02 -0.35353213803E-01  0.35737005818E-01  0.00000000000E+00 0. -1.
  9000001    1    1    2    0    0  0.12562621991E-03  0.52218844013E-02  0.35353213803E-01  0.35750994182E-01  0.10000000475E-02 0.  1.
</event>
<event>
 4   0  0.2441219E-02  0.9118800E+02  0.7818609E-02  0.1379984E+01
      -11   -1    0    0    0    0  0.00000000000E+00  0.00000000000E+00  0.35740347158E-01  0.35744000000E-01  0.51099999109E-03 0.  1.
       11   -1    0    0    0    0 -0.00000000000E+00 -0.00000000000E+00 -0.35740347158E-01  0.35744000000E-01  0.51099999109E-03 0. -1.
       22    1    1    2    0    0 -0.75719632805E-02  0.70532941741E-02 -0.34205993601E-01  0.35737005818E-01  0.00000000000E+00 0. -1.
  9000001    1    1    2    0    0  0.75719632805E-02 -0.70532941741E-02  0.34205993601E-01  0.35750994182E-01  0.10000000475E-02 0.  1.
</event>
<event>
 4   0  0.2441219E-02  0.9118800E+02  0.7818609E-02  0.1379984E+01
      -11   -1    0    0    0    0  0.00000000000E+00  0.00000000000E+00  0.35740347158E-01  0.35744000000E-01  0.51099999109E-03 0. -1.
       11   -1    0    0    0    0 -0.00000000000E+00 -0.00000000000E+00 -0.35740347158E-01  0.35744000000E-01  0.51099999109E-03 0.  1.
       22    1    1    2    0    0  0.29639650902E-01 -0.10074078412E-01  0.17237680338E-01  0.35737005818E-01  0.00000000000E+00 0. -1.
  9000001    1    1    2    0    0 -0.29639650902E-01  0.10074078412E-01 -0.17237680338E-01  0.35750994182E-01  0.10000000475E-02 0.  1.
</event>
<event>
 4   0  0.2441219E-02  0.9118800E+02  0.7818609E-02  0.1379984E+01
      -11   -1    0    0    0    0  0.00000000000E+00  0.00000000000E+00  0.35740347158E-01  0.35744000000E-01  0.51099999109E-03 0. -1.
       11   -1    0    0    0    0 -0.00000000000E+00 -0.00000000000E+00 -0.35740347158E-01  0.35744000000E-01  0.51099999109E-03 0.  1.
       22    1    1    2    0    0 -0.13052664814E-01  0.19108241501E-02 -0.33213103998E-01  0.35737005818E-01  0.00000000000E+00 0.  1.
  9000001    1    1    2    0    0  0.13052664814E-01 -0.19108241501E-02  0.33213103998E-01  0.35750994182E-01  0.10000000475E-02 0. -1.
</event>
<event>
 4   0  0.2441219E-02  0.9118800E+02  0.7818609E-02  0.1379984E+01
      -11   -1    0    0    0    0  0.00000000000E+00  0.00000000000E+00  0.35740347158E-01  0.35744000000E-01  0.51099999109E-03 0. -1.
       11   -1    0    0    0    0 -0.00000000000E+00 -0.00000000000E+00 -0.35740347158E-01  0.35744000000E-01  0.51099999109E-03 0.  1.
       22    1    1    2    0    0  0.12990590760E-02 -0.55047360687E-02 -0.35286596764E-01  0.35737005818E-01  0.00000000000E+00 0.  1.
  9000001    1    1    2    0    0 -0.12990590760E-02  0.55047360687E-02  0.35286596764E-01  0.35750994182E-01  0.10000000475E-02 0. -1.
</event>
<event>
 4   0  0.2441219E-02  0.9118800E+02  0.7818609E-02  0.1379984E+01
      -11   -1    0    0    0    0  0.00000000000E+00  0.00000000000E+00  0.35740347158E-01  0.35744000000E-01  0.51099999109E-03 0.  1.
       11   -1    0    0    0    0 -0.00000000000E+00 -0.00000000000E+00 -0.35740347158E-01  0.35744000000E-01  0.51099999109E-03 0. -1.
       22    1    1    2    0    0  0.99667522961E-03  0.29980354403E-02 -0.35597078628E-01  0.35737005818E-01  0.00000000000E+00 0. -1.
  9000001    1    1    2    0    0 -0.99667522961E-03 -0.29980354403E-02  0.35597078628E-01  0.35750994182E-01  0.10000000475E-02 0.  1.
</event>
<event>
 4   0  0.2441219E-02  0.9118800E+02  0.7818609E-02  0.1379984E+01
      -11   -1    0    0    0    0  0.00000000000E+00  0.00000000000E+00  0.35740347158E-01  0.35744000000E-01  0.51099999109E-03 0. -1.
       11   -1    0    0    0    0 -0.00000000000E+00 -0.00000000000E+00 -0.35740347158E-01  0.35744000000E-01  0.51099999109E-03 0.  1.
       22    1    1    2    0    0  0.49435624497E-02 -0.55056065486E-02  0.34962595323E-01  0.35737005818E-01  0.00000000000E+00 0. -1.
  9000001    1    1    2    0    0 -0.49435624497E-02  0.55056065486E-02 -0.34962595323E-01  0.35750994182E-01  0.10000000475E-02 0.  1.
</event>
<event>
 4   0  0.2441219E-02  0.9118800E+02  0.7818609E-02  0.1379984E+01
      -11   -1    0    0    0    0  0.00000000000E+00  0.00000000000E+00  0.35740347158E-01  0.35744000000E-01  0.51099999109E-03 0. -1.
       11   -1    0    0    0    0 -0.00000000000E+00 -0.00000000000E+00 -0.35740347158E-01  0.35744000000E-01  0.51099999109E-03 0.  1.
       22    1    1    2    0    0  0.17655965629E-01  0.29323818110E-01  0.10272008277E-01  0.35737005818E-01  0.00000000000E+00 0.  1.
  9000001    1    1    2    0    0 -0.17655965629E-01 -0.29323818110E-01 -0.10272008277E-01  0.35750994182E-01  0.10000000475E-02 0. -1.
</event>
<event>
 4   0  0.2441219E-02  0.9118800E+02  0.7818609E-02  0.1379984E+01
      -11   -1    0    0    0    0  0.00000000000E+00  0.00000000000E+00  0.35740347158E-01  0.35744000000E-01  0.51099999109E-03 0. -1.
       11   -1    0    0    0    0 -0.00000000000E+00 -0.00000000000E+00 -0.35740347158E-01  0.35744000000E-01  0.51099999109E-03 0.  1.
       22    1    1    2    0    0 -0.37136237859E-02  0.30107983104E-02  0.35415782877E-01  0.35737005818E-01  0.00000000000E+00 0. -1.
  9000001    1    1    2    0    0  0.37136237859E-02 -0.30107983104E-02 -0.35415782877E-01  0.35750994182E-01  0.10000000475E-02 0.  1.
</event>
<event>
 4   0  0.2441219E-02  0.9118800E+02  0.7818609E-02  0.1379984E+01
      -11   -1    0    0    0    0  0.00000000000E+00  0.00000000000E+00  0.35740347158E-01  0.35744000000E-01  0.51099999109E-03 0.  1.
       11   -1    0    0    0    0 -0.00000000000E+00 -0.00000000000E+00 -0.35740347158E-01  0.35744000000E-01  0.51099999109E-03 0. -1.
       22    1    1    2    0    0  0.21758211048E-01 -0.69074796421E-02 -0.27495464387E-01  0.35737005818E-01  0.00000000000E+00 0. -1.
  9000001    1    1    2    0    0 -0.21758211048E-01  0.69074796421E-02  0.27495464387E-01  0.35750994182E-01  0.10000000475E-02 0.  1.
</event>
<event>
 4   0  0.2441219E-02  0.9118800E+02  0.7818609E-02  0.1379984E+01
      -11   -1    0    0    0    0  0.00000000000E+00  0.00000000000E+00  0.35740347158E-01  0.35744000000E-01  0.51099999109E-03 0.  1.
       11   -1    0    0    0    0 -0.00000000000E+00 -0.00000000000E+00 -0.35740347158E-01  0.35744000000E-01  0.51099999109E-03 0. -1.
       22    1    1    2    0    0  0.11440048641E-01 -0.31948687416E-02  0.33705365829E-01  0.35737005818E-01  0.00000000000E+00 0.  1.
  9000001    1    1    2    0    0 -0.11440048641E-01  0.31948687416E-02 -0.33705365829E-01  0.35750994182E-01  0.10000000475E-02 0. -1.
</event>
<event>
 4   0  0.2441219E-02  0.9118800E+02  0.7818609E-02  0.1379984E+01
      -11   -1    0    0    0    0  0.00000000000E+00  0.00000000000E+00  0.35740347158E-01  0.35744000000E-01  0.51099999109E-03 0. -1.
       11   -1    0    0    0    0 -0.00000000000E+00 -0.00000000000E+00 -0.35740347158E-01  0.35744000000E-01  0.51099999109E-03 0.  1.
       22    1    1    2    0    0  0.98841780723E-03  0.29375528495E-01 -0.20328180950E-01  0.35737005818E-01  0.00000000000E+00 0. -1.
  9000001    1    1    2    0    0 -0.98841780723E-03 -0.29375528495E-01  0.20328180950E-01  0.35750994182E-01  0.10000000475E-02 0.  1.
</event>
<event>
 4   0  0.2441219E-02  0.9118800E+02  0.7818609E-02  0.1379984E+01
      -11   -1    0    0    0    0  0.00000000000E+00  0.00000000000E+00  0.35740347158E-01  0.35744000000E-01  0.51099999109E-03 0. -1.
       11   -1    0    0    0    0 -0.00000000000E+00 -0.00000000000E+00 -0.35740347158E-01  0.35744000000E-01  0.51099999109E-03 0.  1.
       22    1    1    2    0    0  0.64835215134E-02  0.25158567668E-02 -0.35053787219E-01  0.35737005818E-01  0.00000000000E+00 0.  1.
  9000001    1    1    2    0    0 -0.64835215134E-02 -0.25158567668E-02  0.35053787219E-01  0.35750994182E-01  0.10000000475E-02 0. -1.
</event>
<event>
 4   0  0.2441219E-02  0.9118800E+02  0.7818609E-02  0.1379984E+01
      -11   -1    0    0    0    0  0.00000000000E+00  0.00000000000E+00  0.35740347158E-01  0.35744000000E-01  0.51099999109E-03 0. -1.
       11   -1    0    0    0    0 -0.00000000000E+00 -0.00000000000E+00 -0.35740347158E-01  0.35744000000E-01  0.51099999109E-03 0.  1.
       22    1    1    2    0    0  0.18823253282E-01  0.11104484480E-01 -0.28275592747E-01  0.35737005818E-01  0.00000000000E+00 0.  1.
  9000001    1    1    2    0    0 -0.18823253282E-01 -0.11104484480E-01  0.28275592747E-01  0.35750994182E-01  0.10000000475E-02 0. -1.
</event>
<event>
 4   0  0.2441219E-02  0.9118800E+02  0.7818609E-02  0.1379984E+01
      -11   -1    0    0    0    0  0.00000000000E+00  0.00000000000E+00  0.35740347158E-01  0.35744000000E-01  0.51099999109E-03 0.  1.
       11   -1    0    0    0    0 -0.00000000000E+00 -0.00000000000E+00 -0.35740347158E-01  0.35744000000E-01  0.51099999109E-03 0. -1.
       22    1    1    2    0    0 -0.17802157815E-02 -0.20015878196E-01 -0.29552140983E-01  0.35737005818E-01  0.00000000000E+00 0.  1.
  9000001    1    1    2    0    0  0.17802157815E-02  0.20015878196E-01  0.29552140983E-01  0.35750994182E-01  0.10000000475E-02 0. -1.
</event>
<event>
 4   0  0.2441219E-02  0.9118800E+02  0.7818609E-02  0.1379984E+01
      -11   -1    0    0    0    0  0.00000000000E+00  0.00000000000E+00  0.35740347158E-01  0.35744000000E-01  0.51099999109E-03 0. -1.
       11   -1    0    0    0    0 -0.00000000000E+00 -0.00000000000E+00 -0.35740347158E-01  0.35744000000E-01  0.51099999109E-03 0.  1.
       22    1    1    2    0    0 -0.33511305638E-02 -0.36337416382E-03  0.35577682162E-01  0.35737005818E-01  0.00000000000E+00 0. -1.
  9000001    1    1    2    0    0  0.33511305638E-02  0.36337416382E-03 -0.35577682162E-01  0.35750994182E-01  0.10000000475E-02 0.  1.
</event>
<event>
 4   0  0.2441219E-02  0.9118800E+02  0.7818609E-02  0.1379984E+01
      -11   -1    0    0    0    0  0.00000000000E+00  0.00000000000E+00  0.35740347158E-01  0.35744000000E-01  0.51099999109E-03 0. -1.
       11   -1    0    0    0    0 -0.00000000000E+00 -0.00000000000E+00 -0.35740347158E-01  0.35744000000E-01  0.51099999109E-03 0.  1.
       22    1    1    2    0    0 -0.13311546432E-01  0.39200395316E-02  0.32932804413E-01  0.35737005818E-01  0.00000000000E+00 0. -1.
  9000001    1    1    2    0    0  0.13311546432E-01 -0.39200395316E-02 -0.32932804413E-01  0.35750994182E-01  0.10000000475E-02 0.  1.
</event>
<event>
 4   0  0.2441219E-02  0.9118800E+02  0.7818609E-02  0.1379984E+01
      -11   -1    0    0    0    0  0.00000000000E+00  0.00000000000E+00  0.35740347158E-01  0.35744000000E-01  0.51099999109E-03 0.  1.
       11   -1    0    0    0    0 -0.00000000000E+00 -0.00000000000E+00 -0.35740347158E-01  0.35744000000E-01  0.51099999109E-03 0. -1.
       22    1    1    2    0    0  0.97424500004E-02 -0.10084191723E-01 -0.32871375544E-01  0.35737005818E-01  0.00000000000E+00 0. -1.
  9000001    1    1    2    0    0 -0.97424500004E-02  0.10084191723E-01  0.32871375544E-01  0.35750994182E-01  0.10000000475E-02 0.  1.
</event>
<event>
 4   0  0.2441219E-02  0.9118800E+02  0.7818609E-02  0.1379984E+01
      -11   -1    0    0    0    0  0.00000000000E+00  0.00000000000E+00  0.35740347158E-01  0.35744000000E-01  0.51099999109E-03 0.  1.
       11   -1    0    0    0    0 -0.00000000000E+00 -0.00000000000E+00 -0.35740347158E-01  0.35744000000E-01  0.51099999109E-03 0. -1.
       22    1    1    2    0    0  0.16677834904E-02 -0.57664101402E-02  0.35229257687E-01  0.35737005818E-01  0.00000000000E+00 0.  1.
  9000001    1    1    2    0    0 -0.16677834904E-02  0.57664101402E-02 -0.35229257687E-01  0.35750994182E-01  0.10000000475E-02 0. -1.
</event>
<event>
 4   0  0.2441219E-02  0.9118800E+02  0.7818609E-02  0.1379984E+01
      -11   -1    0    0    0    0  0.00000000000E+00  0.00000000000E+00  0.35740347158E-01  0.35744000000E-01  0.51099999109E-03 0.  1.
       11   -1    0    0    0    0 -0.00000000000E+00 -0.00000000000E+00 -0.35740347158E-01  0.35744000000E-01  0.51099999109E-03 0. -1.
       22    1    1    2    0    0  0.11638249836E-01  0.28153304614E-01  0.18683580089E-01  0.35737005818E-01  0.00000000000E+00 0.  1.
  9000001    1    1    2    0    0 -0.11638249836E-01 -0.28153304614E-01 -0.18683580089E-01  0.35750994182E-01  0.10000000475E-02 0. -1.
</event>
<event>
 4   0  0.2441219E-02  0.9118800E+02  0.7818609E-02  0.1379984E+01
      -11   -1    0    0    0    0  0.00000000000E+00  0.00000000000E+00  0.35740347158E-01  0.35744000000E-01  0.51099999109E-03 0.  1.
       11   -1    0    0    0    0 -0.00000000000E+00 -0.00000000000E+00 -0.35740347158E-01  0.35744000000E-01  0.51099999109E-03 0. -1.
       22    1    1    2    0    0  0.76369858045E-03 -0.34830663841E-02 -0.35558664175E-01  0.35737005818E-01  0.00000000000E+00 0. -1.
  9000001    1    1    2    0    0 -0.76369858045E-03  0.34830663841E-02  0.35558664175E-01  0.35750994182E-01  0.10000000475E-02 0.  1.
</event>
<event>
 4   0  0.2441219E-02  0.9118800E+02  0.7818609E-02  0.1379984E+01
      -11   -1    0    0    0    0  0.00000000000E+00  0.00000000000E+00  0.35740347158E-01  0.35744000000E-01  0.51099999109E-03 0.  1.
       11   -1    0    0    0    0 -0.00000000000E+00 -0.00000000000E+00 -0.35740347158E-01  0.35744000000E-01  0.51099999109E-03 0. -1.
       22    1    1    2    0    0  0.27179072429E-02 -0.24023696969E-02  0.35552428678E-01  0.35737005818E-01  0.00000000000E+00 0.  1.
  9000001    1    1    2    0    0 -0.27179072429E-02  0.24023696969E-02 -0.35552428678E-01  0.35750994182E-01  0.10000000475E-02 0. -1.
</event>
<event>
 4   0  0.2441219E-02  0.9118800E+02  0.7818609E-02  0.1379984E+01
      -11   -1    0    0    0    0  0.00000000000E+00  0.00000000000E+00  0.35740347158E-01  0.35744000000E-01  0.51099999109E-03 0. -1.
       11   -1    0    0    0    0 -0.00000000000E+00 -0.00000000000E+00 -0.35740347158E-01  0.35744000000E-01  0.51099999109E-03 0.  1.
       22    1    1    2    0    0 -0.22566087773E-02  0.74123885095E-02 -0.34886928760E-01  0.35737005818E-01  0.00000000000E+00 0.  1.
  9000001    1    1    2    0    0  0.22566087773E-02 -0.74123885095E-02  0.34886928760E-01  0.35750994182E-01  0.10000000475E-02 0. -1.
</event>
<event>
 4   0  0.2441219E-02  0.9118800E+02  0.7818609E-02  0.1379984E+01
      -11   -1    0    0    0    0  0.00000000000E+00  0.00000000000E+00  0.35740347158E-01  0.35744000000E-01  0.51099999109E-03 0.  1.
       11   -1    0    0    0    0 -0.00000000000E+00 -0.00000000000E+00 -0.35740347158E-01  0.35744000000E-01  0.51099999109E-03 0. -1.
       22    1    1    2    0    0 -0.42833052708E-02  0.70318339427E-02  0.34775568899E-01  0.35737005818E-01  0.00000000000E+00 0.  1.
  9000001    1    1    2    0    0  0.42833052708E-02 -0.70318339427E-02 -0.34775568899E-01  0.35750994182E-01  0.10000000475E-02 0. -1.
</event>
<event>
 4   0  0.2441219E-02  0.9118800E+02  0.7818609E-02  0.1379984E+01
      -11   -1    0    0    0    0  0.00000000000E+00  0.00000000000E+00  0.35740347158E-01  0.35744000000E-01  0.51099999109E-03 0. -1.
       11   -1    0    0    0    0 -0.00000000000E+00 -0.00000000000E+00 -0.35740347158E-01  0.35744000000E-01  0.51099999109E-03 0.  1.
       22    1    1    2    0    0 -0.62820417916E-02  0.15783539850E-02  0.35145103990E-01  0.35737005818E-01  0.00000000000E+00 0. -1.
  9000001    1    1    2    0    0  0.62820417916E-02 -0.15783539850E-02 -0.35145103990E-01  0.35750994182E-01  0.10000000475E-02 0.  1.
</event>
<event>
 4   0  0.2441219E-02  0.9118800E+02  0.7818609E-02  0.1379984E+01
      -11   -1    0    0    0    0  0.00000000000E+00  0.00000000000E+00  0.35740347158E-01  0.35744000000E-01  0.51099999109E-03 0.  1.
       11   -1    0    0    0    0 -0.00000000000E+00 -0.00000000000E+00 -0.35740347158E-01  0.35744000000E-01  0.51099999109E-03 0. -1.
       22    1    1    2    0    0  0.23732283656E-02 -0.24182242829E-02 -0.35576025120E-01  0.35737005818E-01  0.00000000000E+00 0. -1.
  9000001    1    1    2    0    0 -0.23732283656E-02  0.24182242829E-02  0.35576025120E-01  0.35750994182E-01  0.10000000475E-02 0.  1.
</event>
<event>
 4   0  0.2441219E-02  0.9118800E+02  0.7818609E-02  0.1379984E+01
      -11   -1    0    0    0    0  0.00000000000E+00  0.00000000000E+00  0.35740347158E-01  0.35744000000E-01  0.51099999109E-03 0. -1.
       11   -1    0    0    0    0 -0.00000000000E+00 -0.00000000000E+00 -0.35740347158E-01  0.35744000000E-01  0.51099999109E-03 0.  1.
       22    1    1    2    0    0  0.15044632753E-01  0.61832566948E-02 -0.31820747113E-01  0.35737005818E-01  0.00000000000E+00 0.  1.
  9000001    1    1    2    0    0 -0.15044632753E-01 -0.61832566948E-02  0.31820747113E-01  0.35750994182E-01  0.10000000475E-02 0. -1.
</event>
<event>
 4   0  0.2441219E-02  0.9118800E+02  0.7818609E-02  0.1379984E+01
      -11   -1    0    0    0    0  0.00000000000E+00  0.00000000000E+00  0.35740347158E-01  0.35744000000E-01  0.51099999109E-03 0.  1.
       11   -1    0    0    0    0 -0.00000000000E+00 -0.00000000000E+00 -0.35740347158E-01  0.35744000000E-01  0.51099999109E-03 0. -1.
       22    1    1    2    0    0  0.52917452644E-02 -0.19351088349E-01  0.29574759452E-01  0.35737005818E-01  0.00000000000E+00 0.  1.
  9000001    1    1    2    0    0 -0.52917452644E-02  0.19351088349E-01 -0.29574759452E-01  0.35750994182E-01  0.10000000475E-02 0. -1.
</event>
<event>
 4   0  0.2441219E-02  0.9118800E+02  0.7818609E-02  0.1379984E+01
      -11   -1    0    0    0    0  0.00000000000E+00  0.00000000000E+00  0.35740347158E-01  0.35744000000E-01  0.51099999109E-03 0. -1.
       11   -1    0    0    0    0 -0.00000000000E+00 -0.00000000000E+00 -0.35740347158E-01  0.35744000000E-01  0.51099999109E-03 0.  1.
       22    1    1    2    0    0  0.61611118529E-02  0.38283958708E-02 -0.34993108903E-01  0.35737005818E-01  0.00000000000E+00 0.  1.
  9000001    1    1    2    0    0 -0.61611118529E-02 -0.38283958708E-02  0.34993108903E-01  0.35750994182E-01  0.10000000475E-02 0. -1.
</event>
<event>
 4   0  0.2441219E-02  0.9118800E+02  0.7818609E-02  0.1379984E+01
      -11   -1    0    0    0    0  0.00000000000E+00  0.00000000000E+00  0.35740347158E-01  0.35744000000E-01  0.51099999109E-03 0.  1.
       11   -1    0    0    0    0 -0.00000000000E+00 -0.00000000000E+00 -0.35740347158E-01  0.35744000000E-01  0.51099999109E-03 0. -1.
       22    1    1    2    0    0  0.97091039613E-02 -0.22857257206E-02  0.34316793893E-01  0.35737005818E-01  0.00000000000E+00 0.  1.
  9000001    1    1    2    0    0 -0.97091039613E-02  0.22857257206E-02 -0.34316793893E-01  0.35750994182E-01  0.10000000475E-02 0. -1.
</event>
<event>
 4   0  0.2441219E-02  0.9118800E+02  0.7818609E-02  0.1379984E+01
      -11   -1    0    0    0    0  0.00000000000E+00  0.00000000000E+00  0.35740347158E-01  0.35744000000E-01  0.51099999109E-03 0.  1.
       11   -1    0    0    0    0 -0.00000000000E+00 -0.00000000000E+00 -0.35740347158E-01  0.35744000000E-01  0.51099999109E-03 0. -1.
       22    1    1    2    0    0  0.33716102645E-02  0.42306732640E-02  0.35325164300E-01  0.35737005818E-01  0.00000000000E+00 0.  1.
  9000001    1    1    2    0    0 -0.33716102645E-02 -0.42306732640E-02 -0.35325164300E-01  0.35750994182E-01  0.10000000475E-02 0. -1.
</event>
<event>
 4   0  0.2441219E-02  0.9118800E+02  0.7818609E-02  0.1379984E+01
      -11   -1    0    0    0    0  0.00000000000E+00  0.00000000000E+00  0.35740347158E-01  0.35744000000E-01  0.51099999109E-03 0.  1.
       11   -1    0    0    0    0 -0.00000000000E+00 -0.00000000000E+00 -0.35740347158E-01  0.35744000000E-01  0.51099999109E-03 0. -1.
       22    1    1    2    0    0  0.65218802800E-02 -0.76053409466E-02 -0.34303898489E-01  0.35737005818E-01  0.00000000000E+00 0. -1.
  9000001    1    1    2    0    0 -0.65218802800E-02  0.76053409466E-02  0.34303898489E-01  0.35750994182E-01  0.10000000475E-02 0.  1.
</event>
<event>
 4   0  0.2441219E-02  0.9118800E+02  0.7818609E-02  0.1379984E+01
      -11   -1    0    0    0    0  0.00000000000E+00  0.00000000000E+00  0.35740347158E-01  0.35744000000E-01  0.51099999109E-03 0. -1.
       11   -1    0    0    0    0 -0.00000000000E+00 -0.00000000000E+00 -0.35740347158E-01  0.35744000000E-01  0.51099999109E-03 0.  1.
       22    1    1    2    0    0 -0.24262460304E-01  0.25009247603E-01  0.79375146744E-02  0.35737005818E-01  0.00000000000E+00 0. -1.
  9000001    1    1    2    0    0  0.24262460304E-01 -0.25009247603E-01 -0.79375146744E-02  0.35750994182E-01  0.10000000475E-02 0.  1.
</event>
<event>
 4   0  0.2441219E-02  0.9118800E+02  0.7818609E-02  0.1379984E+01
      -11   -1    0    0    0    0  0.00000000000E+00  0.00000000000E+00  0.35740347158E-01  0.35744000000E-01  0.51099999109E-03 0. -1.
       11   -1    0    0    0    0 -0.00000000000E+00 -0.00000000000E+00 -0.35740347158E-01  0.35744000000E-01  0.51099999109E-03 0.  1.
       22    1    1    2    0    0 -0.43016597134E-02  0.23118750555E-01  0.26910085123E-01  0.35737005818E-01  0.00000000000E+00 0. -1.
  9000001    1    1    2    0    0  0.43016597134E-02 -0.23118750555E-01 -0.26910085123E-01  0.35750994182E-01  0.10000000475E-02 0.  1.
</event>
<event>
 4   0  0.2441219E-02  0.9118800E+02  0.7818609E-02  0.1379984E+01
      -11   -1    0    0    0    0  0.00000000000E+00  0.00000000000E+00  0.35740347158E-01  0.35744000000E-01  0.51099999109E-03 0. -1.
       11   -1    0    0    0    0 -0.00000000000E+00 -0.00000000000E+00 -0.35740347158E-01  0.35744000000E-01  0.51099999109E-03 0.  1.
       22    1    1    2    0    0  0.23814790414E-01 -0.90490706498E-03  0.26630255079E-01  0.35737005818E-01  0.00000000000E+00 0. -1.
  9000001    1    1    2    0    0 -0.23814790414E-01  0.90490706498E-03 -0.26630255079E-01  0.35750994182E-01  0.10000000475E-02 0.  1.
</event>
<event>
 4   0  0.2441219E-02  0.9118800E+02  0.7818609E-02  0.1379984E+01
      -11   -1    0    0    0    0  0.00000000000E+00  0.00000000000E+00  0.35740347158E-01  0.35744000000E-01  0.51099999109E-03 0.  1.
       11   -1    0    0    0    0 -0.00000000000E+00 -0.00000000000E+00 -0.35740347158E-01  0.35744000000E-01  0.51099999109E-03 0. -1.
       22    1    1    2    0    0  0.53029472986E-02 -0.17326440540E-02 -0.35298870795E-01  0.35737005818E-01  0.00000000000E+00 0. -1.
  9000001    1    1    2    0    0 -0.53029472986E-02  0.17326440540E-02  0.35298870795E-01  0.35750994182E-01  0.10000000475E-02 0.  1.
</event>
<event>
 4   0  0.2441219E-02  0.9118800E+02  0.7818609E-02  0.1379984E+01
      -11   -1    0    0    0    0  0.00000000000E+00  0.00000000000E+00  0.35740347158E-01  0.35744000000E-01  0.51099999109E-03 0. -1.
       11   -1    0    0    0    0 -0.00000000000E+00 -0.00000000000E+00 -0.35740347158E-01  0.35744000000E-01  0.51099999109E-03 0.  1.
       22    1    1    2    0    0  0.10535967986E-01 -0.26791515199E-02 -0.34043341649E-01  0.35737005818E-01  0.00000000000E+00 0.  1.
  9000001    1    1    2    0    0 -0.10535967986E-01  0.26791515199E-02  0.34043341649E-01  0.35750994182E-01  0.10000000475E-02 0. -1.
</event>
<event>
 4   0  0.2441219E-02  0.9118800E+02  0.7818609E-02  0.1379984E+01
      -11   -1    0    0    0    0  0.00000000000E+00  0.00000000000E+00  0.35740347158E-01  0.35744000000E-01  0.51099999109E-03 0.  1.
       11   -1    0    0    0    0 -0.00000000000E+00 -0.00000000000E+00 -0.35740347158E-01  0.35744000000E-01  0.51099999109E-03 0. -1.
       22    1    1    2    0    0  0.12651498210E-01  0.16748754365E-01 -0.28923215678E-01  0.35737005818E-01  0.00000000000E+00 0. -1.
  9000001    1    1    2    0    0 -0.12651498210E-01 -0.16748754365E-01  0.28923215678E-01  0.35750994182E-01  0.10000000475E-02 0.  1.
</event>
<event>
 4   0  0.2441219E-02  0.9118800E+02  0.7818609E-02  0.1379984E+01
      -11   -1    0    0    0    0  0.00000000000E+00  0.00000000000E+00  0.35740347158E-01  0.35744000000E-01  0.51099999109E-03 0. -1.
       11   -1    0    0    0    0 -0.00000000000E+00 -0.00000000000E+00 -0.35740347158E-01  0.35744000000E-01  0.51099999109E-03 0.  1.
       22    1    1    2    0    0 -0.55045203030E-02  0.12091602887E-01 -0.33175698647E-01  0.35737005818E-01  0.00000000000E+00 0.  1.
  9000001    1    1    2    0    0  0.55045203030E-02 -0.12091602887E-01  0.33175698647E-01  0.35750994182E-01  0.10000000475E-02 0. -1.
</event>
<event>
 4   0  0.2441219E-02  0.9118800E+02  0.7818609E-02  0.1379984E+01
      -11   -1    0    0    0    0  0.00000000000E+00  0.00000000000E+00  0.35740347158E-01  0.35744000000E-01  0.51099999109E-03 0.  1.
       11   -1    0    0    0    0 -0.00000000000E+00 -0.00000000000E+00 -0.35740347158E-01  0.35744000000E-01  0.51099999109E-03 0. -1.
       22    1    1    2    0    0  0.15243600642E-01  0.52628351238E-02  0.31891515969E-01  0.35737005818E-01  0.00000000000E+00 0.  1.
  9000001    1    1    2    0    0 -0.15243600642E-01 -0.52628351238E-02 -0.31891515969E-01  0.35750994182E-01  0.10000000475E-02 0. -1.
</event>
<event>
 4   0  0.2441219E-02  0.9118800E+02  0.7818609E-02  0.1379984E+01
      -11   -1    0    0    0    0  0.00000000000E+00  0.00000000000E+00  0.35740347158E-01  0.35744000000E-01  0.51099999109E-03 0. -1.
       11   -1    0    0    0    0 -0.00000000000E+00 -0.00000000000E+00 -0.35740347158E-01  0.35744000000E-01  0.51099999109E-03 0.  1.
       22    1    1    2    0    0  0.37364619118E-02 -0.12739377217E-02  0.35518298382E-01  0.35737005818E-01  0.00000000000E+00 0. -1.
  9000001    1    1    2    0    0 -0.37364619118E-02  0.12739377217E-02 -0.35518298382E-01  0.35750994182E-01  0.10000000475E-02 0.  1.
</event>
<event>
 4   0  0.2441219E-02  0.9118800E+02  0.7818609E-02  0.1379984E+01
      -11   -1    0    0    0    0  0.00000000000E+00  0.00000000000E+00  0.35740347158E-01  0.35744000000E-01  0.51099999109E-03 0. -1.
       11   -1    0    0    0    0 -0.00000000000E+00 -0.00000000000E+00 -0.35740347158E-01  0.35744000000E-01  0.51099999109E-03 0.  1.
       22    1    1    2    0    0 -0.14901775724E-01 -0.21220899651E-02  0.32412457471E-01  0.35737005818E-01  0.00000000000E+00 0. -1.
  9000001    1    1    2    0    0  0.14901775724E-01  0.21220899651E-02 -0.32412457471E-01  0.35750994182E-01  0.10000000475E-02 0.  1.
</event>
<event>
 4   0  0.2441219E-02  0.9118800E+02  0.7818609E-02  0.1379984E+01
      -11   -1    0    0    0    0  0.00000000000E+00  0.00000000000E+00  0.35740347158E-01  0.35744000000E-01  0.51099999109E-03 0. -1.
       11   -1    0    0    0    0 -0.00000000000E+00 -0.00000000000E+00 -0.35740347158E-01  0.35744000000E-01  0.51099999109E-03 0.  1.
       22    1    1    2    0    0  0.54941030326E-02  0.99914660923E-02 -0.33869145576E-01  0.35737005818E-01  0.00000000000E+00 0.  1.
  9000001    1    1    2    0    0 -0.54941030326E-02 -0.99914660923E-02  0.33869145576E-01  0.35750994182E-01  0.10000000475E-02 0. -1.
</event>
<event>
 4   0  0.2441219E-02  0.9118800E+02  0.7818609E-02  0.1379984E+01
      -11   -1    0    0    0    0  0.00000000000E+00  0.00000000000E+00  0.35740347158E-01  0.35744000000E-01  0.51099999109E-03 0. -1.
       11   -1    0    0    0    0 -0.00000000000E+00 -0.00000000000E+00 -0.35740347158E-01  0.35744000000E-01  0.51099999109E-03 0.  1.
       22    1    1    2    0    0 -0.51331977600E-02  0.87777787526E-02  0.34259808315E-01  0.35737005818E-01  0.00000000000E+00 0. -1.
  9000001    1    1    2    0    0  0.51331977600E-02 -0.87777787526E-02 -0.34259808315E-01  0.35750994182E-01  0.10000000475E-02 0.  1.
</event>
<event>
 4   0  0.2441219E-02  0.9118800E+02  0.7818609E-02  0.1379984E+01
      -11   -1    0    0    0    0  0.00000000000E+00  0.00000000000E+00  0.35740347158E-01  0.35744000000E-01  0.51099999109E-03 0.  1.
       11   -1    0    0    0    0 -0.00000000000E+00 -0.00000000000E+00 -0.35740347158E-01  0.35744000000E-01  0.51099999109E-03 0. -1.
       22    1    1    2    0    0  0.36583664960E-02 -0.45899807194E-02  0.35251695228E-01  0.35737005818E-01  0.00000000000E+00 0.  1.
  9000001    1    1    2    0    0 -0.36583664960E-02  0.45899807194E-02 -0.35251695228E-01  0.35750994182E-01  0.10000000475E-02 0. -1.
</event>
<event>
 4   0  0.2441219E-02  0.9118800E+02  0.7818609E-02  0.1379984E+01
      -11   -1    0    0    0    0  0.00000000000E+00  0.00000000000E+00  0.35740347158E-01  0.35744000000E-01  0.51099999109E-03 0. -1.
       11   -1    0    0    0    0 -0.00000000000E+00 -0.00000000000E+00 -0.35740347158E-01  0.35744000000E-01  0.51099999109E-03 0.  1.
       22    1    1    2    0    0  0.19613812062E-01 -0.64599718872E-02 -0.29166774324E-01  0.35737005818E-01  0.00000000000E+00 0.  1.
  9000001    1    1    2    0    0 -0.19613812062E-01  0.64599718872E-02  0.29166774324E-01  0.35750994182E-01  0.10000000475E-02 0. -1.
</event>
<event>
 4   0  0.2441219E-02  0.9118800E+02  0.7818609E-02  0.1379984E+01
      -11   -1    0    0    0    0  0.00000000000E+00  0.00000000000E+00  0.35740347158E-01  0.35744000000E-01  0.51099999109E-03 0. -1.
       11   -1    0    0    0    0 -0.00000000000E+00 -0.00000000000E+00 -0.35740347158E-01  0.35744000000E-01  0.51099999109E-03 0.  1.
       22    1    1    2    0    0  0.51381738980E-02 -0.12731621611E-03 -0.35365471076E-01  0.35737005818E-01  0.00000000000E+00 0.  1.
  9000001    1    1    2    0    0 -0.51381738980E-02  0.12731621611E-03  0.35365471076E-01  0.35750994182E-01  0.10000000475E-02 0. -1.
</event>
<event>
 4   0  0.2441219E-02  0.9118800E+02  0.7818609E-02  0.1379984E+01
      -11   -1    0    0    0    0  0.00000000000E+00  0.00000000000E+00  0.35740347158E-01  0.35744000000E-01  0.51099999109E-03 0.  1.
       11   -1    0    0    0    0 -0.00000000000E+00 -0.00000000000E+00 -0.35740347158E-01  0.35744000000E-01  0.51099999109E-03 0. -1.
       22    1    1    2    0    0  0.73230226812E-04  0.60755160233E-02  0.35216705230E-01  0.35737005818E-01  0.00000000000E+00 0.  1.
  9000001    1    1    2    0    0 -0.73230226812E-04 -0.60755160233E-02 -0.35216705230E-01  0.35750994182E-01  0.10000000475E-02 0. -1.
</event>
<event>
 4   0  0.2441219E-02  0.9118800E+02  0.7818609E-02  0.1379984E+01
      -11   -1    0    0    0    0  0.00000000000E+00  0.00000000000E+00  0.35740347158E-01  0.35744000000E-01  0.51099999109E-03 0. -1.
       11   -1    0    0    0    0 -0.00000000000E+00 -0.00000000000E+00 -0.35740347158E-01  0.35744000000E-01  0.51099999109E-03 0.  1.
       22    1    1    2    0    0 -0.55813581987E-02  0.17550310970E-01 -0.30626273205E-01  0.35737005818E-01  0.00000000000E+00 0.  1.
  9000001    1    1    2    0    0  0.55813581987E-02 -0.17550310970E-01  0.30626273205E-01  0.35750994182E-01  0.10000000475E-02 0. -1.
</event>
<event>
 4   0  0.2441219E-02  0.9118800E+02  0.7818609E-02  0.1379984E+01
      -11   -1    0    0    0    0  0.00000000000E+00  0.00000000000E+00  0.35740347158E-01  0.35744000000E-01  0.51099999109E-03 0. -1.
       11   -1    0    0    0    0 -0.00000000000E+00 -0.00000000000E+00 -0.35740347158E-01  0.35744000000E-01  0.51099999109E-03 0.  1.
       22    1    1    2    0    0 -0.19137726907E-02  0.33016675745E-02 -0.35532661738E-01  0.35737005818E-01  0.00000000000E+00 0.  1.
  9000001    1    1    2    0    0  0.19137726907E-02 -0.33016675745E-02  0.35532661738E-01  0.35750994182E-01  0.10000000475E-02 0. -1.
</event>
<event>
 4   0  0.2441219E-02  0.9118800E+02  0.7818609E-02  0.1379984E+01
      -11   -1    0    0    0    0  0.00000000000E+00  0.00000000000E+00  0.35740347158E-01  0.35744000000E-01  0.51099999109E-03 0. -1.
       11   -1    0    0    0    0 -0.00000000000E+00 -0.00000000000E+00 -0.35740347158E-01  0.35744000000E-01  0.51099999109E-03 0.  1.
       22    1    1    2    0    0 -0.11997939994E-02 -0.41497824334E-02 -0.35474968428E-01  0.35737005818E-01  0.00000000000E+00 0.  1.
  9000001    1    1    2    0    0  0.11997939994E-02  0.41497824334E-02  0.35474968428E-01  0.35750994182E-01  0.10000000475E-02 0. -1.
</event>
<event>
 4   0  0.2441219E-02  0.9118800E+02  0.7818609E-02  0.1379984E+01
      -11   -1    0    0    0    0  0.00000000000E+00  0.00000000000E+00  0.35740347158E-01  0.35744000000E-01  0.51099999109E-03 0. -1.
       11   -1    0    0    0    0 -0.00000000000E+00 -0.00000000000E+00 -0.35740347158E-01  0.35744000000E-01  0.51099999109E-03 0.  1.
       22    1    1    2    0    0  0.13156574152E-02  0.70407890664E-02 -0.35011853989E-01  0.35737005818E-01  0.00000000000E+00 0.  1.
  9000001    1    1    2    0    0 -0.13156574152E-02 -0.70407890664E-02  0.35011853989E-01  0.35750994182E-01  0.10000000475E-02 0. -1.
</event>
<event>
 4   0  0.2441219E-02  0.9118800E+02  0.7818609E-02  0.1379984E+01
      -11   -1    0    0    0    0  0.00000000000E+00  0.00000000000E+00  0.35740347158E-01  0.35744000000E-01  0.51099999109E-03 0.  1.
       11   -1    0    0    0    0 -0.00000000000E+00 -0.00000000000E+00 -0.35740347158E-01  0.35744000000E-01  0.51099999109E-03 0. -1.
       22    1    1    2    0    0  0.19291425616E-01 -0.11717019447E-01 -0.27707145971E-01  0.35737005818E-01  0.00000000000E+00 0. -1.
  9000001    1    1    2    0    0 -0.19291425616E-01  0.11717019447E-01  0.27707145971E-01  0.35750994182E-01  0.10000000475E-02 0.  1.
</event>
<event>
 4   0  0.2441219E-02  0.9118800E+02  0.7818609E-02  0.1379984E+01
      -11   -1    0    0    0    0  0.00000000000E+00  0.00000000000E+00  0.35740347158E-01  0.35744000000E-01  0.51099999109E-03 0. -1.
       11   -1    0    0    0    0 -0.00000000000E+00 -0.00000000000E+00 -0.35740347158E-01  0.35744000000E-01  0.51099999109E-03 0.  1.
       22    1    1    2    0    0  0.15656225528E-01 -0.42797693664E-02 -0.31838652001E-01  0.35737005818E-01  0.00000000000E+00 0.  1.
  9000001    1    1    2    0    0 -0.15656225528E-01  0.42797693664E-02  0.31838652001E-01  0.35750994182E-01  0.10000000475E-02 0. -1.
</event>
<event>
 4   0  0.2441219E-02  0.9118800E+02  0.7818609E-02  0.1379984E+01
      -11   -1    0    0    0    0  0.00000000000E+00  0.00000000000E+00  0.35740347158E-01  0.35744000000E-01  0.51099999109E-03 0. -1.
       11   -1    0    0    0    0 -0.00000000000E+00 -0.00000000000E+00 -0.35740347158E-01  0.35744000000E-01  0.51099999109E-03 0.  1.
       22    1    1    2    0    0  0.12313880277E-01  0.30479018408E-02 -0.33409762522E-01  0.35737005818E-01  0.00000000000E+00 0.  1.
  9000001    1    1    2    0    0 -0.12313880277E-01 -0.30479018408E-02  0.33409762522E-01  0.35750994182E-01  0.10000000475E-02 0. -1.
</event>
<event>
 4   0  0.2441219E-02  0.9118800E+02  0.7818609E-02  0.1379984E+01
      -11   -1    0    0    0    0  0.00000000000E+00  0.00000000000E+00  0.35740347158E-01  0.35744000000E-01  0.51099999109E-03 0. -1.
       11   -1    0    0    0    0 -0.00000000000E+00 -0.00000000000E+00 -0.35740347158E-01  0.35744000000E-01  0.51099999109E-03 0.  1.
       22    1    1    2    0    0  0.16415549095E-01  0.13509907552E-02 -0.31714951628E-01  0.35737005818E-01  0.00000000000E+00 0.  1.
  9000001    1    1    2    0    0 -0.16415549095E-01 -0.13509907552E-02  0.31714951628E-01  0.35750994182E-01  0.10000000475E-02 0. -1.
</event>
<event>
 4   0  0.2441219E-02  0.9118800E+02  0.7818609E-02  0.1379984E+01
      -11   -1    0    0    0    0  0.00000000000E+00  0.00000000000E+00  0.35740347158E-01  0.35744000000E-01  0.51099999109E-03 0.  1.
       11   -1    0    0    0    0 -0.00000000000E+00 -0.00000000000E+00 -0.35740347158E-01  0.35744000000E-01  0.51099999109E-03 0. -1.
       22    1    1    2    0    0 -0.19185081964E-01 -0.19450830959E-01  0.23037608164E-01  0.35737005818E-01  0.00000000000E+00 0.  1.
  9000001    1    1    2    0    0  0.19185081964E-01  0.19450830959E-01 -0.23037608164E-01  0.35750994182E-01  0.10000000475E-02 0. -1.
</event>
<event>
 4   0  0.2441219E-02  0.9118800E+02  0.7818609E-02  0.1379984E+01
      -11   -1    0    0    0    0  0.00000000000E+00  0.00000000000E+00  0.35740347158E-01  0.35744000000E-01  0.51099999109E-03 0.  1.
       11   -1    0    0    0    0 -0.00000000000E+00 -0.00000000000E+00 -0.35740347158E-01  0.35744000000E-01  0.51099999109E-03 0. -1.
       22    1    1    2    0    0  0.96846789191E-02  0.48091932924E-02 -0.34061888365E-01  0.35737005818E-01  0.00000000000E+00 0. -1.
  9000001    1    1    2    0    0 -0.96846789191E-02 -0.48091932924E-02  0.34061888365E-01  0.35750994182E-01  0.10000000475E-02 0.  1.
</event>
<event>
 4   0  0.2441219E-02  0.9118800E+02  0.7818609E-02  0.1379984E+01
      -11   -1    0    0    0    0  0.00000000000E+00  0.00000000000E+00  0.35740347158E-01  0.35744000000E-01  0.51099999109E-03 0.  1.
       11   -1    0    0    0    0 -0.00000000000E+00 -0.00000000000E+00 -0.35740347158E-01  0.35744000000E-01  0.51099999109E-03 0. -1.
       22    1    1    2    0    0 -0.12375897813E-01 -0.24257548321E-01 -0.23141782292E-01  0.35737005818E-01  0.00000000000E+00 0. -1.
  9000001    1    1    2    0    0  0.12375897813E-01  0.24257548321E-01  0.23141782292E-01  0.35750994182E-01  0.10000000475E-02 0.  1.
</event>
<event>
 4   0  0.2441219E-02  0.9118800E+02  0.7818609E-02  0.1379984E+01
      -11   -1    0    0    0    0  0.00000000000E+00  0.00000000000E+00  0.35740347158E-01  0.35744000000E-01  0.51099999109E-03 0.  1.
       11   -1    0    0    0    0 -0.00000000000E+00 -0.00000000000E+00 -0.35740347158E-01  0.35744000000E-01  0.51099999109E-03 0. -1.
       22    1    1    2    0    0  0.69769713744E-03 -0.44895503714E-02  0.35447013147E-01  0.35737005818E-01  0.00000000000E+00 0.  1.
  9000001    1    1    2    0    0 -0.69769713744E-03  0.44895503714E-02 -0.35447013147E-01  0.35750994182E-01  0.10000000475E-02 0. -1.
</event>
<event>
 4   0  0.2441219E-02  0.9118800E+02  0.7818609E-02  0.1379984E+01
      -11   -1    0    0    0    0  0.00000000000E+00  0.00000000000E+00  0.35740347158E-01  0.35744000000E-01  0.51099999109E-03 0.  1.
       11   -1    0    0    0    0 -0.00000000000E+00 -0.00000000000E+00 -0.35740347158E-01  0.35744000000E-01  0.51099999109E-03 0. -1.
       22    1    1    2    0    0 -0.24199894071E-03 -0.42231926991E-02  0.35485767074E-01  0.35737005818E-01  0.00000000000E+00 0.  1.
  9000001    1    1    2    0    0  0.24199894071E-03  0.42231926991E-02 -0.35485767074E-01  0.35750994182E-01  0.10000000475E-02 0. -1.
</event>
<event>
 4   0  0.2441219E-02  0.9118800E+02  0.7818609E-02  0.1379984E+01
      -11   -1    0    0    0    0  0.00000000000E+00  0.00000000000E+00  0.35740347158E-01  0.35744000000E-01  0.51099999109E-03 0.  1.
       11   -1    0    0    0    0 -0.00000000000E+00 -0.00000000000E+00 -0.35740347158E-01  0.35744000000E-01  0.51099999109E-03 0. -1.
       22    1    1    2    0    0 -0.17757626936E-02 -0.11529416600E-01 -0.33779473125E-01  0.35737005818E-01  0.00000000000E+00 0. -1.
  9000001    1    1    2    0    0  0.17757626936E-02  0.11529416600E-01  0.33779473125E-01  0.35750994182E-01  0.10000000475E-02 0.  1.
</event>
<event>
 4   0  0.2441219E-02  0.9118800E+02  0.7818609E-02  0.1379984E+01
      -11   -1    0    0    0    0  0.00000000000E+00  0.00000000000E+00  0.35740347158E-01  0.35744000000E-01  0.51099999109E-03 0. -1.
       11   -1    0    0    0    0 -0.00000000000E+00 -0.00000000000E+00 -0.35740347158E-01  0.35744000000E-01  0.51099999109E-03 0.  1.
       22    1    1    2    0    0 -0.20144844183E-01  0.25485899825E-01 -0.14892540006E-01  0.35737005818E-01  0.00000000000E+00 0.  1.
  9000001    1    1    2    0    0  0.20144844183E-01 -0.25485899825E-01  0.14892540006E-01  0.35750994182E-01  0.10000000475E-02 0. -1.
</event>
<event>
 4   0  0.2441219E-02  0.9118800E+02  0.7818609E-02  0.1379984E+01
      -11   -1    0    0    0    0  0.00000000000E+00  0.00000000000E+00  0.35740347158E-01  0.35744000000E-01  0.51099999109E-03 0.  1.
       11   -1    0    0    0    0 -0.00000000000E+00 -0.00000000000E+00 -0.35740347158E-01  0.35744000000E-01  0.51099999109E-03 0. -1.
       22    1    1    2    0    0  0.32633982176E-02  0.77571113767E-02 -0.34731988714E-01  0.35737005818E-01  0.00000000000E+00 0. -1.
  9000001    1    1    2    0    0 -0.32633982176E-02 -0.77571113767E-02  0.34731988714E-01  0.35750994182E-01  0.10000000475E-02 0.  1.
</event>
<event>
 4   0  0.2441219E-02  0.9118800E+02  0.7818609E-02  0.1379984E+01
      -11   -1    0    0    0    0  0.00000000000E+00  0.00000000000E+00  0.35740347158E-01  0.35744000000E-01  0.51099999109E-03 0.  1.
       11   -1    0    0    0    0 -0.00000000000E+00 -0.00000000000E+00 -0.35740347158E-01  0.35744000000E-01  0.51099999109E-03 0. -1.
       22    1    1    2    0    0  0.25406431429E-01 -0.19829806476E-01 -0.15441036301E-01  0.35737005818E-01  0.00000000000E+00 0.  1.
  9000001    1    1    2    0    0 -0.25406431429E-01  0.19829806476E-01  0.15441036301E-01  0.35750994182E-01  0.10000000475E-02 0. -1.
</event>
<event>
 4   0  0.2441219E-02  0.9118800E+02  0.7818609E-02  0.1379984E+01
      -11   -1    0    0    0    0  0.00000000000E+00  0.00000000000E+00  0.35740347158E-01  0.35744000000E-01  0.51099999109E-03 0. -1.
       11   -1    0    0    0    0 -0.00000000000E+00 -0.00000000000E+00 -0.35740347158E-01  0.35744000000E-01  0.51099999109E-03 0.  1.
       22    1    1    2    0    0  0.68566084456E-02 -0.66394398974E-02  0.34438907406E-01  0.35737005818E-01  0.00000000000E+00 0. -1.
  9000001    1    1    2    0    0 -0.68566084456E-02  0.66394398974E-02 -0.34438907406E-01  0.35750994182E-01  0.10000000475E-02 0.  1.
</event>
<event>
 4   0  0.2441219E-02  0.9118800E+02  0.7818609E-02  0.1379984E+01
      -11   -1    0    0    0    0  0.00000000000E+00  0.00000000000E+00  0.35740347158E-01  0.35744000000E-01  0.51099999109E-03 0.  1.
       11   -1    0    0    0    0 -0.00000000000E+00 -0.00000000000E+00 -0.35740347158E-01  0.35744000000E-01  0.51099999109E-03 0. -1.
       22    1    1    2    0    0 -0.41217841240E-02  0.18004973064E-01  0.30593552024E-01  0.35737005818E-01  0.00000000000E+00 0.  1.
  9000001    1    1    2    0    0  0.41217841240E-02 -0.18004973064E-01 -0.30593552024E-01  0.35750994182E-01  0.10000000475E-02 0. -1.
</event>
<event>
 4   0  0.2441219E-02  0.9118800E+02  0.7818609E-02  0.1379984E+01
      -11   -1    0    0    0    0  0.00000000000E+00  0.00000000000E+00  0.35740347158E-01  0.35744000000E-01  0.51099999109E-03 0. -1.
       11   -1    0    0    0    0 -0.00000000000E+00 -0.00000000000E+00 -0.35740347158E-01  0.35744000000E-01  0.51099999109E-03 0.  1.
       22    1    1    2    0    0 -0.19083932939E-03  0.33662857135E-01 -0.11996216685E-01  0.35737005818E-01  0.00000000000E+00 0.  1.
  9000001    1    1    2    0    0  0.19083932939E-03 -0.33662857135E-01  0.11996216685E-01  0.35750994182E-01  0.10000000475E-02 0. -1.
</event>
<event>
 4   0  0.2441219E-02  0.9118800E+02  0.7818609E-02  0.1379984E+01
      -11   -1    0    0    0    0  0.00000000000E+00  0.00000000000E+00  0.35740347158E-01  0.35744000000E-01  0.51099999109E-03 0.  1.
       11   -1    0    0    0    0 -0.00000000000E+00 -0.00000000000E+00 -0.35740347158E-01  0.35744000000E-01  0.51099999109E-03 0. -1.
       22    1    1    2    0    0  0.35717247999E-02  0.23856890761E-02  0.35477948848E-01  0.35737005818E-01  0.00000000000E+00 0.  1.
  9000001    1    1    2    0    0 -0.35717247999E-02 -0.23856890761E-02 -0.35477948848E-01  0.35750994182E-01  0.10000000475E-02 0. -1.
</event>
<event>
 4   0  0.2441219E-02  0.9118800E+02  0.7818609E-02  0.1379984E+01
      -11   -1    0    0    0    0  0.00000000000E+00  0.00000000000E+00  0.35740347158E-01  0.35744000000E-01  0.51099999109E-03 0.  1.
       11   -1    0    0    0    0 -0.00000000000E+00 -0.00000000000E+00 -0.35740347158E-01  0.35744000000E-01  0.51099999109E-03 0. -1.
       22    1    1    2    0    0 -0.13763196214E-01  0.11445884074E-02  0.32960551152E-01  0.35737005818E-01  0.00000000000E+00 0.  1.
  9000001    1    1    2    0    0  0.13763196214E-01 -0.11445884074E-02 -0.32960551152E-01  0.35750994182E-01  0.10000000475E-02 0. -1.
</event>
<event>
 4   0  0.2441219E-02  0.9118800E+02  0.7818609E-02  0.1379984E+01
      -11   -1    0    0    0    0  0.00000000000E+00  0.00000000000E+00  0.35740347158E-01  0.35744000000E-01  0.51099999109E-03 0. -1.
       11   -1    0    0    0    0 -0.00000000000E+00 -0.00000000000E+00 -0.35740347158E-01  0.35744000000E-01  0.51099999109E-03 0.  1.
       22    1    1    2    0    0  0.12134579411E-01 -0.31605288437E-01  0.11445143521E-01  0.35737005818E-01  0.00000000000E+00 0. -1.
  9000001    1    1    2    0    0 -0.12134579411E-01  0.31605288437E-01 -0.11445143521E-01  0.35750994182E-01  0.10000000475E-02 0.  1.
</event>
<event>
 4   0  0.2441219E-02  0.9118800E+02  0.7818609E-02  0.1379984E+01
      -11   -1    0    0    0    0  0.00000000000E+00  0.00000000000E+00  0.35740347158E-01  0.35744000000E-01  0.51099999109E-03 0.  1.
       11   -1    0    0    0    0 -0.00000000000E+00 -0.00000000000E+00 -0.35740347158E-01  0.35744000000E-01  0.51099999109E-03 0. -1.
       22    1    1    2    0    0  0.57907074916E-02  0.11787727751E-01  0.33236286888E-01  0.35737005818E-01  0.00000000000E+00 0.  1.
  9000001    1    1    2    0    0 -0.57907074916E-02 -0.11787727751E-01 -0.33236286888E-01  0.35750994182E-01  0.10000000475E-02 0. -1.
</event>
<event>
 4   0  0.2441219E-02  0.9118800E+02  0.7818609E-02  0.1379984E+01
      -11   -1    0    0    0    0  0.00000000000E+00  0.00000000000E+00  0.35740347158E-01  0.35744000000E-01  0.51099999109E-03 0. -1.
       11   -1    0    0    0    0 -0.00000000000E+00 -0.00000000000E+00 -0.35740347158E-01  0.35744000000E-01  0.51099999109E-03 0.  1.
       22    1    1    2    0    0  0.77428537784E-02 -0.16276076841E-02  0.34850146247E-01  0.35737005818E-01  0.00000000000E+00 0. -1.
  9000001    1    1    2    0    0 -0.77428537784E-02  0.16276076841E-02 -0.34850146247E-01  0.35750994182E-01  0.10000000475E-02 0.  1.
</event>
<event>
 4   0  0.2441219E-02  0.9118800E+02  0.7818609E-02  0.1379984E+01
      -11   -1    0    0    0    0  0.00000000000E+00  0.00000000000E+00  0.35740347158E-01  0.35744000000E-01  0.51099999109E-03 0.  1.
       11   -1    0    0    0    0 -0.00000000000E+00 -0.00000000000E+00 -0.35740347158E-01  0.35744000000E-01  0.51099999109E-03 0. -1.
       22    1    1    2    0    0 -0.21124009623E-02 -0.43280186745E-02 -0.35411009607E-01  0.35737005818E-01  0.00000000000E+00 0. -1.
  9000001    1    1    2    0    0  0.21124009623E-02  0.43280186745E-02  0.35411009607E-01  0.35750994182E-01  0.10000000475E-02 0.  1.
</event>
<event>
 4   0  0.2441219E-02  0.9118800E+02  0.7818609E-02  0.1379984E+01
      -11   -1    0    0    0    0  0.00000000000E+00  0.00000000000E+00  0.35740347158E-01  0.35744000000E-01  0.51099999109E-03 0. -1.
       11   -1    0    0    0    0 -0.00000000000E+00 -0.00000000000E+00 -0.35740347158E-01  0.35744000000E-01  0.51099999109E-03 0.  1.
       22    1    1    2    0    0  0.10952141055E-01  0.79372182288E-02 -0.33078463658E-01  0.35737005818E-01  0.00000000000E+00 0.  1.
  9000001    1    1    2    0    0 -0.10952141055E-01 -0.79372182288E-02  0.33078463658E-01  0.35750994182E-01  0.10000000475E-02 0. -1.
</event>
<event>
 4   0  0.2441219E-02  0.9118800E+02  0.7818609E-02  0.1379984E+01
      -11   -1    0    0    0    0  0.00000000000E+00  0.00000000000E+00  0.35740347158E-01  0.35744000000E-01  0.51099999109E-03 0.  1.
       11   -1    0    0    0    0 -0.00000000000E+00 -0.00000000000E+00 -0.35740347158E-01  0.35744000000E-01  0.51099999109E-03 0. -1.
       22    1    1    2    0    0 -0.95130834861E-02 -0.17076417212E-01 -0.29917065409E-01  0.35737005818E-01  0.00000000000E+00 0. -1.
  9000001    1    1    2    0    0  0.95130834861E-02  0.17076417212E-01  0.29917065409E-01  0.35750994182E-01  0.10000000475E-02 0.  1.
</event>
<event>
 4   0  0.2441219E-02  0.9118800E+02  0.7818609E-02  0.1379984E+01
      -11   -1    0    0    0    0  0.00000000000E+00  0.00000000000E+00  0.35740347158E-01  0.35744000000E-01  0.51099999109E-03 0. -1.
       11   -1    0    0    0    0 -0.00000000000E+00 -0.00000000000E+00 -0.35740347158E-01  0.35744000000E-01  0.51099999109E-03 0.  1.
       22    1    1    2    0    0  0.16712834963E-01 -0.20863272191E-01  0.23717896321E-01  0.35737005818E-01  0.00000000000E+00 0. -1.
  9000001    1    1    2    0    0 -0.16712834963E-01  0.20863272191E-01 -0.23717896321E-01  0.35750994182E-01  0.10000000475E-02 0.  1.
</event>
<event>
 4   0  0.2441219E-02  0.9118800E+02  0.7818609E-02  0.1379984E+01
      -11   -1    0    0    0    0  0.00000000000E+00  0.00000000000E+00  0.35740347158E-01  0.35744000000E-01  0.51099999109E-03 0.  1.
       11   -1    0    0    0    0 -0.00000000000E+00 -0.00000000000E+00 -0.35740347158E-01  0.35744000000E-01  0.51099999109E-03 0. -1.
       22    1    1    2    0    0 -0.21539148011E-02  0.29506155367E-02  0.35549797522E-01  0.35737005818E-01  0.00000000000E+00 0.  1.
  9000001    1    1    2    0    0  0.21539148011E-02 -0.29506155367E-02 -0.35549797522E-01  0.35750994182E-01  0.10000000475E-02 0. -1.
</event>
<event>
 4   0  0.2441219E-02  0.9118800E+02  0.7818609E-02  0.1379984E+01
      -11   -1    0    0    0    0  0.00000000000E+00  0.00000000000E+00  0.35740347158E-01  0.35744000000E-01  0.51099999109E-03 0.  1.
       11   -1    0    0    0    0 -0.00000000000E+00 -0.00000000000E+00 -0.35740347158E-01  0.35744000000E-01  0.51099999109E-03 0. -1.
       22    1    1    2    0    0  0.91712660041E-05  0.30416885469E-02  0.35607325532E-01  0.35737005818E-01  0.00000000000E+00 0.  1.
  9000001    1    1    2    0    0 -0.91712660041E-05 -0.30416885469E-02 -0.35607325532E-01  0.35750994182E-01  0.10000000475E-02 0. -1.
</event>
<event>
 4   0  0.2441219E-02  0.9118800E+02  0.7818609E-02  0.1379984E+01
      -11   -1    0    0    0    0  0.00000000000E+00  0.00000000000E+00  0.35740347158E-01  0.35744000000E-01  0.51099999109E-03 0. -1.
       11   -1    0    0    0    0 -0.00000000000E+00 -0.00000000000E+00 -0.35740347158E-01  0.35744000000E-01  0.51099999109E-03 0.  1.
       22    1    1    2    0    0 -0.55893960957E-02 -0.19750510253E-02  0.35241898496E-01  0.35737005818E-01  0.00000000000E+00 0. -1.
  9000001    1    1    2    0    0  0.55893960957E-02  0.19750510253E-02 -0.35241898496E-01  0.35750994182E-01  0.10000000475E-02 0.  1.
</event>
<event>
 4   0  0.2441219E-02  0.9118800E+02  0.7818609E-02  0.1379984E+01
      -11   -1    0    0    0    0  0.00000000000E+00  0.00000000000E+00  0.35740347158E-01  0.35744000000E-01  0.51099999109E-03 0.  1.
       11   -1    0    0    0    0 -0.00000000000E+00 -0.00000000000E+00 -0.35740347158E-01  0.35744000000E-01  0.51099999109E-03 0. -1.
       22    1    1    2    0    0 -0.37798400490E-02  0.57552645203E-02  0.35067411144E-01  0.35737005818E-01  0.00000000000E+00 0.  1.
  9000001    1    1    2    0    0  0.37798400490E-02 -0.57552645203E-02 -0.35067411144E-01  0.35750994182E-01  0.10000000475E-02 0. -1.
</event>
<event>
 4   0  0.2441219E-02  0.9118800E+02  0.7818609E-02  0.1379984E+01
      -11   -1    0    0    0    0  0.00000000000E+00  0.00000000000E+00  0.35740347158E-01  0.35744000000E-01  0.51099999109E-03 0. -1.
       11   -1    0    0    0    0 -0.00000000000E+00 -0.00000000000E+00 -0.35740347158E-01  0.35744000000E-01  0.51099999109E-03 0.  1.
       22    1    1    2    0    0  0.96384538450E-02 -0.86705996606E-02  0.33302469786E-01  0.35737005818E-01  0.00000000000E+00 0. -1.
  9000001    1    1    2    0    0 -0.96384538450E-02  0.86705996606E-02 -0.33302469786E-01  0.35750994182E-01  0.10000000475E-02 0.  1.
</event>
<event>
 4   0  0.2441219E-02  0.9118800E+02  0.7818609E-02  0.1379984E+01
      -11   -1    0    0    0    0  0.00000000000E+00  0.00000000000E+00  0.35740347158E-01  0.35744000000E-01  0.51099999109E-03 0. -1.
       11   -1    0    0    0    0 -0.00000000000E+00 -0.00000000000E+00 -0.35740347158E-01  0.35744000000E-01  0.51099999109E-03 0.  1.
       22    1    1    2    0    0  0.33062121337E-02  0.14321251157E-01  0.32574596106E-01  0.35737005818E-01  0.00000000000E+00 0. -1.
  9000001    1    1    2    0    0 -0.33062121337E-02 -0.14321251157E-01 -0.32574596106E-01  0.35750994182E-01  0.10000000475E-02 0.  1.
</event>
<event>
 4   0  0.2441219E-02  0.9118800E+02  0.7818609E-02  0.1379984E+01
      -11   -1    0    0    0    0  0.00000000000E+00  0.00000000000E+00  0.35740347158E-01  0.35744000000E-01  0.51099999109E-03 0. -1.
       11   -1    0    0    0    0 -0.00000000000E+00 -0.00000000000E+00 -0.35740347158E-01  0.35744000000E-01  0.51099999109E-03 0.  1.
       22    1    1    2    0    0 -0.37127579801E-02  0.22025769648E-01 -0.27896495917E-01  0.35737005818E-01  0.00000000000E+00 0.  1.
  9000001    1    1    2    0    0  0.37127579801E-02 -0.22025769648E-01  0.27896495917E-01  0.35750994182E-01  0.10000000475E-02 0. -1.
</event>
<event>
 4   0  0.2441219E-02  0.9118800E+02  0.7818609E-02  0.1379984E+01
      -11   -1    0    0    0    0  0.00000000000E+00  0.00000000000E+00  0.35740347158E-01  0.35744000000E-01  0.51099999109E-03 0. -1.
       11   -1    0    0    0    0 -0.00000000000E+00 -0.00000000000E+00 -0.35740347158E-01  0.35744000000E-01  0.51099999109E-03 0.  1.
       22    1    1    2    0    0 -0.48348623196E-02 -0.34652632150E-02  0.35238468214E-01  0.35737005818E-01  0.00000000000E+00 0. -1.
  9000001    1    1    2    0    0  0.48348623196E-02  0.34652632150E-02 -0.35238468214E-01  0.35750994182E-01  0.10000000475E-02 0.  1.
</event>
<event>
 4   0  0.2441219E-02  0.9118800E+02  0.7818609E-02  0.1379984E+01
      -11   -1    0    0    0    0  0.00000000000E+00  0.00000000000E+00  0.35740347158E-01  0.35744000000E-01  0.51099999109E-03 0.  1.
       11   -1    0    0    0    0 -0.00000000000E+00 -0.00000000000E+00 -0.35740347158E-01  0.35744000000E-01  0.51099999109E-03 0. -1.
       22    1    1    2    0    0  0.46991715591E-02  0.31397119795E-02 -0.35287300552E-01  0.35737005818E-01  0.00000000000E+00 0. -1.
  9000001    1    1    2    0    0 -0.46991715591E-02 -0.31397119795E-02  0.35287300552E-01  0.35750994182E-01  0.10000000475E-02 0.  1.
</event>
<event>
 4   0  0.2441219E-02  0.9118800E+02  0.7818609E-02  0.1379984E+01
      -11   -1    0    0    0    0  0.00000000000E+00  0.00000000000E+00  0.35740347158E-01  0.35744000000E-01  0.51099999109E-03 0. -1.
       11   -1    0    0    0    0 -0.00000000000E+00 -0.00000000000E+00 -0.35740347158E-01  0.35744000000E-01  0.51099999109E-03 0.  1.
       22    1    1    2    0    0  0.56440293592E-02 -0.14222803947E-01  0.32295361360E-01  0.35737005818E-01  0.00000000000E+00 0. -1.
  9000001    1    1    2    0    0 -0.56440293592E-02  0.14222803947E-01 -0.32295361360E-01  0.35750994182E-01  0.10000000475E-02 0.  1.
</event>
<event>
 4   0  0.2441219E-02  0.9118800E+02  0.7818609E-02  0.1379984E+01
      -11   -1    0    0    0    0  0.00000000000E+00  0.00000000000E+00  0.35740347158E-01  0.35744000000E-01  0.51099999109E-03 0.  1.
       11   -1    0    0    0    0 -0.00000000000E+00 -0.00000000000E+00 -0.35740347158E-01  0.35744000000E-01  0.51099999109E-03 0. -1.
       22    1    1    2    0    0  0.32710773208E-03 -0.35028616774E-01 -0.70726651466E-02  0.35737005818E-01  0.00000000000E+00 0. -1.
  9000001    1    1    2    0    0 -0.32710773208E-03  0.35028616774E-01  0.70726651466E-02  0.35750994182E-01  0.10000000475E-02 0.  1.
</event>
<event>
 4   0  0.2441219E-02  0.9118800E+02  0.7818609E-02  0.1379984E+01
      -11   -1    0    0    0    0  0.00000000000E+00  0.00000000000E+00  0.35740347158E-01  0.35744000000E-01  0.51099999109E-03 0. -1.
       11   -1    0    0    0    0 -0.00000000000E+00 -0.00000000000E+00 -0.35740347158E-01  0.35744000000E-01  0.51099999109E-03 0.  1.
       22    1    1    2    0    0 -0.29469753977E-02  0.95659477025E-03  0.35602441592E-01  0.35737005818E-01  0.00000000000E+00 0. -1.
  9000001    1    1    2    0    0  0.29469753977E-02 -0.95659477025E-03 -0.35602441592E-01  0.35750994182E-01  0.10000000475E-02 0.  1.
</event>
<event>
 4   0  0.2441219E-02  0.9118800E+02  0.7818609E-02  0.1379984E+01
      -11   -1    0    0    0    0  0.00000000000E+00  0.00000000000E+00  0.35740347158E-01  0.35744000000E-01  0.51099999109E-03 0. -1.
       11   -1    0    0    0    0 -0.00000000000E+00 -0.00000000000E+00 -0.35740347158E-01  0.35744000000E-01  0.51099999109E-03 0.  1.
       22    1    1    2    0    0  0.15104282845E-01  0.14546434794E-02 -0.32355497786E-01  0.35737005818E-01  0.00000000000E+00 0.  1.
  9000001    1    1    2    0    0 -0.15104282845E-01 -0.14546434794E-02  0.32355497786E-01  0.35750994182E-01  0.10000000475E-02 0. -1.
</event>
<event>
 4   0  0.2441219E-02  0.9118800E+02  0.7818609E-02  0.1379984E+01
      -11   -1    0    0    0    0  0.00000000000E+00  0.00000000000E+00  0.35740347158E-01  0.35744000000E-01  0.51099999109E-03 0. -1.
       11   -1    0    0    0    0 -0.00000000000E+00 -0.00000000000E+00 -0.35740347158E-01  0.35744000000E-01  0.51099999109E-03 0.  1.
       22    1    1    2    0    0 -0.31902863662E-02 -0.35761634988E-02  0.35414216247E-01  0.35737005818E-01  0.00000000000E+00 0. -1.
  9000001    1    1    2    0    0  0.31902863662E-02  0.35761634988E-02 -0.35414216247E-01  0.35750994182E-01  0.10000000475E-02 0.  1.
</event>
<event>
 4   0  0.2441219E-02  0.9118800E+02  0.7818609E-02  0.1379984E+01
      -11   -1    0    0    0    0  0.00000000000E+00  0.00000000000E+00  0.35740347158E-01  0.35744000000E-01  0.51099999109E-03 0. -1.
       11   -1    0    0    0    0 -0.00000000000E+00 -0.00000000000E+00 -0.35740347158E-01  0.35744000000E-01  0.51099999109E-03 0.  1.
       22    1    1    2    0    0  0.38439705623E-02 -0.18112645010E-02  0.35483472154E-01  0.35737005818E-01  0.00000000000E+00 0. -1.
  9000001    1    1    2    0    0 -0.38439705623E-02  0.18112645010E-02 -0.35483472154E-01  0.35750994182E-01  0.10000000475E-02 0.  1.
</event>
<event>
 4   0  0.2441219E-02  0.9118800E+02  0.7818609E-02  0.1379984E+01
      -11   -1    0    0    0    0  0.00000000000E+00  0.00000000000E+00  0.35740347158E-01  0.35744000000E-01  0.51099999109E-03 0. -1.
       11   -1    0    0    0    0 -0.00000000000E+00 -0.00000000000E+00 -0.35740347158E-01  0.35744000000E-01  0.51099999109E-03 0.  1.
       22    1    1    2    0    0 -0.17499387518E-02  0.31965510815E-02 -0.35550715329E-01  0.35737005818E-01  0.00000000000E+00 0.  1.
  9000001    1    1    2    0    0  0.17499387518E-02 -0.31965510815E-02  0.35550715329E-01  0.35750994182E-01  0.10000000475E-02 0. -1.
</event>
<event>
 4   0  0.2441219E-02  0.9118800E+02  0.7818609E-02  0.1379984E+01
      -11   -1    0    0    0    0  0.00000000000E+00  0.00000000000E+00  0.35740347158E-01  0.35744000000E-01  0.51099999109E-03 0. -1.
       11   -1    0    0    0    0 -0.00000000000E+00 -0.00000000000E+00 -0.35740347158E-01  0.35744000000E-01  0.51099999109E-03 0.  1.
       22    1    1    2    0    0 -0.15439040862E-01  0.14790566531E-02 -0.32195993440E-01  0.35737005818E-01  0.00000000000E+00 0.  1.
  9000001    1    1    2    0    0  0.15439040862E-01 -0.14790566531E-02  0.32195993440E-01  0.35750994182E-01  0.10000000475E-02 0. -1.
</event>
<event>
 4   0  0.2441219E-02  0.9118800E+02  0.7818609E-02  0.1379984E+01
      -11   -1    0    0    0    0  0.00000000000E+00  0.00000000000E+00  0.35740347158E-01  0.35744000000E-01  0.51099999109E-03 0.  1.
       11   -1    0    0    0    0 -0.00000000000E+00 -0.00000000000E+00 -0.35740347158E-01  0.35744000000E-01  0.51099999109E-03 0. -1.
       22    1    1    2    0    0  0.90655923998E-02 -0.11402929429E-01  0.32633139900E-01  0.35737005818E-01  0.00000000000E+00 0.  1.
  9000001    1    1    2    0    0 -0.90655923998E-02  0.11402929429E-01 -0.32633139900E-01  0.35750994182E-01  0.10000000475E-02 0. -1.
</event>
<event>
 4   0  0.2441219E-02  0.9118800E+02  0.7818609E-02  0.1379984E+01
      -11   -1    0    0    0    0  0.00000000000E+00  0.00000000000E+00  0.35740347158E-01  0.35744000000E-01  0.51099999109E-03 0.  1.
       11   -1    0    0    0    0 -0.00000000000E+00 -0.00000000000E+00 -0.35740347158E-01  0.35744000000E-01  0.51099999109E-03 0. -1.
       22    1    1    2    0    0  0.44424837863E-02  0.59541466508E-02 -0.34956345066E-01  0.35737005818E-01  0.00000000000E+00 0. -1.
  9000001    1    1    2    0    0 -0.44424837863E-02 -0.59541466508E-02  0.34956345066E-01  0.35750994182E-01  0.10000000475E-02 0.  1.
</event>
<event>
 4   0  0.2441219E-02  0.9118800E+02  0.7818609E-02  0.1379984E+01
      -11   -1    0    0    0    0  0.00000000000E+00  0.00000000000E+00  0.35740347158E-01  0.35744000000E-01  0.51099999109E-03 0. -1.
       11   -1    0    0    0    0 -0.00000000000E+00 -0.00000000000E+00 -0.35740347158E-01  0.35744000000E-01  0.51099999109E-03 0.  1.
       22    1    1    2    0    0  0.26074385513E-01  0.37326655251E-02 -0.24152167875E-01  0.35737005818E-01  0.00000000000E+00 0.  1.
  9000001    1    1    2    0    0 -0.26074385513E-01 -0.37326655251E-02  0.24152167875E-01  0.35750994182E-01  0.10000000475E-02 0. -1.
</event>
<event>
 4   0  0.2441219E-02  0.9118800E+02  0.7818609E-02  0.1379984E+01
      -11   -1    0    0    0    0  0.00000000000E+00  0.00000000000E+00  0.35740347158E-01  0.35744000000E-01  0.51099999109E-03 0. -1.
       11   -1    0    0    0    0 -0.00000000000E+00 -0.00000000000E+00 -0.35740347158E-01  0.35744000000E-01  0.51099999109E-03 0.  1.
       22    1    1    2    0    0  0.67994255373E-02  0.31221539285E-02  0.34945007542E-01  0.35737005818E-01  0.00000000000E+00 0. -1.
  9000001    1    1    2    0    0 -0.67994255373E-02 -0.31221539285E-02 -0.34945007542E-01  0.35750994182E-01  0.10000000475E-02 0.  1.
</event>
<event>
 4   0  0.2441219E-02  0.9118800E+02  0.7818609E-02  0.1379984E+01
      -11   -1    0    0    0    0  0.00000000000E+00  0.00000000000E+00  0.35740347158E-01  0.35744000000E-01  0.51099999109E-03 0.  1.
       11   -1    0    0    0    0 -0.00000000000E+00 -0.00000000000E+00 -0.35740347158E-01  0.35744000000E-01  0.51099999109E-03 0. -1.
       22    1    1    2    0    0 -0.17581104159E-02 -0.40267752955E-02 -0.35465866877E-01  0.35737005818E-01  0.00000000000E+00 0. -1.
  9000001    1    1    2    0    0  0.17581104159E-02  0.40267752955E-02  0.35465866877E-01  0.35750994182E-01  0.10000000475E-02 0.  1.
</event>
<event>
 4   0  0.2441219E-02  0.9118800E+02  0.7818609E-02  0.1379984E+01
      -11   -1    0    0    0    0  0.00000000000E+00  0.00000000000E+00  0.35740347158E-01  0.35744000000E-01  0.51099999109E-03 0. -1.
       11   -1    0    0    0    0 -0.00000000000E+00 -0.00000000000E+00 -0.35740347158E-01  0.35744000000E-01  0.51099999109E-03 0.  1.
       22    1    1    2    0    0  0.28280016040E-01 -0.78826340562E-02 -0.20377398214E-01  0.35737005818E-01  0.00000000000E+00 0.  1.
  9000001    1    1    2    0    0 -0.28280016040E-01  0.78826340562E-02  0.20377398214E-01  0.35750994182E-01  0.10000000475E-02 0. -1.
</event>
<event>
 4   0  0.2441219E-02  0.9118800E+02  0.7818609E-02  0.1379984E+01
      -11   -1    0    0    0    0  0.00000000000E+00  0.00000000000E+00  0.35740347158E-01  0.35744000000E-01  0.51099999109E-03 0. -1.
       11   -1    0    0    0    0 -0.00000000000E+00 -0.00000000000E+00 -0.35740347158E-01  0.35744000000E-01  0.51099999109E-03 0.  1.
       22    1    1    2    0    0 -0.22378884528E-02 -0.48082472615E-02 -0.35341281788E-01  0.35737005818E-01  0.00000000000E+00 0.  1.
  9000001    1    1    2    0    0  0.22378884528E-02  0.48082472615E-02  0.35341281788E-01  0.35750994182E-01  0.10000000475E-02 0. -1.
</event>
<event>
 4   0  0.2441219E-02  0.9118800E+02  0.7818609E-02  0.1379984E+01
      -11   -1    0    0    0    0  0.00000000000E+00  0.00000000000E+00  0.35740347158E-01  0.35744000000E-01  0.51099999109E-03 0. -1.
       11   -1    0    0    0    0 -0.00000000000E+00 -0.00000000000E+00 -0.35740347158E-01  0.35744000000E-01  0.51099999109E-03 0.  1.
       22    1    1    2    0    0 -0.21983993513E-02  0.58406082167E-02 -0.35187894521E-01  0.35737005818E-01  0.00000000000E+00 0.  1.
  9000001    1    1    2    0    0  0.21983993513E-02 -0.58406082167E-02  0.35187894521E-01  0.35750994182E-01  0.10000000475E-02 0. -1.
</event>
<event>
 4   0  0.2441219E-02  0.9118800E+02  0.7818609E-02  0.1379984E+01
      -11   -1    0    0    0    0  0.00000000000E+00  0.00000000000E+00  0.35740347158E-01  0.35744000000E-01  0.51099999109E-03 0. -1.
       11   -1    0    0    0    0 -0.00000000000E+00 -0.00000000000E+00 -0.35740347158E-01  0.35744000000E-01  0.51099999109E-03 0.  1.
       22    1    1    2    0    0  0.55443781806E-02 -0.95146391537E-02  0.33998016078E-01  0.35737005818E-01  0.00000000000E+00 0. -1.
  9000001    1    1    2    0    0 -0.55443781806E-02  0.95146391537E-02 -0.33998016078E-01  0.35750994182E-01  0.10000000475E-02 0.  1.
</event>
<event>
 4   0  0.2441219E-02  0.9118800E+02  0.7818609E-02  0.1379984E+01
      -11   -1    0    0    0    0  0.00000000000E+00  0.00000000000E+00  0.35740347158E-01  0.35744000000E-01  0.51099999109E-03 0.  1.
       11   -1    0    0    0    0 -0.00000000000E+00 -0.00000000000E+00 -0.35740347158E-01  0.35744000000E-01  0.51099999109E-03 0. -1.
       22    1    1    2    0    0  0.76722821641E-02 -0.11305818087E-01  0.33021934357E-01  0.35737005818E-01  0.00000000000E+00 0.  1.
  9000001    1    1    2    0    0 -0.76722821641E-02  0.11305818087E-01 -0.33021934357E-01  0.35750994182E-01  0.10000000475E-02 0. -1.
</event>
<event>
 4   0  0.2441219E-02  0.9118800E+02  0.7818609E-02  0.1379984E+01
      -11   -1    0    0    0    0  0.00000000000E+00  0.00000000000E+00  0.35740347158E-01  0.35744000000E-01  0.51099999109E-03 0.  1.
       11   -1    0    0    0    0 -0.00000000000E+00 -0.00000000000E+00 -0.35740347158E-01  0.35744000000E-01  0.51099999109E-03 0. -1.
       22    1    1    2    0    0  0.63700244665E-02 -0.78620783749E-03 -0.35155913449E-01  0.35737005818E-01  0.00000000000E+00 0. -1.
  9000001    1    1    2    0    0 -0.63700244665E-02  0.78620783749E-03  0.35155913449E-01  0.35750994182E-01  0.10000000475E-02 0.  1.
</event>
<event>
 4   0  0.2441219E-02  0.9118800E+02  0.7818609E-02  0.1379984E+01
      -11   -1    0    0    0    0  0.00000000000E+00  0.00000000000E+00  0.35740347158E-01  0.35744000000E-01  0.51099999109E-03 0.  1.
       11   -1    0    0    0    0 -0.00000000000E+00 -0.00000000000E+00 -0.35740347158E-01  0.35744000000E-01  0.51099999109E-03 0. -1.
       22    1    1    2    0    0  0.11051695069E-01 -0.14380209212E-01  0.30792908339E-01  0.35737005818E-01  0.00000000000E+00 0.  1.
  9000001    1    1    2    0    0 -0.11051695069E-01  0.14380209212E-01 -0.30792908339E-01  0.35750994182E-01  0.10000000475E-02 0. -1.
</event>
<event>
 4   0  0.2441219E-02  0.9118800E+02  0.7818609E-02  0.1379984E+01
      -11   -1    0    0    0    0  0.00000000000E+00  0.00000000000E+00  0.35740347158E-01  0.35744000000E-01  0.51099999109E-03 0. -1.
       11   -1    0    0    0    0 -0.00000000000E+00 -0.00000000000E+00 -0.35740347158E-01  0.35744000000E-01  0.51099999109E-03 0.  1.
       22    1    1    2    0    0  0.30342413914E-02 -0.31183919152E-01 -0.17189826944E-01  0.35737005818E-01  0.00000000000E+00 0.  1.
  9000001    1    1    2    0    0 -0.30342413914E-02  0.31183919152E-01  0.17189826944E-01  0.35750994182E-01  0.10000000475E-02 0. -1.
</event>
<event>
 4   0  0.2441219E-02  0.9118800E+02  0.7818609E-02  0.1379984E+01
      -11   -1    0    0    0    0  0.00000000000E+00  0.00000000000E+00  0.35740347158E-01  0.35744000000E-01  0.51099999109E-03 0. -1.
       11   -1    0    0    0    0 -0.00000000000E+00 -0.00000000000E+00 -0.35740347158E-01  0.35744000000E-01  0.51099999109E-03 0.  1.
       22    1    1    2    0    0 -0.56715554788E-02  0.51278511017E-02  0.34909485622E-01  0.35737005818E-01  0.00000000000E+00 0. -1.
  9000001    1    1    2    0    0  0.56715554788E-02 -0.51278511017E-02 -0.34909485622E-01  0.35750994182E-01  0.10000000475E-02 0.  1.
</event>
<event>
 4   0  0.2441219E-02  0.9118800E+02  0.7818609E-02  0.1379984E+01
      -11   -1    0    0    0    0  0.00000000000E+00  0.00000000000E+00  0.35740347158E-01  0.35744000000E-01  0.51099999109E-03 0. -1.
       11   -1    0    0    0    0 -0.00000000000E+00 -0.00000000000E+00 -0.35740347158E-01  0.35744000000E-01  0.51099999109E-03 0.  1.
       22    1    1    2    0    0  0.18094695357E-01 -0.56938802183E-02 -0.30286883512E-01  0.35737005818E-01  0.00000000000E+00 0.  1.
  9000001    1    1    2    0    0 -0.18094695357E-01  0.56938802183E-02  0.30286883512E-01  0.35750994182E-01  0.10000000475E-02 0. -1.
</event>
<event>
 4   0  0.2441219E-02  0.9118800E+02  0.7818609E-02  0.1379984E+01
      -11   -1    0    0    0    0  0.00000000000E+00  0.00000000000E+00  0.35740347158E-01  0.35744000000E-01  0.51099999109E-03 0. -1.
       11   -1    0    0    0    0 -0.00000000000E+00 -0.00000000000E+00 -0.35740347158E-01  0.35744000000E-01  0.51099999109E-03 0.  1.
       22    1    1    2    0    0 -0.74035327559E-02  0.10554834572E-01  0.33330417860E-01  0.35737005818E-01  0.00000000000E+00 0. -1.
  9000001    1    1    2    0    0  0.74035327559E-02 -0.10554834572E-01 -0.33330417860E-01  0.35750994182E-01  0.10000000475E-02 0.  1.
</event>
<event>
 4   0  0.2441219E-02  0.9118800E+02  0.7818609E-02  0.1379984E+01
      -11   -1    0    0    0    0  0.00000000000E+00  0.00000000000E+00  0.35740347158E-01  0.35744000000E-01  0.51099999109E-03 0. -1.
       11   -1    0    0    0    0 -0.00000000000E+00 -0.00000000000E+00 -0.35740347158E-01  0.35744000000E-01  0.51099999109E-03 0.  1.
       22    1    1    2    0    0  0.99576674670E-02 -0.17552277562E-03 -0.34321241750E-01  0.35737005818E-01  0.00000000000E+00 0.  1.
  9000001    1    1    2    0    0 -0.99576674670E-02  0.17552277562E-03  0.34321241750E-01  0.35750994182E-01  0.10000000475E-02 0. -1.
</event>
<event>
 4   0  0.2441219E-02  0.9118800E+02  0.7818609E-02  0.1379984E+01
      -11   -1    0    0    0    0  0.00000000000E+00  0.00000000000E+00  0.35740347158E-01  0.35744000000E-01  0.51099999109E-03 0.  1.
       11   -1    0    0    0    0 -0.00000000000E+00 -0.00000000000E+00 -0.35740347158E-01  0.35744000000E-01  0.51099999109E-03 0. -1.
       22    1    1    2    0    0 -0.10307040773E-01 -0.17451581981E-01 -0.29433667487E-01  0.35737005818E-01  0.00000000000E+00 0. -1.
  9000001    1    1    2    0    0  0.10307040773E-01  0.17451581981E-01  0.29433667487E-01  0.35750994182E-01  0.10000000475E-02 0.  1.
</event>
<event>
 4   0  0.2441219E-02  0.9118800E+02  0.7818609E-02  0.1379984E+01
      -11   -1    0    0    0    0  0.00000000000E+00  0.00000000000E+00  0.35740347158E-01  0.35744000000E-01  0.51099999109E-03 0.  1.
       11   -1    0    0    0    0 -0.00000000000E+00 -0.00000000000E+00 -0.35740347158E-01  0.35744000000E-01  0.51099999109E-03 0. -1.
       22    1    1    2    0    0  0.68121631083E-02 -0.23656940563E-01 -0.25905157438E-01  0.35737005818E-01  0.00000000000E+00 0. -1.
  9000001    1    1    2    0    0 -0.68121631083E-02  0.23656940563E-01  0.25905157438E-01  0.35750994182E-01  0.10000000475E-02 0.  1.
</event>
<event>
 4   0  0.2441219E-02  0.9118800E+02  0.7818609E-02  0.1379984E+01
      -11   -1    0    0    0    0  0.00000000000E+00  0.00000000000E+00  0.35740347158E-01  0.35744000000E-01  0.51099999109E-03 0.  1.
       11   -1    0    0    0    0 -0.00000000000E+00 -0.00000000000E+00 -0.35740347158E-01  0.35744000000E-01  0.51099999109E-03 0. -1.
       22    1    1    2    0    0  0.12173503399E-01 -0.22389675166E-01 -0.25052781199E-01  0.35737005818E-01  0.00000000000E+00 0. -1.
  9000001    1    1    2    0    0 -0.12173503399E-01  0.22389675166E-01  0.25052781199E-01  0.35750994182E-01  0.10000000475E-02 0.  1.
</event>
<event>
 4   0  0.2441219E-02  0.9118800E+02  0.7818609E-02  0.1379984E+01
      -11   -1    0    0    0    0  0.00000000000E+00  0.00000000000E+00  0.35740347158E-01  0.35744000000E-01  0.51099999109E-03 0. -1.
       11   -1    0    0    0    0 -0.00000000000E+00 -0.00000000000E+00 -0.35740347158E-01  0.35744000000E-01  0.51099999109E-03 0.  1.
       22    1    1    2    0    0  0.86453183272E-02 -0.23033199561E-02 -0.34598941791E-01  0.35737005818E-01  0.00000000000E+00 0.  1.
  9000001    1    1    2    0    0 -0.86453183272E-02  0.23033199561E-02  0.34598941791E-01  0.35750994182E-01  0.10000000475E-02 0. -1.
</event>
<event>
 4   0  0.2441219E-02  0.9118800E+02  0.7818609E-02  0.1379984E+01
      -11   -1    0    0    0    0  0.00000000000E+00  0.00000000000E+00  0.35740347158E-01  0.35744000000E-01  0.51099999109E-03 0.  1.
       11   -1    0    0    0    0 -0.00000000000E+00 -0.00000000000E+00 -0.35740347158E-01  0.35744000000E-01  0.51099999109E-03 0. -1.
       22    1    1    2    0    0 -0.98612844164E-04  0.30642563970E-02  0.35605255133E-01  0.35737005818E-01  0.00000000000E+00 0.  1.
  9000001    1    1    2    0    0  0.98612844164E-04 -0.30642563970E-02 -0.35605255133E-01  0.35750994182E-01  0.10000000475E-02 0. -1.
</event>
<event>
 4   0  0.2441219E-02  0.9118800E+02  0.7818609E-02  0.1379984E+01
      -11   -1    0    0    0    0  0.00000000000E+00  0.00000000000E+00  0.35740347158E-01  0.35744000000E-01  0.51099999109E-03 0.  1.
       11   -1    0    0    0    0 -0.00000000000E+00 -0.00000000000E+00 -0.35740347158E-01  0.35744000000E-01  0.51099999109E-03 0. -1.
       22    1    1    2    0    0  0.13316467945E-02  0.12180960224E-01  0.33570589952E-01  0.35737005818E-01  0.00000000000E+00 0.  1.
  9000001    1    1    2    0    0 -0.13316467945E-02 -0.12180960224E-01 -0.33570589952E-01  0.35750994182E-01  0.10000000475E-02 0. -1.
</event>
<event>
 4   0  0.2441219E-02  0.9118800E+02  0.7818609E-02  0.1379984E+01
      -11   -1    0    0    0    0  0.00000000000E+00  0.00000000000E+00  0.35740347158E-01  0.35744000000E-01  0.51099999109E-03 0. -1.
       11   -1    0    0    0    0 -0.00000000000E+00 -0.00000000000E+00 -0.35740347158E-01  0.35744000000E-01  0.51099999109E-03 0.  1.
       22    1    1    2    0    0  0.66458448052E-02  0.76312920072E-02 -0.34274330249E-01  0.35737005818E-01  0.00000000000E+00 0.  1.
  9000001    1    1    2    0    0 -0.66458448052E-02 -0.76312920072E-02  0.34274330249E-01  0.35750994182E-01  0.10000000475E-02 0. -1.
</event>
<event>
 4   0  0.2441219E-02  0.9118800E+02  0.7818609E-02  0.1379984E+01
      -11   -1    0    0    0    0  0.00000000000E+00  0.00000000000E+00  0.35740347158E-01  0.35744000000E-01  0.51099999109E-03 0.  1.
       11   -1    0    0    0    0 -0.00000000000E+00 -0.00000000000E+00 -0.35740347158E-01  0.35744000000E-01  0.51099999109E-03 0. -1.
       22    1    1    2    0    0  0.22360416966E-01  0.74186455302E-03 -0.27867453687E-01  0.35737005818E-01  0.00000000000E+00 0.  1.
  9000001    1    1    2    0    0 -0.22360416966E-01 -0.74186455302E-03  0.27867453687E-01  0.35750994182E-01  0.10000000475E-02 0. -1.
</event>
<event>
 4   0  0.2441219E-02  0.9118800E+02  0.7818609E-02  0.1379984E+01
      -11   -1    0    0    0    0  0.00000000000E+00  0.00000000000E+00  0.35740347158E-01  0.35744000000E-01  0.51099999109E-03 0. -1.
       11   -1    0    0    0    0 -0.00000000000E+00 -0.00000000000E+00 -0.35740347158E-01  0.35744000000E-01  0.51099999109E-03 0.  1.
       22    1    1    2    0    0  0.92106975311E-02  0.22083562804E-01  0.26544545386E-01  0.35737005818E-01  0.00000000000E+00 0. -1.
  9000001    1    1    2    0    0 -0.92106975311E-02 -0.22083562804E-01 -0.26544545386E-01  0.35750994182E-01  0.10000000475E-02 0.  1.
</event>
<event>
 4   0  0.2441219E-02  0.9118800E+02  0.7818609E-02  0.1379984E+01
      -11   -1    0    0    0    0  0.00000000000E+00  0.00000000000E+00  0.35740347158E-01  0.35744000000E-01  0.51099999109E-03 0.  1.
       11   -1    0    0    0    0 -0.00000000000E+00 -0.00000000000E+00 -0.35740347158E-01  0.35744000000E-01  0.51099999109E-03 0. -1.
       22    1    1    2    0    0  0.15941352695E-02 -0.54175087112E-02 -0.35287999617E-01  0.35737005818E-01  0.00000000000E+00 0. -1.
  9000001    1    1    2    0    0 -0.15941352695E-02  0.54175087112E-02  0.35287999617E-01  0.35750994182E-01  0.10000000475E-02 0.  1.
</event>
<event>
 4   0  0.2441219E-02  0.9118800E+02  0.7818609E-02  0.1379984E+01
      -11   -1    0    0    0    0  0.00000000000E+00  0.00000000000E+00  0.35740347158E-01  0.35744000000E-01  0.51099999109E-03 0. -1.
       11   -1    0    0    0    0 -0.00000000000E+00 -0.00000000000E+00 -0.35740347158E-01  0.35744000000E-01  0.51099999109E-03 0.  1.
       22    1    1    2    0    0 -0.18581862656E-01 -0.66226854368E-02 -0.29799127550E-01  0.35737005818E-01  0.00000000000E+00 0.  1.
  9000001    1    1    2    0    0  0.18581862656E-01  0.66226854368E-02  0.29799127550E-01  0.35750994182E-01  0.10000000475E-02 0. -1.
</event>
<event>
 4   0  0.2441219E-02  0.9118800E+02  0.7818609E-02  0.1379984E+01
      -11   -1    0    0    0    0  0.00000000000E+00  0.00000000000E+00  0.35740347158E-01  0.35744000000E-01  0.51099999109E-03 0. -1.
       11   -1    0    0    0    0 -0.00000000000E+00 -0.00000000000E+00 -0.35740347158E-01  0.35744000000E-01  0.51099999109E-03 0.  1.
       22    1    1    2    0    0 -0.81997268951E-03 -0.88428435439E-02  0.34615969548E-01  0.35737005818E-01  0.00000000000E+00 0. -1.
  9000001    1    1    2    0    0  0.81997268951E-03  0.88428435439E-02 -0.34615969548E-01  0.35750994182E-01  0.10000000475E-02 0.  1.
</event>
<event>
 4   0  0.2441219E-02  0.9118800E+02  0.7818609E-02  0.1379984E+01
      -11   -1    0    0    0    0  0.00000000000E+00  0.00000000000E+00  0.35740347158E-01  0.35744000000E-01  0.51099999109E-03 0. -1.
       11   -1    0    0    0    0 -0.00000000000E+00 -0.00000000000E+00 -0.35740347158E-01  0.35744000000E-01  0.51099999109E-03 0.  1.
       22    1    1    2    0    0  0.91935001997E-02 -0.56091984208E-02 -0.34075651601E-01  0.35737005818E-01  0.00000000000E+00 0.  1.
  9000001    1    1    2    0    0 -0.91935001997E-02  0.56091984208E-02  0.34075651601E-01  0.35750994182E-01  0.10000000475E-02 0. -1.
</event>
<event>
 4   0  0.2441219E-02  0.9118800E+02  0.7818609E-02  0.1379984E+01
      -11   -1    0    0    0    0  0.00000000000E+00  0.00000000000E+00  0.35740347158E-01  0.35744000000E-01  0.51099999109E-03 0.  1.
       11   -1    0    0    0    0 -0.00000000000E+00 -0.00000000000E+00 -0.35740347158E-01  0.35744000000E-01  0.51099999109E-03 0. -1.
       22    1    1    2    0    0  0.99472887902E-02  0.18825143206E-02  0.34273038535E-01  0.35737005818E-01  0.00000000000E+00 0.  1.
  9000001    1    1    2    0    0 -0.99472887902E-02 -0.18825143206E-02 -0.34273038535E-01  0.35750994182E-01  0.10000000475E-02 0. -1.
</event>
<event>
 4   0  0.2441219E-02  0.9118800E+02  0.7818609E-02  0.1379984E+01
      -11   -1    0    0    0    0  0.00000000000E+00  0.00000000000E+00  0.35740347158E-01  0.35744000000E-01  0.51099999109E-03 0. -1.
       11   -1    0    0    0    0 -0.00000000000E+00 -0.00000000000E+00 -0.35740347158E-01  0.35744000000E-01  0.51099999109E-03 0.  1.
       22    1    1    2    0    0  0.51816462544E-02  0.75761547158E-02  0.34538181867E-01  0.35737005818E-01  0.00000000000E+00 0. -1.
  9000001    1    1    2    0    0 -0.51816462544E-02 -0.75761547158E-02 -0.34538181867E-01  0.35750994182E-01  0.10000000475E-02 0.  1.
</event>
<event>
 4   0  0.2441219E-02  0.9118800E+02  0.7818609E-02  0.1379984E+01
      -11   -1    0    0    0    0  0.00000000000E+00  0.00000000000E+00  0.35740347158E-01  0.35744000000E-01  0.51099999109E-03 0.  1.
       11   -1    0    0    0    0 -0.00000000000E+00 -0.00000000000E+00 -0.35740347158E-01  0.35744000000E-01  0.51099999109E-03 0. -1.
       22    1    1    2    0    0  0.48175681994E-03  0.33053205881E-02 -0.35580561421E-01  0.35737005818E-01  0.00000000000E+00 0. -1.
  9000001    1    1    2    0    0 -0.48175681994E-03 -0.33053205881E-02  0.35580561421E-01  0.35750994182E-01  0.10000000475E-02 0.  1.
</event>
<event>
 4   0  0.2441219E-02  0.9118800E+02  0.7818609E-02  0.1379984E+01
      -11   -1    0    0    0    0  0.00000000000E+00  0.00000000000E+00  0.35740347158E-01  0.35744000000E-01  0.51099999109E-03 0. -1.
       11   -1    0    0    0    0 -0.00000000000E+00 -0.00000000000E+00 -0.35740347158E-01  0.35744000000E-01  0.51099999109E-03 0.  1.
       22    1    1    2    0    0  0.13623174891E-01  0.30632372018E-01  0.12377417959E-01  0.35737005818E-01  0.00000000000E+00 0. -1.
  9000001    1    1    2    0    0 -0.13623174891E-01 -0.30632372018E-01 -0.12377417959E-01  0.35750994182E-01  0.10000000475E-02 0.  1.
</event>
<event>
 4   0  0.2441219E-02  0.9118800E+02  0.7818609E-02  0.1379984E+01
      -11   -1    0    0    0    0  0.00000000000E+00  0.00000000000E+00  0.35740347158E-01  0.35744000000E-01  0.51099999109E-03 0.  1.
       11   -1    0    0    0    0 -0.00000000000E+00 -0.00000000000E+00 -0.35740347158E-01  0.35744000000E-01  0.51099999109E-03 0. -1.
       22    1    1    2    0    0  0.12447719018E-01  0.30535169377E-01  0.13776476590E-01  0.35737005818E-01  0.00000000000E+00 0.  1.
  9000001    1    1    2    0    0 -0.12447719018E-01 -0.30535169377E-01 -0.13776476590E-01  0.35750994182E-01  0.10000000475E-02 0. -1.
</event>
<event>
 4   0  0.2441219E-02  0.9118800E+02  0.7818609E-02  0.1379984E+01
      -11   -1    0    0    0    0  0.00000000000E+00  0.00000000000E+00  0.35740347158E-01  0.35744000000E-01  0.51099999109E-03 0. -1.
       11   -1    0    0    0    0 -0.00000000000E+00 -0.00000000000E+00 -0.35740347158E-01  0.35744000000E-01  0.51099999109E-03 0.  1.
       22    1    1    2    0    0  0.80495808711E-02 -0.15618911978E-01  0.31118923846E-01  0.35737005818E-01  0.00000000000E+00 0. -1.
  9000001    1    1    2    0    0 -0.80495808711E-02  0.15618911978E-01 -0.31118923846E-01  0.35750994182E-01  0.10000000475E-02 0.  1.
</event>
<event>
 4   0  0.2441219E-02  0.9118800E+02  0.7818609E-02  0.1379984E+01
      -11   -1    0    0    0    0  0.00000000000E+00  0.00000000000E+00  0.35740347158E-01  0.35744000000E-01  0.51099999109E-03 0. -1.
       11   -1    0    0    0    0 -0.00000000000E+00 -0.00000000000E+00 -0.35740347158E-01  0.35744000000E-01  0.51099999109E-03 0.  1.
       22    1    1    2    0    0 -0.12069359434E-01 -0.23691902195E-02 -0.33553704496E-01  0.35737005818E-01  0.00000000000E+00 0.  1.
  9000001    1    1    2    0    0  0.12069359434E-01  0.23691902195E-02  0.33553704496E-01  0.35750994182E-01  0.10000000475E-02 0. -1.
</event>
<event>
 4   0  0.2441219E-02  0.9118800E+02  0.7818609E-02  0.1379984E+01
      -11   -1    0    0    0    0  0.00000000000E+00  0.00000000000E+00  0.35740347158E-01  0.35744000000E-01  0.51099999109E-03 0. -1.
       11   -1    0    0    0    0 -0.00000000000E+00 -0.00000000000E+00 -0.35740347158E-01  0.35744000000E-01  0.51099999109E-03 0.  1.
       22    1    1    2    0    0  0.12858098111E-01  0.15396698909E-02  0.33308141864E-01  0.35737005818E-01  0.00000000000E+00 0. -1.
  9000001    1    1    2    0    0 -0.12858098111E-01 -0.15396698909E-02 -0.33308141864E-01  0.35750994182E-01  0.10000000475E-02 0.  1.
</event>
<event>
 4   0  0.2441219E-02  0.9118800E+02  0.7818609E-02  0.1379984E+01
      -11   -1    0    0    0    0  0.00000000000E+00  0.00000000000E+00  0.35740347158E-01  0.35744000000E-01  0.51099999109E-03 0.  1.
       11   -1    0    0    0    0 -0.00000000000E+00 -0.00000000000E+00 -0.35740347158E-01  0.35744000000E-01  0.51099999109E-03 0. -1.
       22    1    1    2    0    0  0.97005876363E-02 -0.23454775122E-01  0.25157617303E-01  0.35737005818E-01  0.00000000000E+00 0.  1.
  9000001    1    1    2    0    0 -0.97005876363E-02  0.23454775122E-01 -0.25157617303E-01  0.35750994182E-01  0.10000000475E-02 0. -1.
</event>
<event>
 4   0  0.2441219E-02  0.9118800E+02  0.7818609E-02  0.1379984E+01
      -11   -1    0    0    0    0  0.00000000000E+00  0.00000000000E+00  0.35740347158E-01  0.35744000000E-01  0.51099999109E-03 0. -1.
       11   -1    0    0    0    0 -0.00000000000E+00 -0.00000000000E+00 -0.35740347158E-01  0.35744000000E-01  0.51099999109E-03 0.  1.
       22    1    1    2    0    0 -0.42899502128E-02  0.16295355054E-02 -0.35441141715E-01  0.35737005818E-01  0.00000000000E+00 0.  1.
  9000001    1    1    2    0    0  0.42899502128E-02 -0.16295355054E-02  0.35441141715E-01  0.35750994182E-01  0.10000000475E-02 0. -1.
</event>
<event>
 4   0  0.2441219E-02  0.9118800E+02  0.7818609E-02  0.1379984E+01
      -11   -1    0    0    0    0  0.00000000000E+00  0.00000000000E+00  0.35740347158E-01  0.35744000000E-01  0.51099999109E-03 0. -1.
       11   -1    0    0    0    0 -0.00000000000E+00 -0.00000000000E+00 -0.35740347158E-01  0.35744000000E-01  0.51099999109E-03 0.  1.
       22    1    1    2    0    0 -0.24606012250E-01  0.18100956312E-01  0.18548130003E-01  0.35737005818E-01  0.00000000000E+00 0.  1.
  9000001    1    1    2    0    0  0.24606012250E-01 -0.18100956312E-01 -0.18548130003E-01  0.35750994182E-01  0.10000000475E-02 0. -1.
</event>
<event>
 4   0  0.2441219E-02  0.9118800E+02  0.7818609E-02  0.1379984E+01
      -11   -1    0    0    0    0  0.00000000000E+00  0.00000000000E+00  0.35740347158E-01  0.35744000000E-01  0.51099999109E-03 0.  1.
       11   -1    0    0    0    0 -0.00000000000E+00 -0.00000000000E+00 -0.35740347158E-01  0.35744000000E-01  0.51099999109E-03 0. -1.
       22    1    1    2    0    0  0.22445802361E-01 -0.18023815291E-01  0.21176912513E-01  0.35737005818E-01  0.00000000000E+00 0.  1.
  9000001    1    1    2    0    0 -0.22445802361E-01  0.18023815291E-01 -0.21176912513E-01  0.35750994182E-01  0.10000000475E-02 0. -1.
</event>
<event>
 4   0  0.2441219E-02  0.9118800E+02  0.7818609E-02  0.1379984E+01
      -11   -1    0    0    0    0  0.00000000000E+00  0.00000000000E+00  0.35740347158E-01  0.35744000000E-01  0.51099999109E-03 0. -1.
       11   -1    0    0    0    0 -0.00000000000E+00 -0.00000000000E+00 -0.35740347158E-01  0.35744000000E-01  0.51099999109E-03 0.  1.
       22    1    1    2    0    0  0.21188888654E-02 -0.31937442121E-02  0.35530886462E-01  0.35737005818E-01  0.00000000000E+00 0. -1.
  9000001    1    1    2    0    0 -0.21188888654E-02  0.31937442121E-02 -0.35530886462E-01  0.35750994182E-01  0.10000000475E-02 0.  1.
</event>
<event>
 4   0  0.2441219E-02  0.9118800E+02  0.7818609E-02  0.1379984E+01
      -11   -1    0    0    0    0  0.00000000000E+00  0.00000000000E+00  0.35740347158E-01  0.35744000000E-01  0.51099999109E-03 0.  1.
       11   -1    0    0    0    0 -0.00000000000E+00 -0.00000000000E+00 -0.35740347158E-01  0.35744000000E-01  0.51099999109E-03 0. -1.
       22    1    1    2    0    0  0.44432891975E-02  0.18545687367E-01  0.30223306339E-01  0.35737005818E-01  0.00000000000E+00 0.  1.
  9000001    1    1    2    0    0 -0.44432891975E-02 -0.18545687367E-01 -0.30223306339E-01  0.35750994182E-01  0.10000000475E-02 0. -1.
</event>
<event>
 4   0  0.2441219E-02  0.9118800E+02  0.7818609E-02  0.1379984E+01
      -11   -1    0    0    0    0  0.00000000000E+00  0.00000000000E+00  0.35740347158E-01  0.35744000000E-01  0.51099999109E-03 0. -1.
       11   -1    0    0    0    0 -0.00000000000E+00 -0.00000000000E+00 -0.35740347158E-01  0.35744000000E-01  0.51099999109E-03 0.  1.
       22    1    1    2    0    0 -0.75778970316E-02  0.28909174824E-01 -0.19595118587E-01  0.35737005818E-01  0.00000000000E+00 0.  1.
  9000001    1    1    2    0    0  0.75778970316E-02 -0.28909174824E-01  0.19595118587E-01  0.35750994182E-01  0.10000000475E-02 0. -1.
</event>
<event>
 4   0  0.2441219E-02  0.9118800E+02  0.7818609E-02  0.1379984E+01
      -11   -1    0    0    0    0  0.00000000000E+00  0.00000000000E+00  0.35740347158E-01  0.35744000000E-01  0.51099999109E-03 0.  1.
       11   -1    0    0    0    0 -0.00000000000E+00 -0.00000000000E+00 -0.35740347158E-01  0.35744000000E-01  0.51099999109E-03 0. -1.
       22    1    1    2    0    0 -0.20152066522E-02  0.16526780813E-01  0.31621796960E-01  0.35737005818E-01  0.00000000000E+00 0.  1.
  9000001    1    1    2    0    0  0.20152066522E-02 -0.16526780813E-01 -0.31621796960E-01  0.35750994182E-01  0.10000000475E-02 0. -1.
</event>
<event>
 4   0  0.2441219E-02  0.9118800E+02  0.7818609E-02  0.1379984E+01
      -11   -1    0    0    0    0  0.00000000000E+00  0.00000000000E+00  0.35740347158E-01  0.35744000000E-01  0.51099999109E-03 0. -1.
       11   -1    0    0    0    0 -0.00000000000E+00 -0.00000000000E+00 -0.35740347158E-01  0.35744000000E-01  0.51099999109E-03 0.  1.
       22    1    1    2    0    0 -0.29064073129E-01  0.11430017824E-01  0.17371468867E-01  0.35737005818E-01  0.00000000000E+00 0. -1.
  9000001    1    1    2    0    0  0.29064073129E-01 -0.11430017824E-01 -0.17371468867E-01  0.35750994182E-01  0.10000000475E-02 0.  1.
</event>
<event>
 4   0  0.2441219E-02  0.9118800E+02  0.7818609E-02  0.1379984E+01
      -11   -1    0    0    0    0  0.00000000000E+00  0.00000000000E+00  0.35740347158E-01  0.35744000000E-01  0.51099999109E-03 0.  1.
       11   -1    0    0    0    0 -0.00000000000E+00 -0.00000000000E+00 -0.35740347158E-01  0.35744000000E-01  0.51099999109E-03 0. -1.
       22    1    1    2    0    0  0.77604984228E-02 -0.39761464802E-02  0.34656868126E-01  0.35737005818E-01  0.00000000000E+00 0.  1.
  9000001    1    1    2    0    0 -0.77604984228E-02  0.39761464802E-02 -0.34656868126E-01  0.35750994182E-01  0.10000000475E-02 0. -1.
</event>
<event>
 4   0  0.2441219E-02  0.9118800E+02  0.7818609E-02  0.1379984E+01
      -11   -1    0    0    0    0  0.00000000000E+00  0.00000000000E+00  0.35740347158E-01  0.35744000000E-01  0.51099999109E-03 0. -1.
       11   -1    0    0    0    0 -0.00000000000E+00 -0.00000000000E+00 -0.35740347158E-01  0.35744000000E-01  0.51099999109E-03 0.  1.
       22    1    1    2    0    0  0.38919431759E-02 -0.28774325828E-02 -0.35407721544E-01  0.35737005818E-01  0.00000000000E+00 0.  1.
  9000001    1    1    2    0    0 -0.38919431759E-02  0.28774325828E-02  0.35407721544E-01  0.35750994182E-01  0.10000000475E-02 0. -1.
</event>
<event>
 4   0  0.2441219E-02  0.9118800E+02  0.7818609E-02  0.1379984E+01
      -11   -1    0    0    0    0  0.00000000000E+00  0.00000000000E+00  0.35740347158E-01  0.35744000000E-01  0.51099999109E-03 0.  1.
       11   -1    0    0    0    0 -0.00000000000E+00 -0.00000000000E+00 -0.35740347158E-01  0.35744000000E-01  0.51099999109E-03 0. -1.
       22    1    1    2    0    0 -0.28001115477E-01 -0.68492253024E-02  0.21122481617E-01  0.35737005818E-01  0.00000000000E+00 0.  1.
  9000001    1    1    2    0    0  0.28001115477E-01  0.68492253024E-02 -0.21122481617E-01  0.35750994182E-01  0.10000000475E-02 0. -1.
</event>
<event>
 4   0  0.2441219E-02  0.9118800E+02  0.7818609E-02  0.1379984E+01
      -11   -1    0    0    0    0  0.00000000000E+00  0.00000000000E+00  0.35740347158E-01  0.35744000000E-01  0.51099999109E-03 0. -1.
       11   -1    0    0    0    0 -0.00000000000E+00 -0.00000000000E+00 -0.35740347158E-01  0.35744000000E-01  0.51099999109E-03 0.  1.
       22    1    1    2    0    0 -0.48726887709E-02 -0.97748517791E-02 -0.34027088646E-01  0.35737005818E-01  0.00000000000E+00 0.  1.
  9000001    1    1    2    0    0  0.48726887709E-02  0.97748517791E-02  0.34027088646E-01  0.35750994182E-01  0.10000000475E-02 0. -1.
</event>
<event>
 4   0  0.2441219E-02  0.9118800E+02  0.7818609E-02  0.1379984E+01
      -11   -1    0    0    0    0  0.00000000000E+00  0.00000000000E+00  0.35740347158E-01  0.35744000000E-01  0.51099999109E-03 0. -1.
       11   -1    0    0    0    0 -0.00000000000E+00 -0.00000000000E+00 -0.35740347158E-01  0.35744000000E-01  0.51099999109E-03 0.  1.
       22    1    1    2    0    0  0.14146128705E-01 -0.15226954843E-01 -0.29071643809E-01  0.35737005818E-01  0.00000000000E+00 0.  1.
  9000001    1    1    2    0    0 -0.14146128705E-01  0.15226954843E-01  0.29071643809E-01  0.35750994182E-01  0.10000000475E-02 0. -1.
</event>
<event>
 4   0  0.2441219E-02  0.9118800E+02  0.7818609E-02  0.1379984E+01
      -11   -1    0    0    0    0  0.00000000000E+00  0.00000000000E+00  0.35740347158E-01  0.35744000000E-01  0.51099999109E-03 0.  1.
       11   -1    0    0    0    0 -0.00000000000E+00 -0.00000000000E+00 -0.35740347158E-01  0.35744000000E-01  0.51099999109E-03 0. -1.
       22    1    1    2    0    0 -0.22984990914E-01  0.15228694606E-02  0.27322237210E-01  0.35737005818E-01  0.00000000000E+00 0.  1.
  9000001    1    1    2    0    0  0.22984990914E-01 -0.15228694606E-02 -0.27322237210E-01  0.35750994182E-01  0.10000000475E-02 0. -1.
</event>
<event>
 4   0  0.2441219E-02  0.9118800E+02  0.7818609E-02  0.1379984E+01
      -11   -1    0    0    0    0  0.00000000000E+00  0.00000000000E+00  0.35740347158E-01  0.35744000000E-01  0.51099999109E-03 0.  1.
       11   -1    0    0    0    0 -0.00000000000E+00 -0.00000000000E+00 -0.35740347158E-01  0.35744000000E-01  0.51099999109E-03 0. -1.
       22    1    1    2    0    0  0.39133690826E-02 -0.19615715129E-01  0.29614909206E-01  0.35737005818E-01  0.00000000000E+00 0.  1.
  9000001    1    1    2    0    0 -0.39133690826E-02  0.19615715129E-01 -0.29614909206E-01  0.35750994182E-01  0.10000000475E-02 0. -1.
</event>
<event>
 4   0  0.2441219E-02  0.9118800E+02  0.7818609E-02  0.1379984E+01
      -11   -1    0    0    0    0  0.00000000000E+00  0.00000000000E+00  0.35740347158E-01  0.35744000000E-01  0.51099999109E-03 0. -1.
       11   -1    0    0    0    0 -0.00000000000E+00 -0.00000000000E+00 -0.35740347158E-01  0.35744000000E-01  0.51099999109E-03 0.  1.
       22    1    1    2    0    0  0.45852180577E-02  0.94952998396E-02  0.34145990119E-01  0.35737005818E-01  0.00000000000E+00 0. -1.
  9000001    1    1    2    0    0 -0.45852180577E-02 -0.94952998396E-02 -0.34145990119E-01  0.35750994182E-01  0.10000000475E-02 0.  1.
</event>
<event>
 4   0  0.2441219E-02  0.9118800E+02  0.7818609E-02  0.1379984E+01
      -11   -1    0    0    0    0  0.00000000000E+00  0.00000000000E+00  0.35740347158E-01  0.35744000000E-01  0.51099999109E-03 0. -1.
       11   -1    0    0    0    0 -0.00000000000E+00 -0.00000000000E+00 -0.35740347158E-01  0.35744000000E-01  0.51099999109E-03 0.  1.
       22    1    1    2    0    0 -0.12360735801E-02 -0.37039969885E-02  0.35523036375E-01  0.35737005818E-01  0.00000000000E+00 0. -1.
  9000001    1    1    2    0    0  0.12360735801E-02  0.37039969885E-02 -0.35523036375E-01  0.35750994182E-01  0.10000000475E-02 0.  1.
</event>
<event>
 4   0  0.2441219E-02  0.9118800E+02  0.7818609E-02  0.1379984E+01
      -11   -1    0    0    0    0  0.00000000000E+00  0.00000000000E+00  0.35740347158E-01  0.35744000000E-01  0.51099999109E-03 0.  1.
       11   -1    0    0    0    0 -0.00000000000E+00 -0.00000000000E+00 -0.35740347158E-01  0.35744000000E-01  0.51099999109E-03 0. -1.
       22    1    1    2    0    0  0.37927390369E-02 -0.43674426055E-02 -0.35265764710E-01  0.35737005818E-01  0.00000000000E+00 0. -1.
  9000001    1    1    2    0    0 -0.37927390369E-02  0.43674426055E-02  0.35265764710E-01  0.35750994182E-01  0.10000000475E-02 0.  1.
</event>
<event>
 4   0  0.2441219E-02  0.9118800E+02  0.7818609E-02  0.1379984E+01
      -11   -1    0    0    0    0  0.00000000000E+00  0.00000000000E+00  0.35740347158E-01  0.35744000000E-01  0.51099999109E-03 0.  1.
       11   -1    0    0    0    0 -0.00000000000E+00 -0.00000000000E+00 -0.35740347158E-01  0.35744000000E-01  0.51099999109E-03 0. -1.
       22    1    1    2    0    0  0.26092446664E-02  0.68767098578E-02 -0.34971935730E-01  0.35737005818E-01  0.00000000000E+00 0. -1.
  9000001    1    1    2    0    0 -0.26092446664E-02 -0.68767098578E-02  0.34971935730E-01  0.35750994182E-01  0.10000000475E-02 0.  1.
</event>
<event>
 4   0  0.2441219E-02  0.9118800E+02  0.7818609E-02  0.1379984E+01
      -11   -1    0    0    0    0  0.00000000000E+00  0.00000000000E+00  0.35740347158E-01  0.35744000000E-01  0.51099999109E-03 0.  1.
       11   -1    0    0    0    0 -0.00000000000E+00 -0.00000000000E+00 -0.35740347158E-01  0.35744000000E-01  0.51099999109E-03 0. -1.
       22    1    1    2    0    0 -0.12400976494E-01  0.11162589879E-01  0.31602942174E-01  0.35737005818E-01  0.00000000000E+00 0.  1.
  9000001    1    1    2    0    0  0.12400976494E-01 -0.11162589879E-01 -0.31602942174E-01  0.35750994182E-01  0.10000000475E-02 0. -1.
</event>
<event>
 4   0  0.2441219E-02  0.9118800E+02  0.7818609E-02  0.1379984E+01
      -11   -1    0    0    0    0  0.00000000000E+00  0.00000000000E+00  0.35740347158E-01  0.35744000000E-01  0.51099999109E-03 0.  1.
       11   -1    0    0    0    0 -0.00000000000E+00 -0.00000000000E+00 -0.35740347158E-01  0.35744000000E-01  0.51099999109E-03 0. -1.
       22    1    1    2    0    0  0.76936350306E-02 -0.94224978031E-02  0.33602947788E-01  0.35737005818E-01  0.00000000000E+00 0.  1.
  9000001    1    1    2    0    0 -0.76936350306E-02  0.94224978031E-02 -0.33602947788E-01  0.35750994182E-01  0.10000000475E-02 0. -1.
</event>
<event>
 4   0  0.2441219E-02  0.9118800E+02  0.7818609E-02  0.1379984E+01
      -11   -1    0    0    0    0  0.00000000000E+00  0.00000000000E+00  0.35740347158E-01  0.35744000000E-01  0.51099999109E-03 0.  1.
       11   -1    0    0    0    0 -0.00000000000E+00 -0.00000000000E+00 -0.35740347158E-01  0.35744000000E-01  0.51099999109E-03 0. -1.
       22    1    1    2    0    0 -0.33225721768E-02 -0.40405447312E-02 -0.35352059307E-01  0.35737005818E-01  0.00000000000E+00 0. -1.
  9000001    1    1    2    0    0  0.33225721768E-02  0.40405447312E-02  0.35352059307E-01  0.35750994182E-01  0.10000000475E-02 0.  1.
</event>
<event>
 4   0  0.2441219E-02  0.9118800E+02  0.7818609E-02  0.1379984E+01
      -11   -1    0    0    0    0  0.00000000000E+00  0.00000000000E+00  0.35740347158E-01  0.35744000000E-01  0.51099999109E-03 0. -1.
       11   -1    0    0    0    0 -0.00000000000E+00 -0.00000000000E+00 -0.35740347158E-01  0.35744000000E-01  0.51099999109E-03 0.  1.
       22    1    1    2    0    0  0.54254516224E-02 -0.25222503556E-01 -0.24728998644E-01  0.35737005818E-01  0.00000000000E+00 0. -1.
  9000001    1    1    2    0    0 -0.54254516224E-02  0.25222503556E-01  0.24728998644E-01  0.35750994182E-01  0.10000000475E-02 0.  1.
</event>
<event>
 4   0  0.2441219E-02  0.9118800E+02  0.7818609E-02  0.1379984E+01
      -11   -1    0    0    0    0  0.00000000000E+00  0.00000000000E+00  0.35740347158E-01  0.35744000000E-01  0.51099999109E-03 0. -1.
       11   -1    0    0    0    0 -0.00000000000E+00 -0.00000000000E+00 -0.35740347158E-01  0.35744000000E-01  0.51099999109E-03 0.  1.
       22    1    1    2    0    0 -0.39930950855E-02  0.25151718700E-01  0.25071494230E-01  0.35737005818E-01  0.00000000000E+00 0. -1.
  9000001    1    1    2    0    0  0.39930950855E-02 -0.25151718700E-01 -0.25071494230E-01  0.35750994182E-01  0.10000000475E-02 0.  1.
</event>
<event>
 4   0  0.2441219E-02  0.9118800E+02  0.7818609E-02  0.1379984E+01
      -11   -1    0    0    0    0  0.00000000000E+00  0.00000000000E+00  0.35740347158E-01  0.35744000000E-01  0.51099999109E-03 0.  1.
       11   -1    0    0    0    0 -0.00000000000E+00 -0.00000000000E+00 -0.35740347158E-01  0.35744000000E-01  0.51099999109E-03 0. -1.
       22    1    1    2    0    0  0.67022791724E-02  0.49791471379E-03  0.35099360674E-01  0.35737005818E-01  0.00000000000E+00 0.  1.
  9000001    1    1    2    0    0 -0.67022791724E-02 -0.49791471379E-03 -0.35099360674E-01  0.35750994182E-01  0.10000000475E-02 0. -1.
</event>
<event>
 4   0  0.2441219E-02  0.9118800E+02  0.7818609E-02  0.1379984E+01
      -11   -1    0    0    0    0  0.00000000000E+00  0.00000000000E+00  0.35740347158E-01  0.35744000000E-01  0.51099999109E-03 0.  1.
       11   -1    0    0    0    0 -0.00000000000E+00 -0.00000000000E+00 -0.35740347158E-01  0.35744000000E-01  0.51099999109E-03 0. -1.
       22    1    1    2    0    0 -0.12834583123E-02 -0.41018373269E-02  0.35477616185E-01  0.35737005818E-01  0.00000000000E+00 0.  1.
  9000001    1    1    2    0    0  0.12834583123E-02  0.41018373269E-02 -0.35477616185E-01  0.35750994182E-01  0.10000000475E-02 0. -1.
</event>
<event>
 4   0  0.2441219E-02  0.9118800E+02  0.7818609E-02  0.1379984E+01
      -11   -1    0    0    0    0  0.00000000000E+00  0.00000000000E+00  0.35740347158E-01  0.35744000000E-01  0.51099999109E-03 0.  1.
       11   -1    0    0    0    0 -0.00000000000E+00 -0.00000000000E+00 -0.35740347158E-01  0.35744000000E-01  0.51099999109E-03 0. -1.
       22    1    1    2    0    0  0.69648375056E-02  0.37617949465E-02 -0.34849297298E-01  0.35737005818E-01  0.00000000000E+00 0. -1.
  9000001    1    1    2    0    0 -0.69648375056E-02 -0.37617949465E-02  0.34849297298E-01  0.35750994182E-01  0.10000000475E-02 0.  1.
</event>
<event>
 4   0  0.2441219E-02  0.9118800E+02  0.7818609E-02  0.1379984E+01
      -11   -1    0    0    0    0  0.00000000000E+00  0.00000000000E+00  0.35740347158E-01  0.35744000000E-01  0.51099999109E-03 0. -1.
       11   -1    0    0    0    0 -0.00000000000E+00 -0.00000000000E+00 -0.35740347158E-01  0.35744000000E-01  0.51099999109E-03 0.  1.
       22    1    1    2    0    0 -0.17975275504E-02  0.70739420186E-02 -0.34983736563E-01  0.35737005818E-01  0.00000000000E+00 0.  1.
  9000001    1    1    2    0    0  0.17975275504E-02 -0.70739420186E-02  0.34983736563E-01  0.35750994182E-01  0.10000000475E-02 0. -1.
</event>
<event>
 4   0  0.2441219E-02  0.9118800E+02  0.7818609E-02  0.1379984E+01
      -11   -1    0    0    0    0  0.00000000000E+00  0.00000000000E+00  0.35740347158E-01  0.35744000000E-01  0.51099999109E-03 0.  1.
       11   -1    0    0    0    0 -0.00000000000E+00 -0.00000000000E+00 -0.35740347158E-01  0.35744000000E-01  0.51099999109E-03 0. -1.
       22    1    1    2    0    0  0.19165522450E-01 -0.14146417443E-02  0.30129970508E-01  0.35737005818E-01  0.00000000000E+00 0.  1.
  9000001    1    1    2    0    0 -0.19165522450E-01  0.14146417443E-02 -0.30129970508E-01  0.35750994182E-01  0.10000000475E-02 0. -1.
</event>
<event>
 4   0  0.2441219E-02  0.9118800E+02  0.7818609E-02  0.1379984E+01
      -11   -1    0    0    0    0  0.00000000000E+00  0.00000000000E+00  0.35740347158E-01  0.35744000000E-01  0.51099999109E-03 0.  1.
       11   -1    0    0    0    0 -0.00000000000E+00 -0.00000000000E+00 -0.35740347158E-01  0.35744000000E-01  0.51099999109E-03 0. -1.
       22    1    1    2    0    0 -0.69722253237E-02 -0.15185339334E-01 -0.31589984619E-01  0.35737005818E-01  0.00000000000E+00 0. -1.
  9000001    1    1    2    0    0  0.69722253237E-02  0.15185339334E-01  0.31589984619E-01  0.35750994182E-01  0.10000000475E-02 0.  1.
</event>
<event>
 4   0  0.2441219E-02  0.9118800E+02  0.7818609E-02  0.1379984E+01
      -11   -1    0    0    0    0  0.00000000000E+00  0.00000000000E+00  0.35740347158E-01  0.35744000000E-01  0.51099999109E-03 0. -1.
       11   -1    0    0    0    0 -0.00000000000E+00 -0.00000000000E+00 -0.35740347158E-01  0.35744000000E-01  0.51099999109E-03 0.  1.
       22    1    1    2    0    0 -0.22106275956E-01  0.27719348775E-01  0.44815010580E-02  0.35737005818E-01  0.00000000000E+00 0. -1.
  9000001    1    1    2    0    0  0.22106275956E-01 -0.27719348775E-01 -0.44815010580E-02  0.35750994182E-01  0.10000000475E-02 0.  1.
</event>
<event>
 4   0  0.2441219E-02  0.9118800E+02  0.7818609E-02  0.1379984E+01
      -11   -1    0    0    0    0  0.00000000000E+00  0.00000000000E+00  0.35740347158E-01  0.35744000000E-01  0.51099999109E-03 0.  1.
       11   -1    0    0    0    0 -0.00000000000E+00 -0.00000000000E+00 -0.35740347158E-01  0.35744000000E-01  0.51099999109E-03 0. -1.
       22    1    1    2    0    0 -0.10055783620E-01 -0.74508275242E-03 -0.34284977065E-01  0.35737005818E-01  0.00000000000E+00 0. -1.
  9000001    1    1    2    0    0  0.10055783620E-01  0.74508275242E-03  0.34284977065E-01  0.35750994182E-01  0.10000000475E-02 0.  1.
</event>
<event>
 4   0  0.2441219E-02  0.9118800E+02  0.7818609E-02  0.1379984E+01
      -11   -1    0    0    0    0  0.00000000000E+00  0.00000000000E+00  0.35740347158E-01  0.35744000000E-01  0.51099999109E-03 0.  1.
       11   -1    0    0    0    0 -0.00000000000E+00 -0.00000000000E+00 -0.35740347158E-01  0.35744000000E-01  0.51099999109E-03 0. -1.
       22    1    1    2    0    0 -0.13607136184E-02  0.71372442134E-02 -0.34990595713E-01  0.35737005818E-01  0.00000000000E+00 0. -1.
  9000001    1    1    2    0    0  0.13607136184E-02 -0.71372442134E-02  0.34990595713E-01  0.35750994182E-01  0.10000000475E-02 0.  1.
</event>
<event>
 4   0  0.2441219E-02  0.9118800E+02  0.7818609E-02  0.1379984E+01
      -11   -1    0    0    0    0  0.00000000000E+00  0.00000000000E+00  0.35740347158E-01  0.35744000000E-01  0.51099999109E-03 0. -1.
       11   -1    0    0    0    0 -0.00000000000E+00 -0.00000000000E+00 -0.35740347158E-01  0.35744000000E-01  0.51099999109E-03 0.  1.
       22    1    1    2    0    0 -0.73757922501E-02  0.40589873741E-02 -0.34731194841E-01  0.35737005818E-01  0.00000000000E+00 0.  1.
  9000001    1    1    2    0    0  0.73757922501E-02 -0.40589873741E-02  0.34731194841E-01  0.35750994182E-01  0.10000000475E-02 0. -1.
</event>
<event>
 4   0  0.2441219E-02  0.9118800E+02  0.7818609E-02  0.1379984E+01
      -11   -1    0    0    0    0  0.00000000000E+00  0.00000000000E+00  0.35740347158E-01  0.35744000000E-01  0.51099999109E-03 0.  1.
       11   -1    0    0    0    0 -0.00000000000E+00 -0.00000000000E+00 -0.35740347158E-01  0.35744000000E-01  0.51099999109E-03 0. -1.
       22    1    1    2    0    0 -0.15938964599E-01  0.74053475220E-02 -0.31116616469E-01  0.35737005818E-01  0.00000000000E+00 0. -1.
  9000001    1    1    2    0    0  0.15938964599E-01 -0.74053475220E-02  0.31116616469E-01  0.35750994182E-01  0.10000000475E-02 0.  1.
</event>
<event>
 4   0  0.2441219E-02  0.9118800E+02  0.7818609E-02  0.1379984E+01
      -11   -1    0    0    0    0  0.00000000000E+00  0.00000000000E+00  0.35740347158E-01  0.35744000000E-01  0.51099999109E-03 0.  1.
       11   -1    0    0    0    0 -0.00000000000E+00 -0.00000000000E+00 -0.35740347158E-01  0.35744000000E-01  0.51099999109E-03 0. -1.
       22    1    1    2    0    0  0.50221461001E-02 -0.14272817007E-01  0.32375891156E-01  0.35737005818E-01  0.00000000000E+00 0.  1.
  9000001    1    1    2    0    0 -0.50221461001E-02  0.14272817007E-01 -0.32375891156E-01  0.35750994182E-01  0.10000000475E-02 0. -1.
</event>
<event>
 4   0  0.2441219E-02  0.9118800E+02  0.7818609E-02  0.1379984E+01
      -11   -1    0    0    0    0  0.00000000000E+00  0.00000000000E+00  0.35740347158E-01  0.35744000000E-01  0.51099999109E-03 0. -1.
       11   -1    0    0    0    0 -0.00000000000E+00 -0.00000000000E+00 -0.35740347158E-01  0.35744000000E-01  0.51099999109E-03 0.  1.
       22    1    1    2    0    0 -0.17364269171E-01  0.26431252204E-02 -0.31122815266E-01  0.35737005818E-01  0.00000000000E+00 0.  1.
  9000001    1    1    2    0    0  0.17364269171E-01 -0.26431252204E-02  0.31122815266E-01  0.35750994182E-01  0.10000000475E-02 0. -1.
</event>
<event>
 4   0  0.2441219E-02  0.9118800E+02  0.7818609E-02  0.1379984E+01
      -11   -1    0    0    0    0  0.00000000000E+00  0.00000000000E+00  0.35740347158E-01  0.35744000000E-01  0.51099999109E-03 0.  1.
       11   -1    0    0    0    0 -0.00000000000E+00 -0.00000000000E+00 -0.35740347158E-01  0.35744000000E-01  0.51099999109E-03 0. -1.
       22    1    1    2    0    0 -0.16569681971E-02  0.29180476638E-02 -0.35579109588E-01  0.35737005818E-01  0.00000000000E+00 0. -1.
  9000001    1    1    2    0    0  0.16569681971E-02 -0.29180476638E-02  0.35579109588E-01  0.35750994182E-01  0.10000000475E-02 0.  1.
</event>
<event>
 4   0  0.2441219E-02  0.9118800E+02  0.7818609E-02  0.1379984E+01
      -11   -1    0    0    0    0  0.00000000000E+00  0.00000000000E+00  0.35740347158E-01  0.35744000000E-01  0.51099999109E-03 0.  1.
       11   -1    0    0    0    0 -0.00000000000E+00 -0.00000000000E+00 -0.35740347158E-01  0.35744000000E-01  0.51099999109E-03 0. -1.
       22    1    1    2    0    0 -0.16974690081E-01 -0.13624566525E-01 -0.28343688337E-01  0.35737005818E-01  0.00000000000E+00 0. -1.
  9000001    1    1    2    0    0  0.16974690081E-01  0.13624566525E-01  0.28343688337E-01  0.35750994182E-01  0.10000000475E-02 0.  1.
</event>
<event>
 4   0  0.2441219E-02  0.9118800E+02  0.7818609E-02  0.1379984E+01
      -11   -1    0    0    0    0  0.00000000000E+00  0.00000000000E+00  0.35740347158E-01  0.35744000000E-01  0.51099999109E-03 0.  1.
       11   -1    0    0    0    0 -0.00000000000E+00 -0.00000000000E+00 -0.35740347158E-01  0.35744000000E-01  0.51099999109E-03 0. -1.
       22    1    1    2    0    0 -0.10839479542E-01  0.16373964630E-01  0.29858542336E-01  0.35737005818E-01  0.00000000000E+00 0.  1.
  9000001    1    1    2    0    0  0.10839479542E-01 -0.16373964630E-01 -0.29858542336E-01  0.35750994182E-01  0.10000000475E-02 0. -1.
</event>
<event>
 4   0  0.2441219E-02  0.9118800E+02  0.7818609E-02  0.1379984E+01
      -11   -1    0    0    0    0  0.00000000000E+00  0.00000000000E+00  0.35740347158E-01  0.35744000000E-01  0.51099999109E-03 0.  1.
       11   -1    0    0    0    0 -0.00000000000E+00 -0.00000000000E+00 -0.35740347158E-01  0.35744000000E-01  0.51099999109E-03 0. -1.
       22    1    1    2    0    0 -0.29716826987E-02  0.13316424887E-02  0.35588332570E-01  0.35737005818E-01  0.00000000000E+00 0.  1.
  9000001    1    1    2    0    0  0.29716826987E-02 -0.13316424887E-02 -0.35588332570E-01  0.35750994182E-01  0.10000000475E-02 0. -1.
</event>
<event>
 4   0  0.2441219E-02  0.9118800E+02  0.7818609E-02  0.1379984E+01
      -11   -1    0    0    0    0  0.00000000000E+00  0.00000000000E+00  0.35740347158E-01  0.35744000000E-01  0.51099999109E-03 0.  1.
       11   -1    0    0    0    0 -0.00000000000E+00 -0.00000000000E+00 -0.35740347158E-01  0.35744000000E-01  0.51099999109E-03 0. -1.
       22    1    1    2    0    0 -0.11945273682E-01 -0.36905352454E-02  0.33478709221E-01  0.35737005818E-01  0.00000000000E+00 0.  1.
  9000001    1    1    2    0    0  0.11945273682E-01  0.36905352454E-02 -0.33478709221E-01  0.35750994182E-01  0.10000000475E-02 0. -1.
</event>
<event>
 4   0  0.2441219E-02  0.9118800E+02  0.7818609E-02  0.1379984E+01
      -11   -1    0    0    0    0  0.00000000000E+00  0.00000000000E+00  0.35740347158E-01  0.35744000000E-01  0.51099999109E-03 0.  1.
       11   -1    0    0    0    0 -0.00000000000E+00 -0.00000000000E+00 -0.35740347158E-01  0.35744000000E-01  0.51099999109E-03 0. -1.
       22    1    1    2    0    0 -0.35792209259E-02 -0.73318406198E-02  0.34793201571E-01  0.35737005818E-01  0.00000000000E+00 0.  1.
  9000001    1    1    2    0    0  0.35792209259E-02  0.73318406198E-02 -0.34793201571E-01  0.35750994182E-01  0.10000000475E-02 0. -1.
</event>
<event>
 4   0  0.2441219E-02  0.9118800E+02  0.7818609E-02  0.1379984E+01
      -11   -1    0    0    0    0  0.00000000000E+00  0.00000000000E+00  0.35740347158E-01  0.35744000000E-01  0.51099999109E-03 0. -1.
       11   -1    0    0    0    0 -0.00000000000E+00 -0.00000000000E+00 -0.35740347158E-01  0.35744000000E-01  0.51099999109E-03 0.  1.
       22    1    1    2    0    0 -0.73270230497E-02  0.69091558818E-02 -0.34288655312E-01  0.35737005818E-01  0.00000000000E+00 0.  1.
  9000001    1    1    2    0    0  0.73270230497E-02 -0.69091558818E-02  0.34288655312E-01  0.35750994182E-01  0.10000000475E-02 0. -1.
</event>
<event>
 4   0  0.2441219E-02  0.9118800E+02  0.7818609E-02  0.1379984E+01
      -11   -1    0    0    0    0  0.00000000000E+00  0.00000000000E+00  0.35740347158E-01  0.35744000000E-01  0.51099999109E-03 0.  1.
       11   -1    0    0    0    0 -0.00000000000E+00 -0.00000000000E+00 -0.35740347158E-01  0.35744000000E-01  0.51099999109E-03 0. -1.
       22    1    1    2    0    0  0.48260465209E-02 -0.10052118848E-02 -0.35395372705E-01  0.35737005818E-01  0.00000000000E+00 0. -1.
  9000001    1    1    2    0    0 -0.48260465209E-02  0.10052118848E-02  0.35395372705E-01  0.35750994182E-01  0.10000000475E-02 0.  1.
</event>
<event>
 4   0  0.2441219E-02  0.9118800E+02  0.7818609E-02  0.1379984E+01
      -11   -1    0    0    0    0  0.00000000000E+00  0.00000000000E+00  0.35740347158E-01  0.35744000000E-01  0.51099999109E-03 0.  1.
       11   -1    0    0    0    0 -0.00000000000E+00 -0.00000000000E+00 -0.35740347158E-01  0.35744000000E-01  0.51099999109E-03 0. -1.
       22    1    1    2    0    0 -0.13351494462E-02  0.32766062276E-02 -0.35561423094E-01  0.35737005818E-01  0.00000000000E+00 0. -1.
  9000001    1    1    2    0    0  0.13351494462E-02 -0.32766062276E-02  0.35561423094E-01  0.35750994182E-01  0.10000000475E-02 0.  1.
</event>
<event>
 4   0  0.2441219E-02  0.9118800E+02  0.7818609E-02  0.1379984E+01
      -11   -1    0    0    0    0  0.00000000000E+00  0.00000000000E+00  0.35740347158E-01  0.35744000000E-01  0.51099999109E-03 0. -1.
       11   -1    0    0    0    0 -0.00000000000E+00 -0.00000000000E+00 -0.35740347158E-01  0.35744000000E-01  0.51099999109E-03 0.  1.
       22    1    1    2    0    0 -0.95227605529E-02  0.26460313049E-03 -0.34443876110E-01  0.35737005818E-01  0.00000000000E+00 0.  1.
  9000001    1    1    2    0    0  0.95227605529E-02 -0.26460313049E-03  0.34443876110E-01  0.35750994182E-01  0.10000000475E-02 0. -1.
</event>
<event>
 4   0  0.2441219E-02  0.9118800E+02  0.7818609E-02  0.1379984E+01
      -11   -1    0    0    0    0  0.00000000000E+00  0.00000000000E+00  0.35740347158E-01  0.35744000000E-01  0.51099999109E-03 0. -1.
       11   -1    0    0    0    0 -0.00000000000E+00 -0.00000000000E+00 -0.35740347158E-01  0.35744000000E-01  0.51099999109E-03 0.  1.
       22    1    1    2    0    0  0.74629506684E-02 -0.53006300671E-02 -0.34544772008E-01  0.35737005818E-01  0.00000000000E+00 0.  1.
  9000001    1    1    2    0    0 -0.74629506684E-02  0.53006300671E-02  0.34544772008E-01  0.35750994182E-01  0.10000000475E-02 0. -1.
</event>
<event>
 4   0  0.2441219E-02  0.9118800E+02  0.7818609E-02  0.1379984E+01
      -11   -1    0    0    0    0  0.00000000000E+00  0.00000000000E+00  0.35740347158E-01  0.35744000000E-01  0.51099999109E-03 0.  1.
       11   -1    0    0    0    0 -0.00000000000E+00 -0.00000000000E+00 -0.35740347158E-01  0.35744000000E-01  0.51099999109E-03 0. -1.
       22    1    1    2    0    0  0.23769376690E-02 -0.64869981055E-02  0.35062837988E-01  0.35737005818E-01  0.00000000000E+00 0.  1.
  9000001    1    1    2    0    0 -0.23769376690E-02  0.64869981055E-02 -0.35062837988E-01  0.35750994182E-01  0.10000000475E-02 0. -1.
</event>
<event>
 4   0  0.2441219E-02  0.9118800E+02  0.7818609E-02  0.1379984E+01
      -11   -1    0    0    0    0  0.00000000000E+00  0.00000000000E+00  0.35740347158E-01  0.35744000000E-01  0.51099999109E-03 0. -1.
       11   -1    0    0    0    0 -0.00000000000E+00 -0.00000000000E+00 -0.35740347158E-01  0.35744000000E-01  0.51099999109E-03 0.  1.
       22    1    1    2    0    0  0.91316079292E-02  0.19038257629E-01  0.28832136028E-01  0.35737005818E-01  0.00000000000E+00 0. -1.
  9000001    1    1    2    0    0 -0.91316079292E-02 -0.19038257629E-01 -0.28832136028E-01  0.35750994182E-01  0.10000000475E-02 0.  1.
</event>
<event>
 4   0  0.2441219E-02  0.9118800E+02  0.7818609E-02  0.1379984E+01
      -11   -1    0    0    0    0  0.00000000000E+00  0.00000000000E+00  0.35740347158E-01  0.35744000000E-01  0.51099999109E-03 0. -1.
       11   -1    0    0    0    0 -0.00000000000E+00 -0.00000000000E+00 -0.35740347158E-01  0.35744000000E-01  0.51099999109E-03 0.  1.
       22    1    1    2    0    0  0.57861360907E-02 -0.33927785102E-02 -0.35101898353E-01  0.35737005818E-01  0.00000000000E+00 0.  1.
  9000001    1    1    2    0    0 -0.57861360907E-02  0.33927785102E-02  0.35101898353E-01  0.35750994182E-01  0.10000000475E-02 0. -1.
</event>
<event>
 4   0  0.2441219E-02  0.9118800E+02  0.7818609E-02  0.1379984E+01
      -11   -1    0    0    0    0  0.00000000000E+00  0.00000000000E+00  0.35740347158E-01  0.35744000000E-01  0.51099999109E-03 0. -1.
       11   -1    0    0    0    0 -0.00000000000E+00 -0.00000000000E+00 -0.35740347158E-01  0.35744000000E-01  0.51099999109E-03 0.  1.
       22    1    1    2    0    0  0.25015673633E-02  0.18558617540E-02  0.35601004519E-01  0.35737005818E-01  0.00000000000E+00 0. -1.
  9000001    1    1    2    0    0 -0.25015673633E-02 -0.18558617540E-02 -0.35601004519E-01  0.35750994182E-01  0.10000000475E-02 0.  1.
</event>
<event>
 4   0  0.2441219E-02  0.9118800E+02  0.7818609E-02  0.1379984E+01
      -11   -1    0    0    0    0  0.00000000000E+00  0.00000000000E+00  0.35740347158E-01  0.35744000000E-01  0.51099999109E-03 0. -1.
       11   -1    0    0    0    0 -0.00000000000E+00 -0.00000000000E+00 -0.35740347158E-01  0.35744000000E-01  0.51099999109E-03 0.  1.
       22    1    1    2    0    0 -0.46532041888E-02 -0.41789223027E-02  0.35185478312E-01  0.35737005818E-01  0.00000000000E+00 0. -1.
  9000001    1    1    2    0    0  0.46532041888E-02  0.41789223027E-02 -0.35185478312E-01  0.35750994182E-01  0.10000000475E-02 0.  1.
</event>
<event>
 4   0  0.2441219E-02  0.9118800E+02  0.7818609E-02  0.1379984E+01
      -11   -1    0    0    0    0  0.00000000000E+00  0.00000000000E+00  0.35740347158E-01  0.35744000000E-01  0.51099999109E-03 0.  1.
       11   -1    0    0    0    0 -0.00000000000E+00 -0.00000000000E+00 -0.35740347158E-01  0.35744000000E-01  0.51099999109E-03 0. -1.
       22    1    1    2    0    0 -0.42799465986E-02  0.15838590187E-01  0.31748302362E-01  0.35737005818E-01  0.00000000000E+00 0.  1.
  9000001    1    1    2    0    0  0.42799465986E-02 -0.15838590187E-01 -0.31748302362E-01  0.35750994182E-01  0.10000000475E-02 0. -1.
</event>
<event>
 4   0  0.2441219E-02  0.9118800E+02  0.7818609E-02  0.1379984E+01
      -11   -1    0    0    0    0  0.00000000000E+00  0.00000000000E+00  0.35740347158E-01  0.35744000000E-01  0.51099999109E-03 0. -1.
       11   -1    0    0    0    0 -0.00000000000E+00 -0.00000000000E+00 -0.35740347158E-01  0.35744000000E-01  0.51099999109E-03 0.  1.
       22    1    1    2    0    0 -0.22593679664E-01  0.27680124735E-01  0.68550619464E-03  0.35737005818E-01  0.00000000000E+00 0. -1.
  9000001    1    1    2    0    0  0.22593679664E-01 -0.27680124735E-01 -0.68550619464E-03  0.35750994182E-01  0.10000000475E-02 0.  1.
</event>
<event>
 4   0  0.2441219E-02  0.9118800E+02  0.7818609E-02  0.1379984E+01
      -11   -1    0    0    0    0  0.00000000000E+00  0.00000000000E+00  0.35740347158E-01  0.35744000000E-01  0.51099999109E-03 0.  1.
       11   -1    0    0    0    0 -0.00000000000E+00 -0.00000000000E+00 -0.35740347158E-01  0.35744000000E-01  0.51099999109E-03 0. -1.
       22    1    1    2    0    0  0.30372937682E-01  0.17758590322E-01 -0.62650388069E-02  0.35737005818E-01  0.00000000000E+00 0.  1.
  9000001    1    1    2    0    0 -0.30372937682E-01 -0.17758590322E-01  0.62650388069E-02  0.35750994182E-01  0.10000000475E-02 0. -1.
</event>
<event>
 4   0  0.2441219E-02  0.9118800E+02  0.7818609E-02  0.1379984E+01
      -11   -1    0    0    0    0  0.00000000000E+00  0.00000000000E+00  0.35740347158E-01  0.35744000000E-01  0.51099999109E-03 0.  1.
       11   -1    0    0    0    0 -0.00000000000E+00 -0.00000000000E+00 -0.35740347158E-01  0.35744000000E-01  0.51099999109E-03 0. -1.
       22    1    1    2    0    0 -0.39422057723E-02 -0.30358979467E-02  0.35388923722E-01  0.35737005818E-01  0.00000000000E+00 0.  1.
  9000001    1    1    2    0    0  0.39422057723E-02  0.30358979467E-02 -0.35388923722E-01  0.35750994182E-01  0.10000000475E-02 0. -1.
</event>
<event>
 4   0  0.2441219E-02  0.9118800E+02  0.7818609E-02  0.1379984E+01
      -11   -1    0    0    0    0  0.00000000000E+00  0.00000000000E+00  0.35740347158E-01  0.35744000000E-01  0.51099999109E-03 0.  1.
       11   -1    0    0    0    0 -0.00000000000E+00 -0.00000000000E+00 -0.35740347158E-01  0.35744000000E-01  0.51099999109E-03 0. -1.
       22    1    1    2    0    0 -0.26092750104E-02  0.24901573168E-02  0.35554526932E-01  0.35737005818E-01  0.00000000000E+00 0.  1.
  9000001    1    1    2    0    0  0.26092750104E-02 -0.24901573168E-02 -0.35554526932E-01  0.35750994182E-01  0.10000000475E-02 0. -1.
</event>
<event>
 4   0  0.2441219E-02  0.9118800E+02  0.7818609E-02  0.1379984E+01
      -11   -1    0    0    0    0  0.00000000000E+00  0.00000000000E+00  0.35740347158E-01  0.35744000000E-01  0.51099999109E-03 0.  1.
       11   -1    0    0    0    0 -0.00000000000E+00 -0.00000000000E+00 -0.35740347158E-01  0.35744000000E-01  0.51099999109E-03 0. -1.
       22    1    1    2    0    0 -0.20338636163E-01 -0.34250923641E-02  0.29184622769E-01  0.35737005818E-01  0.00000000000E+00 0.  1.
  9000001    1    1    2    0    0  0.20338636163E-01  0.34250923641E-02 -0.29184622769E-01  0.35750994182E-01  0.10000000475E-02 0. -1.
</event>
<event>
 4   0  0.2441219E-02  0.9118800E+02  0.7818609E-02  0.1379984E+01
      -11   -1    0    0    0    0  0.00000000000E+00  0.00000000000E+00  0.35740347158E-01  0.35744000000E-01  0.51099999109E-03 0. -1.
       11   -1    0    0    0    0 -0.00000000000E+00 -0.00000000000E+00 -0.35740347158E-01  0.35744000000E-01  0.51099999109E-03 0.  1.
       22    1    1    2    0    0 -0.10437388943E-01 -0.21341952681E-02  0.34112163630E-01  0.35737005818E-01  0.00000000000E+00 0. -1.
  9000001    1    1    2    0    0  0.10437388943E-01  0.21341952681E-02 -0.34112163630E-01  0.35750994182E-01  0.10000000475E-02 0.  1.
</event>
<event>
 4   0  0.2441219E-02  0.9118800E+02  0.7818609E-02  0.1379984E+01
      -11   -1    0    0    0    0  0.00000000000E+00  0.00000000000E+00  0.35740347158E-01  0.35744000000E-01  0.51099999109E-03 0. -1.
       11   -1    0    0    0    0 -0.00000000000E+00 -0.00000000000E+00 -0.35740347158E-01  0.35744000000E-01  0.51099999109E-03 0.  1.
       22    1    1    2    0    0 -0.61995245145E-03  0.11897460297E-01 -0.33692724472E-01  0.35737005818E-01  0.00000000000E+00 0.  1.
  9000001    1    1    2    0    0  0.61995245145E-03 -0.11897460297E-01  0.33692724472E-01  0.35750994182E-01  0.10000000475E-02 0. -1.
</event>
<event>
 4   0  0.2441219E-02  0.9118800E+02  0.7818609E-02  0.1379984E+01
      -11   -1    0    0    0    0  0.00000000000E+00  0.00000000000E+00  0.35740347158E-01  0.35744000000E-01  0.51099999109E-03 0.  1.
       11   -1    0    0    0    0 -0.00000000000E+00 -0.00000000000E+00 -0.35740347158E-01  0.35744000000E-01  0.51099999109E-03 0. -1.
       22    1    1    2    0    0  0.13703544188E-02 -0.14758492173E-01 -0.32518342861E-01  0.35737005818E-01  0.00000000000E+00 0. -1.
  9000001    1    1    2    0    0 -0.13703544188E-02  0.14758492173E-01  0.32518342861E-01  0.35750994182E-01  0.10000000475E-02 0.  1.
</event>
<event>
 4   0  0.2441219E-02  0.9118800E+02  0.7818609E-02  0.1379984E+01
      -11   -1    0    0    0    0  0.00000000000E+00  0.00000000000E+00  0.35740347158E-01  0.35744000000E-01  0.51099999109E-03 0.  1.
       11   -1    0    0    0    0 -0.00000000000E+00 -0.00000000000E+00 -0.35740347158E-01  0.35744000000E-01  0.51099999109E-03 0. -1.
       22    1    1    2    0    0 -0.27149853575E-01 -0.14852108682E-01  0.17872713936E-01  0.35737005818E-01  0.00000000000E+00 0.  1.
  9000001    1    1    2    0    0  0.27149853575E-01  0.14852108682E-01 -0.17872713936E-01  0.35750994182E-01  0.10000000475E-02 0. -1.
</event>
<event>
 4   0  0.2441219E-02  0.9118800E+02  0.7818609E-02  0.1379984E+01
      -11   -1    0    0    0    0  0.00000000000E+00  0.00000000000E+00  0.35740347158E-01  0.35744000000E-01  0.51099999109E-03 0.  1.
       11   -1    0    0    0    0 -0.00000000000E+00 -0.00000000000E+00 -0.35740347158E-01  0.35744000000E-01  0.51099999109E-03 0. -1.
       22    1    1    2    0    0  0.66294904415E-02  0.25867879976E-02 -0.35021307360E-01  0.35737005818E-01  0.00000000000E+00 0. -1.
  9000001    1    1    2    0    0 -0.66294904415E-02 -0.25867879976E-02  0.35021307360E-01  0.35750994182E-01  0.10000000475E-02 0.  1.
</event>
<event>
 4   0  0.2441219E-02  0.9118800E+02  0.7818609E-02  0.1379984E+01
      -11   -1    0    0    0    0  0.00000000000E+00  0.00000000000E+00  0.35740347158E-01  0.35744000000E-01  0.51099999109E-03 0.  1.
       11   -1    0    0    0    0 -0.00000000000E+00 -0.00000000000E+00 -0.35740347158E-01  0.35744000000E-01  0.51099999109E-03 0. -1.
       22    1    1    2    0    0 -0.12482914812E-02 -0.83187640349E-02  0.34732888135E-01  0.35737005818E-01  0.00000000000E+00 0.  1.
  9000001    1    1    2    0    0  0.12482914812E-02  0.83187640349E-02 -0.34732888135E-01  0.35750994182E-01  0.10000000475E-02 0. -1.
</event>
<event>
 4   0  0.2441219E-02  0.9118800E+02  0.7818609E-02  0.1379984E+01
      -11   -1    0    0    0    0  0.00000000000E+00  0.00000000000E+00  0.35740347158E-01  0.35744000000E-01  0.51099999109E-03 0. -1.
       11   -1    0    0    0    0 -0.00000000000E+00 -0.00000000000E+00 -0.35740347158E-01  0.35744000000E-01  0.51099999109E-03 0.  1.
       22    1    1    2    0    0  0.12696870835E-02 -0.86190142742E-02 -0.34658823877E-01  0.35737005818E-01  0.00000000000E+00 0.  1.
  9000001    1    1    2    0    0 -0.12696870835E-02  0.86190142742E-02  0.34658823877E-01  0.35750994182E-01  0.10000000475E-02 0. -1.
</event>
<event>
 4   0  0.2441219E-02  0.9118800E+02  0.7818609E-02  0.1379984E+01
      -11   -1    0    0    0    0  0.00000000000E+00  0.00000000000E+00  0.35740347158E-01  0.35744000000E-01  0.51099999109E-03 0.  1.
       11   -1    0    0    0    0 -0.00000000000E+00 -0.00000000000E+00 -0.35740347158E-01  0.35744000000E-01  0.51099999109E-03 0. -1.
       22    1    1    2    0    0  0.53551147746E-02  0.19773913962E-01 -0.29282224253E-01  0.35737005818E-01  0.00000000000E+00 0. -1.
  9000001    1    1    2    0    0 -0.53551147746E-02 -0.19773913962E-01  0.29282224253E-01  0.35750994182E-01  0.10000000475E-02 0.  1.
</event>
<event>
 4   0  0.2441219E-02  0.9118800E+02  0.7818609E-02  0.1379984E+01
      -11   -1    0    0    0    0  0.00000000000E+00  0.00000000000E+00  0.35740347158E-01  0.35744000000E-01  0.51099999109E-03 0.  1.
       11   -1    0    0    0    0 -0.00000000000E+00 -0.00000000000E+00 -0.35740347158E-01  0.35744000000E-01  0.51099999109E-03 0. -1.
       22    1    1    2    0    0  0.31625511377E-02  0.59915951166E-02  0.35088924793E-01  0.35737005818E-01  0.00000000000E+00 0.  1.
  9000001    1    1    2    0    0 -0.31625511377E-02 -0.59915951166E-02 -0.35088924793E-01  0.35750994182E-01  0.10000000475E-02 0. -1.
</event>
<event>
 4   0  0.2441219E-02  0.9118800E+02  0.7818609E-02  0.1379984E+01
      -11   -1    0    0    0    0  0.00000000000E+00  0.00000000000E+00  0.35740347158E-01  0.35744000000E-01  0.51099999109E-03 0. -1.
       11   -1    0    0    0    0 -0.00000000000E+00 -0.00000000000E+00 -0.35740347158E-01  0.35744000000E-01  0.51099999109E-03 0.  1.
       22    1    1    2    0    0 -0.11624603091E-01  0.47699253113E-03  0.33790156347E-01  0.35737005818E-01  0.00000000000E+00 0. -1.
  9000001    1    1    2    0    0  0.11624603091E-01 -0.47699253113E-03 -0.33790156347E-01  0.35750994182E-01  0.10000000475E-02 0.  1.
</event>
<event>
 4   0  0.2441219E-02  0.9118800E+02  0.7818609E-02  0.1379984E+01
      -11   -1    0    0    0    0  0.00000000000E+00  0.00000000000E+00  0.35740347158E-01  0.35744000000E-01  0.51099999109E-03 0.  1.
       11   -1    0    0    0    0 -0.00000000000E+00 -0.00000000000E+00 -0.35740347158E-01  0.35744000000E-01  0.51099999109E-03 0. -1.
       22    1    1    2    0    0 -0.51381878496E-02  0.12736658438E-01  0.32992577079E-01  0.35737005818E-01  0.00000000000E+00 0.  1.
  9000001    1    1    2    0    0  0.51381878496E-02 -0.12736658438E-01 -0.32992577079E-01  0.35750994182E-01  0.10000000475E-02 0. -1.
</event>
<event>
 4   0  0.2441219E-02  0.9118800E+02  0.7818609E-02  0.1379984E+01
      -11   -1    0    0    0    0  0.00000000000E+00  0.00000000000E+00  0.35740347158E-01  0.35744000000E-01  0.51099999109E-03 0. -1.
       11   -1    0    0    0    0 -0.00000000000E+00 -0.00000000000E+00 -0.35740347158E-01  0.35744000000E-01  0.51099999109E-03 0.  1.
       22    1    1    2    0    0 -0.47277170301E-02  0.10347707794E-02  0.35407789058E-01  0.35737005818E-01  0.00000000000E+00 0. -1.
  9000001    1    1    2    0    0  0.47277170301E-02 -0.10347707794E-02 -0.35407789058E-01  0.35750994182E-01  0.10000000475E-02 0.  1.
</event>
<event>
 4   0  0.2441219E-02  0.9118800E+02  0.7818609E-02  0.1379984E+01
      -11   -1    0    0    0    0  0.00000000000E+00  0.00000000000E+00  0.35740347158E-01  0.35744000000E-01  0.51099999109E-03 0.  1.
       11   -1    0    0    0    0 -0.00000000000E+00 -0.00000000000E+00 -0.35740347158E-01  0.35744000000E-01  0.51099999109E-03 0. -1.
       22    1    1    2    0    0 -0.64094643022E-02  0.15126569112E-01 -0.31737032929E-01  0.35737005818E-01  0.00000000000E+00 0. -1.
  9000001    1    1    2    0    0  0.64094643022E-02 -0.15126569112E-01  0.31737032929E-01  0.35750994182E-01  0.10000000475E-02 0.  1.
</event>
<event>
 4   0  0.2441219E-02  0.9118800E+02  0.7818609E-02  0.1379984E+01
      -11   -1    0    0    0    0  0.00000000000E+00  0.00000000000E+00  0.35740347158E-01  0.35744000000E-01  0.51099999109E-03 0.  1.
       11   -1    0    0    0    0 -0.00000000000E+00 -0.00000000000E+00 -0.35740347158E-01  0.35744000000E-01  0.51099999109E-03 0. -1.
       22    1    1    2    0    0 -0.29554533980E-01  0.11421584584E-01 -0.16529080788E-01  0.35737005818E-01  0.00000000000E+00 0. -1.
  9000001    1    1    2    0    0  0.29554533980E-01 -0.11421584584E-01  0.16529080788E-01  0.35750994182E-01  0.10000000475E-02 0.  1.
</event>
<event>
 4   0  0.2441219E-02  0.9118800E+02  0.7818609E-02  0.1379984E+01
      -11   -1    0    0    0    0  0.00000000000E+00  0.00000000000E+00  0.35740347158E-01  0.35744000000E-01  0.51099999109E-03 0. -1.
       11   -1    0    0    0    0 -0.00000000000E+00 -0.00000000000E+00 -0.35740347158E-01  0.35744000000E-01  0.51099999109E-03 0.  1.
       22    1    1    2    0    0 -0.10081110836E-01 -0.24709906360E-01 -0.23768157624E-01  0.35737005818E-01  0.00000000000E+00 0.  1.
  9000001    1    1    2    0    0  0.10081110836E-01  0.24709906360E-01  0.23768157624E-01  0.35750994182E-01  0.10000000475E-02 0. -1.
</event>
<event>
 4   0  0.2441219E-02  0.9118800E+02  0.7818609E-02  0.1379984E+01
      -11   -1    0    0    0    0  0.00000000000E+00  0.00000000000E+00  0.35740347158E-01  0.35744000000E-01  0.51099999109E-03 0.  1.
       11   -1    0    0    0    0 -0.00000000000E+00 -0.00000000000E+00 -0.35740347158E-01  0.35744000000E-01  0.51099999109E-03 0. -1.
       22    1    1    2    0    0  0.18104704764E-02  0.54646964329E-02 -0.35270283163E-01  0.35737005818E-01  0.00000000000E+00 0. -1.
  9000001    1    1    2    0    0 -0.18104704764E-02 -0.54646964329E-02  0.35270283163E-01  0.35750994182E-01  0.10000000475E-02 0.  1.
</event>
<event>
 4   0  0.2441219E-02  0.9118800E+02  0.7818609E-02  0.1379984E+01
      -11   -1    0    0    0    0  0.00000000000E+00  0.00000000000E+00  0.35740347158E-01  0.35744000000E-01  0.51099999109E-03 0. -1.
       11   -1    0    0    0    0 -0.00000000000E+00 -0.00000000000E+00 -0.35740347158E-01  0.35744000000E-01  0.51099999109E-03 0.  1.
       22    1    1    2    0    0 -0.22210555518E-03 -0.40007065631E-02 -0.35511668519E-01  0.35737005818E-01  0.00000000000E+00 0.  1.
  9000001    1    1    2    0    0  0.22210555518E-03  0.40007065631E-02  0.35511668519E-01  0.35750994182E-01  0.10000000475E-02 0. -1.
</event>
<event>
 4   0  0.2441219E-02  0.9118800E+02  0.7818609E-02  0.1379984E+01
      -11   -1    0    0    0    0  0.00000000000E+00  0.00000000000E+00  0.35740347158E-01  0.35744000000E-01  0.51099999109E-03 0. -1.
       11   -1    0    0    0    0 -0.00000000000E+00 -0.00000000000E+00 -0.35740347158E-01  0.35744000000E-01  0.51099999109E-03 0.  1.
       22    1    1    2    0    0  0.24038587129E-01 -0.21887755778E-01  0.14839341653E-01  0.35737005818E-01  0.00000000000E+00 0.  1.
  9000001    1    1    2    0    0 -0.24038587129E-01  0.21887755778E-01 -0.14839341653E-01  0.35750994182E-01  0.10000000475E-02 0. -1.
</event>
<event>
 4   0  0.2441219E-02  0.9118800E+02  0.7818609E-02  0.1379984E+01
      -11   -1    0    0    0    0  0.00000000000E+00  0.00000000000E+00  0.35740347158E-01  0.35744000000E-01  0.51099999109E-03 0.  1.
       11   -1    0    0    0    0 -0.00000000000E+00 -0.00000000000E+00 -0.35740347158E-01  0.35744000000E-01  0.51099999109E-03 0. -1.
       22    1    1    2    0    0 -0.54952724957E-02 -0.83946856460E-03 -0.35301995094E-01  0.35737005818E-01  0.00000000000E+00 0. -1.
  9000001    1    1    2    0    0  0.54952724957E-02  0.83946856460E-03  0.35301995094E-01  0.35750994182E-01  0.10000000475E-02 0.  1.
</event>
<event>
 4   0  0.2441219E-02  0.9118800E+02  0.7818609E-02  0.1379984E+01
      -11   -1    0    0    0    0  0.00000000000E+00  0.00000000000E+00  0.35740347158E-01  0.35744000000E-01  0.51099999109E-03 0.  1.
       11   -1    0    0    0    0 -0.00000000000E+00 -0.00000000000E+00 -0.35740347158E-01  0.35744000000E-01  0.51099999109E-03 0. -1.
       22    1    1    2    0    0 -0.58306064981E-02 -0.60653305977E-02 -0.34732540614E-01  0.35737005818E-01  0.00000000000E+00 0. -1.
  9000001    1    1    2    0    0  0.58306064981E-02  0.60653305977E-02  0.34732540614E-01  0.35750994182E-01  0.10000000475E-02 0.  1.
</event>
<event>
 4   0  0.2441219E-02  0.9118800E+02  0.7818609E-02  0.1379984E+01
      -11   -1    0    0    0    0  0.00000000000E+00  0.00000000000E+00  0.35740347158E-01  0.35744000000E-01  0.51099999109E-03 0.  1.
       11   -1    0    0    0    0 -0.00000000000E+00 -0.00000000000E+00 -0.35740347158E-01  0.35744000000E-01  0.51099999109E-03 0. -1.
       22    1    1    2    0    0  0.11999873988E-02  0.56545521626E-02  0.35266409726E-01  0.35737005818E-01  0.00000000000E+00 0.  1.
  9000001    1    1    2    0    0 -0.11999873988E-02 -0.56545521626E-02 -0.35266409726E-01  0.35750994182E-01  0.10000000475E-02 0. -1.
</event>
<event>
 4   0  0.2441219E-02  0.9118800E+02  0.7818609E-02  0.1379984E+01
      -11   -1    0    0    0    0  0.00000000000E+00  0.00000000000E+00  0.35740347158E-01  0.35744000000E-01  0.51099999109E-03 0. -1.
       11   -1    0    0    0    0 -0.00000000000E+00 -0.00000000000E+00 -0.35740347158E-01  0.35744000000E-01  0.51099999109E-03 0.  1.
       22    1    1    2    0    0  0.13946560401E-01 -0.29860878756E-02 -0.32767519238E-01  0.35737005818E-01  0.00000000000E+00 0.  1.
  9000001    1    1    2    0    0 -0.13946560401E-01  0.29860878756E-02  0.32767519238E-01  0.35750994182E-01  0.10000000475E-02 0. -1.
</event>
<event>
 4   0  0.2441219E-02  0.9118800E+02  0.7818609E-02  0.1379984E+01
      -11   -1    0    0    0    0  0.00000000000E+00  0.00000000000E+00  0.35740347158E-01  0.35744000000E-01  0.51099999109E-03 0. -1.
       11   -1    0    0    0    0 -0.00000000000E+00 -0.00000000000E+00 -0.35740347158E-01  0.35744000000E-01  0.51099999109E-03 0.  1.
       22    1    1    2    0    0 -0.24875049236E-01 -0.15598209058E-01  0.20373055357E-01  0.35737005818E-01  0.00000000000E+00 0. -1.
  9000001    1    1    2    0    0  0.24875049236E-01  0.15598209058E-01 -0.20373055357E-01  0.35750994182E-01  0.10000000475E-02 0.  1.
</event>
<event>
 4   0  0.2441219E-02  0.9118800E+02  0.7818609E-02  0.1379984E+01
      -11   -1    0    0    0    0  0.00000000000E+00  0.00000000000E+00  0.35740347158E-01  0.35744000000E-01  0.51099999109E-03 0.  1.
       11   -1    0    0    0    0 -0.00000000000E+00 -0.00000000000E+00 -0.35740347158E-01  0.35744000000E-01  0.51099999109E-03 0. -1.
       22    1    1    2    0    0 -0.46593193597E-02 -0.13056490155E-01  0.32938615527E-01  0.35737005818E-01  0.00000000000E+00 0.  1.
  9000001    1    1    2    0    0  0.46593193597E-02  0.13056490155E-01 -0.32938615527E-01  0.35750994182E-01  0.10000000475E-02 0. -1.
</event>
<event>
 4   0  0.2441219E-02  0.9118800E+02  0.7818609E-02  0.1379984E+01
      -11   -1    0    0    0    0  0.00000000000E+00  0.00000000000E+00  0.35740347158E-01  0.35744000000E-01  0.51099999109E-03 0. -1.
       11   -1    0    0    0    0 -0.00000000000E+00 -0.00000000000E+00 -0.35740347158E-01  0.35744000000E-01  0.51099999109E-03 0.  1.
       22    1    1    2    0    0  0.34564825983E-03 -0.31574263236E-02 -0.35595572353E-01  0.35737005818E-01  0.00000000000E+00 0.  1.
  9000001    1    1    2    0    0 -0.34564825983E-03  0.31574263236E-02  0.35595572353E-01  0.35750994182E-01  0.10000000475E-02 0. -1.
</event>
<event>
 4   0  0.2441219E-02  0.9118800E+02  0.7818609E-02  0.1379984E+01
      -11   -1    0    0    0    0  0.00000000000E+00  0.00000000000E+00  0.35740347158E-01  0.35744000000E-01  0.51099999109E-03 0. -1.
       11   -1    0    0    0    0 -0.00000000000E+00 -0.00000000000E+00 -0.35740347158E-01  0.35744000000E-01  0.51099999109E-03 0.  1.
       22    1    1    2    0    0 -0.26756547827E-01 -0.11599164843E-01 -0.20656236545E-01  0.35737005818E-01  0.00000000000E+00 0.  1.
  9000001    1    1    2    0    0  0.26756547827E-01  0.11599164843E-01  0.20656236545E-01  0.35750994182E-01  0.10000000475E-02 0. -1.
</event>
<event>
 4   0  0.2441219E-02  0.9118800E+02  0.7818609E-02  0.1379984E+01
      -11   -1    0    0    0    0  0.00000000000E+00  0.00000000000E+00  0.35740347158E-01  0.35744000000E-01  0.51099999109E-03 0. -1.
       11   -1    0    0    0    0 -0.00000000000E+00 -0.00000000000E+00 -0.35740347158E-01  0.35744000000E-01  0.51099999109E-03 0.  1.
       22    1    1    2    0    0 -0.27677097614E-01 -0.15165073274E-01  0.16767003464E-01  0.35737005818E-01  0.00000000000E+00 0. -1.
  9000001    1    1    2    0    0  0.27677097614E-01  0.15165073274E-01 -0.16767003464E-01  0.35750994182E-01  0.10000000475E-02 0.  1.
</event>
<event>
 4   0  0.2441219E-02  0.9118800E+02  0.7818609E-02  0.1379984E+01
      -11   -1    0    0    0    0  0.00000000000E+00  0.00000000000E+00  0.35740347158E-01  0.35744000000E-01  0.51099999109E-03 0. -1.
       11   -1    0    0    0    0 -0.00000000000E+00 -0.00000000000E+00 -0.35740347158E-01  0.35744000000E-01  0.51099999109E-03 0.  1.
       22    1    1    2    0    0 -0.64275986887E-02 -0.48316450910E-02  0.34820608347E-01  0.35737005818E-01  0.00000000000E+00 0. -1.
  9000001    1    1    2    0    0  0.64275986887E-02  0.48316450910E-02 -0.34820608347E-01  0.35750994182E-01  0.10000000475E-02 0.  1.
</event>
<event>
 4   0  0.2441219E-02  0.9118800E+02  0.7818609E-02  0.1379984E+01
      -11   -1    0    0    0    0  0.00000000000E+00  0.00000000000E+00  0.35740347158E-01  0.35744000000E-01  0.51099999109E-03 0.  1.
       11   -1    0    0    0    0 -0.00000000000E+00 -0.00000000000E+00 -0.35740347158E-01  0.35744000000E-01  0.51099999109E-03 0. -1.
       22    1    1    2    0    0 -0.57496838333E-02  0.37738728664E-03  0.35269424429E-01  0.35737005818E-01  0.00000000000E+00 0.  1.
  9000001    1    1    2    0    0  0.57496838333E-02 -0.37738728664E-03 -0.35269424429E-01  0.35750994182E-01  0.10000000475E-02 0. -1.
</event>
<event>
 4   0  0.2441219E-02  0.9118800E+02  0.7818609E-02  0.1379984E+01
      -11   -1    0    0    0    0  0.00000000000E+00  0.00000000000E+00  0.35740347158E-01  0.35744000000E-01  0.51099999109E-03 0. -1.
       11   -1    0    0    0    0 -0.00000000000E+00 -0.00000000000E+00 -0.35740347158E-01  0.35744000000E-01  0.51099999109E-03 0.  1.
       22    1    1    2    0    0  0.17944616709E-03  0.21118800615E-01  0.28828764187E-01  0.35737005818E-01  0.00000000000E+00 0. -1.
  9000001    1    1    2    0    0 -0.17944616709E-03 -0.21118800615E-01 -0.28828764187E-01  0.35750994182E-01  0.10000000475E-02 0.  1.
</event>
<event>
 4   0  0.2441219E-02  0.9118800E+02  0.7818609E-02  0.1379984E+01
      -11   -1    0    0    0    0  0.00000000000E+00  0.00000000000E+00  0.35740347158E-01  0.35744000000E-01  0.51099999109E-03 0. -1.
       11   -1    0    0    0    0 -0.00000000000E+00 -0.00000000000E+00 -0.35740347158E-01  0.35744000000E-01  0.51099999109E-03 0.  1.
       22    1    1    2    0    0  0.44214418774E-02 -0.37840271566E-02  0.35259971286E-01  0.35737005818E-01  0.00000000000E+00 0. -1.
  9000001    1    1    2    0    0 -0.44214418774E-02  0.37840271566E-02 -0.35259971286E-01  0.35750994182E-01  0.10000000475E-02 0.  1.
</event>
<event>
 4   0  0.2441219E-02  0.9118800E+02  0.7818609E-02  0.1379984E+01
      -11   -1    0    0    0    0  0.00000000000E+00  0.00000000000E+00  0.35740347158E-01  0.35744000000E-01  0.51099999109E-03 0. -1.
       11   -1    0    0    0    0 -0.00000000000E+00 -0.00000000000E+00 -0.35740347158E-01  0.35744000000E-01  0.51099999109E-03 0.  1.
       22    1    1    2    0    0  0.91604460002E-03 -0.11097607351E-01  0.33957879178E-01  0.35737005818E-01  0.00000000000E+00 0. -1.
  9000001    1    1    2    0    0 -0.91604460002E-03  0.11097607351E-01 -0.33957879178E-01  0.35750994182E-01  0.10000000475E-02 0.  1.
</event>
<event>
 4   0  0.2441219E-02  0.9118800E+02  0.7818609E-02  0.1379984E+01
      -11   -1    0    0    0    0  0.00000000000E+00  0.00000000000E+00  0.35740347158E-01  0.35744000000E-01  0.51099999109E-03 0.  1.
       11   -1    0    0    0    0 -0.00000000000E+00 -0.00000000000E+00 -0.35740347158E-01  0.35744000000E-01  0.51099999109E-03 0. -1.
       22    1    1    2    0    0  0.18374440669E-01  0.66538635964E-03 -0.30644261713E-01  0.35737005818E-01  0.00000000000E+00 0. -1.
  9000001    1    1    2    0    0 -0.18374440669E-01 -0.66538635964E-03  0.30644261713E-01  0.35750994182E-01  0.10000000475E-02 0.  1.
</event>
<event>
 4   0  0.2441219E-02  0.9118800E+02  0.7818609E-02  0.1379984E+01
      -11   -1    0    0    0    0  0.00000000000E+00  0.00000000000E+00  0.35740347158E-01  0.35744000000E-01  0.51099999109E-03 0.  1.
       11   -1    0    0    0    0 -0.00000000000E+00 -0.00000000000E+00 -0.35740347158E-01  0.35744000000E-01  0.51099999109E-03 0. -1.
       22    1    1    2    0    0 -0.17427287097E-02  0.16741912686E-01 -0.31524670357E-01  0.35737005818E-01  0.00000000000E+00 0. -1.
  9000001    1    1    2    0    0  0.17427287097E-02 -0.16741912686E-01  0.31524670357E-01  0.35750994182E-01  0.10000000475E-02 0.  1.
</event>
<event>
 4   0  0.2441219E-02  0.9118800E+02  0.7818609E-02  0.1379984E+01
      -11   -1    0    0    0    0  0.00000000000E+00  0.00000000000E+00  0.35740347158E-01  0.35744000000E-01  0.51099999109E-03 0. -1.
       11   -1    0    0    0    0 -0.00000000000E+00 -0.00000000000E+00 -0.35740347158E-01  0.35744000000E-01  0.51099999109E-03 0.  1.
       22    1    1    2    0    0 -0.45011888801E-02 -0.24957236009E-02  0.35364448918E-01  0.35737005818E-01  0.00000000000E+00 0. -1.
  9000001    1    1    2    0    0  0.45011888801E-02  0.24957236009E-02 -0.35364448918E-01  0.35750994182E-01  0.10000000475E-02 0.  1.
</event>
<event>
 4   0  0.2441219E-02  0.9118800E+02  0.7818609E-02  0.1379984E+01
      -11   -1    0    0    0    0  0.00000000000E+00  0.00000000000E+00  0.35740347158E-01  0.35744000000E-01  0.51099999109E-03 0.  1.
       11   -1    0    0    0    0 -0.00000000000E+00 -0.00000000000E+00 -0.35740347158E-01  0.35744000000E-01  0.51099999109E-03 0. -1.
       22    1    1    2    0    0  0.12511393605E-02 -0.31909419451E-02  0.35572266229E-01  0.35737005818E-01  0.00000000000E+00 0.  1.
  9000001    1    1    2    0    0 -0.12511393605E-02  0.31909419451E-02 -0.35572266229E-01  0.35750994182E-01  0.10000000475E-02 0. -1.
</event>
<event>
 4   0  0.2441219E-02  0.9118800E+02  0.7818609E-02  0.1379984E+01
      -11   -1    0    0    0    0  0.00000000000E+00  0.00000000000E+00  0.35740347158E-01  0.35744000000E-01  0.51099999109E-03 0.  1.
       11   -1    0    0    0    0 -0.00000000000E+00 -0.00000000000E+00 -0.35740347158E-01  0.35744000000E-01  0.51099999109E-03 0. -1.
       22    1    1    2    0    0 -0.36061707403E-02 -0.43457080208E-03  0.35551937580E-01  0.35737005818E-01  0.00000000000E+00 0.  1.
  9000001    1    1    2    0    0  0.36061707403E-02  0.43457080208E-03 -0.35551937580E-01  0.35750994182E-01  0.10000000475E-02 0. -1.
</event>
<event>
 4   0  0.2441219E-02  0.9118800E+02  0.7818609E-02  0.1379984E+01
      -11   -1    0    0    0    0  0.00000000000E+00  0.00000000000E+00  0.35740347158E-01  0.35744000000E-01  0.51099999109E-03 0. -1.
       11   -1    0    0    0    0 -0.00000000000E+00 -0.00000000000E+00 -0.35740347158E-01  0.35744000000E-01  0.51099999109E-03 0.  1.
       22    1    1    2    0    0 -0.26743038662E-01 -0.12065631839E-01 -0.20404999297E-01  0.35737005818E-01  0.00000000000E+00 0.  1.
  9000001    1    1    2    0    0  0.26743038662E-01  0.12065631839E-01  0.20404999297E-01  0.35750994182E-01  0.10000000475E-02 0. -1.
</event>
<event>
 4   0  0.2441219E-02  0.9118800E+02  0.7818609E-02  0.1379984E+01
      -11   -1    0    0    0    0  0.00000000000E+00  0.00000000000E+00  0.35740347158E-01  0.35744000000E-01  0.51099999109E-03 0. -1.
       11   -1    0    0    0    0 -0.00000000000E+00 -0.00000000000E+00 -0.35740347158E-01  0.35744000000E-01  0.51099999109E-03 0.  1.
       22    1    1    2    0    0 -0.53237630678E-02  0.99611362909E-02  0.33905263536E-01  0.35737005818E-01  0.00000000000E+00 0. -1.
  9000001    1    1    2    0    0  0.53237630678E-02 -0.99611362909E-02 -0.33905263536E-01  0.35750994182E-01  0.10000000475E-02 0.  1.
</event>
<event>
 4   0  0.2441219E-02  0.9118800E+02  0.7818609E-02  0.1379984E+01
      -11   -1    0    0    0    0  0.00000000000E+00  0.00000000000E+00  0.35740347158E-01  0.35744000000E-01  0.51099999109E-03 0. -1.
       11   -1    0    0    0    0 -0.00000000000E+00 -0.00000000000E+00 -0.35740347158E-01  0.35744000000E-01  0.51099999109E-03 0.  1.
       22    1    1    2    0    0 -0.23600509904E-02 -0.27571420975E-02 -0.35552242006E-01  0.35737005818E-01  0.00000000000E+00 0.  1.
  9000001    1    1    2    0    0  0.23600509904E-02  0.27571420975E-02  0.35552242006E-01  0.35750994182E-01  0.10000000475E-02 0. -1.
</event>
<event>
 4   0  0.2441219E-02  0.9118800E+02  0.7818609E-02  0.1379984E+01
      -11   -1    0    0    0    0  0.00000000000E+00  0.00000000000E+00  0.35740347158E-01  0.35744000000E-01  0.51099999109E-03 0. -1.
       11   -1    0    0    0    0 -0.00000000000E+00 -0.00000000000E+00 -0.35740347158E-01  0.35744000000E-01  0.51099999109E-03 0.  1.
       22    1    1    2    0    0  0.18341976219E-01 -0.16611761951E-01 -0.25782840381E-01  0.35737005818E-01  0.00000000000E+00 0.  1.
  9000001    1    1    2    0    0 -0.18341976219E-01  0.16611761951E-01  0.25782840381E-01  0.35750994182E-01  0.10000000475E-02 0. -1.
</event>
<event>
 4   0  0.2441219E-02  0.9118800E+02  0.7818609E-02  0.1379984E+01
      -11   -1    0    0    0    0  0.00000000000E+00  0.00000000000E+00  0.35740347158E-01  0.35744000000E-01  0.51099999109E-03 0.  1.
       11   -1    0    0    0    0 -0.00000000000E+00 -0.00000000000E+00 -0.35740347158E-01  0.35744000000E-01  0.51099999109E-03 0. -1.
       22    1    1    2    0    0  0.52289842944E-02  0.92014433751E-02  0.34133923711E-01  0.35737005818E-01  0.00000000000E+00 0.  1.
  9000001    1    1    2    0    0 -0.52289842944E-02 -0.92014433751E-02 -0.34133923711E-01  0.35750994182E-01  0.10000000475E-02 0. -1.
</event>
<event>
 4   0  0.2441219E-02  0.9118800E+02  0.7818609E-02  0.1379984E+01
      -11   -1    0    0    0    0  0.00000000000E+00  0.00000000000E+00  0.35740347158E-01  0.35744000000E-01  0.51099999109E-03 0. -1.
       11   -1    0    0    0    0 -0.00000000000E+00 -0.00000000000E+00 -0.35740347158E-01  0.35744000000E-01  0.51099999109E-03 0.  1.
       22    1    1    2    0    0  0.80436249773E-02 -0.24077354482E-01 -0.25153820450E-01  0.35737005818E-01  0.00000000000E+00 0.  1.
  9000001    1    1    2    0    0 -0.80436249773E-02  0.24077354482E-01  0.25153820450E-01  0.35750994182E-01  0.10000000475E-02 0. -1.
</event>
<event>
 4   0  0.2441219E-02  0.9118800E+02  0.7818609E-02  0.1379984E+01
      -11   -1    0    0    0    0  0.00000000000E+00  0.00000000000E+00  0.35740347158E-01  0.35744000000E-01  0.51099999109E-03 0. -1.
       11   -1    0    0    0    0 -0.00000000000E+00 -0.00000000000E+00 -0.35740347158E-01  0.35744000000E-01  0.51099999109E-03 0.  1.
       22    1    1    2    0    0 -0.12641266059E-01 -0.10598436316E-01 -0.31701815799E-01  0.35737005818E-01  0.00000000000E+00 0.  1.
  9000001    1    1    2    0    0  0.12641266059E-01  0.10598436316E-01  0.31701815799E-01  0.35750994182E-01  0.10000000475E-02 0. -1.
</event>
<event>
 4   0  0.2441219E-02  0.9118800E+02  0.7818609E-02  0.1379984E+01
      -11   -1    0    0    0    0  0.00000000000E+00  0.00000000000E+00  0.35740347158E-01  0.35744000000E-01  0.51099999109E-03 0.  1.
       11   -1    0    0    0    0 -0.00000000000E+00 -0.00000000000E+00 -0.35740347158E-01  0.35744000000E-01  0.51099999109E-03 0. -1.
       22    1    1    2    0    0 -0.99423352925E-02 -0.30951039925E-01 -0.14843068463E-01  0.35737005818E-01  0.00000000000E+00 0. -1.
  9000001    1    1    2    0    0  0.99423352925E-02  0.30951039925E-01  0.14843068463E-01  0.35750994182E-01  0.10000000475E-02 0.  1.
</event>
<event>
 4   0  0.2441219E-02  0.9118800E+02  0.7818609E-02  0.1379984E+01
      -11   -1    0    0    0    0  0.00000000000E+00  0.00000000000E+00  0.35740347158E-01  0.35744000000E-01  0.51099999109E-03 0.  1.
       11   -1    0    0    0    0 -0.00000000000E+00 -0.00000000000E+00 -0.35740347158E-01  0.35744000000E-01  0.51099999109E-03 0. -1.
       22    1    1    2    0    0 -0.24611327151E-02  0.44987874212E-02 -0.35367178603E-01  0.35737005818E-01  0.00000000000E+00 0. -1.
  9000001    1    1    2    0    0  0.24611327151E-02 -0.44987874212E-02  0.35367178603E-01  0.35750994182E-01  0.10000000475E-02 0.  1.
</event>
<event>
 4   0  0.2441219E-02  0.9118800E+02  0.7818609E-02  0.1379984E+01
      -11   -1    0    0    0    0  0.00000000000E+00  0.00000000000E+00  0.35740347158E-01  0.35744000000E-01  0.51099999109E-03 0. -1.
       11   -1    0    0    0    0 -0.00000000000E+00 -0.00000000000E+00 -0.35740347158E-01  0.35744000000E-01  0.51099999109E-03 0.  1.
       22    1    1    2    0    0 -0.26921908881E-02  0.36709696262E-02 -0.35445869648E-01  0.35737005818E-01  0.00000000000E+00 0.  1.
  9000001    1    1    2    0    0  0.26921908881E-02 -0.36709696262E-02  0.35445869648E-01  0.35750994182E-01  0.10000000475E-02 0. -1.
</event>
<event>
 4   0  0.2441219E-02  0.9118800E+02  0.7818609E-02  0.1379984E+01
      -11   -1    0    0    0    0  0.00000000000E+00  0.00000000000E+00  0.35740347158E-01  0.35744000000E-01  0.51099999109E-03 0.  1.
       11   -1    0    0    0    0 -0.00000000000E+00 -0.00000000000E+00 -0.35740347158E-01  0.35744000000E-01  0.51099999109E-03 0. -1.
       22    1    1    2    0    0 -0.26395658698E-02 -0.23869007627E-02 -0.35559372627E-01  0.35737005818E-01  0.00000000000E+00 0. -1.
  9000001    1    1    2    0    0  0.26395658698E-02  0.23869007627E-02  0.35559372627E-01  0.35750994182E-01  0.10000000475E-02 0.  1.
</event>
<event>
 4   0  0.2441219E-02  0.9118800E+02  0.7818609E-02  0.1379984E+01
      -11   -1    0    0    0    0  0.00000000000E+00  0.00000000000E+00  0.35740347158E-01  0.35744000000E-01  0.51099999109E-03 0. -1.
       11   -1    0    0    0    0 -0.00000000000E+00 -0.00000000000E+00 -0.35740347158E-01  0.35744000000E-01  0.51099999109E-03 0.  1.
       22    1    1    2    0    0 -0.41513605042E-02 -0.13366389981E-01  0.32882205062E-01  0.35737005818E-01  0.00000000000E+00 0. -1.
  9000001    1    1    2    0    0  0.41513605042E-02  0.13366389981E-01 -0.32882205062E-01  0.35750994182E-01  0.10000000475E-02 0.  1.
</event>
<event>
 4   0  0.2441219E-02  0.9118800E+02  0.7818609E-02  0.1379984E+01
      -11   -1    0    0    0    0  0.00000000000E+00  0.00000000000E+00  0.35740347158E-01  0.35744000000E-01  0.51099999109E-03 0.  1.
       11   -1    0    0    0    0 -0.00000000000E+00 -0.00000000000E+00 -0.35740347158E-01  0.35744000000E-01  0.51099999109E-03 0. -1.
       22    1    1    2    0    0  0.94142412740E-02 -0.44341767861E-02 -0.34188356532E-01  0.35737005818E-01  0.00000000000E+00 0. -1.
  9000001    1    1    2    0    0 -0.94142412740E-02  0.44341767861E-02  0.34188356532E-01  0.35750994182E-01  0.10000000475E-02 0.  1.
</event>
<event>
 4   0  0.2441219E-02  0.9118800E+02  0.7818609E-02  0.1379984E+01
      -11   -1    0    0    0    0  0.00000000000E+00  0.00000000000E+00  0.35740347158E-01  0.35744000000E-01  0.51099999109E-03 0. -1.
       11   -1    0    0    0    0 -0.00000000000E+00 -0.00000000000E+00 -0.35740347158E-01  0.35744000000E-01  0.51099999109E-03 0.  1.
       22    1    1    2    0    0 -0.42564114412E-02  0.30512531195E-02 -0.35351186697E-01  0.35737005818E-01  0.00000000000E+00 0.  1.
  9000001    1    1    2    0    0  0.42564114412E-02 -0.30512531195E-02  0.35351186697E-01  0.35750994182E-01  0.10000000475E-02 0. -1.
</event>
<event>
 4   0  0.2441219E-02  0.9118800E+02  0.7818609E-02  0.1379984E+01
      -11   -1    0    0    0    0  0.00000000000E+00  0.00000000000E+00  0.35740347158E-01  0.35744000000E-01  0.51099999109E-03 0.  1.
       11   -1    0    0    0    0 -0.00000000000E+00 -0.00000000000E+00 -0.35740347158E-01  0.35744000000E-01  0.51099999109E-03 0. -1.
       22    1    1    2    0    0  0.10339133188E-01 -0.13397493208E-02  0.34182465996E-01  0.35737005818E-01  0.00000000000E+00 0.  1.
  9000001    1    1    2    0    0 -0.10339133188E-01  0.13397493208E-02 -0.34182465996E-01  0.35750994182E-01  0.10000000475E-02 0. -1.
</event>
<event>
 4   0  0.2441219E-02  0.9118800E+02  0.7818609E-02  0.1379984E+01
      -11   -1    0    0    0    0  0.00000000000E+00  0.00000000000E+00  0.35740347158E-01  0.35744000000E-01  0.51099999109E-03 0. -1.
       11   -1    0    0    0    0 -0.00000000000E+00 -0.00000000000E+00 -0.35740347158E-01  0.35744000000E-01  0.51099999109E-03 0.  1.
       22    1    1    2    0    0 -0.12503719136E-02 -0.30271710187E-01  0.18952406636E-01  0.35737005818E-01  0.00000000000E+00 0. -1.
  9000001    1    1    2    0    0  0.12503719136E-02  0.30271710187E-01 -0.18952406636E-01  0.35750994182E-01  0.10000000475E-02 0.  1.
</event>
<event>
 4   0  0.2441219E-02  0.9118800E+02  0.7818609E-02  0.1379984E+01
      -11   -1    0    0    0    0  0.00000000000E+00  0.00000000000E+00  0.35740347158E-01  0.35744000000E-01  0.51099999109E-03 0. -1.
       11   -1    0    0    0    0 -0.00000000000E+00 -0.00000000000E+00 -0.35740347158E-01  0.35744000000E-01  0.51099999109E-03 0.  1.
       22    1    1    2    0    0  0.42363300179E-02 -0.51265194084E-02 -0.35112759669E-01  0.35737005818E-01  0.00000000000E+00 0.  1.
  9000001    1    1    2    0    0 -0.42363300179E-02  0.51265194084E-02  0.35112759669E-01  0.35750994182E-01  0.10000000475E-02 0. -1.
</event>
<event>
 4   0  0.2441219E-02  0.9118800E+02  0.7818609E-02  0.1379984E+01
      -11   -1    0    0    0    0  0.00000000000E+00  0.00000000000E+00  0.35740347158E-01  0.35744000000E-01  0.51099999109E-03 0. -1.
       11   -1    0    0    0    0 -0.00000000000E+00 -0.00000000000E+00 -0.35740347158E-01  0.35744000000E-01  0.51099999109E-03 0.  1.
       22    1    1    2    0    0 -0.13545037014E-02 -0.47561472228E-02 -0.35393190986E-01  0.35737005818E-01  0.00000000000E+00 0.  1.
  9000001    1    1    2    0    0  0.13545037014E-02  0.47561472228E-02  0.35393190986E-01  0.35750994182E-01  0.10000000475E-02 0. -1.
</event>
<event>
 4   0  0.2441219E-02  0.9118800E+02  0.7818609E-02  0.1379984E+01
      -11   -1    0    0    0    0  0.00000000000E+00  0.00000000000E+00  0.35740347158E-01  0.35744000000E-01  0.51099999109E-03 0. -1.
       11   -1    0    0    0    0 -0.00000000000E+00 -0.00000000000E+00 -0.35740347158E-01  0.35744000000E-01  0.51099999109E-03 0.  1.
       22    1    1    2    0    0 -0.31720320000E-01  0.10206893854E-01  0.12914108634E-01  0.35737005818E-01  0.00000000000E+00 0. -1.
  9000001    1    1    2    0    0  0.31720320000E-01 -0.10206893854E-01 -0.12914108634E-01  0.35750994182E-01  0.10000000475E-02 0.  1.
</event>
<event>
 4   0  0.2441219E-02  0.9118800E+02  0.7818609E-02  0.1379984E+01
      -11   -1    0    0    0    0  0.00000000000E+00  0.00000000000E+00  0.35740347158E-01  0.35744000000E-01  0.51099999109E-03 0.  1.
       11   -1    0    0    0    0 -0.00000000000E+00 -0.00000000000E+00 -0.35740347158E-01  0.35744000000E-01  0.51099999109E-03 0. -1.
       22    1    1    2    0    0 -0.22899036169E-01  0.85086315487E-02 -0.26083920652E-01  0.35737005818E-01  0.00000000000E+00 0. -1.
  9000001    1    1    2    0    0  0.22899036169E-01 -0.85086315487E-02  0.26083920652E-01  0.35750994182E-01  0.10000000475E-02 0.  1.
</event>
<event>
 4   0  0.2441219E-02  0.9118800E+02  0.7818609E-02  0.1379984E+01
      -11   -1    0    0    0    0  0.00000000000E+00  0.00000000000E+00  0.35740347158E-01  0.35744000000E-01  0.51099999109E-03 0. -1.
       11   -1    0    0    0    0 -0.00000000000E+00 -0.00000000000E+00 -0.35740347158E-01  0.35744000000E-01  0.51099999109E-03 0.  1.
       22    1    1    2    0    0  0.15958087471E-01  0.30966129044E-01  0.79731976744E-02  0.35737005818E-01  0.00000000000E+00 0.  1.
  9000001    1    1    2    0    0 -0.15958087471E-01 -0.30966129044E-01 -0.79731976744E-02  0.35750994182E-01  0.10000000475E-02 0. -1.
</event>
<event>
 4   0  0.2441219E-02  0.9118800E+02  0.7818609E-02  0.1379984E+01
      -11   -1    0    0    0    0  0.00000000000E+00  0.00000000000E+00  0.35740347158E-01  0.35744000000E-01  0.51099999109E-03 0.  1.
       11   -1    0    0    0    0 -0.00000000000E+00 -0.00000000000E+00 -0.35740347158E-01  0.35744000000E-01  0.51099999109E-03 0. -1.
       22    1    1    2    0    0 -0.28508663183E-01 -0.67438797782E-02 -0.20467285944E-01  0.35737005818E-01  0.00000000000E+00 0. -1.
  9000001    1    1    2    0    0  0.28508663183E-01  0.67438797782E-02  0.20467285944E-01  0.35750994182E-01  0.10000000475E-02 0.  1.
</event>
<event>
 4   0  0.2441219E-02  0.9118800E+02  0.7818609E-02  0.1379984E+01
      -11   -1    0    0    0    0  0.00000000000E+00  0.00000000000E+00  0.35740347158E-01  0.35744000000E-01  0.51099999109E-03 0.  1.
       11   -1    0    0    0    0 -0.00000000000E+00 -0.00000000000E+00 -0.35740347158E-01  0.35744000000E-01  0.51099999109E-03 0. -1.
       22    1    1    2    0    0 -0.13640155401E-02 -0.76296438922E-02  0.34886409683E-01  0.35737005818E-01  0.00000000000E+00 0.  1.
  9000001    1    1    2    0    0  0.13640155401E-02  0.76296438922E-02 -0.34886409683E-01  0.35750994182E-01  0.10000000475E-02 0. -1.
</event>
<event>
 4   0  0.2441219E-02  0.9118800E+02  0.7818609E-02  0.1379984E+01
      -11   -1    0    0    0    0  0.00000000000E+00  0.00000000000E+00  0.35740347158E-01  0.35744000000E-01  0.51099999109E-03 0.  1.
       11   -1    0    0    0    0 -0.00000000000E+00 -0.00000000000E+00 -0.35740347158E-01  0.35744000000E-01  0.51099999109E-03 0. -1.
       22    1    1    2    0    0  0.51873586864E-02 -0.23778114318E-01 -0.26169183675E-01  0.35737005818E-01  0.00000000000E+00 0. -1.
  9000001    1    1    2    0    0 -0.51873586864E-02  0.23778114318E-01  0.26169183675E-01  0.35750994182E-01  0.10000000475E-02 0.  1.
</event>
<event>
 4   0  0.2441219E-02  0.9118800E+02  0.7818609E-02  0.1379984E+01
      -11   -1    0    0    0    0  0.00000000000E+00  0.00000000000E+00  0.35740347158E-01  0.35744000000E-01  0.51099999109E-03 0.  1.
       11   -1    0    0    0    0 -0.00000000000E+00 -0.00000000000E+00 -0.35740347158E-01  0.35744000000E-01  0.51099999109E-03 0. -1.
       22    1    1    2    0    0  0.10626837747E-01  0.11768818223E-01  0.32026533094E-01  0.35737005818E-01  0.00000000000E+00 0.  1.
  9000001    1    1    2    0    0 -0.10626837747E-01 -0.11768818223E-01 -0.32026533094E-01  0.35750994182E-01  0.10000000475E-02 0. -1.
</event>
<event>
 4   0  0.2441219E-02  0.9118800E+02  0.7818609E-02  0.1379984E+01
      -11   -1    0    0    0    0  0.00000000000E+00  0.00000000000E+00  0.35740347158E-01  0.35744000000E-01  0.51099999109E-03 0.  1.
       11   -1    0    0    0    0 -0.00000000000E+00 -0.00000000000E+00 -0.35740347158E-01  0.35744000000E-01  0.51099999109E-03 0. -1.
       22    1    1    2    0    0 -0.22319125650E-02 -0.20062272292E-02 -0.35610773700E-01  0.35737005818E-01  0.00000000000E+00 0. -1.
  9000001    1    1    2    0    0  0.22319125650E-02  0.20062272292E-02  0.35610773700E-01  0.35750994182E-01  0.10000000475E-02 0.  1.
</event>
<event>
 4   0  0.2441219E-02  0.9118800E+02  0.7818609E-02  0.1379984E+01
      -11   -1    0    0    0    0  0.00000000000E+00  0.00000000000E+00  0.35740347158E-01  0.35744000000E-01  0.51099999109E-03 0.  1.
       11   -1    0    0    0    0 -0.00000000000E+00 -0.00000000000E+00 -0.35740347158E-01  0.35744000000E-01  0.51099999109E-03 0. -1.
       22    1    1    2    0    0 -0.34016175213E-01 -0.10309995362E-01  0.37064004637E-02  0.35737005818E-01  0.00000000000E+00 0. -1.
  9000001    1    1    2    0    0  0.34016175213E-01  0.10309995362E-01 -0.37064004637E-02  0.35750994182E-01  0.10000000475E-02 0.  1.
</event>
<event>
 4   0  0.2441219E-02  0.9118800E+02  0.7818609E-02  0.1379984E+01
      -11   -1    0    0    0    0  0.00000000000E+00  0.00000000000E+00  0.35740347158E-01  0.35744000000E-01  0.51099999109E-03 0. -1.
       11   -1    0    0    0    0 -0.00000000000E+00 -0.00000000000E+00 -0.35740347158E-01  0.35744000000E-01  0.51099999109E-03 0.  1.
       22    1    1    2    0    0 -0.91047188778E-02 -0.93319757825E-02 -0.33273892273E-01  0.35737005818E-01  0.00000000000E+00 0.  1.
  9000001    1    1    2    0    0  0.91047188778E-02  0.93319757825E-02  0.33273892273E-01  0.35750994182E-01  0.10000000475E-02 0. -1.
</event>
<event>
 4   0  0.2441219E-02  0.9118800E+02  0.7818609E-02  0.1379984E+01
      -11   -1    0    0    0    0  0.00000000000E+00  0.00000000000E+00  0.35740347158E-01  0.35744000000E-01  0.51099999109E-03 0. -1.
       11   -1    0    0    0    0 -0.00000000000E+00 -0.00000000000E+00 -0.35740347158E-01  0.35744000000E-01  0.51099999109E-03 0.  1.
       22    1    1    2    0    0 -0.32684997914E-02 -0.29514834264E-02 -0.35464619546E-01  0.35737005818E-01  0.00000000000E+00 0.  1.
  9000001    1    1    2    0    0  0.32684997914E-02  0.29514834264E-02  0.35464619546E-01  0.35750994182E-01  0.10000000475E-02 0. -1.
</event>
<event>
 4   0  0.2441219E-02  0.9118800E+02  0.7818609E-02  0.1379984E+01
      -11   -1    0    0    0    0  0.00000000000E+00  0.00000000000E+00  0.35740347158E-01  0.35744000000E-01  0.51099999109E-03 0. -1.
       11   -1    0    0    0    0 -0.00000000000E+00 -0.00000000000E+00 -0.35740347158E-01  0.35744000000E-01  0.51099999109E-03 0.  1.
       22    1    1    2    0    0  0.51202585916E-02 -0.72422791591E-02  0.34618866668E-01  0.35737005818E-01  0.00000000000E+00 0. -1.
  9000001    1    1    2    0    0 -0.51202585916E-02  0.72422791591E-02 -0.34618866668E-01  0.35750994182E-01  0.10000000475E-02 0.  1.
</event>
<event>
 4   0  0.2441219E-02  0.9118800E+02  0.7818609E-02  0.1379984E+01
      -11   -1    0    0    0    0  0.00000000000E+00  0.00000000000E+00  0.35740347158E-01  0.35744000000E-01  0.51099999109E-03 0. -1.
       11   -1    0    0    0    0 -0.00000000000E+00 -0.00000000000E+00 -0.35740347158E-01  0.35744000000E-01  0.51099999109E-03 0.  1.
       22    1    1    2    0    0 -0.12620093109E-02 -0.44075373989E-02 -0.35441706102E-01  0.35737005818E-01  0.00000000000E+00 0.  1.
  9000001    1    1    2    0    0  0.12620093109E-02  0.44075373989E-02  0.35441706102E-01  0.35750994182E-01  0.10000000475E-02 0. -1.
</event>
<event>
 4   0  0.2441219E-02  0.9118800E+02  0.7818609E-02  0.1379984E+01
      -11   -1    0    0    0    0  0.00000000000E+00  0.00000000000E+00  0.35740347158E-01  0.35744000000E-01  0.51099999109E-03 0.  1.
       11   -1    0    0    0    0 -0.00000000000E+00 -0.00000000000E+00 -0.35740347158E-01  0.35744000000E-01  0.51099999109E-03 0. -1.
       22    1    1    2    0    0 -0.94737514359E-02  0.26607764467E-01 -0.21895398802E-01  0.35737005818E-01  0.00000000000E+00 0. -1.
  9000001    1    1    2    0    0  0.94737514359E-02 -0.26607764467E-01  0.21895398802E-01  0.35750994182E-01  0.10000000475E-02 0.  1.
</event>
<event>
 4   0  0.2441219E-02  0.9118800E+02  0.7818609E-02  0.1379984E+01
      -11   -1    0    0    0    0  0.00000000000E+00  0.00000000000E+00  0.35740347158E-01  0.35744000000E-01  0.51099999109E-03 0. -1.
       11   -1    0    0    0    0 -0.00000000000E+00 -0.00000000000E+00 -0.35740347158E-01  0.35744000000E-01  0.51099999109E-03 0.  1.
       22    1    1    2    0    0 -0.89594686774E-02 -0.60002325136E-02  0.34071376780E-01  0.35737005818E-01  0.00000000000E+00 0. -1.
  9000001    1    1    2    0    0  0.89594686774E-02  0.60002325136E-02 -0.34071376780E-01  0.35750994182E-01  0.10000000475E-02 0.  1.
</event>
<event>
 4   0  0.2441219E-02  0.9118800E+02  0.7818609E-02  0.1379984E+01
      -11   -1    0    0    0    0  0.00000000000E+00  0.00000000000E+00  0.35740347158E-01  0.35744000000E-01  0.51099999109E-03 0. -1.
       11   -1    0    0    0    0 -0.00000000000E+00 -0.00000000000E+00 -0.35740347158E-01  0.35744000000E-01  0.51099999109E-03 0.  1.
       22    1    1    2    0    0  0.79719960504E-02 -0.17042380694E-01 -0.30383188182E-01  0.35737005818E-01  0.00000000000E+00 0.  1.
  9000001    1    1    2    0    0 -0.79719960504E-02  0.17042380694E-01  0.30383188182E-01  0.35750994182E-01  0.10000000475E-02 0. -1.
</event>
<event>
 4   0  0.2441219E-02  0.9118800E+02  0.7818609E-02  0.1379984E+01
      -11   -1    0    0    0    0  0.00000000000E+00  0.00000000000E+00  0.35740347158E-01  0.35744000000E-01  0.51099999109E-03 0. -1.
       11   -1    0    0    0    0 -0.00000000000E+00 -0.00000000000E+00 -0.35740347158E-01  0.35744000000E-01  0.51099999109E-03 0.  1.
       22    1    1    2    0    0 -0.12706251252E-01 -0.92954922132E-02 -0.32082371928E-01  0.35737005818E-01  0.00000000000E+00 0.  1.
  9000001    1    1    2    0    0  0.12706251252E-01  0.92954922132E-02  0.32082371928E-01  0.35750994182E-01  0.10000000475E-02 0. -1.
</event>
<event>
 4   0  0.2441219E-02  0.9118800E+02  0.7818609E-02  0.1379984E+01
      -11   -1    0    0    0    0  0.00000000000E+00  0.00000000000E+00  0.35740347158E-01  0.35744000000E-01  0.51099999109E-03 0. -1.
       11   -1    0    0    0    0 -0.00000000000E+00 -0.00000000000E+00 -0.35740347158E-01  0.35744000000E-01  0.51099999109E-03 0.  1.
       22    1    1    2    0    0  0.29441254357E-02 -0.15367164029E-01 -0.32129674446E-01  0.35737005818E-01  0.00000000000E+00 0.  1.
  9000001    1    1    2    0    0 -0.29441254357E-02  0.15367164029E-01  0.32129674446E-01  0.35750994182E-01  0.10000000475E-02 0. -1.
</event>
<event>
 4   0  0.2441219E-02  0.9118800E+02  0.7818609E-02  0.1379984E+01
      -11   -1    0    0    0    0  0.00000000000E+00  0.00000000000E+00  0.35740347158E-01  0.35744000000E-01  0.51099999109E-03 0.  1.
       11   -1    0    0    0    0 -0.00000000000E+00 -0.00000000000E+00 -0.35740347158E-01  0.35744000000E-01  0.51099999109E-03 0. -1.
       22    1    1    2    0    0 -0.26881716359E-02  0.40965932950E-02  0.35399509057E-01  0.35737005818E-01  0.00000000000E+00 0.  1.
  9000001    1    1    2    0    0  0.26881716359E-02 -0.40965932950E-02 -0.35399509057E-01  0.35750994182E-01  0.10000000475E-02 0. -1.
</event>
<event>
 4   0  0.2441219E-02  0.9118800E+02  0.7818609E-02  0.1379984E+01
      -11   -1    0    0    0    0  0.00000000000E+00  0.00000000000E+00  0.35740347158E-01  0.35744000000E-01  0.51099999109E-03 0. -1.
       11   -1    0    0    0    0 -0.00000000000E+00 -0.00000000000E+00 -0.35740347158E-01  0.35744000000E-01  0.51099999109E-03 0.  1.
       22    1    1    2    0    0 -0.28306740984E-01 -0.18764082378E-01 -0.11125251108E-01  0.35737005818E-01  0.00000000000E+00 0. -1.
  9000001    1    1    2    0    0  0.28306740984E-01  0.18764082378E-01  0.11125251108E-01  0.35750994182E-01  0.10000000475E-02 0.  1.
</event>
<event>
 4   0  0.2441219E-02  0.9118800E+02  0.7818609E-02  0.1379984E+01
      -11   -1    0    0    0    0  0.00000000000E+00  0.00000000000E+00  0.35740347158E-01  0.35744000000E-01  0.51099999109E-03 0.  1.
       11   -1    0    0    0    0 -0.00000000000E+00 -0.00000000000E+00 -0.35740347158E-01  0.35744000000E-01  0.51099999109E-03 0. -1.
       22    1    1    2    0    0 -0.18340032076E-01  0.12180094712E-03 -0.30671843324E-01  0.35737005818E-01  0.00000000000E+00 0. -1.
  9000001    1    1    2    0    0  0.18340032076E-01 -0.12180094712E-03  0.30671843324E-01  0.35750994182E-01  0.10000000475E-02 0.  1.
</event>
<event>
 4   0  0.2441219E-02  0.9118800E+02  0.7818609E-02  0.1379984E+01
      -11   -1    0    0    0    0  0.00000000000E+00  0.00000000000E+00  0.35740347158E-01  0.35744000000E-01  0.51099999109E-03 0.  1.
       11   -1    0    0    0    0 -0.00000000000E+00 -0.00000000000E+00 -0.35740347158E-01  0.35744000000E-01  0.51099999109E-03 0. -1.
       22    1    1    2    0    0 -0.21914402882E-01 -0.15673365502E-01  0.23478461301E-01  0.35737005818E-01  0.00000000000E+00 0.  1.
  9000001    1    1    2    0    0  0.21914402882E-01  0.15673365502E-01 -0.23478461301E-01  0.35750994182E-01  0.10000000475E-02 0. -1.
</event>
<event>
 4   0  0.2441219E-02  0.9118800E+02  0.7818609E-02  0.1379984E+01
      -11   -1    0    0    0    0  0.00000000000E+00  0.00000000000E+00  0.35740347158E-01  0.35744000000E-01  0.51099999109E-03 0. -1.
       11   -1    0    0    0    0 -0.00000000000E+00 -0.00000000000E+00 -0.35740347158E-01  0.35744000000E-01  0.51099999109E-03 0.  1.
       22    1    1    2    0    0 -0.25053997468E-02  0.13241857306E-01  0.33098485948E-01  0.35737005818E-01  0.00000000000E+00 0. -1.
  9000001    1    1    2    0    0  0.25053997468E-02 -0.13241857306E-01 -0.33098485948E-01  0.35750994182E-01  0.10000000475E-02 0.  1.
</event>
<event>
 4   0  0.2441219E-02  0.9118800E+02  0.7818609E-02  0.1379984E+01
      -11   -1    0    0    0    0  0.00000000000E+00  0.00000000000E+00  0.35740347158E-01  0.35744000000E-01  0.51099999109E-03 0. -1.
       11   -1    0    0    0    0 -0.00000000000E+00 -0.00000000000E+00 -0.35740347158E-01  0.35744000000E-01  0.51099999109E-03 0.  1.
       22    1    1    2    0    0  0.29733044363E-02 -0.52362317825E-02  0.35226054595E-01  0.35737005818E-01  0.00000000000E+00 0. -1.
  9000001    1    1    2    0    0 -0.29733044363E-02  0.52362317825E-02 -0.35226054595E-01  0.35750994182E-01  0.10000000475E-02 0.  1.
</event>
<event>
 4   0  0.2441219E-02  0.9118800E+02  0.7818609E-02  0.1379984E+01
      -11   -1    0    0    0    0  0.00000000000E+00  0.00000000000E+00  0.35740347158E-01  0.35744000000E-01  0.51099999109E-03 0.  1.
       11   -1    0    0    0    0 -0.00000000000E+00 -0.00000000000E+00 -0.35740347158E-01  0.35744000000E-01  0.51099999109E-03 0. -1.
       22    1    1    2    0    0 -0.99619725517E-02  0.28894964782E-02  0.34198589121E-01  0.35737005818E-01  0.00000000000E+00 0.  1.
  9000001    1    1    2    0    0  0.99619725517E-02 -0.28894964782E-02 -0.34198589121E-01  0.35750994182E-01  0.10000000475E-02 0. -1.
</event>
<event>
 4   0  0.2441219E-02  0.9118800E+02  0.7818609E-02  0.1379984E+01
      -11   -1    0    0    0    0  0.00000000000E+00  0.00000000000E+00  0.35740347158E-01  0.35744000000E-01  0.51099999109E-03 0.  1.
       11   -1    0    0    0    0 -0.00000000000E+00 -0.00000000000E+00 -0.35740347158E-01  0.35744000000E-01  0.51099999109E-03 0. -1.
       22    1    1    2    0    0  0.19831392461E-01  0.42420496234E-03  0.29726579152E-01  0.35737005818E-01  0.00000000000E+00 0.  1.
  9000001    1    1    2    0    0 -0.19831392461E-01 -0.42420496234E-03 -0.29726579152E-01  0.35750994182E-01  0.10000000475E-02 0. -1.
</event>
<event>
 4   0  0.2441219E-02  0.9118800E+02  0.7818609E-02  0.1379984E+01
      -11   -1    0    0    0    0  0.00000000000E+00  0.00000000000E+00  0.35740347158E-01  0.35744000000E-01  0.51099999109E-03 0. -1.
       11   -1    0    0    0    0 -0.00000000000E+00 -0.00000000000E+00 -0.35740347158E-01  0.35744000000E-01  0.51099999109E-03 0.  1.
       22    1    1    2    0    0 -0.10283044034E-01 -0.65075120595E-02  0.33601263028E-01  0.35737005818E-01  0.00000000000E+00 0. -1.
  9000001    1    1    2    0    0  0.10283044034E-01  0.65075120595E-02 -0.33601263028E-01  0.35750994182E-01  0.10000000475E-02 0.  1.
</event>
<event>
 4   0  0.2441219E-02  0.9118800E+02  0.7818609E-02  0.1379984E+01
      -11   -1    0    0    0    0  0.00000000000E+00  0.00000000000E+00  0.35740347158E-01  0.35744000000E-01  0.51099999109E-03 0. -1.
       11   -1    0    0    0    0 -0.00000000000E+00 -0.00000000000E+00 -0.35740347158E-01  0.35744000000E-01  0.51099999109E-03 0.  1.
       22    1    1    2    0    0  0.16393043685E-02 -0.26638249389E-02 -0.35599863802E-01  0.35737005818E-01  0.00000000000E+00 0.  1.
  9000001    1    1    2    0    0 -0.16393043685E-02  0.26638249389E-02  0.35599863802E-01  0.35750994182E-01  0.10000000475E-02 0. -1.
</event>
<event>
 4   0  0.2441219E-02  0.9118800E+02  0.7818609E-02  0.1379984E+01
      -11   -1    0    0    0    0  0.00000000000E+00  0.00000000000E+00  0.35740347158E-01  0.35744000000E-01  0.51099999109E-03 0. -1.
       11   -1    0    0    0    0 -0.00000000000E+00 -0.00000000000E+00 -0.35740347158E-01  0.35744000000E-01  0.51099999109E-03 0.  1.
       22    1    1    2    0    0  0.34581222300E-01  0.46371618347E-02 -0.77310658554E-02  0.35737005818E-01  0.00000000000E+00 0.  1.
  9000001    1    1    2    0    0 -0.34581222300E-01 -0.46371618347E-02  0.77310658554E-02  0.35750994182E-01  0.10000000475E-02 0. -1.
</event>
<event>
 4   0  0.2441219E-02  0.9118800E+02  0.7818609E-02  0.1379984E+01
      -11   -1    0    0    0    0  0.00000000000E+00  0.00000000000E+00  0.35740347158E-01  0.35744000000E-01  0.51099999109E-03 0.  1.
       11   -1    0    0    0    0 -0.00000000000E+00 -0.00000000000E+00 -0.35740347158E-01  0.35744000000E-01  0.51099999109E-03 0. -1.
       22    1    1    2    0    0 -0.20115937577E-01  0.78008837950E-02  0.28489100588E-01  0.35737005818E-01  0.00000000000E+00 0.  1.
  9000001    1    1    2    0    0  0.20115937577E-01 -0.78008837950E-02 -0.28489100588E-01  0.35750994182E-01  0.10000000475E-02 0. -1.
</event>
<event>
 4   0  0.2441219E-02  0.9118800E+02  0.7818609E-02  0.1379984E+01
      -11   -1    0    0    0    0  0.00000000000E+00  0.00000000000E+00  0.35740347158E-01  0.35744000000E-01  0.51099999109E-03 0.  1.
       11   -1    0    0    0    0 -0.00000000000E+00 -0.00000000000E+00 -0.35740347158E-01  0.35744000000E-01  0.51099999109E-03 0. -1.
       22    1    1    2    0    0  0.15938100253E-01  0.28976885761E-01  0.13544395032E-01  0.35737005818E-01  0.00000000000E+00 0.  1.
  9000001    1    1    2    0    0 -0.15938100253E-01 -0.28976885761E-01 -0.13544395032E-01  0.35750994182E-01  0.10000000475E-02 0. -1.
</event>
<event>
 4   0  0.2441219E-02  0.9118800E+02  0.7818609E-02  0.1379984E+01
      -11   -1    0    0    0    0  0.00000000000E+00  0.00000000000E+00  0.35740347158E-01  0.35744000000E-01  0.51099999109E-03 0.  1.
       11   -1    0    0    0    0 -0.00000000000E+00 -0.00000000000E+00 -0.35740347158E-01  0.35744000000E-01  0.51099999109E-03 0. -1.
       22    1    1    2    0    0 -0.20764235325E-01 -0.10483179972E-02 -0.29066839278E-01  0.35737005818E-01  0.00000000000E+00 0. -1.
  9000001    1    1    2    0    0  0.20764235325E-01  0.10483179972E-02  0.29066839278E-01  0.35750994182E-01  0.10000000475E-02 0.  1.
</event>
<event>
 4   0  0.2441219E-02  0.9118800E+02  0.7818609E-02  0.1379984E+01
      -11   -1    0    0    0    0  0.00000000000E+00  0.00000000000E+00  0.35740347158E-01  0.35744000000E-01  0.51099999109E-03 0. -1.
       11   -1    0    0    0    0 -0.00000000000E+00 -0.00000000000E+00 -0.35740347158E-01  0.35744000000E-01  0.51099999109E-03 0.  1.
       22    1    1    2    0    0  0.22258902245E-01  0.20431477808E-01  0.19084799457E-01  0.35737005818E-01  0.00000000000E+00 0. -1.
  9000001    1    1    2    0    0 -0.22258902245E-01 -0.20431477808E-01 -0.19084799457E-01  0.35750994182E-01  0.10000000475E-02 0.  1.
</event>
<event>
 4   0  0.2441219E-02  0.9118800E+02  0.7818609E-02  0.1379984E+01
      -11   -1    0    0    0    0  0.00000000000E+00  0.00000000000E+00  0.35740347158E-01  0.35744000000E-01  0.51099999109E-03 0. -1.
       11   -1    0    0    0    0 -0.00000000000E+00 -0.00000000000E+00 -0.35740347158E-01  0.35744000000E-01  0.51099999109E-03 0.  1.
       22    1    1    2    0    0 -0.12095399316E-01  0.18632438634E-01  0.27994055276E-01  0.35737005818E-01  0.00000000000E+00 0. -1.
  9000001    1    1    2    0    0  0.12095399316E-01 -0.18632438634E-01 -0.27994055276E-01  0.35750994182E-01  0.10000000475E-02 0.  1.
</event>
<event>
 4   0  0.2441219E-02  0.9118800E+02  0.7818609E-02  0.1379984E+01
      -11   -1    0    0    0    0  0.00000000000E+00  0.00000000000E+00  0.35740347158E-01  0.35744000000E-01  0.51099999109E-03 0. -1.
       11   -1    0    0    0    0 -0.00000000000E+00 -0.00000000000E+00 -0.35740347158E-01  0.35744000000E-01  0.51099999109E-03 0.  1.
       22    1    1    2    0    0  0.48822822982E-03  0.37392044362E-02  0.35537495244E-01  0.35737005818E-01  0.00000000000E+00 0. -1.
  9000001    1    1    2    0    0 -0.48822822982E-03 -0.37392044362E-02 -0.35537495244E-01  0.35750994182E-01  0.10000000475E-02 0.  1.
</event>
<event>
 4   0  0.2441219E-02  0.9118800E+02  0.7818609E-02  0.1379984E+01
      -11   -1    0    0    0    0  0.00000000000E+00  0.00000000000E+00  0.35740347158E-01  0.35744000000E-01  0.51099999109E-03 0.  1.
       11   -1    0    0    0    0 -0.00000000000E+00 -0.00000000000E+00 -0.35740347158E-01  0.35744000000E-01  0.51099999109E-03 0. -1.
       22    1    1    2    0    0 -0.57158953024E-02 -0.10291083486E-01  0.33742491408E-01  0.35737005818E-01  0.00000000000E+00 0.  1.
  9000001    1    1    2    0    0  0.57158953024E-02  0.10291083486E-01 -0.33742491408E-01  0.35750994182E-01  0.10000000475E-02 0. -1.
</event>
<event>
 4   0  0.2441219E-02  0.9118800E+02  0.7818609E-02  0.1379984E+01
      -11   -1    0    0    0    0  0.00000000000E+00  0.00000000000E+00  0.35740347158E-01  0.35744000000E-01  0.51099999109E-03 0.  1.
       11   -1    0    0    0    0 -0.00000000000E+00 -0.00000000000E+00 -0.35740347158E-01  0.35744000000E-01  0.51099999109E-03 0. -1.
       22    1    1    2    0    0  0.12348730409E-02  0.57473927942E-02 -0.35250193610E-01  0.35737005818E-01  0.00000000000E+00 0. -1.
  9000001    1    1    2    0    0 -0.12348730409E-02 -0.57473927942E-02  0.35250193610E-01  0.35750994182E-01  0.10000000475E-02 0.  1.
</event>
<event>
 4   0  0.2441219E-02  0.9118800E+02  0.7818609E-02  0.1379984E+01
      -11   -1    0    0    0    0  0.00000000000E+00  0.00000000000E+00  0.35740347158E-01  0.35744000000E-01  0.51099999109E-03 0. -1.
       11   -1    0    0    0    0 -0.00000000000E+00 -0.00000000000E+00 -0.35740347158E-01  0.35744000000E-01  0.51099999109E-03 0.  1.
       22    1    1    2    0    0  0.31910157893E-02  0.11192727575E-02 -0.35576652900E-01  0.35737005818E-01  0.00000000000E+00 0.  1.
  9000001    1    1    2    0    0 -0.31910157893E-02 -0.11192727575E-02  0.35576652900E-01  0.35750994182E-01  0.10000000475E-02 0. -1.
</event>
<event>
 4   0  0.2441219E-02  0.9118800E+02  0.7818609E-02  0.1379984E+01
      -11   -1    0    0    0    0  0.00000000000E+00  0.00000000000E+00  0.35740347158E-01  0.35744000000E-01  0.51099999109E-03 0. -1.
       11   -1    0    0    0    0 -0.00000000000E+00 -0.00000000000E+00 -0.35740347158E-01  0.35744000000E-01  0.51099999109E-03 0.  1.
       22    1    1    2    0    0 -0.16357563631E-02  0.36860356505E-02 -0.35508745784E-01  0.35737005818E-01  0.00000000000E+00 0.  1.
  9000001    1    1    2    0    0  0.16357563631E-02 -0.36860356505E-02  0.35508745784E-01  0.35750994182E-01  0.10000000475E-02 0. -1.
</event>
<event>
 4   0  0.2441219E-02  0.9118800E+02  0.7818609E-02  0.1379984E+01
      -11   -1    0    0    0    0  0.00000000000E+00  0.00000000000E+00  0.35740347158E-01  0.35744000000E-01  0.51099999109E-03 0. -1.
       11   -1    0    0    0    0 -0.00000000000E+00 -0.00000000000E+00 -0.35740347158E-01  0.35744000000E-01  0.51099999109E-03 0.  1.
       22    1    1    2    0    0 -0.55829225802E-02 -0.23187678385E-01 -0.26613833460E-01  0.35737005818E-01  0.00000000000E+00 0.  1.
  9000001    1    1    2    0    0  0.55829225802E-02  0.23187678385E-01  0.26613833460E-01  0.35750994182E-01  0.10000000475E-02 0. -1.
</event>
<event>
 4   0  0.2441219E-02  0.9118800E+02  0.7818609E-02  0.1379984E+01
      -11   -1    0    0    0    0  0.00000000000E+00  0.00000000000E+00  0.35740347158E-01  0.35744000000E-01  0.51099999109E-03 0. -1.
       11   -1    0    0    0    0 -0.00000000000E+00 -0.00000000000E+00 -0.35740347158E-01  0.35744000000E-01  0.51099999109E-03 0.  1.
       22    1    1    2    0    0 -0.75480019959E-02 -0.95250586487E-02  0.33607060396E-01  0.35737005818E-01  0.00000000000E+00 0. -1.
  9000001    1    1    2    0    0  0.75480019959E-02  0.95250586487E-02 -0.33607060396E-01  0.35750994182E-01  0.10000000475E-02 0.  1.
</event>
<event>
 4   0  0.2441219E-02  0.9118800E+02  0.7818609E-02  0.1379984E+01
      -11   -1    0    0    0    0  0.00000000000E+00  0.00000000000E+00  0.35740347158E-01  0.35744000000E-01  0.51099999109E-03 0.  1.
       11   -1    0    0    0    0 -0.00000000000E+00 -0.00000000000E+00 -0.35740347158E-01  0.35744000000E-01  0.51099999109E-03 0. -1.
       22    1    1    2    0    0  0.14900557315E-01  0.21524377578E-01 -0.24327107235E-01  0.35737005818E-01  0.00000000000E+00 0. -1.
  9000001    1    1    2    0    0 -0.14900557315E-01 -0.21524377578E-01  0.24327107235E-01  0.35750994182E-01  0.10000000475E-02 0.  1.
</event>
<event>
 4   0  0.2441219E-02  0.9118800E+02  0.7818609E-02  0.1379984E+01
      -11   -1    0    0    0    0  0.00000000000E+00  0.00000000000E+00  0.35740347158E-01  0.35744000000E-01  0.51099999109E-03 0.  1.
       11   -1    0    0    0    0 -0.00000000000E+00 -0.00000000000E+00 -0.35740347158E-01  0.35744000000E-01  0.51099999109E-03 0. -1.
       22    1    1    2    0    0  0.84500530492E-03  0.61500147928E-02  0.35193704962E-01  0.35737005818E-01  0.00000000000E+00 0.  1.
  9000001    1    1    2    0    0 -0.84500530492E-03 -0.61500147928E-02 -0.35193704962E-01  0.35750994182E-01  0.10000000475E-02 0. -1.
</event>
<event>
 4   0  0.2441219E-02  0.9118800E+02  0.7818609E-02  0.1379984E+01
      -11   -1    0    0    0    0  0.00000000000E+00  0.00000000000E+00  0.35740347158E-01  0.35744000000E-01  0.51099999109E-03 0.  1.
       11   -1    0    0    0    0 -0.00000000000E+00 -0.00000000000E+00 -0.35740347158E-01  0.35744000000E-01  0.51099999109E-03 0. -1.
       22    1    1    2    0    0 -0.27901937251E-01  0.18068686564E-01 -0.13120139039E-01  0.35737005818E-01  0.00000000000E+00 0. -1.
  9000001    1    1    2    0    0  0.27901937251E-01 -0.18068686564E-01  0.13120139039E-01  0.35750994182E-01  0.10000000475E-02 0.  1.
</event>
<event>
 4   0  0.2441219E-02  0.9118800E+02  0.7818609E-02  0.1379984E+01
      -11   -1    0    0    0    0  0.00000000000E+00  0.00000000000E+00  0.35740347158E-01  0.35744000000E-01  0.51099999109E-03 0. -1.
       11   -1    0    0    0    0 -0.00000000000E+00 -0.00000000000E+00 -0.35740347158E-01  0.35744000000E-01  0.51099999109E-03 0.  1.
       22    1    1    2    0    0  0.31409685210E-01  0.16937382457E-01  0.19210245617E-02  0.35737005818E-01  0.00000000000E+00 0. -1.
  9000001    1    1    2    0    0 -0.31409685210E-01 -0.16937382457E-01 -0.19210245617E-02  0.35750994182E-01  0.10000000475E-02 0.  1.
</event>
<event>
 4   0  0.2441219E-02  0.9118800E+02  0.7818609E-02  0.1379984E+01
      -11   -1    0    0    0    0  0.00000000000E+00  0.00000000000E+00  0.35740347158E-01  0.35744000000E-01  0.51099999109E-03 0.  1.
       11   -1    0    0    0    0 -0.00000000000E+00 -0.00000000000E+00 -0.35740347158E-01  0.35744000000E-01  0.51099999109E-03 0. -1.
       22    1    1    2    0    0  0.75461554688E-02 -0.31853201533E-01  0.14337457049E-01  0.35737005818E-01  0.00000000000E+00 0.  1.
  9000001    1    1    2    0    0 -0.75461554688E-02  0.31853201533E-01 -0.14337457049E-01  0.35750994182E-01  0.10000000475E-02 0. -1.
</event>
<event>
 4   0  0.2441219E-02  0.9118800E+02  0.7818609E-02  0.1379984E+01
      -11   -1    0    0    0    0  0.00000000000E+00  0.00000000000E+00  0.35740347158E-01  0.35744000000E-01  0.51099999109E-03 0. -1.
       11   -1    0    0    0    0 -0.00000000000E+00 -0.00000000000E+00 -0.35740347158E-01  0.35744000000E-01  0.51099999109E-03 0.  1.
       22    1    1    2    0    0 -0.97736603959E-03  0.12811703869E-01  0.33347242532E-01  0.35737005818E-01  0.00000000000E+00 0. -1.
  9000001    1    1    2    0    0  0.97736603959E-03 -0.12811703869E-01 -0.33347242532E-01  0.35750994182E-01  0.10000000475E-02 0.  1.
</event>
<event>
 4   0  0.2441219E-02  0.9118800E+02  0.7818609E-02  0.1379984E+01
      -11   -1    0    0    0    0  0.00000000000E+00  0.00000000000E+00  0.35740347158E-01  0.35744000000E-01  0.51099999109E-03 0. -1.
       11   -1    0    0    0    0 -0.00000000000E+00 -0.00000000000E+00 -0.35740347158E-01  0.35744000000E-01  0.51099999109E-03 0.  1.
       22    1    1    2    0    0 -0.40943809168E-02  0.92453112282E-03  0.35489644574E-01  0.35737005818E-01  0.00000000000E+00 0. -1.
  9000001    1    1    2    0    0  0.40943809168E-02 -0.92453112282E-03 -0.35489644574E-01  0.35750994182E-01  0.10000000475E-02 0.  1.
</event>
<event>
 4   0  0.2441219E-02  0.9118800E+02  0.7818609E-02  0.1379984E+01
      -11   -1    0    0    0    0  0.00000000000E+00  0.00000000000E+00  0.35740347158E-01  0.35744000000E-01  0.51099999109E-03 0. -1.
       11   -1    0    0    0    0 -0.00000000000E+00 -0.00000000000E+00 -0.35740347158E-01  0.35744000000E-01  0.51099999109E-03 0.  1.
       22    1    1    2    0    0 -0.48458655776E-02  0.41591547830E-02  0.35161806028E-01  0.35737005818E-01  0.00000000000E+00 0. -1.
  9000001    1    1    2    0    0  0.48458655776E-02 -0.41591547830E-02 -0.35161806028E-01  0.35750994182E-01  0.10000000475E-02 0.  1.
</event>
<event>
 4   0  0.2441219E-02  0.9118800E+02  0.7818609E-02  0.1379984E+01
      -11   -1    0    0    0    0  0.00000000000E+00  0.00000000000E+00  0.35740347158E-01  0.35744000000E-01  0.51099999109E-03 0. -1.
       11   -1    0    0    0    0 -0.00000000000E+00 -0.00000000000E+00 -0.35740347158E-01  0.35744000000E-01  0.51099999109E-03 0.  1.
       22    1    1    2    0    0  0.35756870225E-02 -0.11720582943E-02 -0.35538350082E-01  0.35737005818E-01  0.00000000000E+00 0.  1.
  9000001    1    1    2    0    0 -0.35756870225E-02  0.11720582943E-02  0.35538350082E-01  0.35750994182E-01  0.10000000475E-02 0. -1.
</event>
<event>
 4   0  0.2441219E-02  0.9118800E+02  0.7818609E-02  0.1379984E+01
      -11   -1    0    0    0    0  0.00000000000E+00  0.00000000000E+00  0.35740347158E-01  0.35744000000E-01  0.51099999109E-03 0. -1.
       11   -1    0    0    0    0 -0.00000000000E+00 -0.00000000000E+00 -0.35740347158E-01  0.35744000000E-01  0.51099999109E-03 0.  1.
       22    1    1    2    0    0 -0.27362612665E-01 -0.70111657986E-03  0.22976715356E-01  0.35737005818E-01  0.00000000000E+00 0. -1.
  9000001    1    1    2    0    0  0.27362612665E-01  0.70111657986E-03 -0.22976715356E-01  0.35750994182E-01  0.10000000475E-02 0.  1.
</event>
<event>
 4   0  0.2441219E-02  0.9118800E+02  0.7818609E-02  0.1379984E+01
      -11   -1    0    0    0    0  0.00000000000E+00  0.00000000000E+00  0.35740347158E-01  0.35744000000E-01  0.51099999109E-03 0. -1.
       11   -1    0    0    0    0 -0.00000000000E+00 -0.00000000000E+00 -0.35740347158E-01  0.35744000000E-01  0.51099999109E-03 0.  1.
       22    1    1    2    0    0  0.13426984935E-01  0.11914133068E-01 -0.30901506334E-01  0.35737005818E-01  0.00000000000E+00 0.  1.
  9000001    1    1    2    0    0 -0.13426984935E-01 -0.11914133068E-01  0.30901506334E-01  0.35750994182E-01  0.10000000475E-02 0. -1.
</event>
<event>
 4   0  0.2441219E-02  0.9118800E+02  0.7818609E-02  0.1379984E+01
      -11   -1    0    0    0    0  0.00000000000E+00  0.00000000000E+00  0.35740347158E-01  0.35744000000E-01  0.51099999109E-03 0.  1.
       11   -1    0    0    0    0 -0.00000000000E+00 -0.00000000000E+00 -0.35740347158E-01  0.35744000000E-01  0.51099999109E-03 0. -1.
       22    1    1    2    0    0  0.19721911159E-02 -0.64767639754E-02 -0.35089821537E-01  0.35737005818E-01  0.00000000000E+00 0. -1.
  9000001    1    1    2    0    0 -0.19721911159E-02  0.64767639754E-02  0.35089821537E-01  0.35750994182E-01  0.10000000475E-02 0.  1.
</event>
<event>
 4   0  0.2441219E-02  0.9118800E+02  0.7818609E-02  0.1379984E+01
      -11   -1    0    0    0    0  0.00000000000E+00  0.00000000000E+00  0.35740347158E-01  0.35744000000E-01  0.51099999109E-03 0. -1.
       11   -1    0    0    0    0 -0.00000000000E+00 -0.00000000000E+00 -0.35740347158E-01  0.35744000000E-01  0.51099999109E-03 0.  1.
       22    1    1    2    0    0  0.48468909054E-02  0.30288638837E-02 -0.35277006917E-01  0.35737005818E-01  0.00000000000E+00 0.  1.
  9000001    1    1    2    0    0 -0.48468909054E-02 -0.30288638837E-02  0.35277006917E-01  0.35750994182E-01  0.10000000475E-02 0. -1.
</event>
<event>
 4   0  0.2441219E-02  0.9118800E+02  0.7818609E-02  0.1379984E+01
      -11   -1    0    0    0    0  0.00000000000E+00  0.00000000000E+00  0.35740347158E-01  0.35744000000E-01  0.51099999109E-03 0.  1.
       11   -1    0    0    0    0 -0.00000000000E+00 -0.00000000000E+00 -0.35740347158E-01  0.35744000000E-01  0.51099999109E-03 0. -1.
       22    1    1    2    0    0 -0.21396462995E-01  0.90933279815E-02  0.27141045345E-01  0.35737005818E-01  0.00000000000E+00 0.  1.
  9000001    1    1    2    0    0  0.21396462995E-01 -0.90933279815E-02 -0.27141045345E-01  0.35750994182E-01  0.10000000475E-02 0. -1.
</event>
<event>
 4   0  0.2441219E-02  0.9118800E+02  0.7818609E-02  0.1379984E+01
      -11   -1    0    0    0    0  0.00000000000E+00  0.00000000000E+00  0.35740347158E-01  0.35744000000E-01  0.51099999109E-03 0.  1.
       11   -1    0    0    0    0 -0.00000000000E+00 -0.00000000000E+00 -0.35740347158E-01  0.35744000000E-01  0.51099999109E-03 0. -1.
       22    1    1    2    0    0  0.16576875465E-01  0.10374535999E-01  0.29911699843E-01  0.35737005818E-01  0.00000000000E+00 0.  1.
  9000001    1    1    2    0    0 -0.16576875465E-01 -0.10374535999E-01 -0.29911699843E-01  0.35750994182E-01  0.10000000475E-02 0. -1.
</event>
<event>
 4   0  0.2441219E-02  0.9118800E+02  0.7818609E-02  0.1379984E+01
      -11   -1    0    0    0    0  0.00000000000E+00  0.00000000000E+00  0.35740347158E-01  0.35744000000E-01  0.51099999109E-03 0.  1.
       11   -1    0    0    0    0 -0.00000000000E+00 -0.00000000000E+00 -0.35740347158E-01  0.35744000000E-01  0.51099999109E-03 0. -1.
       22    1    1    2    0    0 -0.23571227846E-02 -0.18814627799E-02 -0.35609516352E-01  0.35737005818E-01  0.00000000000E+00 0. -1.
  9000001    1    1    2    0    0  0.23571227846E-02  0.18814627799E-02  0.35609516352E-01  0.35750994182E-01  0.10000000475E-02 0.  1.
</event>
<event>
 4   0  0.2441219E-02  0.9118800E+02  0.7818609E-02  0.1379984E+01
      -11   -1    0    0    0    0  0.00000000000E+00  0.00000000000E+00  0.35740347158E-01  0.35744000000E-01  0.51099999109E-03 0. -1.
       11   -1    0    0    0    0 -0.00000000000E+00 -0.00000000000E+00 -0.35740347158E-01  0.35744000000E-01  0.51099999109E-03 0.  1.
       22    1    1    2    0    0  0.61571578054E-02 -0.22398291114E-01  0.27157679352E-01  0.35737005818E-01  0.00000000000E+00 0. -1.
  9000001    1    1    2    0    0 -0.61571578054E-02  0.22398291114E-01 -0.27157679352E-01  0.35750994182E-01  0.10000000475E-02 0.  1.
</event>
<event>
 4   0  0.2441219E-02  0.9118800E+02  0.7818609E-02  0.1379984E+01
      -11   -1    0    0    0    0  0.00000000000E+00  0.00000000000E+00  0.35740347158E-01  0.35744000000E-01  0.51099999109E-03 0.  1.
       11   -1    0    0    0    0 -0.00000000000E+00 -0.00000000000E+00 -0.35740347158E-01  0.35744000000E-01  0.51099999109E-03 0. -1.
       22    1    1    2    0    0  0.35989877890E-02  0.93386649993E-02 -0.34306999399E-01  0.35737005818E-01  0.00000000000E+00 0. -1.
  9000001    1    1    2    0    0 -0.35989877890E-02 -0.93386649993E-02  0.34306999399E-01  0.35750994182E-01  0.10000000475E-02 0.  1.
</event>
<event>
 4   0  0.2441219E-02  0.9118800E+02  0.7818609E-02  0.1379984E+01
      -11   -1    0    0    0    0  0.00000000000E+00  0.00000000000E+00  0.35740347158E-01  0.35744000000E-01  0.51099999109E-03 0. -1.
       11   -1    0    0    0    0 -0.00000000000E+00 -0.00000000000E+00 -0.35740347158E-01  0.35744000000E-01  0.51099999109E-03 0.  1.
       22    1    1    2    0    0  0.26479561036E-01  0.78283145670E-02 -0.22686646364E-01  0.35737005818E-01  0.00000000000E+00 0.  1.
  9000001    1    1    2    0    0 -0.26479561036E-01 -0.78283145670E-02  0.22686646364E-01  0.35750994182E-01  0.10000000475E-02 0. -1.
</event>
<event>
 4   0  0.2441219E-02  0.9118800E+02  0.7818609E-02  0.1379984E+01
      -11   -1    0    0    0    0  0.00000000000E+00  0.00000000000E+00  0.35740347158E-01  0.35744000000E-01  0.51099999109E-03 0. -1.
       11   -1    0    0    0    0 -0.00000000000E+00 -0.00000000000E+00 -0.35740347158E-01  0.35744000000E-01  0.51099999109E-03 0.  1.
       22    1    1    2    0    0  0.75426517146E-02  0.93808727052E-02 -0.33648792211E-01  0.35737005818E-01  0.00000000000E+00 0.  1.
  9000001    1    1    2    0    0 -0.75426517146E-02 -0.93808727052E-02  0.33648792211E-01  0.35750994182E-01  0.10000000475E-02 0. -1.
</event>
<event>
 4   0  0.2441219E-02  0.9118800E+02  0.7818609E-02  0.1379984E+01
      -11   -1    0    0    0    0  0.00000000000E+00  0.00000000000E+00  0.35740347158E-01  0.35744000000E-01  0.51099999109E-03 0. -1.
       11   -1    0    0    0    0 -0.00000000000E+00 -0.00000000000E+00 -0.35740347158E-01  0.35744000000E-01  0.51099999109E-03 0.  1.
       22    1    1    2    0    0 -0.15686344923E-02  0.10851713268E-01 -0.34013428081E-01  0.35737005818E-01  0.00000000000E+00 0.  1.
  9000001    1    1    2    0    0  0.15686344923E-02 -0.10851713268E-01  0.34013428081E-01  0.35750994182E-01  0.10000000475E-02 0. -1.
</event>
<event>
 4   0  0.2441219E-02  0.9118800E+02  0.7818609E-02  0.1379984E+01
      -11   -1    0    0    0    0  0.00000000000E+00  0.00000000000E+00  0.35740347158E-01  0.35744000000E-01  0.51099999109E-03 0.  1.
       11   -1    0    0    0    0 -0.00000000000E+00 -0.00000000000E+00 -0.35740347158E-01  0.35744000000E-01  0.51099999109E-03 0. -1.
       22    1    1    2    0    0 -0.91831813175E-02 -0.35892226113E-02  0.34349967202E-01  0.35737005818E-01  0.00000000000E+00 0.  1.
  9000001    1    1    2    0    0  0.91831813175E-02  0.35892226113E-02 -0.34349967202E-01  0.35750994182E-01  0.10000000475E-02 0. -1.
</event>
<event>
 4   0  0.2441219E-02  0.9118800E+02  0.7818609E-02  0.1379984E+01
      -11   -1    0    0    0    0  0.00000000000E+00  0.00000000000E+00  0.35740347158E-01  0.35744000000E-01  0.51099999109E-03 0.  1.
       11   -1    0    0    0    0 -0.00000000000E+00 -0.00000000000E+00 -0.35740347158E-01  0.35744000000E-01  0.51099999109E-03 0. -1.
       22    1    1    2    0    0 -0.17186204185E-01 -0.14273949486E-01 -0.27893051763E-01  0.35737005818E-01  0.00000000000E+00 0. -1.
  9000001    1    1    2    0    0  0.17186204185E-01  0.14273949486E-01  0.27893051763E-01  0.35750994182E-01  0.10000000475E-02 0.  1.
</event>
<event>
 4   0  0.2441219E-02  0.9118800E+02  0.7818609E-02  0.1379984E+01
      -11   -1    0    0    0    0  0.00000000000E+00  0.00000000000E+00  0.35740347158E-01  0.35744000000E-01  0.51099999109E-03 0. -1.
       11   -1    0    0    0    0 -0.00000000000E+00 -0.00000000000E+00 -0.35740347158E-01  0.35744000000E-01  0.51099999109E-03 0.  1.
       22    1    1    2    0    0  0.24060174257E-01 -0.10388262967E-01  0.24296616886E-01  0.35737005818E-01  0.00000000000E+00 0. -1.
  9000001    1    1    2    0    0 -0.24060174257E-01  0.10388262967E-01 -0.24296616886E-01  0.35750994182E-01  0.10000000475E-02 0.  1.
</event>
<event>
 4   0  0.2441219E-02  0.9118800E+02  0.7818609E-02  0.1379984E+01
      -11   -1    0    0    0    0  0.00000000000E+00  0.00000000000E+00  0.35740347158E-01  0.35744000000E-01  0.51099999109E-03 0.  1.
       11   -1    0    0    0    0 -0.00000000000E+00 -0.00000000000E+00 -0.35740347158E-01  0.35744000000E-01  0.51099999109E-03 0. -1.
       22    1    1    2    0    0  0.40529860753E-02 -0.83105016435E-02 -0.34520174553E-01  0.35737005818E-01  0.00000000000E+00 0. -1.
  9000001    1    1    2    0    0 -0.40529860753E-02  0.83105016435E-02  0.34520174553E-01  0.35750994182E-01  0.10000000475E-02 0.  1.
</event>
<event>
 4   0  0.2441219E-02  0.9118800E+02  0.7818609E-02  0.1379984E+01
      -11   -1    0    0    0    0  0.00000000000E+00  0.00000000000E+00  0.35740347158E-01  0.35744000000E-01  0.51099999109E-03 0. -1.
       11   -1    0    0    0    0 -0.00000000000E+00 -0.00000000000E+00 -0.35740347158E-01  0.35744000000E-01  0.51099999109E-03 0.  1.
       22    1    1    2    0    0  0.38636224067E-02  0.13589197545E-01 -0.32825900092E-01  0.35737005818E-01  0.00000000000E+00 0.  1.
  9000001    1    1    2    0    0 -0.38636224067E-02 -0.13589197545E-01  0.32825900092E-01  0.35750994182E-01  0.10000000475E-02 0. -1.
</event>
<event>
 4   0  0.2441219E-02  0.9118800E+02  0.7818609E-02  0.1379984E+01
      -11   -1    0    0    0    0  0.00000000000E+00  0.00000000000E+00  0.35740347158E-01  0.35744000000E-01  0.51099999109E-03 0.  1.
       11   -1    0    0    0    0 -0.00000000000E+00 -0.00000000000E+00 -0.35740347158E-01  0.35744000000E-01  0.51099999109E-03 0. -1.
       22    1    1    2    0    0 -0.95967840751E-02 -0.72264414392E-02 -0.33657300314E-01  0.35737005818E-01  0.00000000000E+00 0. -1.
  9000001    1    1    2    0    0  0.95967840751E-02  0.72264414392E-02  0.33657300314E-01  0.35750994182E-01  0.10000000475E-02 0.  1.
</event>
<event>
 4   0  0.2441219E-02  0.9118800E+02  0.7818609E-02  0.1379984E+01
      -11   -1    0    0    0    0  0.00000000000E+00  0.00000000000E+00  0.35740347158E-01  0.35744000000E-01  0.51099999109E-03 0.  1.
       11   -1    0    0    0    0 -0.00000000000E+00 -0.00000000000E+00 -0.35740347158E-01  0.35744000000E-01  0.51099999109E-03 0. -1.
       22    1    1    2    0    0  0.53032477535E-02  0.14080849135E-01  0.32415101971E-01  0.35737005818E-01  0.00000000000E+00 0.  1.
  9000001    1    1    2    0    0 -0.53032477535E-02 -0.14080849135E-01 -0.32415101971E-01  0.35750994182E-01  0.10000000475E-02 0. -1.
</event>
<event>
 4   0  0.2441219E-02  0.9118800E+02  0.7818609E-02  0.1379984E+01
      -11   -1    0    0    0    0  0.00000000000E+00  0.00000000000E+00  0.35740347158E-01  0.35744000000E-01  0.51099999109E-03 0.  1.
       11   -1    0    0    0    0 -0.00000000000E+00 -0.00000000000E+00 -0.35740347158E-01  0.35744000000E-01  0.51099999109E-03 0. -1.
       22    1    1    2    0    0  0.35050623886E-01  0.44984161902E-02  0.53246222262E-02  0.35737005818E-01  0.00000000000E+00 0.  1.
  9000001    1    1    2    0    0 -0.35050623886E-01 -0.44984161902E-02 -0.53246222262E-02  0.35750994182E-01  0.10000000475E-02 0. -1.
</event>
<event>
 4   0  0.2441219E-02  0.9118800E+02  0.7818609E-02  0.1379984E+01
      -11   -1    0    0    0    0  0.00000000000E+00  0.00000000000E+00  0.35740347158E-01  0.35744000000E-01  0.51099999109E-03 0. -1.
       11   -1    0    0    0    0 -0.00000000000E+00 -0.00000000000E+00 -0.35740347158E-01  0.35744000000E-01  0.51099999109E-03 0.  1.
       22    1    1    2    0    0  0.15095752715E-01  0.17060686193E-03  0.32391707707E-01  0.35737005818E-01  0.00000000000E+00 0. -1.
  9000001    1    1    2    0    0 -0.15095752715E-01 -0.17060686193E-03 -0.32391707707E-01  0.35750994182E-01  0.10000000475E-02 0.  1.
</event>
<event>
 4   0  0.2441219E-02  0.9118800E+02  0.7818609E-02  0.1379984E+01
      -11   -1    0    0    0    0  0.00000000000E+00  0.00000000000E+00  0.35740347158E-01  0.35744000000E-01  0.51099999109E-03 0. -1.
       11   -1    0    0    0    0 -0.00000000000E+00 -0.00000000000E+00 -0.35740347158E-01  0.35744000000E-01  0.51099999109E-03 0.  1.
       22    1    1    2    0    0  0.21675616860E-01  0.41650133288E-02  0.28106118241E-01  0.35737005818E-01  0.00000000000E+00 0. -1.
  9000001    1    1    2    0    0 -0.21675616860E-01 -0.41650133288E-02 -0.28106118241E-01  0.35750994182E-01  0.10000000475E-02 0.  1.
</event>
<event>
 4   0  0.2441219E-02  0.9118800E+02  0.7818609E-02  0.1379984E+01
      -11   -1    0    0    0    0  0.00000000000E+00  0.00000000000E+00  0.35740347158E-01  0.35744000000E-01  0.51099999109E-03 0. -1.
       11   -1    0    0    0    0 -0.00000000000E+00 -0.00000000000E+00 -0.35740347158E-01  0.35744000000E-01  0.51099999109E-03 0.  1.
       22    1    1    2    0    0 -0.20244444899E-01  0.23407492089E-01 -0.17871355563E-01  0.35737005818E-01  0.00000000000E+00 0.  1.
  9000001    1    1    2    0    0  0.20244444899E-01 -0.23407492089E-01  0.17871355563E-01  0.35750994182E-01  0.10000000475E-02 0. -1.
</event>
<event>
 4   0  0.2441219E-02  0.9118800E+02  0.7818609E-02  0.1379984E+01
      -11   -1    0    0    0    0  0.00000000000E+00  0.00000000000E+00  0.35740347158E-01  0.35744000000E-01  0.51099999109E-03 0. -1.
       11   -1    0    0    0    0 -0.00000000000E+00 -0.00000000000E+00 -0.35740347158E-01  0.35744000000E-01  0.51099999109E-03 0.  1.
       22    1    1    2    0    0  0.27754570301E-01 -0.45400683568E-02 -0.22050061034E-01  0.35737005818E-01  0.00000000000E+00 0.  1.
  9000001    1    1    2    0    0 -0.27754570301E-01  0.45400683568E-02  0.22050061034E-01  0.35750994182E-01  0.10000000475E-02 0. -1.
</event>
<event>
 4   0  0.2441219E-02  0.9118800E+02  0.7818609E-02  0.1379984E+01
      -11   -1    0    0    0    0  0.00000000000E+00  0.00000000000E+00  0.35740347158E-01  0.35744000000E-01  0.51099999109E-03 0. -1.
       11   -1    0    0    0    0 -0.00000000000E+00 -0.00000000000E+00 -0.35740347158E-01  0.35744000000E-01  0.51099999109E-03 0.  1.
       22    1    1    2    0    0  0.93166717221E-02 -0.23336819734E-02 -0.34422189665E-01  0.35737005818E-01  0.00000000000E+00 0.  1.
  9000001    1    1    2    0    0 -0.93166717221E-02  0.23336819734E-02  0.34422189665E-01  0.35750994182E-01  0.10000000475E-02 0. -1.
</event>
<event>
 4   0  0.2441219E-02  0.9118800E+02  0.7818609E-02  0.1379984E+01
      -11   -1    0    0    0    0  0.00000000000E+00  0.00000000000E+00  0.35740347158E-01  0.35744000000E-01  0.51099999109E-03 0. -1.
       11   -1    0    0    0    0 -0.00000000000E+00 -0.00000000000E+00 -0.35740347158E-01  0.35744000000E-01  0.51099999109E-03 0.  1.
       22    1    1    2    0    0 -0.91625499146E-02 -0.94478485201E-03  0.34529532947E-01  0.35737005818E-01  0.00000000000E+00 0. -1.
  9000001    1    1    2    0    0  0.91625499146E-02  0.94478485201E-03 -0.34529532947E-01  0.35750994182E-01  0.10000000475E-02 0.  1.
</event>
<event>
 4   0  0.2441219E-02  0.9118800E+02  0.7818609E-02  0.1379984E+01
      -11   -1    0    0    0    0  0.00000000000E+00  0.00000000000E+00  0.35740347158E-01  0.35744000000E-01  0.51099999109E-03 0. -1.
       11   -1    0    0    0    0 -0.00000000000E+00 -0.00000000000E+00 -0.35740347158E-01  0.35744000000E-01  0.51099999109E-03 0.  1.
       22    1    1    2    0    0  0.59306379202E-02  0.32758838417E-02 -0.35088882909E-01  0.35737005818E-01  0.00000000000E+00 0.  1.
  9000001    1    1    2    0    0 -0.59306379202E-02 -0.32758838417E-02  0.35088882909E-01  0.35750994182E-01  0.10000000475E-02 0. -1.
</event>
<event>
 4   0  0.2441219E-02  0.9118800E+02  0.7818609E-02  0.1379984E+01
      -11   -1    0    0    0    0  0.00000000000E+00  0.00000000000E+00  0.35740347158E-01  0.35744000000E-01  0.51099999109E-03 0. -1.
       11   -1    0    0    0    0 -0.00000000000E+00 -0.00000000000E+00 -0.35740347158E-01  0.35744000000E-01  0.51099999109E-03 0.  1.
       22    1    1    2    0    0  0.10662770990E-01  0.10664193918E-01  0.32399288075E-01  0.35737005818E-01  0.00000000000E+00 0. -1.
  9000001    1    1    2    0    0 -0.10662770990E-01 -0.10664193918E-01 -0.32399288075E-01  0.35750994182E-01  0.10000000475E-02 0.  1.
</event>
<event>
 4   0  0.2441219E-02  0.9118800E+02  0.7818609E-02  0.1379984E+01
      -11   -1    0    0    0    0  0.00000000000E+00  0.00000000000E+00  0.35740347158E-01  0.35744000000E-01  0.51099999109E-03 0.  1.
       11   -1    0    0    0    0 -0.00000000000E+00 -0.00000000000E+00 -0.35740347158E-01  0.35744000000E-01  0.51099999109E-03 0. -1.
       22    1    1    2    0    0 -0.44572622509E-02 -0.40970481147E-02 -0.35220457050E-01  0.35737005818E-01  0.00000000000E+00 0. -1.
  9000001    1    1    2    0    0  0.44572622509E-02  0.40970481147E-02  0.35220457050E-01  0.35750994182E-01  0.10000000475E-02 0.  1.
</event>
<event>
 4   0  0.2441219E-02  0.9118800E+02  0.7818609E-02  0.1379984E+01
      -11   -1    0    0    0    0  0.00000000000E+00  0.00000000000E+00  0.35740347158E-01  0.35744000000E-01  0.51099999109E-03 0. -1.
       11   -1    0    0    0    0 -0.00000000000E+00 -0.00000000000E+00 -0.35740347158E-01  0.35744000000E-01  0.51099999109E-03 0.  1.
       22    1    1    2    0    0  0.82535101153E-02 -0.57191926283E-02  0.34297288396E-01  0.35737005818E-01  0.00000000000E+00 0. -1.
  9000001    1    1    2    0    0 -0.82535101153E-02  0.57191926283E-02 -0.34297288396E-01  0.35750994182E-01  0.10000000475E-02 0.  1.
</event>
<event>
 4   0  0.2441219E-02  0.9118800E+02  0.7818609E-02  0.1379984E+01
      -11   -1    0    0    0    0  0.00000000000E+00  0.00000000000E+00  0.35740347158E-01  0.35744000000E-01  0.51099999109E-03 0.  1.
       11   -1    0    0    0    0 -0.00000000000E+00 -0.00000000000E+00 -0.35740347158E-01  0.35744000000E-01  0.51099999109E-03 0. -1.
       22    1    1    2    0    0  0.27736022770E-02 -0.52392242193E-02  0.35241896159E-01  0.35737005818E-01  0.00000000000E+00 0.  1.
  9000001    1    1    2    0    0 -0.27736022770E-02  0.52392242193E-02 -0.35241896159E-01  0.35750994182E-01  0.10000000475E-02 0. -1.
</event>
<event>
 4   0  0.2441219E-02  0.9118800E+02  0.7818609E-02  0.1379984E+01
      -11   -1    0    0    0    0  0.00000000000E+00  0.00000000000E+00  0.35740347158E-01  0.35744000000E-01  0.51099999109E-03 0.  1.
       11   -1    0    0    0    0 -0.00000000000E+00 -0.00000000000E+00 -0.35740347158E-01  0.35744000000E-01  0.51099999109E-03 0. -1.
       22    1    1    2    0    0 -0.59157807609E-02 -0.16792276016E-02 -0.35203938949E-01  0.35737005818E-01  0.00000000000E+00 0. -1.
  9000001    1    1    2    0    0  0.59157807609E-02  0.16792276016E-02  0.35203938949E-01  0.35750994182E-01  0.10000000475E-02 0.  1.
</event>
<event>
 4   0  0.2441219E-02  0.9118800E+02  0.7818609E-02  0.1379984E+01
      -11   -1    0    0    0    0  0.00000000000E+00  0.00000000000E+00  0.35740347158E-01  0.35744000000E-01  0.51099999109E-03 0. -1.
       11   -1    0    0    0    0 -0.00000000000E+00 -0.00000000000E+00 -0.35740347158E-01  0.35744000000E-01  0.51099999109E-03 0.  1.
       22    1    1    2    0    0 -0.41895254245E-02  0.11704838039E-01  0.33504898568E-01  0.35737005818E-01  0.00000000000E+00 0. -1.
  9000001    1    1    2    0    0  0.41895254245E-02 -0.11704838039E-01 -0.33504898568E-01  0.35750994182E-01  0.10000000475E-02 0.  1.
</event>
<event>
 4   0  0.2441219E-02  0.9118800E+02  0.7818609E-02  0.1379984E+01
      -11   -1    0    0    0    0  0.00000000000E+00  0.00000000000E+00  0.35740347158E-01  0.35744000000E-01  0.51099999109E-03 0. -1.
       11   -1    0    0    0    0 -0.00000000000E+00 -0.00000000000E+00 -0.35740347158E-01  0.35744000000E-01  0.51099999109E-03 0.  1.
       22    1    1    2    0    0  0.25063715878E-02  0.25039171515E-02  0.35560962940E-01  0.35737005818E-01  0.00000000000E+00 0. -1.
  9000001    1    1    2    0    0 -0.25063715878E-02 -0.25039171515E-02 -0.35560962940E-01  0.35750994182E-01  0.10000000475E-02 0.  1.
</event>
<event>
 4   0  0.2441219E-02  0.9118800E+02  0.7818609E-02  0.1379984E+01
      -11   -1    0    0    0    0  0.00000000000E+00  0.00000000000E+00  0.35740347158E-01  0.35744000000E-01  0.51099999109E-03 0.  1.
       11   -1    0    0    0    0 -0.00000000000E+00 -0.00000000000E+00 -0.35740347158E-01  0.35744000000E-01  0.51099999109E-03 0. -1.
       22    1    1    2    0    0  0.25617157511E-01 -0.22757265984E-01  0.10148973882E-01  0.35737005818E-01  0.00000000000E+00 0.  1.
  9000001    1    1    2    0    0 -0.25617157511E-01  0.22757265984E-01 -0.10148973882E-01  0.35750994182E-01  0.10000000475E-02 0. -1.
</event>
<event>
 4   0  0.2441219E-02  0.9118800E+02  0.7818609E-02  0.1379984E+01
      -11   -1    0    0    0    0  0.00000000000E+00  0.00000000000E+00  0.35740347158E-01  0.35744000000E-01  0.51099999109E-03 0. -1.
       11   -1    0    0    0    0 -0.00000000000E+00 -0.00000000000E+00 -0.35740347158E-01  0.35744000000E-01  0.51099999109E-03 0.  1.
       22    1    1    2    0    0  0.96619297648E-02 -0.76146860010E-02  0.33552902336E-01  0.35737005818E-01  0.00000000000E+00 0. -1.
  9000001    1    1    2    0    0 -0.96619297648E-02  0.76146860010E-02 -0.33552902336E-01  0.35750994182E-01  0.10000000475E-02 0.  1.
</event>
<event>
 4   0  0.2441219E-02  0.9118800E+02  0.7818609E-02  0.1379984E+01
      -11   -1    0    0    0    0  0.00000000000E+00  0.00000000000E+00  0.35740347158E-01  0.35744000000E-01  0.51099999109E-03 0. -1.
       11   -1    0    0    0    0 -0.00000000000E+00 -0.00000000000E+00 -0.35740347158E-01  0.35744000000E-01  0.51099999109E-03 0.  1.
       22    1    1    2    0    0  0.26833521480E-01  0.19138750699E-01 -0.13813179633E-01  0.35737005818E-01  0.00000000000E+00 0.  1.
  9000001    1    1    2    0    0 -0.26833521480E-01 -0.19138750699E-01  0.13813179633E-01  0.35750994182E-01  0.10000000475E-02 0. -1.
</event>
<event>
 4   0  0.2441219E-02  0.9118800E+02  0.7818609E-02  0.1379984E+01
      -11   -1    0    0    0    0  0.00000000000E+00  0.00000000000E+00  0.35740347158E-01  0.35744000000E-01  0.51099999109E-03 0. -1.
       11   -1    0    0    0    0 -0.00000000000E+00 -0.00000000000E+00 -0.35740347158E-01  0.35744000000E-01  0.51099999109E-03 0.  1.
       22    1    1    2    0    0 -0.27198722362E-02  0.18774520614E-01  0.30286189189E-01  0.35737005818E-01  0.00000000000E+00 0. -1.
  9000001    1    1    2    0    0  0.27198722362E-02 -0.18774520614E-01 -0.30286189189E-01  0.35750994182E-01  0.10000000475E-02 0.  1.
</event>
<event>
 4   0  0.2441219E-02  0.9118800E+02  0.7818609E-02  0.1379984E+01
      -11   -1    0    0    0    0  0.00000000000E+00  0.00000000000E+00  0.35740347158E-01  0.35744000000E-01  0.51099999109E-03 0. -1.
       11   -1    0    0    0    0 -0.00000000000E+00 -0.00000000000E+00 -0.35740347158E-01  0.35744000000E-01  0.51099999109E-03 0.  1.
       22    1    1    2    0    0  0.13226038390E-02  0.44403272366E-02 -0.35435403172E-01  0.35737005818E-01  0.00000000000E+00 0.  1.
  9000001    1    1    2    0    0 -0.13226038390E-02 -0.44403272366E-02  0.35435403172E-01  0.35750994182E-01  0.10000000475E-02 0. -1.
</event>
<event>
 4   0  0.2441219E-02  0.9118800E+02  0.7818609E-02  0.1379984E+01
      -11   -1    0    0    0    0  0.00000000000E+00  0.00000000000E+00  0.35740347158E-01  0.35744000000E-01  0.51099999109E-03 0.  1.
       11   -1    0    0    0    0 -0.00000000000E+00 -0.00000000000E+00 -0.35740347158E-01  0.35744000000E-01  0.51099999109E-03 0. -1.
       22    1    1    2    0    0  0.83223141342E-02  0.36403375491E-02 -0.34563284202E-01  0.35737005818E-01  0.00000000000E+00 0. -1.
  9000001    1    1    2    0    0 -0.83223141342E-02 -0.36403375491E-02  0.34563284202E-01  0.35750994182E-01  0.10000000475E-02 0.  1.
</event>
<event>
 4   0  0.2441219E-02  0.9118800E+02  0.7818609E-02  0.1379984E+01
      -11   -1    0    0    0    0  0.00000000000E+00  0.00000000000E+00  0.35740347158E-01  0.35744000000E-01  0.51099999109E-03 0. -1.
       11   -1    0    0    0    0 -0.00000000000E+00 -0.00000000000E+00 -0.35740347158E-01  0.35744000000E-01  0.51099999109E-03 0.  1.
       22    1    1    2    0    0 -0.20445774156E-02  0.14913936167E-01 -0.32411846539E-01  0.35737005818E-01  0.00000000000E+00 0.  1.
  9000001    1    1    2    0    0  0.20445774156E-02 -0.14913936167E-01  0.32411846539E-01  0.35750994182E-01  0.10000000475E-02 0. -1.
</event>
<event>
 4   0  0.2441219E-02  0.9118800E+02  0.7818609E-02  0.1379984E+01
      -11   -1    0    0    0    0  0.00000000000E+00  0.00000000000E+00  0.35740347158E-01  0.35744000000E-01  0.51099999109E-03 0. -1.
       11   -1    0    0    0    0 -0.00000000000E+00 -0.00000000000E+00 -0.35740347158E-01  0.35744000000E-01  0.51099999109E-03 0.  1.
       22    1    1    2    0    0 -0.26982421711E-01 -0.13479305519E-01 -0.19167441827E-01  0.35737005818E-01  0.00000000000E+00 0.  1.
  9000001    1    1    2    0    0  0.26982421711E-01  0.13479305519E-01  0.19167441827E-01  0.35750994182E-01  0.10000000475E-02 0. -1.
</event>
<event>
 4   0  0.2441219E-02  0.9118800E+02  0.7818609E-02  0.1379984E+01
      -11   -1    0    0    0    0  0.00000000000E+00  0.00000000000E+00  0.35740347158E-01  0.35744000000E-01  0.51099999109E-03 0.  1.
       11   -1    0    0    0    0 -0.00000000000E+00 -0.00000000000E+00 -0.35740347158E-01  0.35744000000E-01  0.51099999109E-03 0. -1.
       22    1    1    2    0    0 -0.19506574242E-01  0.14214919749E-02  0.29909973367E-01  0.35737005818E-01  0.00000000000E+00 0.  1.
  9000001    1    1    2    0    0  0.19506574242E-01 -0.14214919749E-02 -0.29909973367E-01  0.35750994182E-01  0.10000000475E-02 0. -1.
</event>
<event>
 4   0  0.2441219E-02  0.9118800E+02  0.7818609E-02  0.1379984E+01
      -11   -1    0    0    0    0  0.00000000000E+00  0.00000000000E+00  0.35740347158E-01  0.35744000000E-01  0.51099999109E-03 0. -1.
       11   -1    0    0    0    0 -0.00000000000E+00 -0.00000000000E+00 -0.35740347158E-01  0.35744000000E-01  0.51099999109E-03 0.  1.
       22    1    1    2    0    0  0.20252282366E-01  0.26282280782E-01 -0.13274801720E-01  0.35737005818E-01  0.00000000000E+00 0.  1.
  9000001    1    1    2    0    0 -0.20252282366E-01 -0.26282280782E-01  0.13274801720E-01  0.35750994182E-01  0.10000000475E-02 0. -1.
</event>
<event>
 4   0  0.2441219E-02  0.9118800E+02  0.7818609E-02  0.1379984E+01
      -11   -1    0    0    0    0  0.00000000000E+00  0.00000000000E+00  0.35740347158E-01  0.35744000000E-01  0.51099999109E-03 0.  1.
       11   -1    0    0    0    0 -0.00000000000E+00 -0.00000000000E+00 -0.35740347158E-01  0.35744000000E-01  0.51099999109E-03 0. -1.
       22    1    1    2    0    0 -0.29245041455E-01  0.19768751761E-01 -0.55729336058E-02  0.35737005818E-01  0.00000000000E+00 0.  1.
  9000001    1    1    2    0    0  0.29245041455E-01 -0.19768751761E-01  0.55729336058E-02  0.35750994182E-01  0.10000000475E-02 0. -1.
</event>
<event>
 4   0  0.2441219E-02  0.9118800E+02  0.7818609E-02  0.1379984E+01
      -11   -1    0    0    0    0  0.00000000000E+00  0.00000000000E+00  0.35740347158E-01  0.35744000000E-01  0.51099999109E-03 0. -1.
       11   -1    0    0    0    0 -0.00000000000E+00 -0.00000000000E+00 -0.35740347158E-01  0.35744000000E-01  0.51099999109E-03 0.  1.
       22    1    1    2    0    0  0.28759012271E-02  0.74241884387E-02 -0.34838831826E-01  0.35737005818E-01  0.00000000000E+00 0.  1.
  9000001    1    1    2    0    0 -0.28759012271E-02 -0.74241884387E-02  0.34838831826E-01  0.35750994182E-01  0.10000000475E-02 0. -1.
</event>
<event>
 4   0  0.2441219E-02  0.9118800E+02  0.7818609E-02  0.1379984E+01
      -11   -1    0    0    0    0  0.00000000000E+00  0.00000000000E+00  0.35740347158E-01  0.35744000000E-01  0.51099999109E-03 0. -1.
       11   -1    0    0    0    0 -0.00000000000E+00 -0.00000000000E+00 -0.35740347158E-01  0.35744000000E-01  0.51099999109E-03 0.  1.
       22    1    1    2    0    0  0.16646838133E-01 -0.12043446691E-01  0.29239900082E-01  0.35737005818E-01  0.00000000000E+00 0. -1.
  9000001    1    1    2    0    0 -0.16646838133E-01  0.12043446691E-01 -0.29239900082E-01  0.35750994182E-01  0.10000000475E-02 0.  1.
</event>
<event>
 4   0  0.2441219E-02  0.9118800E+02  0.7818609E-02  0.1379984E+01
      -11   -1    0    0    0    0  0.00000000000E+00  0.00000000000E+00  0.35740347158E-01  0.35744000000E-01  0.51099999109E-03 0. -1.
       11   -1    0    0    0    0 -0.00000000000E+00 -0.00000000000E+00 -0.35740347158E-01  0.35744000000E-01  0.51099999109E-03 0.  1.
       22    1    1    2    0    0  0.13503967050E-01 -0.57247343504E-02  0.32588400933E-01  0.35737005818E-01  0.00000000000E+00 0. -1.
  9000001    1    1    2    0    0 -0.13503967050E-01  0.57247343504E-02 -0.32588400933E-01  0.35750994182E-01  0.10000000475E-02 0.  1.
</event>
<event>
 4   0  0.2441219E-02  0.9118800E+02  0.7818609E-02  0.1379984E+01
      -11   -1    0    0    0    0  0.00000000000E+00  0.00000000000E+00  0.35740347158E-01  0.35744000000E-01  0.51099999109E-03 0.  1.
       11   -1    0    0    0    0 -0.00000000000E+00 -0.00000000000E+00 -0.35740347158E-01  0.35744000000E-01  0.51099999109E-03 0. -1.
       22    1    1    2    0    0  0.27062264724E-01 -0.45734017716E-02 -0.22887800443E-01  0.35737005818E-01  0.00000000000E+00 0. -1.
  9000001    1    1    2    0    0 -0.27062264724E-01  0.45734017716E-02  0.22887800443E-01  0.35750994182E-01  0.10000000475E-02 0.  1.
</event>
<event>
 4   0  0.2441219E-02  0.9118800E+02  0.7818609E-02  0.1379984E+01
      -11   -1    0    0    0    0  0.00000000000E+00  0.00000000000E+00  0.35740347158E-01  0.35744000000E-01  0.51099999109E-03 0.  1.
       11   -1    0    0    0    0 -0.00000000000E+00 -0.00000000000E+00 -0.35740347158E-01  0.35744000000E-01  0.51099999109E-03 0. -1.
       22    1    1    2    0    0 -0.32499489782E-04  0.53879212015E-02 -0.35328498889E-01  0.35737005818E-01  0.00000000000E+00 0. -1.
  9000001    1    1    2    0    0  0.32499489782E-04 -0.53879212015E-02  0.35328498889E-01  0.35750994182E-01  0.10000000475E-02 0.  1.
</event>
<event>
 4   0  0.2441219E-02  0.9118800E+02  0.7818609E-02  0.1379984E+01
      -11   -1    0    0    0    0  0.00000000000E+00  0.00000000000E+00  0.35740347158E-01  0.35744000000E-01  0.51099999109E-03 0.  1.
       11   -1    0    0    0    0 -0.00000000000E+00 -0.00000000000E+00 -0.35740347158E-01  0.35744000000E-01  0.51099999109E-03 0. -1.
       22    1    1    2    0    0  0.80841046137E-03 -0.80481528229E-02  0.34809586230E-01  0.35737005818E-01  0.00000000000E+00 0.  1.
  9000001    1    1    2    0    0 -0.80841046137E-03  0.80481528229E-02 -0.34809586230E-01  0.35750994182E-01  0.10000000475E-02 0. -1.
</event>
<event>
 4   0  0.2441219E-02  0.9118800E+02  0.7818609E-02  0.1379984E+01
      -11   -1    0    0    0    0  0.00000000000E+00  0.00000000000E+00  0.35740347158E-01  0.35744000000E-01  0.51099999109E-03 0.  1.
       11   -1    0    0    0    0 -0.00000000000E+00 -0.00000000000E+00 -0.35740347158E-01  0.35744000000E-01  0.51099999109E-03 0. -1.
       22    1    1    2    0    0  0.12189181742E-01 -0.19815677285E-01 -0.27127409885E-01  0.35737005818E-01  0.00000000000E+00 0. -1.
  9000001    1    1    2    0    0 -0.12189181742E-01  0.19815677285E-01  0.27127409885E-01  0.35750994182E-01  0.10000000475E-02 0.  1.
</event>
<event>
 4   0  0.2441219E-02  0.9118800E+02  0.7818609E-02  0.1379984E+01
      -11   -1    0    0    0    0  0.00000000000E+00  0.00000000000E+00  0.35740347158E-01  0.35744000000E-01  0.51099999109E-03 0.  1.
       11   -1    0    0    0    0 -0.00000000000E+00 -0.00000000000E+00 -0.35740347158E-01  0.35744000000E-01  0.51099999109E-03 0. -1.
       22    1    1    2    0    0  0.64756391923E-02 -0.25075685446E-02  0.35055838058E-01  0.35737005818E-01  0.00000000000E+00 0.  1.
  9000001    1    1    2    0    0 -0.64756391923E-02  0.25075685446E-02 -0.35055838058E-01  0.35750994182E-01  0.10000000475E-02 0. -1.
</event>
<event>
 4   0  0.2441219E-02  0.9118800E+02  0.7818609E-02  0.1379984E+01
      -11   -1    0    0    0    0  0.00000000000E+00  0.00000000000E+00  0.35740347158E-01  0.35744000000E-01  0.51099999109E-03 0.  1.
       11   -1    0    0    0    0 -0.00000000000E+00 -0.00000000000E+00 -0.35740347158E-01  0.35744000000E-01  0.51099999109E-03 0. -1.
       22    1    1    2    0    0 -0.14187155742E-01  0.32792088956E-01 -0.73287018858E-03  0.35737005818E-01  0.00000000000E+00 0.  1.
  9000001    1    1    2    0    0  0.14187155742E-01 -0.32792088956E-01  0.73287018858E-03  0.35750994182E-01  0.10000000475E-02 0. -1.
</event>
<event>
 4   0  0.2441219E-02  0.9118800E+02  0.7818609E-02  0.1379984E+01
      -11   -1    0    0    0    0  0.00000000000E+00  0.00000000000E+00  0.35740347158E-01  0.35744000000E-01  0.51099999109E-03 0.  1.
       11   -1    0    0    0    0 -0.00000000000E+00 -0.00000000000E+00 -0.35740347158E-01  0.35744000000E-01  0.51099999109E-03 0. -1.
       22    1    1    2    0    0 -0.67314999583E-02 -0.29596845701E-02  0.34972285605E-01  0.35737005818E-01  0.00000000000E+00 0.  1.
  9000001    1    1    2    0    0  0.67314999583E-02  0.29596845701E-02 -0.34972285605E-01  0.35750994182E-01  0.10000000475E-02 0. -1.
</event>
<event>
 4   0  0.2441219E-02  0.9118800E+02  0.7818609E-02  0.1379984E+01
      -11   -1    0    0    0    0  0.00000000000E+00  0.00000000000E+00  0.35740347158E-01  0.35744000000E-01  0.51099999109E-03 0.  1.
       11   -1    0    0    0    0 -0.00000000000E+00 -0.00000000000E+00 -0.35740347158E-01  0.35744000000E-01  0.51099999109E-03 0. -1.
       22    1    1    2    0    0  0.54973526029E-02 -0.26652318698E-02  0.35210924985E-01  0.35737005818E-01  0.00000000000E+00 0.  1.
  9000001    1    1    2    0    0 -0.54973526029E-02  0.26652318698E-02 -0.35210924985E-01  0.35750994182E-01  0.10000000475E-02 0. -1.
</event>
<event>
 4   0  0.2441219E-02  0.9118800E+02  0.7818609E-02  0.1379984E+01
      -11   -1    0    0    0    0  0.00000000000E+00  0.00000000000E+00  0.35740347158E-01  0.35744000000E-01  0.51099999109E-03 0.  1.
       11   -1    0    0    0    0 -0.00000000000E+00 -0.00000000000E+00 -0.35740347158E-01  0.35744000000E-01  0.51099999109E-03 0. -1.
       22    1    1    2    0    0  0.37923548448E-02 -0.27196094486E-03  0.35534176040E-01  0.35737005818E-01  0.00000000000E+00 0.  1.
  9000001    1    1    2    0    0 -0.37923548448E-02  0.27196094486E-03 -0.35534176040E-01  0.35750994182E-01  0.10000000475E-02 0. -1.
</event>
<event>
 4   0  0.2441219E-02  0.9118800E+02  0.7818609E-02  0.1379984E+01
      -11   -1    0    0    0    0  0.00000000000E+00  0.00000000000E+00  0.35740347158E-01  0.35744000000E-01  0.51099999109E-03 0. -1.
       11   -1    0    0    0    0 -0.00000000000E+00 -0.00000000000E+00 -0.35740347158E-01  0.35744000000E-01  0.51099999109E-03 0.  1.
       22    1    1    2    0    0 -0.89727990729E-02  0.36082960264E-02  0.34403526875E-01  0.35737005818E-01  0.00000000000E+00 0. -1.
  9000001    1    1    2    0    0  0.89727990729E-02 -0.36082960264E-02 -0.34403526875E-01  0.35750994182E-01  0.10000000475E-02 0.  1.
</event>
<event>
 4   0  0.2441219E-02  0.9118800E+02  0.7818609E-02  0.1379984E+01
      -11   -1    0    0    0    0  0.00000000000E+00  0.00000000000E+00  0.35740347158E-01  0.35744000000E-01  0.51099999109E-03 0.  1.
       11   -1    0    0    0    0 -0.00000000000E+00 -0.00000000000E+00 -0.35740347158E-01  0.35744000000E-01  0.51099999109E-03 0. -1.
       22    1    1    2    0    0 -0.49000327451E-02  0.43560981962E-02 -0.35130437977E-01  0.35737005818E-01  0.00000000000E+00 0. -1.
  9000001    1    1    2    0    0  0.49000327451E-02 -0.43560981962E-02  0.35130437977E-01  0.35750994182E-01  0.10000000475E-02 0.  1.
</event>
<event>
 4   0  0.2441219E-02  0.9118800E+02  0.7818609E-02  0.1379984E+01
      -11   -1    0    0    0    0  0.00000000000E+00  0.00000000000E+00  0.35740347158E-01  0.35744000000E-01  0.51099999109E-03 0.  1.
       11   -1    0    0    0    0 -0.00000000000E+00 -0.00000000000E+00 -0.35740347158E-01  0.35744000000E-01  0.51099999109E-03 0. -1.
       22    1    1    2    0    0  0.57959655460E-02  0.54540148029E-02 -0.34839547798E-01  0.35737005818E-01  0.00000000000E+00 0. -1.
  9000001    1    1    2    0    0 -0.57959655460E-02 -0.54540148029E-02  0.34839547798E-01  0.35750994182E-01  0.10000000475E-02 0.  1.
</event>
<event>
 4   0  0.2441219E-02  0.9118800E+02  0.7818609E-02  0.1379984E+01
      -11   -1    0    0    0    0  0.00000000000E+00  0.00000000000E+00  0.35740347158E-01  0.35744000000E-01  0.51099999109E-03 0.  1.
       11   -1    0    0    0    0 -0.00000000000E+00 -0.00000000000E+00 -0.35740347158E-01  0.35744000000E-01  0.51099999109E-03 0. -1.
       22    1    1    2    0    0  0.26275748240E-03 -0.15259636501E-01 -0.32314207978E-01  0.35737005818E-01  0.00000000000E+00 0. -1.
  9000001    1    1    2    0    0 -0.26275748240E-03  0.15259636501E-01  0.32314207978E-01  0.35750994182E-01  0.10000000475E-02 0.  1.
</event>
<event>
 4   0  0.2441219E-02  0.9118800E+02  0.7818609E-02  0.1379984E+01
      -11   -1    0    0    0    0  0.00000000000E+00  0.00000000000E+00  0.35740347158E-01  0.35744000000E-01  0.51099999109E-03 0.  1.
       11   -1    0    0    0    0 -0.00000000000E+00 -0.00000000000E+00 -0.35740347158E-01  0.35744000000E-01  0.51099999109E-03 0. -1.
       22    1    1    2    0    0  0.42574166383E-02 -0.35000431407E-02  0.35309456049E-01  0.35737005818E-01  0.00000000000E+00 0.  1.
  9000001    1    1    2    0    0 -0.42574166383E-02  0.35000431407E-02 -0.35309456049E-01  0.35750994182E-01  0.10000000475E-02 0. -1.
</event>
<event>
 4   0  0.2441219E-02  0.9118800E+02  0.7818609E-02  0.1379984E+01
      -11   -1    0    0    0    0  0.00000000000E+00  0.00000000000E+00  0.35740347158E-01  0.35744000000E-01  0.51099999109E-03 0.  1.
       11   -1    0    0    0    0 -0.00000000000E+00 -0.00000000000E+00 -0.35740347158E-01  0.35744000000E-01  0.51099999109E-03 0. -1.
       22    1    1    2    0    0 -0.20246158718E-01  0.21409880236E-01  0.20219883044E-01  0.35737005818E-01  0.00000000000E+00 0.  1.
  9000001    1    1    2    0    0  0.20246158718E-01 -0.21409880236E-01 -0.20219883044E-01  0.35750994182E-01  0.10000000475E-02 0. -1.
</event>
<event>
 4   0  0.2441219E-02  0.9118800E+02  0.7818609E-02  0.1379984E+01
      -11   -1    0    0    0    0  0.00000000000E+00  0.00000000000E+00  0.35740347158E-01  0.35744000000E-01  0.51099999109E-03 0. -1.
       11   -1    0    0    0    0 -0.00000000000E+00 -0.00000000000E+00 -0.35740347158E-01  0.35744000000E-01  0.51099999109E-03 0.  1.
       22    1    1    2    0    0  0.20284048845E-01  0.24043659350E-01  0.16958578725E-01  0.35737005818E-01  0.00000000000E+00 0. -1.
  9000001    1    1    2    0    0 -0.20284048845E-01 -0.24043659350E-01 -0.16958578725E-01  0.35750994182E-01  0.10000000475E-02 0.  1.
</event>
<event>
 4   0  0.2441219E-02  0.9118800E+02  0.7818609E-02  0.1379984E+01
      -11   -1    0    0    0    0  0.00000000000E+00  0.00000000000E+00  0.35740347158E-01  0.35744000000E-01  0.51099999109E-03 0. -1.
       11   -1    0    0    0    0 -0.00000000000E+00 -0.00000000000E+00 -0.35740347158E-01  0.35744000000E-01  0.51099999109E-03 0.  1.
       22    1    1    2    0    0  0.44465362383E-02 -0.12067883658E-01  0.33342586648E-01  0.35737005818E-01  0.00000000000E+00 0. -1.
  9000001    1    1    2    0    0 -0.44465362383E-02  0.12067883658E-01 -0.33342586648E-01  0.35750994182E-01  0.10000000475E-02 0.  1.
</event>
<event>
 4   0  0.2441219E-02  0.9118800E+02  0.7818609E-02  0.1379984E+01
      -11   -1    0    0    0    0  0.00000000000E+00  0.00000000000E+00  0.35740347158E-01  0.35744000000E-01  0.51099999109E-03 0.  1.
       11   -1    0    0    0    0 -0.00000000000E+00 -0.00000000000E+00 -0.35740347158E-01  0.35744000000E-01  0.51099999109E-03 0. -1.
       22    1    1    2    0    0 -0.62448168173E-02  0.10556710721E-01 -0.33566228661E-01  0.35737005818E-01  0.00000000000E+00 0. -1.
  9000001    1    1    2    0    0  0.62448168173E-02 -0.10556710721E-01  0.33566228661E-01  0.35750994182E-01  0.10000000475E-02 0.  1.
</event>
<event>
 4   0  0.2441219E-02  0.9118800E+02  0.7818609E-02  0.1379984E+01
      -11   -1    0    0    0    0  0.00000000000E+00  0.00000000000E+00  0.35740347158E-01  0.35744000000E-01  0.51099999109E-03 0. -1.
       11   -1    0    0    0    0 -0.00000000000E+00 -0.00000000000E+00 -0.35740347158E-01  0.35744000000E-01  0.51099999109E-03 0.  1.
       22    1    1    2    0    0  0.14725956321E-01 -0.10312719961E-01  0.30885718420E-01  0.35737005818E-01  0.00000000000E+00 0. -1.
  9000001    1    1    2    0    0 -0.14725956321E-01  0.10312719961E-01 -0.30885718420E-01  0.35750994182E-01  0.10000000475E-02 0.  1.
</event>
<event>
 4   0  0.2441219E-02  0.9118800E+02  0.7818609E-02  0.1379984E+01
      -11   -1    0    0    0    0  0.00000000000E+00  0.00000000000E+00  0.35740347158E-01  0.35744000000E-01  0.51099999109E-03 0.  1.
       11   -1    0    0    0    0 -0.00000000000E+00 -0.00000000000E+00 -0.35740347158E-01  0.35744000000E-01  0.51099999109E-03 0. -1.
       22    1    1    2    0    0  0.64779683434E-02 -0.56641024594E-02 -0.34685551089E-01  0.35737005818E-01  0.00000000000E+00 0. -1.
  9000001    1    1    2    0    0 -0.64779683434E-02  0.56641024594E-02  0.34685551089E-01  0.35750994182E-01  0.10000000475E-02 0.  1.
</event>
<event>
 4   0  0.2441219E-02  0.9118800E+02  0.7818609E-02  0.1379984E+01
      -11   -1    0    0    0    0  0.00000000000E+00  0.00000000000E+00  0.35740347158E-01  0.35744000000E-01  0.51099999109E-03 0. -1.
       11   -1    0    0    0    0 -0.00000000000E+00 -0.00000000000E+00 -0.35740347158E-01  0.35744000000E-01  0.51099999109E-03 0.  1.
       22    1    1    2    0    0  0.26000804294E-02 -0.13414811582E-01 -0.33021447528E-01  0.35737005818E-01  0.00000000000E+00 0.  1.
  9000001    1    1    2    0    0 -0.26000804294E-02  0.13414811582E-01  0.33021447528E-01  0.35750994182E-01  0.10000000475E-02 0. -1.
</event>
<event>
 4   0  0.2441219E-02  0.9118800E+02  0.7818609E-02  0.1379984E+01
      -11   -1    0    0    0    0  0.00000000000E+00  0.00000000000E+00  0.35740347158E-01  0.35744000000E-01  0.51099999109E-03 0. -1.
       11   -1    0    0    0    0 -0.00000000000E+00 -0.00000000000E+00 -0.35740347158E-01  0.35744000000E-01  0.51099999109E-03 0.  1.
       22    1    1    2    0    0 -0.64978185988E-02 -0.21487578330E-02  0.35075558130E-01  0.35737005818E-01  0.00000000000E+00 0. -1.
  9000001    1    1    2    0    0  0.64978185988E-02  0.21487578330E-02 -0.35075558130E-01  0.35750994182E-01  0.10000000475E-02 0.  1.
</event>
<event>
 4   0  0.2441219E-02  0.9118800E+02  0.7818609E-02  0.1379984E+01
      -11   -1    0    0    0    0  0.00000000000E+00  0.00000000000E+00  0.35740347158E-01  0.35744000000E-01  0.51099999109E-03 0. -1.
       11   -1    0    0    0    0 -0.00000000000E+00 -0.00000000000E+00 -0.35740347158E-01  0.35744000000E-01  0.51099999109E-03 0.  1.
       22    1    1    2    0    0 -0.46127643248E-02 -0.11750177113E-01 -0.33433356517E-01  0.35737005818E-01  0.00000000000E+00 0.  1.
  9000001    1    1    2    0    0  0.46127643248E-02  0.11750177113E-01  0.33433356517E-01  0.35750994182E-01  0.10000000475E-02 0. -1.
</event>
<event>
 4   0  0.2441219E-02  0.9118800E+02  0.7818609E-02  0.1379984E+01
      -11   -1    0    0    0    0  0.00000000000E+00  0.00000000000E+00  0.35740347158E-01  0.35744000000E-01  0.51099999109E-03 0.  1.
       11   -1    0    0    0    0 -0.00000000000E+00 -0.00000000000E+00 -0.35740347158E-01  0.35744000000E-01  0.51099999109E-03 0. -1.
       22    1    1    2    0    0 -0.11445789186E-01 -0.39359120110E-02 -0.33624932586E-01  0.35737005818E-01  0.00000000000E+00 0. -1.
  9000001    1    1    2    0    0  0.11445789186E-01  0.39359120110E-02  0.33624932586E-01  0.35750994182E-01  0.10000000475E-02 0.  1.
</event>
<event>
 4   0  0.2441219E-02  0.9118800E+02  0.7818609E-02  0.1379984E+01
      -11   -1    0    0    0    0  0.00000000000E+00  0.00000000000E+00  0.35740347158E-01  0.35744000000E-01  0.51099999109E-03 0. -1.
       11   -1    0    0    0    0 -0.00000000000E+00 -0.00000000000E+00 -0.35740347158E-01  0.35744000000E-01  0.51099999109E-03 0.  1.
       22    1    1    2    0    0 -0.96363511981E-02 -0.14340136803E-01 -0.31283139180E-01  0.35737005818E-01  0.00000000000E+00 0.  1.
  9000001    1    1    2    0    0  0.96363511981E-02  0.14340136803E-01  0.31283139180E-01  0.35750994182E-01  0.10000000475E-02 0. -1.
</event>
<event>
 4   0  0.2441219E-02  0.9118800E+02  0.7818609E-02  0.1379984E+01
      -11   -1    0    0    0    0  0.00000000000E+00  0.00000000000E+00  0.35740347158E-01  0.35744000000E-01  0.51099999109E-03 0.  1.
       11   -1    0    0    0    0 -0.00000000000E+00 -0.00000000000E+00 -0.35740347158E-01  0.35744000000E-01  0.51099999109E-03 0. -1.
       22    1    1    2    0    0 -0.97548681799E-03  0.32535592790E-02 -0.35575221185E-01  0.35737005818E-01  0.00000000000E+00 0. -1.
  9000001    1    1    2    0    0  0.97548681799E-03 -0.32535592790E-02  0.35575221185E-01  0.35750994182E-01  0.10000000475E-02 0.  1.
</event>
<event>
 4   0  0.2441219E-02  0.9118800E+02  0.7818609E-02  0.1379984E+01
      -11   -1    0    0    0    0  0.00000000000E+00  0.00000000000E+00  0.35740347158E-01  0.35744000000E-01  0.51099999109E-03 0.  1.
       11   -1    0    0    0    0 -0.00000000000E+00 -0.00000000000E+00 -0.35740347158E-01  0.35744000000E-01  0.51099999109E-03 0. -1.
       22    1    1    2    0    0 -0.59942561001E-02  0.14052789659E-01  0.32306680137E-01  0.35737005818E-01  0.00000000000E+00 0.  1.
  9000001    1    1    2    0    0  0.59942561001E-02 -0.14052789659E-01 -0.32306680137E-01  0.35750994182E-01  0.10000000475E-02 0. -1.
</event>
<event>
 4   0  0.2441219E-02  0.9118800E+02  0.7818609E-02  0.1379984E+01
      -11   -1    0    0    0    0  0.00000000000E+00  0.00000000000E+00  0.35740347158E-01  0.35744000000E-01  0.51099999109E-03 0. -1.
       11   -1    0    0    0    0 -0.00000000000E+00 -0.00000000000E+00 -0.35740347158E-01  0.35744000000E-01  0.51099999109E-03 0.  1.
       22    1    1    2    0    0  0.18161114764E-01  0.26267873762E-01 -0.16040770038E-01  0.35737005818E-01  0.00000000000E+00 0.  1.
  9000001    1    1    2    0    0 -0.18161114764E-01 -0.26267873762E-01  0.16040770038E-01  0.35750994182E-01  0.10000000475E-02 0. -1.
</event>
<event>
 4   0  0.2441219E-02  0.9118800E+02  0.7818609E-02  0.1379984E+01
      -11   -1    0    0    0    0  0.00000000000E+00  0.00000000000E+00  0.35740347158E-01  0.35744000000E-01  0.51099999109E-03 0. -1.
       11   -1    0    0    0    0 -0.00000000000E+00 -0.00000000000E+00 -0.35740347158E-01  0.35744000000E-01  0.51099999109E-03 0.  1.
       22    1    1    2    0    0  0.16260609748E-02 -0.49482658930E-02  0.35355398106E-01  0.35737005818E-01  0.00000000000E+00 0. -1.
  9000001    1    1    2    0    0 -0.16260609748E-02  0.49482658930E-02 -0.35355398106E-01  0.35750994182E-01  0.10000000475E-02 0.  1.
</event>
<event>
 4   0  0.2441219E-02  0.9118800E+02  0.7818609E-02  0.1379984E+01
      -11   -1    0    0    0    0  0.00000000000E+00  0.00000000000E+00  0.35740347158E-01  0.35744000000E-01  0.51099999109E-03 0. -1.
       11   -1    0    0    0    0 -0.00000000000E+00 -0.00000000000E+00 -0.35740347158E-01  0.35744000000E-01  0.51099999109E-03 0.  1.
       22    1    1    2    0    0  0.22108973685E-01  0.53205172102E-02 -0.27568441452E-01  0.35737005818E-01  0.00000000000E+00 0.  1.
  9000001    1    1    2    0    0 -0.22108973685E-01 -0.53205172102E-02  0.27568441452E-01  0.35750994182E-01  0.10000000475E-02 0. -1.
</event>
<event>
 4   0  0.2441219E-02  0.9118800E+02  0.7818609E-02  0.1379984E+01
      -11   -1    0    0    0    0  0.00000000000E+00  0.00000000000E+00  0.35740347158E-01  0.35744000000E-01  0.51099999109E-03 0. -1.
       11   -1    0    0    0    0 -0.00000000000E+00 -0.00000000000E+00 -0.35740347158E-01  0.35744000000E-01  0.51099999109E-03 0.  1.
       22    1    1    2    0    0 -0.12820538263E-01  0.14532998192E-01  0.30025977870E-01  0.35737005818E-01  0.00000000000E+00 0. -1.
  9000001    1    1    2    0    0  0.12820538263E-01 -0.14532998192E-01 -0.30025977870E-01  0.35750994182E-01  0.10000000475E-02 0.  1.
</event>
<event>
 4   0  0.2441219E-02  0.9118800E+02  0.7818609E-02  0.1379984E+01
      -11   -1    0    0    0    0  0.00000000000E+00  0.00000000000E+00  0.35740347158E-01  0.35744000000E-01  0.51099999109E-03 0.  1.
       11   -1    0    0    0    0 -0.00000000000E+00 -0.00000000000E+00 -0.35740347158E-01  0.35744000000E-01  0.51099999109E-03 0. -1.
       22    1    1    2    0    0 -0.72065923002E-02 -0.15126247741E-02 -0.34970138384E-01  0.35737005818E-01  0.00000000000E+00 0. -1.
  9000001    1    1    2    0    0  0.72065923002E-02  0.15126247741E-02  0.34970138384E-01  0.35750994182E-01  0.10000000475E-02 0.  1.
</event>
<event>
 4   0  0.2441219E-02  0.9118800E+02  0.7818609E-02  0.1379984E+01
      -11   -1    0    0    0    0  0.00000000000E+00  0.00000000000E+00  0.35740347158E-01  0.35744000000E-01  0.51099999109E-03 0.  1.
       11   -1    0    0    0    0 -0.00000000000E+00 -0.00000000000E+00 -0.35740347158E-01  0.35744000000E-01  0.51099999109E-03 0. -1.
       22    1    1    2    0    0 -0.70053259576E-03  0.66966363642E-02  0.35096978508E-01  0.35737005818E-01  0.00000000000E+00 0.  1.
  9000001    1    1    2    0    0  0.70053259576E-03 -0.66966363642E-02 -0.35096978508E-01  0.35750994182E-01  0.10000000475E-02 0. -1.
</event>
<event>
 4   0  0.2441219E-02  0.9118800E+02  0.7818609E-02  0.1379984E+01
      -11   -1    0    0    0    0  0.00000000000E+00  0.00000000000E+00  0.35740347158E-01  0.35744000000E-01  0.51099999109E-03 0.  1.
       11   -1    0    0    0    0 -0.00000000000E+00 -0.00000000000E+00 -0.35740347158E-01  0.35744000000E-01  0.51099999109E-03 0. -1.
       22    1    1    2    0    0  0.12369116719E-01  0.35095608384E-02 -0.33343987752E-01  0.35737005818E-01  0.00000000000E+00 0. -1.
  9000001    1    1    2    0    0 -0.12369116719E-01 -0.35095608384E-02  0.33343987752E-01  0.35750994182E-01  0.10000000475E-02 0.  1.
</event>
<event>
 4   0  0.2441219E-02  0.9118800E+02  0.7818609E-02  0.1379984E+01
      -11   -1    0    0    0    0  0.00000000000E+00  0.00000000000E+00  0.35740347158E-01  0.35744000000E-01  0.51099999109E-03 0. -1.
       11   -1    0    0    0    0 -0.00000000000E+00 -0.00000000000E+00 -0.35740347158E-01  0.35744000000E-01  0.51099999109E-03 0.  1.
       22    1    1    2    0    0 -0.76268935599E-02 -0.11316219969E-01 -0.33028885012E-01  0.35737005818E-01  0.00000000000E+00 0.  1.
  9000001    1    1    2    0    0  0.76268935599E-02  0.11316219969E-01  0.33028885012E-01  0.35750994182E-01  0.10000000475E-02 0. -1.
</event>
<event>
 4   0  0.2441219E-02  0.9118800E+02  0.7818609E-02  0.1379984E+01
      -11   -1    0    0    0    0  0.00000000000E+00  0.00000000000E+00  0.35740347158E-01  0.35744000000E-01  0.51099999109E-03 0.  1.
       11   -1    0    0    0    0 -0.00000000000E+00 -0.00000000000E+00 -0.35740347158E-01  0.35744000000E-01  0.51099999109E-03 0. -1.
       22    1    1    2    0    0 -0.68397958398E-02  0.13569489499E-01  0.32345320101E-01  0.35737005818E-01  0.00000000000E+00 0.  1.
  9000001    1    1    2    0    0  0.68397958398E-02 -0.13569489499E-01 -0.32345320101E-01  0.35750994182E-01  0.10000000475E-02 0. -1.
</event>
<event>
 4   0  0.2441219E-02  0.9118800E+02  0.7818609E-02  0.1379984E+01
      -11   -1    0    0    0    0  0.00000000000E+00  0.00000000000E+00  0.35740347158E-01  0.35744000000E-01  0.51099999109E-03 0.  1.
       11   -1    0    0    0    0 -0.00000000000E+00 -0.00000000000E+00 -0.35740347158E-01  0.35744000000E-01  0.51099999109E-03 0. -1.
       22    1    1    2    0    0  0.17023703913E-01 -0.15044074157E-04  0.31421757806E-01  0.35737005818E-01  0.00000000000E+00 0.  1.
  9000001    1    1    2    0    0 -0.17023703913E-01  0.15044074157E-04 -0.31421757806E-01  0.35750994182E-01  0.10000000475E-02 0. -1.
</event>
<event>
 4   0  0.2441219E-02  0.9118800E+02  0.7818609E-02  0.1379984E+01
      -11   -1    0    0    0    0  0.00000000000E+00  0.00000000000E+00  0.35740347158E-01  0.35744000000E-01  0.51099999109E-03 0.  1.
       11   -1    0    0    0    0 -0.00000000000E+00 -0.00000000000E+00 -0.35740347158E-01  0.35744000000E-01  0.51099999109E-03 0. -1.
       22    1    1    2    0    0  0.17223188445E-01  0.26635707019E-01  0.16463124742E-01  0.35737005818E-01  0.00000000000E+00 0.  1.
  9000001    1    1    2    0    0 -0.17223188445E-01 -0.26635707019E-01 -0.16463124742E-01  0.35750994182E-01  0.10000000475E-02 0. -1.
</event>
<event>
 4   0  0.2441219E-02  0.9118800E+02  0.7818609E-02  0.1379984E+01
      -11   -1    0    0    0    0  0.00000000000E+00  0.00000000000E+00  0.35740347158E-01  0.35744000000E-01  0.51099999109E-03 0.  1.
       11   -1    0    0    0    0 -0.00000000000E+00 -0.00000000000E+00 -0.35740347158E-01  0.35744000000E-01  0.51099999109E-03 0. -1.
       22    1    1    2    0    0  0.94932167501E-02  0.11896099494E-02  0.34432502796E-01  0.35737005818E-01  0.00000000000E+00 0.  1.
  9000001    1    1    2    0    0 -0.94932167501E-02 -0.11896099494E-02 -0.34432502796E-01  0.35750994182E-01  0.10000000475E-02 0. -1.
</event>
<event>
 4   0  0.2441219E-02  0.9118800E+02  0.7818609E-02  0.1379984E+01
      -11   -1    0    0    0    0  0.00000000000E+00  0.00000000000E+00  0.35740347158E-01  0.35744000000E-01  0.51099999109E-03 0.  1.
       11   -1    0    0    0    0 -0.00000000000E+00 -0.00000000000E+00 -0.35740347158E-01  0.35744000000E-01  0.51099999109E-03 0. -1.
       22    1    1    2    0    0 -0.18339246309E-01  0.13761439659E-01  0.27412194516E-01  0.35737005818E-01  0.00000000000E+00 0.  1.
  9000001    1    1    2    0    0  0.18339246309E-01 -0.13761439659E-01 -0.27412194516E-01  0.35750994182E-01  0.10000000475E-02 0. -1.
</event>
<event>
 4   0  0.2441219E-02  0.9118800E+02  0.7818609E-02  0.1379984E+01
      -11   -1    0    0    0    0  0.00000000000E+00  0.00000000000E+00  0.35740347158E-01  0.35744000000E-01  0.51099999109E-03 0.  1.
       11   -1    0    0    0    0 -0.00000000000E+00 -0.00000000000E+00 -0.35740347158E-01  0.35744000000E-01  0.51099999109E-03 0. -1.
       22    1    1    2    0    0 -0.12694006704E-01 -0.30636970892E-01 -0.13318100212E-01  0.35737005818E-01  0.00000000000E+00 0. -1.
  9000001    1    1    2    0    0  0.12694006704E-01  0.30636970892E-01  0.13318100212E-01  0.35750994182E-01  0.10000000475E-02 0.  1.
</event>
<event>
 4   0  0.2441219E-02  0.9118800E+02  0.7818609E-02  0.1379984E+01
      -11   -1    0    0    0    0  0.00000000000E+00  0.00000000000E+00  0.35740347158E-01  0.35744000000E-01  0.51099999109E-03 0. -1.
       11   -1    0    0    0    0 -0.00000000000E+00 -0.00000000000E+00 -0.35740347158E-01  0.35744000000E-01  0.51099999109E-03 0.  1.
       22    1    1    2    0    0 -0.74759202778E-02 -0.11059438757E-02  0.34928800280E-01  0.35737005818E-01  0.00000000000E+00 0. -1.
  9000001    1    1    2    0    0  0.74759202778E-02  0.11059438757E-02 -0.34928800280E-01  0.35750994182E-01  0.10000000475E-02 0.  1.
</event>
<event>
 4   0  0.2441219E-02  0.9118800E+02  0.7818609E-02  0.1379984E+01
      -11   -1    0    0    0    0  0.00000000000E+00  0.00000000000E+00  0.35740347158E-01  0.35744000000E-01  0.51099999109E-03 0. -1.
       11   -1    0    0    0    0 -0.00000000000E+00 -0.00000000000E+00 -0.35740347158E-01  0.35744000000E-01  0.51099999109E-03 0.  1.
       22    1    1    2    0    0 -0.36578502992E-02 -0.46452498028E-02  0.35244508371E-01  0.35737005818E-01  0.00000000000E+00 0. -1.
  9000001    1    1    2    0    0  0.36578502992E-02  0.46452498028E-02 -0.35244508371E-01  0.35750994182E-01  0.10000000475E-02 0.  1.
</event>
<event>
 4   0  0.2441219E-02  0.9118800E+02  0.7818609E-02  0.1379984E+01
      -11   -1    0    0    0    0  0.00000000000E+00  0.00000000000E+00  0.35740347158E-01  0.35744000000E-01  0.51099999109E-03 0. -1.
       11   -1    0    0    0    0 -0.00000000000E+00 -0.00000000000E+00 -0.35740347158E-01  0.35744000000E-01  0.51099999109E-03 0.  1.
       22    1    1    2    0    0  0.16897646223E-01  0.95136706065E-03  0.31475356038E-01  0.35737005818E-01  0.00000000000E+00 0. -1.
  9000001    1    1    2    0    0 -0.16897646223E-01 -0.95136706065E-03 -0.31475356038E-01  0.35750994182E-01  0.10000000475E-02 0.  1.
</event>
<event>
 4   0  0.2441219E-02  0.9118800E+02  0.7818609E-02  0.1379984E+01
      -11   -1    0    0    0    0  0.00000000000E+00  0.00000000000E+00  0.35740347158E-01  0.35744000000E-01  0.51099999109E-03 0.  1.
       11   -1    0    0    0    0 -0.00000000000E+00 -0.00000000000E+00 -0.35740347158E-01  0.35744000000E-01  0.51099999109E-03 0. -1.
       22    1    1    2    0    0  0.11035831336E-01  0.15211624134E-01 -0.30396554127E-01  0.35737005818E-01  0.00000000000E+00 0. -1.
  9000001    1    1    2    0    0 -0.11035831336E-01 -0.15211624134E-01  0.30396554127E-01  0.35750994182E-01  0.10000000475E-02 0.  1.
</event>
<event>
 4   0  0.2441219E-02  0.9118800E+02  0.7818609E-02  0.1379984E+01
      -11   -1    0    0    0    0  0.00000000000E+00  0.00000000000E+00  0.35740347158E-01  0.35744000000E-01  0.51099999109E-03 0. -1.
       11   -1    0    0    0    0 -0.00000000000E+00 -0.00000000000E+00 -0.35740347158E-01  0.35744000000E-01  0.51099999109E-03 0. -1.
       22    1    1    2    0    0 -0.43017344067E-02  0.10425173027E-01  0.33910830620E-01  0.35737005818E-01  0.00000000000E+00 0. -1.
  9000001    1    1    2    0    0  0.43017344067E-02 -0.10425173027E-01 -0.33910830620E-01  0.35750994182E-01  0.10000000475E-02 0. -1.
</event>
<event>
 4   0  0.2441219E-02  0.9118800E+02  0.7818609E-02  0.1379984E+01
      -11   -1    0    0    0    0  0.00000000000E+00  0.00000000000E+00  0.35740347158E-01  0.35744000000E-01  0.51099999109E-03 0.  1.
       11   -1    0    0    0    0 -0.00000000000E+00 -0.00000000000E+00 -0.35740347158E-01  0.35744000000E-01  0.51099999109E-03 0. -1.
       22    1    1    2    0    0  0.24288365487E-01 -0.10457138002E-01 -0.24038659523E-01  0.35737005818E-01  0.00000000000E+00 0. -1.
  9000001    1    1    2    0    0 -0.24288365487E-01  0.10457138002E-01  0.24038659523E-01  0.35750994182E-01  0.10000000475E-02 0.  1.
</event>
<event>
 4   0  0.2441219E-02  0.9118800E+02  0.7818609E-02  0.1379984E+01
      -11   -1    0    0    0    0  0.00000000000E+00  0.00000000000E+00  0.35740347158E-01  0.35744000000E-01  0.51099999109E-03 0. -1.
       11   -1    0    0    0    0 -0.00000000000E+00 -0.00000000000E+00 -0.35740347158E-01  0.35744000000E-01  0.51099999109E-03 0.  1.
       22    1    1    2    0    0 -0.70836319071E-02  0.12296331409E-01 -0.32798719148E-01  0.35737005818E-01  0.00000000000E+00 0.  1.
  9000001    1    1    2    0    0  0.70836319071E-02 -0.12296331409E-01  0.32798719148E-01  0.35750994182E-01  0.10000000475E-02 0. -1.
</event>
<event>
 4   0  0.2441219E-02  0.9118800E+02  0.7818609E-02  0.1379984E+01
      -11   -1    0    0    0    0  0.00000000000E+00  0.00000000000E+00  0.35740347158E-01  0.35744000000E-01  0.51099999109E-03 0. -1.
       11   -1    0    0    0    0 -0.00000000000E+00 -0.00000000000E+00 -0.35740347158E-01  0.35744000000E-01  0.51099999109E-03 0.  1.
       22    1    1    2    0    0 -0.31564448450E-02 -0.10082040121E-01 -0.34139755532E-01  0.35737005818E-01  0.00000000000E+00 0.  1.
  9000001    1    1    2    0    0  0.31564448450E-02  0.10082040121E-01  0.34139755532E-01  0.35750994182E-01  0.10000000475E-02 0. -1.
</event>
<event>
 4   0  0.2441219E-02  0.9118800E+02  0.7818609E-02  0.1379984E+01
      -11   -1    0    0    0    0  0.00000000000E+00  0.00000000000E+00  0.35740347158E-01  0.35744000000E-01  0.51099999109E-03 0.  1.
       11   -1    0    0    0    0 -0.00000000000E+00 -0.00000000000E+00 -0.35740347158E-01  0.35744000000E-01  0.51099999109E-03 0. -1.
       22    1    1    2    0    0 -0.92471195028E-02 -0.16250263842E-01 -0.30455759568E-01  0.35737005818E-01  0.00000000000E+00 0. -1.
  9000001    1    1    2    0    0  0.92471195028E-02  0.16250263842E-01  0.30455759568E-01  0.35750994182E-01  0.10000000475E-02 0.  1.
</event>
<event>
 4   0  0.2441219E-02  0.9118800E+02  0.7818609E-02  0.1379984E+01
      -11   -1    0    0    0    0  0.00000000000E+00  0.00000000000E+00  0.35740347158E-01  0.35744000000E-01  0.51099999109E-03 0.  1.
       11   -1    0    0    0    0 -0.00000000000E+00 -0.00000000000E+00 -0.35740347158E-01  0.35744000000E-01  0.51099999109E-03 0. -1.
       22    1    1    2    0    0  0.19922144824E-01  0.26638496072E-02  0.29549037814E-01  0.35737005818E-01  0.00000000000E+00 0.  1.
  9000001    1    1    2    0    0 -0.19922144824E-01 -0.26638496072E-02 -0.29549037814E-01  0.35750994182E-01  0.10000000475E-02 0. -1.
</event>
<event>
 4   0  0.2441219E-02  0.9118800E+02  0.7818609E-02  0.1379984E+01
      -11   -1    0    0    0    0  0.00000000000E+00  0.00000000000E+00  0.35740347158E-01  0.35744000000E-01  0.51099999109E-03 0.  1.
       11   -1    0    0    0    0 -0.00000000000E+00 -0.00000000000E+00 -0.35740347158E-01  0.35744000000E-01  0.51099999109E-03 0. -1.
       22    1    1    2    0    0 -0.10968611969E-01 -0.81705679819E-02  0.33016131742E-01  0.35737005818E-01  0.00000000000E+00 0.  1.
  9000001    1    1    2    0    0  0.10968611969E-01  0.81705679819E-02 -0.33016131742E-01  0.35750994182E-01  0.10000000475E-02 0. -1.
</event>
<event>
 4   0  0.2441219E-02  0.9118800E+02  0.7818609E-02  0.1379984E+01
      -11   -1    0    0    0    0  0.00000000000E+00  0.00000000000E+00  0.35740347158E-01  0.35744000000E-01  0.51099999109E-03 0.  1.
       11   -1    0    0    0    0 -0.00000000000E+00 -0.00000000000E+00 -0.35740347158E-01  0.35744000000E-01  0.51099999109E-03 0. -1.
       22    1    1    2    0    0  0.17968788359E-01  0.16122530357E-01  0.26349957204E-01  0.35737005818E-01  0.00000000000E+00 0.  1.
  9000001    1    1    2    0    0 -0.17968788359E-01 -0.16122530357E-01 -0.26349957204E-01  0.35750994182E-01  0.10000000475E-02 0. -1.
</event>
<event>
 4   0  0.2441219E-02  0.9118800E+02  0.7818609E-02  0.1379984E+01
      -11   -1    0    0    0    0  0.00000000000E+00  0.00000000000E+00  0.35740347158E-01  0.35744000000E-01  0.51099999109E-03 0.  1.
       11   -1    0    0    0    0 -0.00000000000E+00 -0.00000000000E+00 -0.35740347158E-01  0.35744000000E-01  0.51099999109E-03 0. -1.
       22    1    1    2    0    0  0.11596476876E-02  0.30892300824E-01  0.17929153687E-01  0.35737005818E-01  0.00000000000E+00 0.  1.
  9000001    1    1    2    0    0 -0.11596476876E-02 -0.30892300824E-01 -0.17929153687E-01  0.35750994182E-01  0.10000000475E-02 0. -1.
</event>
<event>
 4   0  0.2441219E-02  0.9118800E+02  0.7818609E-02  0.1379984E+01
      -11   -1    0    0    0    0  0.00000000000E+00  0.00000000000E+00  0.35740347158E-01  0.35744000000E-01  0.51099999109E-03 0. -1.
       11   -1    0    0    0    0 -0.00000000000E+00 -0.00000000000E+00 -0.35740347158E-01  0.35744000000E-01  0.51099999109E-03 0.  1.
       22    1    1    2    0    0  0.92158794963E-02 -0.19496721220E-01  0.28497000046E-01  0.35737005818E-01  0.00000000000E+00 0. -1.
  9000001    1    1    2    0    0 -0.92158794963E-02  0.19496721220E-01 -0.28497000046E-01  0.35750994182E-01  0.10000000475E-02 0.  1.
</event>
<event>
 4   0  0.2441219E-02  0.9118800E+02  0.7818609E-02  0.1379984E+01
      -11   -1    0    0    0    0  0.00000000000E+00  0.00000000000E+00  0.35740347158E-01  0.35744000000E-01  0.51099999109E-03 0. -1.
       11   -1    0    0    0    0 -0.00000000000E+00 -0.00000000000E+00 -0.35740347158E-01  0.35744000000E-01  0.51099999109E-03 0.  1.
       22    1    1    2    0    0  0.33524131856E-02 -0.14823575363E-02 -0.35548523554E-01  0.35737005818E-01  0.00000000000E+00 0.  1.
  9000001    1    1    2    0    0 -0.33524131856E-02  0.14823575363E-02  0.35548523554E-01  0.35750994182E-01  0.10000000475E-02 0. -1.
</event>
<event>
 4   0  0.2441219E-02  0.9118800E+02  0.7818609E-02  0.1379984E+01
      -11   -1    0    0    0    0  0.00000000000E+00  0.00000000000E+00  0.35740347158E-01  0.35744000000E-01  0.51099999109E-03 0.  1.
       11   -1    0    0    0    0 -0.00000000000E+00 -0.00000000000E+00 -0.35740347158E-01  0.35744000000E-01  0.51099999109E-03 0. -1.
       22    1    1    2    0    0 -0.59846883854E-02 -0.33759025718E-02 -0.35070220581E-01  0.35737005818E-01  0.00000000000E+00 0. -1.
  9000001    1    1    2    0    0  0.59846883854E-02  0.33759025718E-02  0.35070220581E-01  0.35750994182E-01  0.10000000475E-02 0.  1.
</event>
<event>
 4   0  0.2441219E-02  0.9118800E+02  0.7818609E-02  0.1379984E+01
      -11   -1    0    0    0    0  0.00000000000E+00  0.00000000000E+00  0.35740347158E-01  0.35744000000E-01  0.51099999109E-03 0. -1.
       11   -1    0    0    0    0 -0.00000000000E+00 -0.00000000000E+00 -0.35740347158E-01  0.35744000000E-01  0.51099999109E-03 0.  1.
       22    1    1    2    0    0 -0.24500282600E-01  0.63379991214E-02 -0.25232905194E-01  0.35737005818E-01  0.00000000000E+00 0.  1.
  9000001    1    1    2    0    0  0.24500282600E-01 -0.63379991214E-02  0.25232905194E-01  0.35750994182E-01  0.10000000475E-02 0. -1.
</event>
<event>
 4   0  0.2441219E-02  0.9118800E+02  0.7818609E-02  0.1379984E+01
      -11   -1    0    0    0    0  0.00000000000E+00  0.00000000000E+00  0.35740347158E-01  0.35744000000E-01  0.51099999109E-03 0.  1.
       11   -1    0    0    0    0 -0.00000000000E+00 -0.00000000000E+00 -0.35740347158E-01  0.35744000000E-01  0.51099999109E-03 0. -1.
       22    1    1    2    0    0 -0.13851155361E-01  0.32684283647E-01 -0.41251281819E-02  0.35737005818E-01  0.00000000000E+00 0. -1.
  9000001    1    1    2    0    0  0.13851155361E-01 -0.32684283647E-01  0.41251281819E-02  0.35750994182E-01  0.10000000475E-02 0.  1.
</event>
<event>
 4   0  0.2441219E-02  0.9118800E+02  0.7818609E-02  0.1379984E+01
      -11   -1    0    0    0    0  0.00000000000E+00  0.00000000000E+00  0.35740347158E-01  0.35744000000E-01  0.51099999109E-03 0.  1.
       11   -1    0    0    0    0 -0.00000000000E+00 -0.00000000000E+00 -0.35740347158E-01  0.35744000000E-01  0.51099999109E-03 0. -1.
       22    1    1    2    0    0  0.96064377018E-03 -0.94548220054E-02 -0.34450211745E-01  0.35737005818E-01  0.00000000000E+00 0. -1.
  9000001    1    1    2    0    0 -0.96064377018E-03  0.94548220054E-02  0.34450211745E-01  0.35750994182E-01  0.10000000475E-02 0.  1.
</event>
<event>
 4   0  0.2441219E-02  0.9118800E+02  0.7818609E-02  0.1379984E+01
      -11   -1    0    0    0    0  0.00000000000E+00  0.00000000000E+00  0.35740347158E-01  0.35744000000E-01  0.51099999109E-03 0. -1.
       11   -1    0    0    0    0 -0.00000000000E+00 -0.00000000000E+00 -0.35740347158E-01  0.35744000000E-01  0.51099999109E-03 0.  1.
       22    1    1    2    0    0 -0.42407839692E-02 -0.53648844720E-02 -0.35076592634E-01  0.35737005818E-01  0.00000000000E+00 0.  1.
  9000001    1    1    2    0    0  0.42407839692E-02  0.53648844720E-02  0.35076592634E-01  0.35750994182E-01  0.10000000475E-02 0. -1.
</event>
<event>
 4   0  0.2441219E-02  0.9118800E+02  0.7818609E-02  0.1379984E+01
      -11   -1    0    0    0    0  0.00000000000E+00  0.00000000000E+00  0.35740347158E-01  0.35744000000E-01  0.51099999109E-03 0. -1.
       11   -1    0    0    0    0 -0.00000000000E+00 -0.00000000000E+00 -0.35740347158E-01  0.35744000000E-01  0.51099999109E-03 0.  1.
       22    1    1    2    0    0 -0.27850430216E-02  0.11462918029E-02 -0.35609874127E-01  0.35737005818E-01  0.00000000000E+00 0.  1.
  9000001    1    1    2    0    0  0.27850430216E-02 -0.11462918029E-02  0.35609874127E-01  0.35750994182E-01  0.10000000475E-02 0. -1.
</event>
<event>
 4   0  0.2441219E-02  0.9118800E+02  0.7818609E-02  0.1379984E+01
      -11   -1    0    0    0    0  0.00000000000E+00  0.00000000000E+00  0.35740347158E-01  0.35744000000E-01  0.51099999109E-03 0. -1.
       11   -1    0    0    0    0 -0.00000000000E+00 -0.00000000000E+00 -0.35740347158E-01  0.35744000000E-01  0.51099999109E-03 0.  1.
       22    1    1    2    0    0  0.35671575194E-02  0.12189052750E-01 -0.33404130959E-01  0.35737005818E-01  0.00000000000E+00 0.  1.
  9000001    1    1    2    0    0 -0.35671575194E-02 -0.12189052750E-01  0.33404130959E-01  0.35750994182E-01  0.10000000475E-02 0. -1.
</event>
<event>
 4   0  0.2441219E-02  0.9118800E+02  0.7818609E-02  0.1379984E+01
      -11   -1    0    0    0    0  0.00000000000E+00  0.00000000000E+00  0.35740347158E-01  0.35744000000E-01  0.51099999109E-03 0. -1.
       11   -1    0    0    0    0 -0.00000000000E+00 -0.00000000000E+00 -0.35740347158E-01  0.35744000000E-01  0.51099999109E-03 0.  1.
       22    1    1    2    0    0 -0.76713281597E-02  0.14921289744E-02 -0.34872021167E-01  0.35737005818E-01  0.00000000000E+00 0.  1.
  9000001    1    1    2    0    0  0.76713281597E-02 -0.14921289744E-02  0.34872021167E-01  0.35750994182E-01  0.10000000475E-02 0. -1.
</event>
<event>
 4   0  0.2441219E-02  0.9118800E+02  0.7818609E-02  0.1379984E+01
      -11   -1    0    0    0    0  0.00000000000E+00  0.00000000000E+00  0.35740347158E-01  0.35744000000E-01  0.51099999109E-03 0.  1.
       11   -1    0    0    0    0 -0.00000000000E+00 -0.00000000000E+00 -0.35740347158E-01  0.35744000000E-01  0.51099999109E-03 0. -1.
       22    1    1    2    0    0  0.68087955494E-02  0.25284199502E-02  0.34991155748E-01  0.35737005818E-01  0.00000000000E+00 0.  1.
  9000001    1    1    2    0    0 -0.68087955494E-02 -0.25284199502E-02 -0.34991155748E-01  0.35750994182E-01  0.10000000475E-02 0. -1.
</event>
<event>
 4   0  0.2441219E-02  0.9118800E+02  0.7818609E-02  0.1379984E+01
      -11   -1    0    0    0    0  0.00000000000E+00  0.00000000000E+00  0.35740347158E-01  0.35744000000E-01  0.51099999109E-03 0.  1.
       11   -1    0    0    0    0 -0.00000000000E+00 -0.00000000000E+00 -0.35740347158E-01  0.35744000000E-01  0.51099999109E-03 0. -1.
       22    1    1    2    0    0 -0.16006499604E-01 -0.30617127884E-01  0.91387655318E-02  0.35737005818E-01  0.00000000000E+00 0. -1.
  9000001    1    1    2    0    0  0.16006499604E-01  0.30617127884E-01 -0.91387655318E-02  0.35750994182E-01  0.10000000475E-02 0.  1.
</event>
<event>
 4   0  0.2441219E-02  0.9118800E+02  0.7818609E-02  0.1379984E+01
      -11   -1    0    0    0    0  0.00000000000E+00  0.00000000000E+00  0.35740347158E-01  0.35744000000E-01  0.51099999109E-03 0. -1.
       11   -1    0    0    0    0 -0.00000000000E+00 -0.00000000000E+00 -0.35740347158E-01  0.35744000000E-01  0.51099999109E-03 0.  1.
       22    1    1    2    0    0  0.51117181869E-02  0.28930759997E-01  0.20347359732E-01  0.35737005818E-01  0.00000000000E+00 0. -1.
  9000001    1    1    2    0    0 -0.51117181869E-02 -0.28930759997E-01 -0.20347359732E-01  0.35750994182E-01  0.10000000475E-02 0.  1.
</event>
<event>
 4   0  0.2441219E-02  0.9118800E+02  0.7818609E-02  0.1379984E+01
      -11   -1    0    0    0    0  0.00000000000E+00  0.00000000000E+00  0.35740347158E-01  0.35744000000E-01  0.51099999109E-03 0. -1.
       11   -1    0    0    0    0 -0.00000000000E+00 -0.00000000000E+00 -0.35740347158E-01  0.35744000000E-01  0.51099999109E-03 0.  1.
       22    1    1    2    0    0  0.34069851350E-02 -0.88330941714E-02 -0.34460157929E-01  0.35737005818E-01  0.00000000000E+00 0.  1.
  9000001    1    1    2    0    0 -0.34069851350E-02  0.88330941714E-02  0.34460157929E-01  0.35750994182E-01  0.10000000475E-02 0. -1.
</event>
<event>
 4   0  0.2441219E-02  0.9118800E+02  0.7818609E-02  0.1379984E+01
      -11   -1    0    0    0    0  0.00000000000E+00  0.00000000000E+00  0.35740347158E-01  0.35744000000E-01  0.51099999109E-03 0. -1.
       11   -1    0    0    0    0 -0.00000000000E+00 -0.00000000000E+00 -0.35740347158E-01  0.35744000000E-01  0.51099999109E-03 0.  1.
       22    1    1    2    0    0 -0.32923875236E-02 -0.31246074992E-03 -0.35583649863E-01  0.35737005818E-01  0.00000000000E+00 0.  1.
  9000001    1    1    2    0    0  0.32923875236E-02  0.31246074992E-03  0.35583649863E-01  0.35750994182E-01  0.10000000475E-02 0. -1.
</event>
<event>
 4   0  0.2441219E-02  0.9118800E+02  0.7818609E-02  0.1379984E+01
      -11   -1    0    0    0    0  0.00000000000E+00  0.00000000000E+00  0.35740347158E-01  0.35744000000E-01  0.51099999109E-03 0.  1.
       11   -1    0    0    0    0 -0.00000000000E+00 -0.00000000000E+00 -0.35740347158E-01  0.35744000000E-01  0.51099999109E-03 0. -1.
       22    1    1    2    0    0  0.33203944260E-02 -0.26927038337E-02 -0.35480387706E-01  0.35737005818E-01  0.00000000000E+00 0. -1.
  9000001    1    1    2    0    0 -0.33203944260E-02  0.26927038337E-02  0.35480387706E-01  0.35750994182E-01  0.10000000475E-02 0.  1.
</event>
<event>
 4   0  0.2441219E-02  0.9118800E+02  0.7818609E-02  0.1379984E+01
      -11   -1    0    0    0    0  0.00000000000E+00  0.00000000000E+00  0.35740347158E-01  0.35744000000E-01  0.51099999109E-03 0. -1.
       11   -1    0    0    0    0 -0.00000000000E+00 -0.00000000000E+00 -0.35740347158E-01  0.35744000000E-01  0.51099999109E-03 0.  1.
       22    1    1    2    0    0 -0.48746652483E-02 -0.15464089984E-01  0.31847027248E-01  0.35737005818E-01  0.00000000000E+00 0. -1.
  9000001    1    1    2    0    0  0.48746652483E-02  0.15464089984E-01 -0.31847027248E-01  0.35750994182E-01  0.10000000475E-02 0.  1.
</event>
<event>
 4   0  0.2441219E-02  0.9118800E+02  0.7818609E-02  0.1379984E+01
      -11   -1    0    0    0    0  0.00000000000E+00  0.00000000000E+00  0.35740347158E-01  0.35744000000E-01  0.51099999109E-03 0.  1.
       11   -1    0    0    0    0 -0.00000000000E+00 -0.00000000000E+00 -0.35740347158E-01  0.35744000000E-01  0.51099999109E-03 0. -1.
       22    1    1    2    0    0  0.60379366233E-02 -0.26536499014E-02 -0.35123141209E-01  0.35737005818E-01  0.00000000000E+00 0. -1.
  9000001    1    1    2    0    0 -0.60379366233E-02  0.26536499014E-02  0.35123141209E-01  0.35750994182E-01  0.10000000475E-02 0.  1.
</event>
<event>
 4   0  0.2441219E-02  0.9118800E+02  0.7818609E-02  0.1379984E+01
      -11   -1    0    0    0    0  0.00000000000E+00  0.00000000000E+00  0.35740347158E-01  0.35744000000E-01  0.51099999109E-03 0.  1.
       11   -1    0    0    0    0 -0.00000000000E+00 -0.00000000000E+00 -0.35740347158E-01  0.35744000000E-01  0.51099999109E-03 0. -1.
       22    1    1    2    0    0 -0.11381997066E-01  0.10266004010E-01  0.32283012396E-01  0.35737005818E-01  0.00000000000E+00 0.  1.
  9000001    1    1    2    0    0  0.11381997066E-01 -0.10266004010E-01 -0.32283012396E-01  0.35750994182E-01  0.10000000475E-02 0. -1.
</event>
<event>
 4   0  0.2441219E-02  0.9118800E+02  0.7818609E-02  0.1379984E+01
      -11   -1    0    0    0    0  0.00000000000E+00  0.00000000000E+00  0.35740347158E-01  0.35744000000E-01  0.51099999109E-03 0.  1.
       11   -1    0    0    0    0 -0.00000000000E+00 -0.00000000000E+00 -0.35740347158E-01  0.35744000000E-01  0.51099999109E-03 0. -1.
       22    1    1    2    0    0  0.26359239930E-01  0.16235872495E-01 -0.17852744874E-01  0.35737005818E-01  0.00000000000E+00 0. -1.
  9000001    1    1    2    0    0 -0.26359239930E-01 -0.16235872495E-01  0.17852744874E-01  0.35750994182E-01  0.10000000475E-02 0.  1.
</event>
<event>
 4   0  0.2441219E-02  0.9118800E+02  0.7818609E-02  0.1379984E+01
      -11   -1    0    0    0    0  0.00000000000E+00  0.00000000000E+00  0.35740347158E-01  0.35744000000E-01  0.51099999109E-03 0. -1.
       11   -1    0    0    0    0 -0.00000000000E+00 -0.00000000000E+00 -0.35740347158E-01  0.35744000000E-01  0.51099999109E-03 0.  1.
       22    1    1    2    0    0 -0.24894915733E-02  0.35884814076E-02  0.35469124852E-01  0.35737005818E-01  0.00000000000E+00 0. -1.
  9000001    1    1    2    0    0  0.24894915733E-02 -0.35884814076E-02 -0.35469124852E-01  0.35750994182E-01  0.10000000475E-02 0.  1.
</event>
<event>
 4   0  0.2441219E-02  0.9118800E+02  0.7818609E-02  0.1379984E+01
      -11   -1    0    0    0    0  0.00000000000E+00  0.00000000000E+00  0.35740347158E-01  0.35744000000E-01  0.51099999109E-03 0. -1.
       11   -1    0    0    0    0 -0.00000000000E+00 -0.00000000000E+00 -0.35740347158E-01  0.35744000000E-01  0.51099999109E-03 0.  1.
       22    1    1    2    0    0  0.21025311404E-01  0.18670180462E-01 -0.22056614127E-01  0.35737005818E-01  0.00000000000E+00 0.  1.
  9000001    1    1    2    0    0 -0.21025311404E-01 -0.18670180462E-01  0.22056614127E-01  0.35750994182E-01  0.10000000475E-02 0. -1.
</event>
<event>
 4   0  0.2441219E-02  0.9118800E+02  0.7818609E-02  0.1379984E+01
      -11   -1    0    0    0    0  0.00000000000E+00  0.00000000000E+00  0.35740347158E-01  0.35744000000E-01  0.51099999109E-03 0.  1.
       11   -1    0    0    0    0 -0.00000000000E+00 -0.00000000000E+00 -0.35740347158E-01  0.35744000000E-01  0.51099999109E-03 0. -1.
       22    1    1    2    0    0 -0.94724722618E-03 -0.55968863227E-02 -0.35283298755E-01  0.35737005818E-01  0.00000000000E+00 0. -1.
  9000001    1    1    2    0    0  0.94724722618E-03  0.55968863227E-02  0.35283298755E-01  0.35750994182E-01  0.10000000475E-02 0.  1.
</event>
<event>
 4   0  0.2441219E-02  0.9118800E+02  0.7818609E-02  0.1379984E+01
      -11   -1    0    0    0    0  0.00000000000E+00  0.00000000000E+00  0.35740347158E-01  0.35744000000E-01  0.51099999109E-03 0.  1.
       11   -1    0    0    0    0 -0.00000000000E+00 -0.00000000000E+00 -0.35740347158E-01  0.35744000000E-01  0.51099999109E-03 0. -1.
       22    1    1    2    0    0 -0.14602140757E-01  0.79800827327E-02  0.31626402732E-01  0.35737005818E-01  0.00000000000E+00 0.  1.
  9000001    1    1    2    0    0  0.14602140757E-01 -0.79800827327E-02 -0.31626402732E-01  0.35750994182E-01  0.10000000475E-02 0. -1.
</event>
<event>
 4   0  0.2441219E-02  0.9118800E+02  0.7818609E-02  0.1379984E+01
      -11   -1    0    0    0    0  0.00000000000E+00  0.00000000000E+00  0.35740347158E-01  0.35744000000E-01  0.51099999109E-03 0. -1.
       11   -1    0    0    0    0 -0.00000000000E+00 -0.00000000000E+00 -0.35740347158E-01  0.35744000000E-01  0.51099999109E-03 0.  1.
       22    1    1    2    0    0 -0.56359943240E-02  0.19783285476E-01  0.29223120446E-01  0.35737005818E-01  0.00000000000E+00 0. -1.
  9000001    1    1    2    0    0  0.56359943240E-02 -0.19783285476E-01 -0.29223120446E-01  0.35750994182E-01  0.10000000475E-02 0.  1.
</event>
<event>
 4   0  0.2441219E-02  0.9118800E+02  0.7818609E-02  0.1379984E+01
      -11   -1    0    0    0    0  0.00000000000E+00  0.00000000000E+00  0.35740347158E-01  0.35744000000E-01  0.51099999109E-03 0. -1.
       11   -1    0    0    0    0 -0.00000000000E+00 -0.00000000000E+00 -0.35740347158E-01  0.35744000000E-01  0.51099999109E-03 0.  1.
       22    1    1    2    0    0 -0.35467322554E-01  0.22706754482E-02 -0.37478859010E-02  0.35737005818E-01  0.00000000000E+00 0.  1.
  9000001    1    1    2    0    0  0.35467322554E-01 -0.22706754482E-02  0.37478859010E-02  0.35750994182E-01  0.10000000475E-02 0. -1.
</event>
<event>
 4   0  0.2441219E-02  0.9118800E+02  0.7818609E-02  0.1379984E+01
      -11   -1    0    0    0    0  0.00000000000E+00  0.00000000000E+00  0.35740347158E-01  0.35744000000E-01  0.51099999109E-03 0. -1.
       11   -1    0    0    0    0 -0.00000000000E+00 -0.00000000000E+00 -0.35740347158E-01  0.35744000000E-01  0.51099999109E-03 0.  1.
       22    1    1    2    0    0 -0.63598511305E-02  0.18797831935E-01  0.29720824232E-01  0.35737005818E-01  0.00000000000E+00 0. -1.
  9000001    1    1    2    0    0  0.63598511305E-02 -0.18797831935E-01 -0.29720824232E-01  0.35750994182E-01  0.10000000475E-02 0.  1.
</event>
<event>
 4   0  0.2441219E-02  0.9118800E+02  0.7818609E-02  0.1379984E+01
      -11   -1    0    0    0    0  0.00000000000E+00  0.00000000000E+00  0.35740347158E-01  0.35744000000E-01  0.51099999109E-03 0. -1.
       11   -1    0    0    0    0 -0.00000000000E+00 -0.00000000000E+00 -0.35740347158E-01  0.35744000000E-01  0.51099999109E-03 0.  1.
       22    1    1    2    0    0 -0.72052723720E-02 -0.68776752974E-02  0.34320769476E-01  0.35737005818E-01  0.00000000000E+00 0. -1.
  9000001    1    1    2    0    0  0.72052723720E-02  0.68776752974E-02 -0.34320769476E-01  0.35750994182E-01  0.10000000475E-02 0.  1.
</event>
<event>
 4   0  0.2441219E-02  0.9118800E+02  0.7818609E-02  0.1379984E+01
      -11   -1    0    0    0    0  0.00000000000E+00  0.00000000000E+00  0.35740347158E-01  0.35744000000E-01  0.51099999109E-03 0.  1.
       11   -1    0    0    0    0 -0.00000000000E+00 -0.00000000000E+00 -0.35740347158E-01  0.35744000000E-01  0.51099999109E-03 0. -1.
       22    1    1    2    0    0  0.35998941842E-02  0.54472911220E-02 -0.35135471623E-01  0.35737005818E-01  0.00000000000E+00 0. -1.
  9000001    1    1    2    0    0 -0.35998941842E-02 -0.54472911220E-02  0.35135471623E-01  0.35750994182E-01  0.10000000475E-02 0.  1.
</event>
<event>
 4   0  0.2441219E-02  0.9118800E+02  0.7818609E-02  0.1379984E+01
      -11   -1    0    0    0    0  0.00000000000E+00  0.00000000000E+00  0.35740347158E-01  0.35744000000E-01  0.51099999109E-03 0.  1.
       11   -1    0    0    0    0 -0.00000000000E+00 -0.00000000000E+00 -0.35740347158E-01  0.35744000000E-01  0.51099999109E-03 0. -1.
       22    1    1    2    0    0 -0.11994856125E-01  0.31622227214E-01 -0.11545204955E-01  0.35737005818E-01  0.00000000000E+00 0. -1.
  9000001    1    1    2    0    0  0.11994856125E-01 -0.31622227214E-01  0.11545204955E-01  0.35750994182E-01  0.10000000475E-02 0.  1.
</event>
<event>
 4   0  0.2441219E-02  0.9118800E+02  0.7818609E-02  0.1379984E+01
      -11   -1    0    0    0    0  0.00000000000E+00  0.00000000000E+00  0.35740347158E-01  0.35744000000E-01  0.51099999109E-03 0.  1.
       11   -1    0    0    0    0 -0.00000000000E+00 -0.00000000000E+00 -0.35740347158E-01  0.35744000000E-01  0.51099999109E-03 0. -1.
       22    1    1    2    0    0 -0.18372879349E-01  0.27574486628E-01 -0.13387254256E-01  0.35737005818E-01  0.00000000000E+00 0. -1.
  9000001    1    1    2    0    0  0.18372879349E-01 -0.27574486628E-01  0.13387254256E-01  0.35750994182E-01  0.10000000475E-02 0.  1.
</event>
<event>
 4   0  0.2441219E-02  0.9118800E+02  0.7818609E-02  0.1379984E+01
      -11   -1    0    0    0    0  0.00000000000E+00  0.00000000000E+00  0.35740347158E-01  0.35744000000E-01  0.51099999109E-03 0. -1.
       11   -1    0    0    0    0 -0.00000000000E+00 -0.00000000000E+00 -0.35740347158E-01  0.35744000000E-01  0.51099999109E-03 0.  1.
       22    1    1    2    0    0  0.12918395763E-02 -0.30178507680E-02  0.35585914519E-01  0.35737005818E-01  0.00000000000E+00 0. -1.
  9000001    1    1    2    0    0 -0.12918395763E-02  0.30178507680E-02 -0.35585914519E-01  0.35750994182E-01  0.10000000475E-02 0.  1.
</event>
<event>
 4   0  0.2441219E-02  0.9118800E+02  0.7818609E-02  0.1379984E+01
      -11   -1    0    0    0    0  0.00000000000E+00  0.00000000000E+00  0.35740347158E-01  0.35744000000E-01  0.51099999109E-03 0. -1.
       11   -1    0    0    0    0 -0.00000000000E+00 -0.00000000000E+00 -0.35740347158E-01  0.35744000000E-01  0.51099999109E-03 0.  1.
       22    1    1    2    0    0 -0.29399330949E-01  0.50431641217E-02 -0.19681956718E-01  0.35737005818E-01  0.00000000000E+00 0.  1.
  9000001    1    1    2    0    0  0.29399330949E-01 -0.50431641217E-02  0.19681956718E-01  0.35750994182E-01  0.10000000475E-02 0. -1.
</event>
<event>
 4   0  0.2441219E-02  0.9118800E+02  0.7818609E-02  0.1379984E+01
      -11   -1    0    0    0    0  0.00000000000E+00  0.00000000000E+00  0.35740347158E-01  0.35744000000E-01  0.51099999109E-03 0. -1.
       11   -1    0    0    0    0 -0.00000000000E+00 -0.00000000000E+00 -0.35740347158E-01  0.35744000000E-01  0.51099999109E-03 0.  1.
       22    1    1    2    0    0  0.20640110616E-01 -0.29160099408E-01  0.89889995526E-03  0.35737005818E-01  0.00000000000E+00 0. -1.
  9000001    1    1    2    0    0 -0.20640110616E-01  0.29160099408E-01 -0.89889995526E-03  0.35750994182E-01  0.10000000475E-02 0.  1.
</event>
<event>
 4   0  0.2441219E-02  0.9118800E+02  0.7818609E-02  0.1379984E+01
      -11   -1    0    0    0    0  0.00000000000E+00  0.00000000000E+00  0.35740347158E-01  0.35744000000E-01  0.51099999109E-03 0. -1.
       11   -1    0    0    0    0 -0.00000000000E+00 -0.00000000000E+00 -0.35740347158E-01  0.35744000000E-01  0.51099999109E-03 0.  1.
       22    1    1    2    0    0  0.48713939057E-02 -0.18640470991E-02 -0.35354326959E-01  0.35737005818E-01  0.00000000000E+00 0.  1.
  9000001    1    1    2    0    0 -0.48713939057E-02  0.18640470991E-02  0.35354326959E-01  0.35750994182E-01  0.10000000475E-02 0. -1.
</event>
<event>
 4   0  0.2441219E-02  0.9118800E+02  0.7818609E-02  0.1379984E+01
      -11   -1    0    0    0    0  0.00000000000E+00  0.00000000000E+00  0.35740347158E-01  0.35744000000E-01  0.51099999109E-03 0.  1.
       11   -1    0    0    0    0 -0.00000000000E+00 -0.00000000000E+00 -0.35740347158E-01  0.35744000000E-01  0.51099999109E-03 0. -1.
       22    1    1    2    0    0 -0.23199995114E-01  0.12437119376E-01  0.24170475238E-01  0.35737005818E-01  0.00000000000E+00 0.  1.
  9000001    1    1    2    0    0  0.23199995114E-01 -0.12437119376E-01 -0.24170475238E-01  0.35750994182E-01  0.10000000475E-02 0. -1.
</event>
<event>
 4   0  0.2441219E-02  0.9118800E+02  0.7818609E-02  0.1379984E+01
      -11   -1    0    0    0    0  0.00000000000E+00  0.00000000000E+00  0.35740347158E-01  0.35744000000E-01  0.51099999109E-03 0.  1.
       11   -1    0    0    0    0 -0.00000000000E+00 -0.00000000000E+00 -0.35740347158E-01  0.35744000000E-01  0.51099999109E-03 0. -1.
       22    1    1    2    0    0  0.70884983611E-02 -0.20139397817E-02  0.34968998018E-01  0.35737005818E-01  0.00000000000E+00 0.  1.
  9000001    1    1    2    0    0 -0.70884983611E-02  0.20139397817E-02 -0.34968998018E-01  0.35750994182E-01  0.10000000475E-02 0. -1.
</event>
<event>
 4   0  0.2441219E-02  0.9118800E+02  0.7818609E-02  0.1379984E+01
      -11   -1    0    0    0    0  0.00000000000E+00  0.00000000000E+00  0.35740347158E-01  0.35744000000E-01  0.51099999109E-03 0.  1.
       11   -1    0    0    0    0 -0.00000000000E+00 -0.00000000000E+00 -0.35740347158E-01  0.35744000000E-01  0.51099999109E-03 0. -1.
       22    1    1    2    0    0 -0.15129052417E-01  0.10670913119E-01 -0.30567580392E-01  0.35737005818E-01  0.00000000000E+00 0. -1.
  9000001    1    1    2    0    0  0.15129052417E-01 -0.10670913119E-01  0.30567580392E-01  0.35750994182E-01  0.10000000475E-02 0.  1.
</event>
<event>
 4   0  0.2441219E-02  0.9118800E+02  0.7818609E-02  0.1379984E+01
      -11   -1    0    0    0    0  0.00000000000E+00  0.00000000000E+00  0.35740347158E-01  0.35744000000E-01  0.51099999109E-03 0.  1.
       11   -1    0    0    0    0 -0.00000000000E+00 -0.00000000000E+00 -0.35740347158E-01  0.35744000000E-01  0.51099999109E-03 0. -1.
       22    1    1    2    0    0 -0.36283399040E-02 -0.41138434529E-02  0.35313524696E-01  0.35737005818E-01  0.00000000000E+00 0.  1.
  9000001    1    1    2    0    0  0.36283399040E-02  0.41138434529E-02 -0.35313524696E-01  0.35750994182E-01  0.10000000475E-02 0. -1.
</event>
<event>
 4   0  0.2441219E-02  0.9118800E+02  0.7818609E-02  0.1379984E+01
      -11   -1    0    0    0    0  0.00000000000E+00  0.00000000000E+00  0.35740347158E-01  0.35744000000E-01  0.51099999109E-03 0.  1.
       11   -1    0    0    0    0 -0.00000000000E+00 -0.00000000000E+00 -0.35740347158E-01  0.35744000000E-01  0.51099999109E-03 0. -1.
       22    1    1    2    0    0 -0.12231464973E-01 -0.25759868201E-02 -0.33479682516E-01  0.35737005818E-01  0.00000000000E+00 0. -1.
  9000001    1    1    2    0    0  0.12231464973E-01  0.25759868201E-02  0.33479682516E-01  0.35750994182E-01  0.10000000475E-02 0.  1.
</event>
<event>
 4   0  0.2441219E-02  0.9118800E+02  0.7818609E-02  0.1379984E+01
      -11   -1    0    0    0    0  0.00000000000E+00  0.00000000000E+00  0.35740347158E-01  0.35744000000E-01  0.51099999109E-03 0.  1.
       11   -1    0    0    0    0 -0.00000000000E+00 -0.00000000000E+00 -0.35740347158E-01  0.35744000000E-01  0.51099999109E-03 0. -1.
       22    1    1    2    0    0  0.12344421373E-01 -0.10928543785E-01 -0.31706715008E-01  0.35737005818E-01  0.00000000000E+00 0. -1.
  9000001    1    1    2    0    0 -0.12344421373E-01  0.10928543785E-01  0.31706715008E-01  0.35750994182E-01  0.10000000475E-02 0.  1.
</event>
<event>
 4   0  0.2441219E-02  0.9118800E+02  0.7818609E-02  0.1379984E+01
      -11   -1    0    0    0    0  0.00000000000E+00  0.00000000000E+00  0.35740347158E-01  0.35744000000E-01  0.51099999109E-03 0. -1.
       11   -1    0    0    0    0 -0.00000000000E+00 -0.00000000000E+00 -0.35740347158E-01  0.35744000000E-01  0.51099999109E-03 0.  1.
       22    1    1    2    0    0  0.11984594260E-01  0.23894789263E-01  0.23717970642E-01  0.35737005818E-01  0.00000000000E+00 0. -1.
  9000001    1    1    2    0    0 -0.11984594260E-01 -0.23894789263E-01 -0.23717970642E-01  0.35750994182E-01  0.10000000475E-02 0.  1.
</event>
<event>
 4   0  0.2441219E-02  0.9118800E+02  0.7818609E-02  0.1379984E+01
      -11   -1    0    0    0    0  0.00000000000E+00  0.00000000000E+00  0.35740347158E-01  0.35744000000E-01  0.51099999109E-03 0. -1.
       11   -1    0    0    0    0 -0.00000000000E+00 -0.00000000000E+00 -0.35740347158E-01  0.35744000000E-01  0.51099999109E-03 0.  1.
       22    1    1    2    0    0 -0.38312788827E-02  0.36264044105E-02 -0.35345495866E-01  0.35737005818E-01  0.00000000000E+00 0.  1.
  9000001    1    1    2    0    0  0.38312788827E-02 -0.36264044105E-02  0.35345495866E-01  0.35750994182E-01  0.10000000475E-02 0. -1.
</event>
<event>
 4   0  0.2441219E-02  0.9118800E+02  0.7818609E-02  0.1379984E+01
      -11   -1    0    0    0    0  0.00000000000E+00  0.00000000000E+00  0.35740347158E-01  0.35744000000E-01  0.51099999109E-03 0.  1.
       11   -1    0    0    0    0 -0.00000000000E+00 -0.00000000000E+00 -0.35740347158E-01  0.35744000000E-01  0.51099999109E-03 0. -1.
       22    1    1    2    0    0 -0.17756155668E-01  0.28971257052E-01  0.11068820424E-01  0.35737005818E-01  0.00000000000E+00 0.  1.
  9000001    1    1    2    0    0  0.17756155668E-01 -0.28971257052E-01 -0.11068820424E-01  0.35750994182E-01  0.10000000475E-02 0. -1.
</event>
<event>
 4   0  0.2441219E-02  0.9118800E+02  0.7818609E-02  0.1379984E+01
      -11   -1    0    0    0    0  0.00000000000E+00  0.00000000000E+00  0.35740347158E-01  0.35744000000E-01  0.51099999109E-03 0. -1.
       11   -1    0    0    0    0 -0.00000000000E+00 -0.00000000000E+00 -0.35740347158E-01  0.35744000000E-01  0.51099999109E-03 0.  1.
       22    1    1    2    0    0  0.23979383244E-02 -0.75310238312E-02  0.34852075357E-01  0.35737005818E-01  0.00000000000E+00 0. -1.
  9000001    1    1    2    0    0 -0.23979383244E-02  0.75310238312E-02 -0.34852075357E-01  0.35750994182E-01  0.10000000475E-02 0.  1.
</event>
<event>
 4   0  0.2441219E-02  0.9118800E+02  0.7818609E-02  0.1379984E+01
      -11   -1    0    0    0    0  0.00000000000E+00  0.00000000000E+00  0.35740347158E-01  0.35744000000E-01  0.51099999109E-03 0. -1.
       11   -1    0    0    0    0 -0.00000000000E+00 -0.00000000000E+00 -0.35740347158E-01  0.35744000000E-01  0.51099999109E-03 0.  1.
       22    1    1    2    0    0  0.29857536654E-02 -0.13026534371E-02 -0.35588227744E-01  0.35737005818E-01  0.00000000000E+00 0.  1.
  9000001    1    1    2    0    0 -0.29857536654E-02  0.13026534371E-02  0.35588227744E-01  0.35750994182E-01  0.10000000475E-02 0. -1.
</event>
<event>
 4   0  0.2441219E-02  0.9118800E+02  0.7818609E-02  0.1379984E+01
      -11   -1    0    0    0    0  0.00000000000E+00  0.00000000000E+00  0.35740347158E-01  0.35744000000E-01  0.51099999109E-03 0. -1.
       11   -1    0    0    0    0 -0.00000000000E+00 -0.00000000000E+00 -0.35740347158E-01  0.35744000000E-01  0.51099999109E-03 0.  1.
       22    1    1    2    0    0 -0.86853190670E-02 -0.24098313070E-02  0.34581664660E-01  0.35737005818E-01  0.00000000000E+00 0. -1.
  9000001    1    1    2    0    0  0.86853190670E-02  0.24098313070E-02 -0.34581664660E-01  0.35750994182E-01  0.10000000475E-02 0.  1.
</event>
<event>
 4   0  0.2441219E-02  0.9118800E+02  0.7818609E-02  0.1379984E+01
      -11   -1    0    0    0    0  0.00000000000E+00  0.00000000000E+00  0.35740347158E-01  0.35744000000E-01  0.51099999109E-03 0. -1.
       11   -1    0    0    0    0 -0.00000000000E+00 -0.00000000000E+00 -0.35740347158E-01  0.35744000000E-01  0.51099999109E-03 0.  1.
       22    1    1    2    0    0 -0.17388776521E-02 -0.72312176037E-02  0.34954533059E-01  0.35737005818E-01  0.00000000000E+00 0. -1.
  9000001    1    1    2    0    0  0.17388776521E-02  0.72312176037E-02 -0.34954533059E-01  0.35750994182E-01  0.10000000475E-02 0.  1.
</event>
<event>
 4   0  0.2441219E-02  0.9118800E+02  0.7818609E-02  0.1379984E+01
      -11   -1    0    0    0    0  0.00000000000E+00  0.00000000000E+00  0.35740347158E-01  0.35744000000E-01  0.51099999109E-03 0.  1.
       11   -1    0    0    0    0 -0.00000000000E+00 -0.00000000000E+00 -0.35740347158E-01  0.35744000000E-01  0.51099999109E-03 0. -1.
       22    1    1    2    0    0  0.23040164192E-01 -0.12161101459E-01 -0.24462052861E-01  0.35737005818E-01  0.00000000000E+00 0.  1.
  9000001    1    1    2    0    0 -0.23040164192E-01  0.12161101459E-01  0.24462052861E-01  0.35750994182E-01  0.10000000475E-02 0. -1.
</event>
<event>
 4   0  0.2441219E-02  0.9118800E+02  0.7818609E-02  0.1379984E+01
      -11   -1    0    0    0    0  0.00000000000E+00  0.00000000000E+00  0.35740347158E-01  0.35744000000E-01  0.51099999109E-03 0. -1.
       11   -1    0    0    0    0 -0.00000000000E+00 -0.00000000000E+00 -0.35740347158E-01  0.35744000000E-01  0.51099999109E-03 0.  1.
       22    1    1    2    0    0 -0.17902868709E-01 -0.91778070418E-02 -0.29536227497E-01  0.35737005818E-01  0.00000000000E+00 0.  1.
  9000001    1    1    2    0    0  0.17902868709E-01  0.91778070418E-02  0.29536227497E-01  0.35750994182E-01  0.10000000475E-02 0. -1.
</event>
<event>
 4   0  0.2441219E-02  0.9118800E+02  0.7818609E-02  0.1379984E+01
      -11   -1    0    0    0    0  0.00000000000E+00  0.00000000000E+00  0.35740347158E-01  0.35744000000E-01  0.51099999109E-03 0. -1.
       11   -1    0    0    0    0 -0.00000000000E+00 -0.00000000000E+00 -0.35740347158E-01  0.35744000000E-01  0.51099999109E-03 0.  1.
       22    1    1    2    0    0 -0.28818201973E-01  0.20933729666E-01  0.29023752685E-02  0.35737005818E-01  0.00000000000E+00 0. -1.
  9000001    1    1    2    0    0  0.28818201973E-01 -0.20933729666E-01 -0.29023752685E-02  0.35750994182E-01  0.10000000475E-02 0.  1.
</event>
<event>
 4   0  0.2441219E-02  0.9118800E+02  0.7818609E-02  0.1379984E+01
      -11   -1    0    0    0    0  0.00000000000E+00  0.00000000000E+00  0.35740347158E-01  0.35744000000E-01  0.51099999109E-03 0.  1.
       11   -1    0    0    0    0 -0.00000000000E+00 -0.00000000000E+00 -0.35740347158E-01  0.35744000000E-01  0.51099999109E-03 0. -1.
       22    1    1    2    0    0  0.33994604115E-02  0.67009766685E-02  0.34938147711E-01  0.35737005818E-01  0.00000000000E+00 0.  1.
  9000001    1    1    2    0    0 -0.33994604115E-02 -0.67009766685E-02 -0.34938147711E-01  0.35750994182E-01  0.10000000475E-02 0. -1.
</event>
<event>
 4   0  0.2441219E-02  0.9118800E+02  0.7818609E-02  0.1379984E+01
      -11   -1    0    0    0    0  0.00000000000E+00  0.00000000000E+00  0.35740347158E-01  0.35744000000E-01  0.51099999109E-03 0.  1.
       11   -1    0    0    0    0 -0.00000000000E+00 -0.00000000000E+00 -0.35740347158E-01  0.35744000000E-01  0.51099999109E-03 0. -1.
       22    1    1    2    0    0  0.67599760737E-02 -0.11120920436E-01 -0.33283050296E-01  0.35737005818E-01  0.00000000000E+00 0. -1.
  9000001    1    1    2    0    0 -0.67599760737E-02  0.11120920436E-01  0.33283050296E-01  0.35750994182E-01  0.10000000475E-02 0.  1.
</event>
<event>
 4   0  0.2441219E-02  0.9118800E+02  0.7818609E-02  0.1379984E+01
      -11   -1    0    0    0    0  0.00000000000E+00  0.00000000000E+00  0.35740347158E-01  0.35744000000E-01  0.51099999109E-03 0. -1.
       11   -1    0    0    0    0 -0.00000000000E+00 -0.00000000000E+00 -0.35740347158E-01  0.35744000000E-01  0.51099999109E-03 0.  1.
       22    1    1    2    0    0  0.15070085304E-01  0.23723748809E-01 -0.22072830725E-01  0.35737005818E-01  0.00000000000E+00 0.  1.
  9000001    1    1    2    0    0 -0.15070085304E-01 -0.23723748809E-01  0.22072830725E-01  0.35750994182E-01  0.10000000475E-02 0. -1.
</event>
<event>
 4   0  0.2441219E-02  0.9118800E+02  0.7818609E-02  0.1379984E+01
      -11   -1    0    0    0    0  0.00000000000E+00  0.00000000000E+00  0.35740347158E-01  0.35744000000E-01  0.51099999109E-03 0. -1.
       11   -1    0    0    0    0 -0.00000000000E+00 -0.00000000000E+00 -0.35740347158E-01  0.35744000000E-01  0.51099999109E-03 0.  1.
       22    1    1    2    0    0 -0.32793283159E-02  0.11491620375E-02  0.35567668145E-01  0.35737005818E-01  0.00000000000E+00 0. -1.
  9000001    1    1    2    0    0  0.32793283159E-02 -0.11491620375E-02 -0.35567668145E-01  0.35750994182E-01  0.10000000475E-02 0.  1.
</event>
<event>
 4   0  0.2441219E-02  0.9118800E+02  0.7818609E-02  0.1379984E+01
      -11   -1    0    0    0    0  0.00000000000E+00  0.00000000000E+00  0.35740347158E-01  0.35744000000E-01  0.51099999109E-03 0. -1.
       11   -1    0    0    0    0 -0.00000000000E+00 -0.00000000000E+00 -0.35740347158E-01  0.35744000000E-01  0.51099999109E-03 0.  1.
       22    1    1    2    0    0  0.60171972259E-02 -0.31866685808E-02 -0.35082361177E-01  0.35737005818E-01  0.00000000000E+00 0.  1.
  9000001    1    1    2    0    0 -0.60171972259E-02  0.31866685808E-02  0.35082361177E-01  0.35750994182E-01  0.10000000475E-02 0. -1.
</event>
<event>
 4   0  0.2441219E-02  0.9118800E+02  0.7818609E-02  0.1379984E+01
      -11   -1    0    0    0    0  0.00000000000E+00  0.00000000000E+00  0.35740347158E-01  0.35744000000E-01  0.51099999109E-03 0.  1.
       11   -1    0    0    0    0 -0.00000000000E+00 -0.00000000000E+00 -0.35740347158E-01  0.35744000000E-01  0.51099999109E-03 0. -1.
       22    1    1    2    0    0  0.29489669605E-02  0.94672683624E-02  0.34333773584E-01  0.35737005818E-01  0.00000000000E+00 0.  1.
  9000001    1    1    2    0    0 -0.29489669605E-02 -0.94672683624E-02 -0.34333773584E-01  0.35750994182E-01  0.10000000475E-02 0. -1.
</event>
<event>
 4   0  0.2441219E-02  0.9118800E+02  0.7818609E-02  0.1379984E+01
      -11   -1    0    0    0    0  0.00000000000E+00  0.00000000000E+00  0.35740347158E-01  0.35744000000E-01  0.51099999109E-03 0. -1.
       11   -1    0    0    0    0 -0.00000000000E+00 -0.00000000000E+00 -0.35740347158E-01  0.35744000000E-01  0.51099999109E-03 0.  1.
       22    1    1    2    0    0  0.30704199075E-02  0.30700768433E-02 -0.35472253025E-01  0.35737005818E-01  0.00000000000E+00 0.  1.
  9000001    1    1    2    0    0 -0.30704199075E-02 -0.30700768433E-02  0.35472253025E-01  0.35750994182E-01  0.10000000475E-02 0. -1.
</event>
<event>
 4   0  0.2441219E-02  0.9118800E+02  0.7818609E-02  0.1379984E+01
      -11   -1    0    0    0    0  0.00000000000E+00  0.00000000000E+00  0.35740347158E-01  0.35744000000E-01  0.51099999109E-03 0.  1.
       11   -1    0    0    0    0 -0.00000000000E+00 -0.00000000000E+00 -0.35740347158E-01  0.35744000000E-01  0.51099999109E-03 0. -1.
       22    1    1    2    0    0  0.19751156840E-01  0.13100394277E-01  0.26747057000E-01  0.35737005818E-01  0.00000000000E+00 0.  1.
  9000001    1    1    2    0    0 -0.19751156840E-01 -0.13100394277E-01 -0.26747057000E-01  0.35750994182E-01  0.10000000475E-02 0. -1.
</event>
<event>
 4   0  0.2441219E-02  0.9118800E+02  0.7818609E-02  0.1379984E+01
      -11   -1    0    0    0    0  0.00000000000E+00  0.00000000000E+00  0.35740347158E-01  0.35744000000E-01  0.51099999109E-03 0.  1.
       11   -1    0    0    0    0 -0.00000000000E+00 -0.00000000000E+00 -0.35740347158E-01  0.35744000000E-01  0.51099999109E-03 0. -1.
       22    1    1    2    0    0 -0.18220559935E-01 -0.76038969411E-02  0.29788009867E-01  0.35737005818E-01  0.00000000000E+00 0.  1.
  9000001    1    1    2    0    0  0.18220559935E-01  0.76038969411E-02 -0.29788009867E-01  0.35750994182E-01  0.10000000475E-02 0. -1.
</event>
<event>
 4   0  0.2441219E-02  0.9118800E+02  0.7818609E-02  0.1379984E+01
      -11   -1    0    0    0    0  0.00000000000E+00  0.00000000000E+00  0.35740347158E-01  0.35744000000E-01  0.51099999109E-03 0.  1.
       11   -1    0    0    0    0 -0.00000000000E+00 -0.00000000000E+00 -0.35740347158E-01  0.35744000000E-01  0.51099999109E-03 0. -1.
       22    1    1    2    0    0 -0.27372846120E-01  0.14159372455E-01 -0.18093453286E-01  0.35737005818E-01  0.00000000000E+00 0. -1.
  9000001    1    1    2    0    0  0.27372846120E-01 -0.14159372455E-01  0.18093453286E-01  0.35750994182E-01  0.10000000475E-02 0.  1.
</event>
<event>
 4   0  0.2441219E-02  0.9118800E+02  0.7818609E-02  0.1379984E+01
      -11   -1    0    0    0    0  0.00000000000E+00  0.00000000000E+00  0.35740347158E-01  0.35744000000E-01  0.51099999109E-03 0. -1.
       11   -1    0    0    0    0 -0.00000000000E+00 -0.00000000000E+00 -0.35740347158E-01  0.35744000000E-01  0.51099999109E-03 0.  1.
       22    1    1    2    0    0 -0.82848336950E-02  0.36414032519E-02 -0.34572175197E-01  0.35737005818E-01  0.00000000000E+00 0.  1.
  9000001    1    1    2    0    0  0.82848336950E-02 -0.36414032519E-02  0.34572175197E-01  0.35750994182E-01  0.10000000475E-02 0. -1.
</event>
<event>
 4   0  0.2441219E-02  0.9118800E+02  0.7818609E-02  0.1379984E+01
      -11   -1    0    0    0    0  0.00000000000E+00  0.00000000000E+00  0.35740347158E-01  0.35744000000E-01  0.51099999109E-03 0. -1.
       11   -1    0    0    0    0 -0.00000000000E+00 -0.00000000000E+00 -0.35740347158E-01  0.35744000000E-01  0.51099999109E-03 0.  1.
       22    1    1    2    0    0  0.13315835187E-01 -0.28766633210E-01 -0.16501603919E-01  0.35737005818E-01  0.00000000000E+00 0.  1.
  9000001    1    1    2    0    0 -0.13315835187E-01  0.28766633210E-01  0.16501603919E-01  0.35750994182E-01  0.10000000475E-02 0. -1.
</event>
<event>
 4   0  0.2441219E-02  0.9118800E+02  0.7818609E-02  0.1379984E+01
      -11   -1    0    0    0    0  0.00000000000E+00  0.00000000000E+00  0.35740347158E-01  0.35744000000E-01  0.51099999109E-03 0.  1.
       11   -1    0    0    0    0 -0.00000000000E+00 -0.00000000000E+00 -0.35740347158E-01  0.35744000000E-01  0.51099999109E-03 0. -1.
       22    1    1    2    0    0  0.28287042888E-01 -0.18798410880E-01  0.11117397983E-01  0.35737005818E-01  0.00000000000E+00 0.  1.
  9000001    1    1    2    0    0 -0.28287042888E-01  0.18798410880E-01 -0.11117397983E-01  0.35750994182E-01  0.10000000475E-02 0. -1.
</event>
<event>
 4   0  0.2441219E-02  0.9118800E+02  0.7818609E-02  0.1379984E+01
      -11   -1    0    0    0    0  0.00000000000E+00  0.00000000000E+00  0.35740347158E-01  0.35744000000E-01  0.51099999109E-03 0. -1.
       11   -1    0    0    0    0 -0.00000000000E+00 -0.00000000000E+00 -0.35740347158E-01  0.35744000000E-01  0.51099999109E-03 0.  1.
       22    1    1    2    0    0  0.15112771925E-01  0.12165875471E-01 -0.30012150600E-01  0.35737005818E-01  0.00000000000E+00 0.  1.
  9000001    1    1    2    0    0 -0.15112771925E-01 -0.12165875471E-01  0.30012150600E-01  0.35750994182E-01  0.10000000475E-02 0. -1.
</event>
<event>
 4   0  0.2441219E-02  0.9118800E+02  0.7818609E-02  0.1379984E+01
      -11   -1    0    0    0    0  0.00000000000E+00  0.00000000000E+00  0.35740347158E-01  0.35744000000E-01  0.51099999109E-03 0. -1.
       11   -1    0    0    0    0 -0.00000000000E+00 -0.00000000000E+00 -0.35740347158E-01  0.35744000000E-01  0.51099999109E-03 0.  1.
       22    1    1    2    0    0 -0.23913477411E-02 -0.21325632752E-02 -0.35593078186E-01  0.35737005818E-01  0.00000000000E+00 0.  1.
  9000001    1    1    2    0    0  0.23913477411E-02  0.21325632752E-02  0.35593078186E-01  0.35750994182E-01  0.10000000475E-02 0. -1.
</event>
<event>
 4   0  0.2441219E-02  0.9118800E+02  0.7818609E-02  0.1379984E+01
      -11   -1    0    0    0    0  0.00000000000E+00  0.00000000000E+00  0.35740347158E-01  0.35744000000E-01  0.51099999109E-03 0.  1.
       11   -1    0    0    0    0 -0.00000000000E+00 -0.00000000000E+00 -0.35740347158E-01  0.35744000000E-01  0.51099999109E-03 0. -1.
       22    1    1    2    0    0 -0.10591026214E-01 -0.71551846964E-02  0.33373149096E-01  0.35737005818E-01  0.00000000000E+00 0.  1.
  9000001    1    1    2    0    0  0.10591026214E-01  0.71551846964E-02 -0.33373149096E-01  0.35750994182E-01  0.10000000475E-02 0. -1.
</event>
<event>
 4   0  0.2441219E-02  0.9118800E+02  0.7818609E-02  0.1379984E+01
      -11   -1    0    0    0    0  0.00000000000E+00  0.00000000000E+00  0.35740347158E-01  0.35744000000E-01  0.51099999109E-03 0. -1.
       11   -1    0    0    0    0 -0.00000000000E+00 -0.00000000000E+00 -0.35740347158E-01  0.35744000000E-01  0.51099999109E-03 0.  1.
       22    1    1    2    0    0  0.18086354421E-01  0.80631520994E-03 -0.30811803329E-01  0.35737005818E-01  0.00000000000E+00 0.  1.
  9000001    1    1    2    0    0 -0.18086354421E-01 -0.80631520994E-03  0.30811803329E-01  0.35750994182E-01  0.10000000475E-02 0. -1.
</event>
<event>
 4   0  0.2441219E-02  0.9118800E+02  0.7818609E-02  0.1379984E+01
      -11   -1    0    0    0    0  0.00000000000E+00  0.00000000000E+00  0.35740347158E-01  0.35744000000E-01  0.51099999109E-03 0. -1.
       11   -1    0    0    0    0 -0.00000000000E+00 -0.00000000000E+00 -0.35740347158E-01  0.35744000000E-01  0.51099999109E-03 0.  1.
       22    1    1    2    0    0  0.24445267792E-03 -0.87544218466E-02  0.34647278766E-01  0.35737005818E-01  0.00000000000E+00 0. -1.
  9000001    1    1    2    0    0 -0.24445267792E-03  0.87544218466E-02 -0.34647278766E-01  0.35750994182E-01  0.10000000475E-02 0.  1.
</event>
<event>
 4   0  0.2441219E-02  0.9118800E+02  0.7818609E-02  0.1379984E+01
      -11   -1    0    0    0    0  0.00000000000E+00  0.00000000000E+00  0.35740347158E-01  0.35744000000E-01  0.51099999109E-03 0.  1.
       11   -1    0    0    0    0 -0.00000000000E+00 -0.00000000000E+00 -0.35740347158E-01  0.35744000000E-01  0.51099999109E-03 0. -1.
       22    1    1    2    0    0  0.41623829897E-02  0.86647431277E-02 -0.34419912540E-01  0.35737005818E-01  0.00000000000E+00 0. -1.
  9000001    1    1    2    0    0 -0.41623829897E-02 -0.86647431277E-02  0.34419912540E-01  0.35750994182E-01  0.10000000475E-02 0.  1.
</event>
<event>
 4   0  0.2441219E-02  0.9118800E+02  0.7818609E-02  0.1379984E+01
      -11   -1    0    0    0    0  0.00000000000E+00  0.00000000000E+00  0.35740347158E-01  0.35744000000E-01  0.51099999109E-03 0.  1.
       11   -1    0    0    0    0 -0.00000000000E+00 -0.00000000000E+00 -0.35740347158E-01  0.35744000000E-01  0.51099999109E-03 0. -1.
       22    1    1    2    0    0  0.49558288766E-02  0.95490246991E-02 -0.34079164783E-01  0.35737005818E-01  0.00000000000E+00 0. -1.
  9000001    1    1    2    0    0 -0.49558288766E-02 -0.95490246991E-02  0.34079164783E-01  0.35750994182E-01  0.10000000475E-02 0.  1.
</event>
<event>
 4   0  0.2441219E-02  0.9118800E+02  0.7818609E-02  0.1379984E+01
      -11   -1    0    0    0    0  0.00000000000E+00  0.00000000000E+00  0.35740347158E-01  0.35744000000E-01  0.51099999109E-03 0. -1.
       11   -1    0    0    0    0 -0.00000000000E+00 -0.00000000000E+00 -0.35740347158E-01  0.35744000000E-01  0.51099999109E-03 0.  1.
       22    1    1    2    0    0  0.60418256973E-03 -0.45621655046E-02 -0.35439458153E-01  0.35737005818E-01  0.00000000000E+00 0.  1.
  9000001    1    1    2    0    0 -0.60418256973E-03  0.45621655046E-02  0.35439458153E-01  0.35750994182E-01  0.10000000475E-02 0. -1.
</event>
<event>
 4   0  0.2441219E-02  0.9118800E+02  0.7818609E-02  0.1379984E+01
      -11   -1    0    0    0    0  0.00000000000E+00  0.00000000000E+00  0.35740347158E-01  0.35744000000E-01  0.51099999109E-03 0.  1.
       11   -1    0    0    0    0 -0.00000000000E+00 -0.00000000000E+00 -0.35740347158E-01  0.35744000000E-01  0.51099999109E-03 0. -1.
       22    1    1    2    0    0  0.13695850898E-02 -0.24038428547E-01  0.26408554950E-01  0.35737005818E-01  0.00000000000E+00 0.  1.
  9000001    1    1    2    0    0 -0.13695850898E-02  0.24038428547E-01 -0.26408554950E-01  0.35750994182E-01  0.10000000475E-02 0. -1.
</event>
<event>
 4   0  0.2441219E-02  0.9118800E+02  0.7818609E-02  0.1379984E+01
      -11   -1    0    0    0    0  0.00000000000E+00  0.00000000000E+00  0.35740347158E-01  0.35744000000E-01  0.51099999109E-03 0. -1.
       11   -1    0    0    0    0 -0.00000000000E+00 -0.00000000000E+00 -0.35740347158E-01  0.35744000000E-01  0.51099999109E-03 0.  1.
       22    1    1    2    0    0  0.28407824818E-02 -0.28484444608E-02 -0.35509856433E-01  0.35737005818E-01  0.00000000000E+00 0.  1.
  9000001    1    1    2    0    0 -0.28407824818E-02  0.28484444608E-02  0.35509856433E-01  0.35750994182E-01  0.10000000475E-02 0. -1.
</event>
<event>
 4   0  0.2441219E-02  0.9118800E+02  0.7818609E-02  0.1379984E+01
      -11   -1    0    0    0    0  0.00000000000E+00  0.00000000000E+00  0.35740347158E-01  0.35744000000E-01  0.51099999109E-03 0.  1.
       11   -1    0    0    0    0 -0.00000000000E+00 -0.00000000000E+00 -0.35740347158E-01  0.35744000000E-01  0.51099999109E-03 0. -1.
       22    1    1    2    0    0  0.33844898984E-03  0.38011685598E-02  0.35532663209E-01  0.35737005818E-01  0.00000000000E+00 0.  1.
  9000001    1    1    2    0    0 -0.33844898984E-03 -0.38011685598E-02 -0.35532663209E-01  0.35750994182E-01  0.10000000475E-02 0. -1.
</event>
<event>
 4   0  0.2441219E-02  0.9118800E+02  0.7818609E-02  0.1379984E+01
      -11   -1    0    0    0    0  0.00000000000E+00  0.00000000000E+00  0.35740347158E-01  0.35744000000E-01  0.51099999109E-03 0. -1.
       11   -1    0    0    0    0 -0.00000000000E+00 -0.00000000000E+00 -0.35740347158E-01  0.35744000000E-01  0.51099999109E-03 0.  1.
       22    1    1    2    0    0  0.34081552902E-01  0.40482836428E-02 -0.99595550198E-02  0.35737005818E-01  0.00000000000E+00 0.  1.
  9000001    1    1    2    0    0 -0.34081552902E-01 -0.40482836428E-02  0.99595550198E-02  0.35750994182E-01  0.10000000475E-02 0. -1.
</event>
<event>
 4   0  0.2441219E-02  0.9118800E+02  0.7818609E-02  0.1379984E+01
      -11   -1    0    0    0    0  0.00000000000E+00  0.00000000000E+00  0.35740347158E-01  0.35744000000E-01  0.51099999109E-03 0.  1.
       11   -1    0    0    0    0 -0.00000000000E+00 -0.00000000000E+00 -0.35740347158E-01  0.35744000000E-01  0.51099999109E-03 0. -1.
       22    1    1    2    0    0 -0.44871063496E-02  0.16954368758E-03 -0.35453782822E-01  0.35737005818E-01  0.00000000000E+00 0. -1.
  9000001    1    1    2    0    0  0.44871063496E-02 -0.16954368758E-03  0.35453782822E-01  0.35750994182E-01  0.10000000475E-02 0.  1.
</event>
<event>
 4   0  0.2441219E-02  0.9118800E+02  0.7818609E-02  0.1379984E+01
      -11   -1    0    0    0    0  0.00000000000E+00  0.00000000000E+00  0.35740347158E-01  0.35744000000E-01  0.51099999109E-03 0. -1.
       11   -1    0    0    0    0 -0.00000000000E+00 -0.00000000000E+00 -0.35740347158E-01  0.35744000000E-01  0.51099999109E-03 0.  1.
       22    1    1    2    0    0 -0.28675416979E-01 -0.14686153282E-01 -0.15465152689E-01  0.35737005818E-01  0.00000000000E+00 0.  1.
  9000001    1    1    2    0    0  0.28675416979E-01  0.14686153282E-01  0.15465152689E-01  0.35750994182E-01  0.10000000475E-02 0. -1.
</event>
<event>
 4   0  0.2441219E-02  0.9118800E+02  0.7818609E-02  0.1379984E+01
      -11   -1    0    0    0    0  0.00000000000E+00  0.00000000000E+00  0.35740347158E-01  0.35744000000E-01  0.51099999109E-03 0.  1.
       11   -1    0    0    0    0 -0.00000000000E+00 -0.00000000000E+00 -0.35740347158E-01  0.35744000000E-01  0.51099999109E-03 0. -1.
       22    1    1    2    0    0 -0.15243945353E-02 -0.50056993186E-02 -0.35351842675E-01  0.35737005818E-01  0.00000000000E+00 0. -1.
  9000001    1    1    2    0    0  0.15243945353E-02  0.50056993186E-02  0.35351842675E-01  0.35750994182E-01  0.10000000475E-02 0.  1.
</event>
<event>
 4   0  0.2441219E-02  0.9118800E+02  0.7818609E-02  0.1379984E+01
      -11   -1    0    0    0    0  0.00000000000E+00  0.00000000000E+00  0.35740347158E-01  0.35744000000E-01  0.51099999109E-03 0.  1.
       11   -1    0    0    0    0 -0.00000000000E+00 -0.00000000000E+00 -0.35740347158E-01  0.35744000000E-01  0.51099999109E-03 0. -1.
       22    1    1    2    0    0 -0.67231343709E-03 -0.11065075844E-01  0.33974191324E-01  0.35737005818E-01  0.00000000000E+00 0.  1.
  9000001    1    1    2    0    0  0.67231343709E-03  0.11065075844E-01 -0.33974191324E-01  0.35750994182E-01  0.10000000475E-02 0. -1.
</event>
<event>
 4   0  0.2441219E-02  0.9118800E+02  0.7818609E-02  0.1379984E+01
      -11   -1    0    0    0    0  0.00000000000E+00  0.00000000000E+00  0.35740347158E-01  0.35744000000E-01  0.51099999109E-03 0. -1.
       11   -1    0    0    0    0 -0.00000000000E+00 -0.00000000000E+00 -0.35740347158E-01  0.35744000000E-01  0.51099999109E-03 0.  1.
       22    1    1    2    0    0  0.33632644416E-01  0.12074818882E-01  0.42138271260E-03  0.35737005818E-01  0.00000000000E+00 0. -1.
  9000001    1    1    2    0    0 -0.33632644416E-01 -0.12074818882E-01 -0.42138271260E-03  0.35750994182E-01  0.10000000475E-02 0.  1.
</event>
<event>
 4   0  0.2441219E-02  0.9118800E+02  0.7818609E-02  0.1379984E+01
      -11   -1    0    0    0    0  0.00000000000E+00  0.00000000000E+00  0.35740347158E-01  0.35744000000E-01  0.51099999109E-03 0.  1.
       11   -1    0    0    0    0 -0.00000000000E+00 -0.00000000000E+00 -0.35740347158E-01  0.35744000000E-01  0.51099999109E-03 0. -1.
       22    1    1    2    0    0 -0.61706185238E-03  0.44062373707E-02 -0.35458960670E-01  0.35737005818E-01  0.00000000000E+00 0. -1.
  9000001    1    1    2    0    0  0.61706185238E-03 -0.44062373707E-02  0.35458960670E-01  0.35750994182E-01  0.10000000475E-02 0.  1.
</event>
<event>
 4   0  0.2441219E-02  0.9118800E+02  0.7818609E-02  0.1379984E+01
      -11   -1    0    0    0    0  0.00000000000E+00  0.00000000000E+00  0.35740347158E-01  0.35744000000E-01  0.51099999109E-03 0.  1.
       11   -1    0    0    0    0 -0.00000000000E+00 -0.00000000000E+00 -0.35740347158E-01  0.35744000000E-01  0.51099999109E-03 0. -1.
       22    1    1    2    0    0 -0.82450990105E-02 -0.26375383061E-01 -0.22660341912E-01  0.35737005818E-01  0.00000000000E+00 0. -1.
  9000001    1    1    2    0    0  0.82450990105E-02  0.26375383061E-01  0.22660341912E-01  0.35750994182E-01  0.10000000475E-02 0.  1.
</event>
<event>
 4   0  0.2441219E-02  0.9118800E+02  0.7818609E-02  0.1379984E+01
      -11   -1    0    0    0    0  0.00000000000E+00  0.00000000000E+00  0.35740347158E-01  0.35744000000E-01  0.51099999109E-03 0.  1.
       11   -1    0    0    0    0 -0.00000000000E+00 -0.00000000000E+00 -0.35740347158E-01  0.35744000000E-01  0.51099999109E-03 0. -1.
       22    1    1    2    0    0 -0.31525996428E-01  0.50723899368E-02  0.16047304897E-01  0.35737005818E-01  0.00000000000E+00 0.  1.
  9000001    1    1    2    0    0  0.31525996428E-01 -0.50723899368E-02 -0.16047304897E-01  0.35750994182E-01  0.10000000475E-02 0. -1.
</event>
<event>
 4   0  0.2441219E-02  0.9118800E+02  0.7818609E-02  0.1379984E+01
      -11   -1    0    0    0    0  0.00000000000E+00  0.00000000000E+00  0.35740347158E-01  0.35744000000E-01  0.51099999109E-03 0.  1.
       11   -1    0    0    0    0 -0.00000000000E+00 -0.00000000000E+00 -0.35740347158E-01  0.35744000000E-01  0.51099999109E-03 0. -1.
       22    1    1    2    0    0  0.16343578997E-01  0.35737434422E-02  0.31579255347E-01  0.35737005818E-01  0.00000000000E+00 0.  1.
  9000001    1    1    2    0    0 -0.16343578997E-01 -0.35737434422E-02 -0.31579255347E-01  0.35750994182E-01  0.10000000475E-02 0. -1.
</event>
<event>
 4   0  0.2441219E-02  0.9118800E+02  0.7818609E-02  0.1379984E+01
      -11   -1    0    0    0    0  0.00000000000E+00  0.00000000000E+00  0.35740347158E-01  0.35744000000E-01  0.51099999109E-03 0. -1.
       11   -1    0    0    0    0 -0.00000000000E+00 -0.00000000000E+00 -0.35740347158E-01  0.35744000000E-01  0.51099999109E-03 0.  1.
       22    1    1    2    0    0 -0.10221873703E-01 -0.24218041884E-01  0.24210190626E-01  0.35737005818E-01  0.00000000000E+00 0. -1.
  9000001    1    1    2    0    0  0.10221873703E-01  0.24218041884E-01 -0.24210190626E-01  0.35750994182E-01  0.10000000475E-02 0.  1.
</event>
<event>
 4   0  0.2441219E-02  0.9118800E+02  0.7818609E-02  0.1379984E+01
      -11   -1    0    0    0    0  0.00000000000E+00  0.00000000000E+00  0.35740347158E-01  0.35744000000E-01  0.51099999109E-03 0. -1.
       11   -1    0    0    0    0 -0.00000000000E+00 -0.00000000000E+00 -0.35740347158E-01  0.35744000000E-01  0.51099999109E-03 0.  1.
       22    1    1    2    0    0 -0.31512974062E-02 -0.72880889231E-02  0.34843746489E-01  0.35737005818E-01  0.00000000000E+00 0. -1.
  9000001    1    1    2    0    0  0.31512974062E-02  0.72880889231E-02 -0.34843746489E-01  0.35750994182E-01  0.10000000475E-02 0.  1.
</event>
<event>
 4   0  0.2441219E-02  0.9118800E+02  0.7818609E-02  0.1379984E+01
      -11   -1    0    0    0    0  0.00000000000E+00  0.00000000000E+00  0.35740347158E-01  0.35744000000E-01  0.51099999109E-03 0.  1.
       11   -1    0    0    0    0 -0.00000000000E+00 -0.00000000000E+00 -0.35740347158E-01  0.35744000000E-01  0.51099999109E-03 0. -1.
       22    1    1    2    0    0 -0.10713599599E-01  0.21113895212E-02  0.34027847460E-01  0.35737005818E-01  0.00000000000E+00 0.  1.
  9000001    1    1    2    0    0  0.10713599599E-01 -0.21113895212E-02 -0.34027847460E-01  0.35750994182E-01  0.10000000475E-02 0. -1.
</event>
<event>
 4   0  0.2441219E-02  0.9118800E+02  0.7818609E-02  0.1379984E+01
      -11   -1    0    0    0    0  0.00000000000E+00  0.00000000000E+00  0.35740347158E-01  0.35744000000E-01  0.51099999109E-03 0.  1.
       11   -1    0    0    0    0 -0.00000000000E+00 -0.00000000000E+00 -0.35740347158E-01  0.35744000000E-01  0.51099999109E-03 0. -1.
       22    1    1    2    0    0 -0.35501644929E-02 -0.24054748804E-02 -0.35478776861E-01  0.35737005818E-01  0.00000000000E+00 0. -1.
  9000001    1    1    2    0    0  0.35501644929E-02  0.24054748804E-02  0.35478776861E-01  0.35750994182E-01  0.10000000475E-02 0.  1.
</event>
<event>
 4   0  0.2441219E-02  0.9118800E+02  0.7818609E-02  0.1379984E+01
      -11   -1    0    0    0    0  0.00000000000E+00  0.00000000000E+00  0.35740347158E-01  0.35744000000E-01  0.51099999109E-03 0. -1.
       11   -1    0    0    0    0 -0.00000000000E+00 -0.00000000000E+00 -0.35740347158E-01  0.35744000000E-01  0.51099999109E-03 0.  1.
       22    1    1    2    0    0  0.43757585375E-02  0.80222766608E-03  0.35459029215E-01  0.35737005818E-01  0.00000000000E+00 0. -1.
  9000001    1    1    2    0    0 -0.43757585375E-02 -0.80222766608E-03 -0.35459029215E-01  0.35750994182E-01  0.10000000475E-02 0.  1.
</event>
<event>
 4   0  0.2441219E-02  0.9118800E+02  0.7818609E-02  0.1379984E+01
      -11   -1    0    0    0    0  0.00000000000E+00  0.00000000000E+00  0.35740347158E-01  0.35744000000E-01  0.51099999109E-03 0.  1.
       11   -1    0    0    0    0 -0.00000000000E+00 -0.00000000000E+00 -0.35740347158E-01  0.35744000000E-01  0.51099999109E-03 0. -1.
       22    1    1    2    0    0 -0.96337701734E-02  0.79198489372E-02  0.33490297848E-01  0.35737005818E-01  0.00000000000E+00 0.  1.
  9000001    1    1    2    0    0  0.96337701734E-02 -0.79198489372E-02 -0.33490297848E-01  0.35750994182E-01  0.10000000475E-02 0. -1.
</event>
<event>
 4   0  0.2441219E-02  0.9118800E+02  0.7818609E-02  0.1379984E+01
      -11   -1    0    0    0    0  0.00000000000E+00  0.00000000000E+00  0.35740347158E-01  0.35744000000E-01  0.51099999109E-03 0.  1.
       11   -1    0    0    0    0 -0.00000000000E+00 -0.00000000000E+00 -0.35740347158E-01  0.35744000000E-01  0.51099999109E-03 0. -1.
       22    1    1    2    0    0  0.12931071458E-01  0.22568414037E-01  0.24506890127E-01  0.35737005818E-01  0.00000000000E+00 0.  1.
  9000001    1    1    2    0    0 -0.12931071458E-01 -0.22568414037E-01 -0.24506890127E-01  0.35750994182E-01  0.10000000475E-02 0. -1.
</event>
<event>
 4   0  0.2441219E-02  0.9118800E+02  0.7818609E-02  0.1379984E+01
      -11   -1    0    0    0    0  0.00000000000E+00  0.00000000000E+00  0.35740347158E-01  0.35744000000E-01  0.51099999109E-03 0.  1.
       11   -1    0    0    0    0 -0.00000000000E+00 -0.00000000000E+00 -0.35740347158E-01  0.35744000000E-01  0.51099999109E-03 0. -1.
       22    1    1    2    0    0  0.92772979241E-02 -0.17170197528E-02  0.34469075579E-01  0.35737005818E-01  0.00000000000E+00 0.  1.
  9000001    1    1    2    0    0 -0.92772979241E-02  0.17170197528E-02 -0.34469075579E-01  0.35750994182E-01  0.10000000475E-02 0. -1.
</event>
<event>
 4   0  0.2441219E-02  0.9118800E+02  0.7818609E-02  0.1379984E+01
      -11   -1    0    0    0    0  0.00000000000E+00  0.00000000000E+00  0.35740347158E-01  0.35744000000E-01  0.51099999109E-03 0. -1.
       11   -1    0    0    0    0 -0.00000000000E+00 -0.00000000000E+00 -0.35740347158E-01  0.35744000000E-01  0.51099999109E-03 0.  1.
       22    1    1    2    0    0  0.37880667914E-02  0.27306726587E-01 -0.22740422554E-01  0.35737005818E-01  0.00000000000E+00 0.  1.
  9000001    1    1    2    0    0 -0.37880667914E-02 -0.27306726587E-01  0.22740422554E-01  0.35750994182E-01  0.10000000475E-02 0. -1.
</event>
<event>
 4   0  0.2441219E-02  0.9118800E+02  0.7818609E-02  0.1379984E+01
      -11   -1    0    0    0    0  0.00000000000E+00  0.00000000000E+00  0.35740347158E-01  0.35744000000E-01  0.51099999109E-03 0.  1.
       11   -1    0    0    0    0 -0.00000000000E+00 -0.00000000000E+00 -0.35740347158E-01  0.35744000000E-01  0.51099999109E-03 0. -1.
       22    1    1    2    0    0  0.18920942528E-02  0.25015745265E-02  0.35599096746E-01  0.35737005818E-01  0.00000000000E+00 0.  1.
  9000001    1    1    2    0    0 -0.18920942528E-02 -0.25015745265E-02 -0.35599096746E-01  0.35750994182E-01  0.10000000475E-02 0. -1.
</event>
<event>
 4   0  0.2441219E-02  0.9118800E+02  0.7818609E-02  0.1379984E+01
      -11   -1    0    0    0    0  0.00000000000E+00  0.00000000000E+00  0.35740347158E-01  0.35744000000E-01  0.51099999109E-03 0. -1.
       11   -1    0    0    0    0 -0.00000000000E+00 -0.00000000000E+00 -0.35740347158E-01  0.35744000000E-01  0.51099999109E-03 0.  1.
       22    1    1    2    0    0 -0.22165950814E-02 -0.23459165194E-02 -0.35590967489E-01  0.35737005818E-01  0.00000000000E+00 0.  1.
  9000001    1    1    2    0    0  0.22165950814E-02  0.23459165194E-02  0.35590967489E-01  0.35750994182E-01  0.10000000475E-02 0. -1.
</event>
<event>
 4   0  0.2441219E-02  0.9118800E+02  0.7818609E-02  0.1379984E+01
      -11   -1    0    0    0    0  0.00000000000E+00  0.00000000000E+00  0.35740347158E-01  0.35744000000E-01  0.51099999109E-03 0. -1.
       11   -1    0    0    0    0 -0.00000000000E+00 -0.00000000000E+00 -0.35740347158E-01  0.35744000000E-01  0.51099999109E-03 0.  1.
       22    1    1    2    0    0  0.20542830870E-01 -0.42262194346E-02 -0.28935527540E-01  0.35737005818E-01  0.00000000000E+00 0.  1.
  9000001    1    1    2    0    0 -0.20542830870E-01  0.42262194346E-02  0.28935527540E-01  0.35750994182E-01  0.10000000475E-02 0. -1.
</event>
<event>
 4   0  0.2441219E-02  0.9118800E+02  0.7818609E-02  0.1379984E+01
      -11   -1    0    0    0    0  0.00000000000E+00  0.00000000000E+00  0.35740347158E-01  0.35744000000E-01  0.51099999109E-03 0.  1.
       11   -1    0    0    0    0 -0.00000000000E+00 -0.00000000000E+00 -0.35740347158E-01  0.35744000000E-01  0.51099999109E-03 0. -1.
       22    1    1    2    0    0 -0.33523241445E-02  0.18776442429E-02 -0.35529846042E-01  0.35737005818E-01  0.00000000000E+00 0. -1.
  9000001    1    1    2    0    0  0.33523241445E-02 -0.18776442429E-02  0.35529846042E-01  0.35750994182E-01  0.10000000475E-02 0.  1.
</event>
<event>
 4   0  0.2441219E-02  0.9118800E+02  0.7818609E-02  0.1379984E+01
      -11   -1    0    0    0    0  0.00000000000E+00  0.00000000000E+00  0.35740347158E-01  0.35744000000E-01  0.51099999109E-03 0.  1.
       11   -1    0    0    0    0 -0.00000000000E+00 -0.00000000000E+00 -0.35740347158E-01  0.35744000000E-01  0.51099999109E-03 0. -1.
       22    1    1    2    0    0  0.46311457511E-02 -0.56842135291E-03  0.35431101748E-01  0.35737005818E-01  0.00000000000E+00 0.  1.
  9000001    1    1    2    0    0 -0.46311457511E-02  0.56842135291E-03 -0.35431101748E-01  0.35750994182E-01  0.10000000475E-02 0. -1.
</event>
<event>
 4   0  0.2441219E-02  0.9118800E+02  0.7818609E-02  0.1379984E+01
      -11   -1    0    0    0    0  0.00000000000E+00  0.00000000000E+00  0.35740347158E-01  0.35744000000E-01  0.51099999109E-03 0.  1.
       11   -1    0    0    0    0 -0.00000000000E+00 -0.00000000000E+00 -0.35740347158E-01  0.35744000000E-01  0.51099999109E-03 0. -1.
       22    1    1    2    0    0  0.42964748914E-02  0.16156631751E-01  0.31585394391E-01  0.35737005818E-01  0.00000000000E+00 0.  1.
  9000001    1    1    2    0    0 -0.42964748914E-02 -0.16156631751E-01 -0.31585394391E-01  0.35750994182E-01  0.10000000475E-02 0. -1.
</event>
<event>
 4   0  0.2441219E-02  0.9118800E+02  0.7818609E-02  0.1379984E+01
      -11   -1    0    0    0    0  0.00000000000E+00  0.00000000000E+00  0.35740347158E-01  0.35744000000E-01  0.51099999109E-03 0. -1.
       11   -1    0    0    0    0 -0.00000000000E+00 -0.00000000000E+00 -0.35740347158E-01  0.35744000000E-01  0.51099999109E-03 0.  1.
       22    1    1    2    0    0  0.83965853495E-02  0.76439462168E-02  0.33885115103E-01  0.35737005818E-01  0.00000000000E+00 0. -1.
  9000001    1    1    2    0    0 -0.83965853495E-02 -0.76439462168E-02 -0.33885115103E-01  0.35750994182E-01  0.10000000475E-02 0.  1.
</event>
<event>
 4   0  0.2441219E-02  0.9118800E+02  0.7818609E-02  0.1379984E+01
      -11   -1    0    0    0    0  0.00000000000E+00  0.00000000000E+00  0.35740347158E-01  0.35744000000E-01  0.51099999109E-03 0. -1.
       11   -1    0    0    0    0 -0.00000000000E+00 -0.00000000000E+00 -0.35740347158E-01  0.35744000000E-01  0.51099999109E-03 0.  1.
       22    1    1    2    0    0 -0.27188723251E-01 -0.13068299842E-01 -0.19160544149E-01  0.35737005818E-01  0.00000000000E+00 0.  1.
  9000001    1    1    2    0    0  0.27188723251E-01  0.13068299842E-01  0.19160544149E-01  0.35750994182E-01  0.10000000475E-02 0. -1.
</event>
<event>
 4   0  0.2441219E-02  0.9118800E+02  0.7818609E-02  0.1379984E+01
      -11   -1    0    0    0    0  0.00000000000E+00  0.00000000000E+00  0.35740347158E-01  0.35744000000E-01  0.51099999109E-03 0. -1.
       11   -1    0    0    0    0 -0.00000000000E+00 -0.00000000000E+00 -0.35740347158E-01  0.35744000000E-01  0.51099999109E-03 0.  1.
       22    1    1    2    0    0 -0.22251655686E-02  0.14806319551E-01 -0.32449270013E-01  0.35737005818E-01  0.00000000000E+00 0.  1.
  9000001    1    1    2    0    0  0.22251655686E-02 -0.14806319551E-01  0.32449270013E-01  0.35750994182E-01  0.10000000475E-02 0. -1.
</event>
<event>
 4   0  0.2441219E-02  0.9118800E+02  0.7818609E-02  0.1379984E+01
      -11   -1    0    0    0    0  0.00000000000E+00  0.00000000000E+00  0.35740347158E-01  0.35744000000E-01  0.51099999109E-03 0. -1.
       11   -1    0    0    0    0 -0.00000000000E+00 -0.00000000000E+00 -0.35740347158E-01  0.35744000000E-01  0.51099999109E-03 0.  1.
       22    1    1    2    0    0  0.48290159473E-02 -0.17000543878E-02  0.35368404048E-01  0.35737005818E-01  0.00000000000E+00 0. -1.
  9000001    1    1    2    0    0 -0.48290159473E-02  0.17000543878E-02 -0.35368404048E-01  0.35750994182E-01  0.10000000475E-02 0.  1.
</event>
<event>
 4   0  0.2441219E-02  0.9118800E+02  0.7818609E-02  0.1379984E+01
      -11   -1    0    0    0    0  0.00000000000E+00  0.00000000000E+00  0.35740347158E-01  0.35744000000E-01  0.51099999109E-03 0. -1.
       11   -1    0    0    0    0 -0.00000000000E+00 -0.00000000000E+00 -0.35740347158E-01  0.35744000000E-01  0.51099999109E-03 0.  1.
       22    1    1    2    0    0  0.31731534929E-02  0.75440642977E-03 -0.35587856815E-01  0.35737005818E-01  0.00000000000E+00 0.  1.
  9000001    1    1    2    0    0 -0.31731534929E-02 -0.75440642977E-03  0.35587856815E-01  0.35750994182E-01  0.10000000475E-02 0. -1.
</event>
<event>
 4   0  0.2441219E-02  0.9118800E+02  0.7818609E-02  0.1379984E+01
      -11   -1    0    0    0    0  0.00000000000E+00  0.00000000000E+00  0.35740347158E-01  0.35744000000E-01  0.51099999109E-03 0.  1.
       11   -1    0    0    0    0 -0.00000000000E+00 -0.00000000000E+00 -0.35740347158E-01  0.35744000000E-01  0.51099999109E-03 0. -1.
       22    1    1    2    0    0 -0.12465131728E-02  0.27686657406E-02 -0.35607783978E-01  0.35737005818E-01  0.00000000000E+00 0. -1.
  9000001    1    1    2    0    0  0.12465131728E-02 -0.27686657406E-02  0.35607783978E-01  0.35750994182E-01  0.10000000475E-02 0.  1.
</event>
<event>
 4   0  0.2441219E-02  0.9118800E+02  0.7818609E-02  0.1379984E+01
      -11   -1    0    0    0    0  0.00000000000E+00  0.00000000000E+00  0.35740347158E-01  0.35744000000E-01  0.51099999109E-03 0.  1.
       11   -1    0    0    0    0 -0.00000000000E+00 -0.00000000000E+00 -0.35740347158E-01  0.35744000000E-01  0.51099999109E-03 0. -1.
       22    1    1    2    0    0  0.46345954294E-02  0.49964632927E-02  0.35081183912E-01  0.35737005818E-01  0.00000000000E+00 0.  1.
  9000001    1    1    2    0    0 -0.46345954294E-02 -0.49964632927E-02 -0.35081183912E-01  0.35750994182E-01  0.10000000475E-02 0. -1.
</event>
<event>
 4   0  0.2441219E-02  0.9118800E+02  0.7818609E-02  0.1379984E+01
      -11   -1    0    0    0    0  0.00000000000E+00  0.00000000000E+00  0.35740347158E-01  0.35744000000E-01  0.51099999109E-03 0.  1.
       11   -1    0    0    0    0 -0.00000000000E+00 -0.00000000000E+00 -0.35740347158E-01  0.35744000000E-01  0.51099999109E-03 0. -1.
       22    1    1    2    0    0  0.18981180641E-01  0.19213466775E-01 -0.23402800277E-01  0.35737005818E-01  0.00000000000E+00 0. -1.
  9000001    1    1    2    0    0 -0.18981180641E-01 -0.19213466775E-01  0.23402800277E-01  0.35750994182E-01  0.10000000475E-02 0.  1.
</event>
<event>
 4   0  0.2441219E-02  0.9118800E+02  0.7818609E-02  0.1379984E+01
      -11   -1    0    0    0    0  0.00000000000E+00  0.00000000000E+00  0.35740347158E-01  0.35744000000E-01  0.51099999109E-03 0. -1.
       11   -1    0    0    0    0 -0.00000000000E+00 -0.00000000000E+00 -0.35740347158E-01  0.35744000000E-01  0.51099999109E-03 0.  1.
       22    1    1    2    0    0  0.81327139604E-02 -0.58838485053E-02  0.34298292600E-01  0.35737005818E-01  0.00000000000E+00 0. -1.
  9000001    1    1    2    0    0 -0.81327139604E-02  0.58838485053E-02 -0.34298292600E-01  0.35750994182E-01  0.10000000475E-02 0.  1.
</event>
<event>
 4   0  0.2441219E-02  0.9118800E+02  0.7818609E-02  0.1379984E+01
      -11   -1    0    0    0    0  0.00000000000E+00  0.00000000000E+00  0.35740347158E-01  0.35744000000E-01  0.51099999109E-03 0. -1.
       11   -1    0    0    0    0 -0.00000000000E+00 -0.00000000000E+00 -0.35740347158E-01  0.35744000000E-01  0.51099999109E-03 0.  1.
       22    1    1    2    0    0  0.53502065482E-02 -0.50915632795E-02 -0.34965480951E-01  0.35737005818E-01  0.00000000000E+00 0.  1.
  9000001    1    1    2    0    0 -0.53502065482E-02  0.50915632795E-02  0.34965480951E-01  0.35750994182E-01  0.10000000475E-02 0. -1.
</event>
<event>
 4   0  0.2441219E-02  0.9118800E+02  0.7818609E-02  0.1379984E+01
      -11   -1    0    0    0    0  0.00000000000E+00  0.00000000000E+00  0.35740347158E-01  0.35744000000E-01  0.51099999109E-03 0. -1.
       11   -1    0    0    0    0 -0.00000000000E+00 -0.00000000000E+00 -0.35740347158E-01  0.35744000000E-01  0.51099999109E-03 0.  1.
       22    1    1    2    0    0 -0.26756948360E-01  0.69756458015E-02 -0.22639338881E-01  0.35737005818E-01  0.00000000000E+00 0.  1.
  9000001    1    1    2    0    0  0.26756948360E-01 -0.69756458015E-02  0.22639338881E-01  0.35750994182E-01  0.10000000475E-02 0. -1.
</event>
<event>
 4   0  0.2441219E-02  0.9118800E+02  0.7818609E-02  0.1379984E+01
      -11   -1    0    0    0    0  0.00000000000E+00  0.00000000000E+00  0.35740347158E-01  0.35744000000E-01  0.51099999109E-03 0. -1.
       11   -1    0    0    0    0 -0.00000000000E+00 -0.00000000000E+00 -0.35740347158E-01  0.35744000000E-01  0.51099999109E-03 0.  1.
       22    1    1    2    0    0  0.33649268683E-01 -0.89444609126E-02  0.80533794745E-02  0.35737005818E-01  0.00000000000E+00 0.  1.
  9000001    1    1    2    0    0 -0.33649268683E-01  0.89444609126E-02 -0.80533794745E-02  0.35750994182E-01  0.10000000475E-02 0. -1.
</event>
<event>
 4   0  0.2441219E-02  0.9118800E+02  0.7818609E-02  0.1379984E+01
      -11   -1    0    0    0    0  0.00000000000E+00  0.00000000000E+00  0.35740347158E-01  0.35744000000E-01  0.51099999109E-03 0. -1.
       11   -1    0    0    0    0 -0.00000000000E+00 -0.00000000000E+00 -0.35740347158E-01  0.35744000000E-01  0.51099999109E-03 0.  1.
       22    1    1    2    0    0 -0.19240421378E-01  0.48030541842E-02  0.29729958637E-01  0.35737005818E-01  0.00000000000E+00 0. -1.
  9000001    1    1    2    0    0  0.19240421378E-01 -0.48030541842E-02 -0.29729958637E-01  0.35750994182E-01  0.10000000475E-02 0.  1.
</event>
<event>
 4   0  0.2441219E-02  0.9118800E+02  0.7818609E-02  0.1379984E+01
      -11   -1    0    0    0    0  0.00000000000E+00  0.00000000000E+00  0.35740347158E-01  0.35744000000E-01  0.51099999109E-03 0. -1.
       11   -1    0    0    0    0 -0.00000000000E+00 -0.00000000000E+00 -0.35740347158E-01  0.35744000000E-01  0.51099999109E-03 0.  1.
       22    1    1    2    0    0 -0.17494347112E-01  0.48581675127E-02 -0.30781156775E-01  0.35737005818E-01  0.00000000000E+00 0.  1.
  9000001    1    1    2    0    0  0.17494347112E-01 -0.48581675127E-02  0.30781156775E-01  0.35750994182E-01  0.10000000475E-02 0. -1.
</event>
<event>
 4   0  0.2441219E-02  0.9118800E+02  0.7818609E-02  0.1379984E+01
      -11   -1    0    0    0    0  0.00000000000E+00  0.00000000000E+00  0.35740347158E-01  0.35744000000E-01  0.51099999109E-03 0. -1.
       11   -1    0    0    0    0 -0.00000000000E+00 -0.00000000000E+00 -0.35740347158E-01  0.35744000000E-01  0.51099999109E-03 0.  1.
       22    1    1    2    0    0  0.14007718159E-01 -0.13082201031E-02 -0.32851270554E-01  0.35737005818E-01  0.00000000000E+00 0.  1.
  9000001    1    1    2    0    0 -0.14007718159E-01  0.13082201031E-02  0.32851270554E-01  0.35750994182E-01  0.10000000475E-02 0. -1.
</event>
<event>
 4   0  0.2441219E-02  0.9118800E+02  0.7818609E-02  0.1379984E+01
      -11   -1    0    0    0    0  0.00000000000E+00  0.00000000000E+00  0.35740347158E-01  0.35744000000E-01  0.51099999109E-03 0.  1.
       11   -1    0    0    0    0 -0.00000000000E+00 -0.00000000000E+00 -0.35740347158E-01  0.35744000000E-01  0.51099999109E-03 0. -1.
       22    1    1    2    0    0 -0.31583082513E-03  0.40374878055E-02 -0.35506795518E-01  0.35737005818E-01  0.00000000000E+00 0. -1.
  9000001    1    1    2    0    0  0.31583082513E-03 -0.40374878055E-02  0.35506795518E-01  0.35750994182E-01  0.10000000475E-02 0.  1.
</event>
<event>
 4   0  0.2441219E-02  0.9118800E+02  0.7818609E-02  0.1379984E+01
      -11   -1    0    0    0    0  0.00000000000E+00  0.00000000000E+00  0.35740347158E-01  0.35744000000E-01  0.51099999109E-03 0.  1.
       11   -1    0    0    0    0 -0.00000000000E+00 -0.00000000000E+00 -0.35740347158E-01  0.35744000000E-01  0.51099999109E-03 0. -1.
       22    1    1    2    0    0 -0.36888525487E-02  0.83907456839E-03  0.35536205560E-01  0.35737005818E-01  0.00000000000E+00 0.  1.
  9000001    1    1    2    0    0  0.36888525487E-02 -0.83907456839E-03 -0.35536205560E-01  0.35750994182E-01  0.10000000475E-02 0. -1.
</event>
<event>
 4   0  0.2441219E-02  0.9118800E+02  0.7818609E-02  0.1379984E+01
      -11   -1    0    0    0    0  0.00000000000E+00  0.00000000000E+00  0.35740347158E-01  0.35744000000E-01  0.51099999109E-03 0.  1.
       11   -1    0    0    0    0 -0.00000000000E+00 -0.00000000000E+00 -0.35740347158E-01  0.35744000000E-01  0.51099999109E-03 0. -1.
       22    1    1    2    0    0  0.14398796390E-01  0.31009988751E-01  0.10401386689E-01  0.35737005818E-01  0.00000000000E+00 0. -1.
  9000001    1    1    2    0    0 -0.14398796390E-01 -0.31009988751E-01 -0.10401386689E-01  0.35750994182E-01  0.10000000475E-02 0.  1.
</event>
<event>
 4   0  0.2441219E-02  0.9118800E+02  0.7818609E-02  0.1379984E+01
      -11   -1    0    0    0    0  0.00000000000E+00  0.00000000000E+00  0.35740347158E-01  0.35744000000E-01  0.51099999109E-03 0.  1.
       11   -1    0    0    0    0 -0.00000000000E+00 -0.00000000000E+00 -0.35740347158E-01  0.35744000000E-01  0.51099999109E-03 0. -1.
       22    1    1    2    0    0 -0.72819622357E-02  0.28283230526E-03 -0.34986091762E-01  0.35737005818E-01  0.00000000000E+00 0. -1.
  9000001    1    1    2    0    0  0.72819622357E-02 -0.28283230526E-03  0.34986091762E-01  0.35750994182E-01  0.10000000475E-02 0.  1.
</event>
<event>
 4   0  0.2441219E-02  0.9118800E+02  0.7818609E-02  0.1379984E+01
      -11   -1    0    0    0    0  0.00000000000E+00  0.00000000000E+00  0.35740347158E-01  0.35744000000E-01  0.51099999109E-03 0.  1.
       11   -1    0    0    0    0 -0.00000000000E+00 -0.00000000000E+00 -0.35740347158E-01  0.35744000000E-01  0.51099999109E-03 0. -1.
       22    1    1    2    0    0 -0.86320478786E-02 -0.19690698913E-02  0.34622884023E-01  0.35737005818E-01  0.00000000000E+00 0.  1.
  9000001    1    1    2    0    0  0.86320478786E-02  0.19690698913E-02 -0.34622884023E-01  0.35750994182E-01  0.10000000475E-02 0. -1.
</event>
<event>
 4   0  0.2441219E-02  0.9118800E+02  0.7818609E-02  0.1379984E+01
      -11   -1    0    0    0    0  0.00000000000E+00  0.00000000000E+00  0.35740347158E-01  0.35744000000E-01  0.51099999109E-03 0. -1.
       11   -1    0    0    0    0 -0.00000000000E+00 -0.00000000000E+00 -0.35740347158E-01  0.35744000000E-01  0.51099999109E-03 0.  1.
       22    1    1    2    0    0 -0.26496089123E-01 -0.47728065994E-03  0.23976301825E-01  0.35737005818E-01  0.00000000000E+00 0. -1.
  9000001    1    1    2    0    0  0.26496089123E-01  0.47728065994E-03 -0.23976301825E-01  0.35750994182E-01  0.10000000475E-02 0.  1.
</event>
<event>
 4   0  0.2441219E-02  0.9118800E+02  0.7818609E-02  0.1379984E+01
      -11   -1    0    0    0    0  0.00000000000E+00  0.00000000000E+00  0.35740347158E-01  0.35744000000E-01  0.51099999109E-03 0.  1.
       11   -1    0    0    0    0 -0.00000000000E+00 -0.00000000000E+00 -0.35740347158E-01  0.35744000000E-01  0.51099999109E-03 0. -1.
       22    1    1    2    0    0  0.37045030120E-02 -0.57230989665E-03  0.35539874841E-01  0.35737005818E-01  0.00000000000E+00 0.  1.
  9000001    1    1    2    0    0 -0.37045030120E-02  0.57230989665E-03 -0.35539874841E-01  0.35750994182E-01  0.10000000475E-02 0. -1.
</event>
<event>
 4   0  0.2441219E-02  0.9118800E+02  0.7818609E-02  0.1379984E+01
      -11   -1    0    0    0    0  0.00000000000E+00  0.00000000000E+00  0.35740347158E-01  0.35744000000E-01  0.51099999109E-03 0.  1.
       11   -1    0    0    0    0 -0.00000000000E+00 -0.00000000000E+00 -0.35740347158E-01  0.35744000000E-01  0.51099999109E-03 0. -1.
       22    1    1    2    0    0 -0.33979698178E-02  0.39756990209E-02  0.35352244671E-01  0.35737005818E-01  0.00000000000E+00 0.  1.
  9000001    1    1    2    0    0  0.33979698178E-02 -0.39756990209E-02 -0.35352244671E-01  0.35750994182E-01  0.10000000475E-02 0. -1.
</event>
<event>
 4   0  0.2441219E-02  0.9118800E+02  0.7818609E-02  0.1379984E+01
      -11   -1    0    0    0    0  0.00000000000E+00  0.00000000000E+00  0.35740347158E-01  0.35744000000E-01  0.51099999109E-03 0. -1.
       11   -1    0    0    0    0 -0.00000000000E+00 -0.00000000000E+00 -0.35740347158E-01  0.35744000000E-01  0.51099999109E-03 0.  1.
       22    1    1    2    0    0  0.29282141527E-02  0.78007818979E-03  0.35608294325E-01  0.35737005818E-01  0.00000000000E+00 0. -1.
  9000001    1    1    2    0    0 -0.29282141527E-02 -0.78007818979E-03 -0.35608294325E-01  0.35750994182E-01  0.10000000475E-02 0.  1.
</event>
<event>
 4   0  0.2441219E-02  0.9118800E+02  0.7818609E-02  0.1379984E+01
      -11   -1    0    0    0    0  0.00000000000E+00  0.00000000000E+00  0.35740347158E-01  0.35744000000E-01  0.51099999109E-03 0.  1.
       11   -1    0    0    0    0 -0.00000000000E+00 -0.00000000000E+00 -0.35740347158E-01  0.35744000000E-01  0.51099999109E-03 0. -1.
       22    1    1    2    0    0 -0.57875709117E-02 -0.55225207761E-03 -0.35260922073E-01  0.35737005818E-01  0.00000000000E+00 0. -1.
  9000001    1    1    2    0    0  0.57875709117E-02  0.55225207761E-03  0.35260922073E-01  0.35750994182E-01  0.10000000475E-02 0.  1.
</event>
<event>
 4   0  0.2441219E-02  0.9118800E+02  0.7818609E-02  0.1379984E+01
      -11   -1    0    0    0    0  0.00000000000E+00  0.00000000000E+00  0.35740347158E-01  0.35744000000E-01  0.51099999109E-03 0.  1.
       11   -1    0    0    0    0 -0.00000000000E+00 -0.00000000000E+00 -0.35740347158E-01  0.35744000000E-01  0.51099999109E-03 0. -1.
       22    1    1    2    0    0  0.23627358433E-02  0.31739329504E-02  0.35517280496E-01  0.35737005818E-01  0.00000000000E+00 0.  1.
  9000001    1    1    2    0    0 -0.23627358433E-02 -0.31739329504E-02 -0.35517280496E-01  0.35750994182E-01  0.10000000475E-02 0. -1.
</event>
<event>
 4   0  0.2441219E-02  0.9118800E+02  0.7818609E-02  0.1379984E+01
      -11   -1    0    0    0    0  0.00000000000E+00  0.00000000000E+00  0.35740347158E-01  0.35744000000E-01  0.51099999109E-03 0.  1.
       11   -1    0    0    0    0 -0.00000000000E+00 -0.00000000000E+00 -0.35740347158E-01  0.35744000000E-01  0.51099999109E-03 0. -1.
       22    1    1    2    0    0  0.46614009457E-02  0.32919643689E-02 -0.35278433875E-01  0.35737005818E-01  0.00000000000E+00 0. -1.
  9000001    1    1    2    0    0 -0.46614009457E-02 -0.32919643689E-02  0.35278433875E-01  0.35750994182E-01  0.10000000475E-02 0.  1.
</event>
<event>
 4   0  0.2441219E-02  0.9118800E+02  0.7818609E-02  0.1379984E+01
      -11   -1    0    0    0    0  0.00000000000E+00  0.00000000000E+00  0.35740347158E-01  0.35744000000E-01  0.51099999109E-03 0. -1.
       11   -1    0    0    0    0 -0.00000000000E+00 -0.00000000000E+00 -0.35740347158E-01  0.35744000000E-01  0.51099999109E-03 0.  1.
       22    1    1    2    0    0 -0.31073402871E-02  0.83597954311E-02 -0.34606239922E-01  0.35737005818E-01  0.00000000000E+00 0.  1.
  9000001    1    1    2    0    0  0.31073402871E-02 -0.83597954311E-02  0.34606239922E-01  0.35750994182E-01  0.10000000475E-02 0. -1.
</event>
<event>
 4   0  0.2441219E-02  0.9118800E+02  0.7818609E-02  0.1379984E+01
      -11   -1    0    0    0    0  0.00000000000E+00  0.00000000000E+00  0.35740347158E-01  0.35744000000E-01  0.51099999109E-03 0. -1.
       11   -1    0    0    0    0 -0.00000000000E+00 -0.00000000000E+00 -0.35740347158E-01  0.35744000000E-01  0.51099999109E-03 0.  1.
       22    1    1    2    0    0 -0.44237935969E-02  0.29447764577E-01 -0.19758360168E-01  0.35737005818E-01  0.00000000000E+00 0.  1.
  9000001    1    1    2    0    0  0.44237935969E-02 -0.29447764577E-01  0.19758360168E-01  0.35750994182E-01  0.10000000475E-02 0. -1.
</event>
<event>
 4   0  0.2441219E-02  0.9118800E+02  0.7818609E-02  0.1379984E+01
      -11   -1    0    0    0    0  0.00000000000E+00  0.00000000000E+00  0.35740347158E-01  0.35744000000E-01  0.51099999109E-03 0. -1.
       11   -1    0    0    0    0 -0.00000000000E+00 -0.00000000000E+00 -0.35740347158E-01  0.35744000000E-01  0.51099999109E-03 0.  1.
       22    1    1    2    0    0 -0.22991212467E-02 -0.22481218817E-02  0.35592043695E-01  0.35737005818E-01  0.00000000000E+00 0. -1.
  9000001    1    1    2    0    0  0.22991212467E-02  0.22481218817E-02 -0.35592043695E-01  0.35750994182E-01  0.10000000475E-02 0.  1.
</event>
<event>
 4   0  0.2441219E-02  0.9118800E+02  0.7818609E-02  0.1379984E+01
      -11   -1    0    0    0    0  0.00000000000E+00  0.00000000000E+00  0.35740347158E-01  0.35744000000E-01  0.51099999109E-03 0. -1.
       11   -1    0    0    0    0 -0.00000000000E+00 -0.00000000000E+00 -0.35740347158E-01  0.35744000000E-01  0.51099999109E-03 0.  1.
       22    1    1    2    0    0 -0.62168127562E-02 -0.10044127912E-01  0.33728331096E-01  0.35737005818E-01  0.00000000000E+00 0. -1.
  9000001    1    1    2    0    0  0.62168127562E-02  0.10044127912E-01 -0.33728331096E-01  0.35750994182E-01  0.10000000475E-02 0.  1.
</event>
<event>
 4   0  0.2441219E-02  0.9118800E+02  0.7818609E-02  0.1379984E+01
      -11   -1    0    0    0    0  0.00000000000E+00  0.00000000000E+00  0.35740347158E-01  0.35744000000E-01  0.51099999109E-03 0.  1.
       11   -1    0    0    0    0 -0.00000000000E+00 -0.00000000000E+00 -0.35740347158E-01  0.35744000000E-01  0.51099999109E-03 0. -1.
       22    1    1    2    0    0  0.34077824172E-01  0.66241340086E-02  0.84827078949E-02  0.35737005818E-01  0.00000000000E+00 0.  1.
  9000001    1    1    2    0    0 -0.34077824172E-01 -0.66241340086E-02 -0.84827078949E-02  0.35750994182E-01  0.10000000475E-02 0. -1.
</event>
<event>
 4   0  0.2441219E-02  0.9118800E+02  0.7818609E-02  0.1379984E+01
      -11   -1    0    0    0    0  0.00000000000E+00  0.00000000000E+00  0.35740347158E-01  0.35744000000E-01  0.51099999109E-03 0. -1.
       11   -1    0    0    0    0 -0.00000000000E+00 -0.00000000000E+00 -0.35740347158E-01  0.35744000000E-01  0.51099999109E-03 0.  1.
       22    1    1    2    0    0 -0.17131663539E-01  0.16731311723E-01  0.26527398992E-01  0.35737005818E-01  0.00000000000E+00 0. -1.
  9000001    1    1    2    0    0  0.17131663539E-01 -0.16731311723E-01 -0.26527398992E-01  0.35750994182E-01  0.10000000475E-02 0.  1.
</event>
<event>
 4   0  0.2441219E-02  0.9118800E+02  0.7818609E-02  0.1379984E+01
      -11   -1    0    0    0    0  0.00000000000E+00  0.00000000000E+00  0.35740347158E-01  0.35744000000E-01  0.51099999109E-03 0.  1.
       11   -1    0    0    0    0 -0.00000000000E+00 -0.00000000000E+00 -0.35740347158E-01  0.35744000000E-01  0.51099999109E-03 0. -1.
       22    1    1    2    0    0 -0.82742072452E-03  0.98211166332E-02  0.34351049881E-01  0.35737005818E-01  0.00000000000E+00 0.  1.
  9000001    1    1    2    0    0  0.82742072452E-03 -0.98211166332E-02 -0.34351049881E-01  0.35750994182E-01  0.10000000475E-02 0. -1.
</event>
<event>
 4   0  0.2441219E-02  0.9118800E+02  0.7818609E-02  0.1379984E+01
      -11   -1    0    0    0    0  0.00000000000E+00  0.00000000000E+00  0.35740347158E-01  0.35744000000E-01  0.51099999109E-03 0.  1.
       11   -1    0    0    0    0 -0.00000000000E+00 -0.00000000000E+00 -0.35740347158E-01  0.35744000000E-01  0.51099999109E-03 0. -1.
       22    1    1    2    0    0 -0.65116567016E-02  0.81796790875E-03  0.35129230569E-01  0.35737005818E-01  0.00000000000E+00 0.  1.
  9000001    1    1    2    0    0  0.65116567016E-02 -0.81796790875E-03 -0.35129230569E-01  0.35750994182E-01  0.10000000475E-02 0. -1.
</event>
<event>
 4   0  0.2441219E-02  0.9118800E+02  0.7818609E-02  0.1379984E+01
      -11   -1    0    0    0    0  0.00000000000E+00  0.00000000000E+00  0.35740347158E-01  0.35744000000E-01  0.51099999109E-03 0.  1.
       11   -1    0    0    0    0 -0.00000000000E+00 -0.00000000000E+00 -0.35740347158E-01  0.35744000000E-01  0.51099999109E-03 0. -1.
       22    1    1    2    0    0 -0.10784188154E-01  0.22453429074E-01  0.25625736937E-01  0.35737005818E-01  0.00000000000E+00 0.  1.
  9000001    1    1    2    0    0  0.10784188154E-01 -0.22453429074E-01 -0.25625736937E-01  0.35750994182E-01  0.10000000475E-02 0. -1.
</event>
<event>
 4   0  0.2441219E-02  0.9118800E+02  0.7818609E-02  0.1379984E+01
      -11   -1    0    0    0    0  0.00000000000E+00  0.00000000000E+00  0.35740347158E-01  0.35744000000E-01  0.51099999109E-03 0. -1.
       11   -1    0    0    0    0 -0.00000000000E+00 -0.00000000000E+00 -0.35740347158E-01  0.35744000000E-01  0.51099999109E-03 0.  1.
       22    1    1    2    0    0  0.12527215796E-01  0.49635487120E-02 -0.33099329804E-01  0.35737005818E-01  0.00000000000E+00 0.  1.
  9000001    1    1    2    0    0 -0.12527215796E-01 -0.49635487120E-02  0.33099329804E-01  0.35750994182E-01  0.10000000475E-02 0. -1.
</event>
<event>
 4   0  0.2441219E-02  0.9118800E+02  0.7818609E-02  0.1379984E+01
      -11   -1    0    0    0    0  0.00000000000E+00  0.00000000000E+00  0.35740347158E-01  0.35744000000E-01  0.51099999109E-03 0.  1.
       11   -1    0    0    0    0 -0.00000000000E+00 -0.00000000000E+00 -0.35740347158E-01  0.35744000000E-01  0.51099999109E-03 0. -1.
       22    1    1    2    0    0 -0.39372108173E-02 -0.64932978017E-03  0.35513523152E-01  0.35737005818E-01  0.00000000000E+00 0.  1.
  9000001    1    1    2    0    0  0.39372108173E-02  0.64932978017E-03 -0.35513523152E-01  0.35750994182E-01  0.10000000475E-02 0. -1.
</event>
<event>
 4   0  0.2441219E-02  0.9118800E+02  0.7818609E-02  0.1379984E+01
      -11   -1    0    0    0    0  0.00000000000E+00  0.00000000000E+00  0.35740347158E-01  0.35744000000E-01  0.51099999109E-03 0.  1.
       11   -1    0    0    0    0 -0.00000000000E+00 -0.00000000000E+00 -0.35740347158E-01  0.35744000000E-01  0.51099999109E-03 0. -1.
       22    1    1    2    0    0  0.17763454868E-01  0.13945419108E-01  0.27696904916E-01  0.35737005818E-01  0.00000000000E+00 0.  1.
  9000001    1    1    2    0    0 -0.17763454868E-01 -0.13945419108E-01 -0.27696904916E-01  0.35750994182E-01  0.10000000475E-02 0. -1.
</event>
<event>
 4   0  0.2441219E-02  0.9118800E+02  0.7818609E-02  0.1379984E+01
      -11   -1    0    0    0    0  0.00000000000E+00  0.00000000000E+00  0.35740347158E-01  0.35744000000E-01  0.51099999109E-03 0. -1.
       11   -1    0    0    0    0 -0.00000000000E+00 -0.00000000000E+00 -0.35740347158E-01  0.35744000000E-01  0.51099999109E-03 0.  1.
       22    1    1    2    0    0 -0.15963378547E-01  0.31711456675E-01 -0.40850515038E-02  0.35737005818E-01  0.00000000000E+00 0.  1.
  9000001    1    1    2    0    0  0.15963378547E-01 -0.31711456675E-01  0.40850515038E-02  0.35750994182E-01  0.10000000475E-02 0. -1.
</event>
<event>
 4   0  0.2441219E-02  0.9118800E+02  0.7818609E-02  0.1379984E+01
      -11   -1    0    0    0    0  0.00000000000E+00  0.00000000000E+00  0.35740347158E-01  0.35744000000E-01  0.51099999109E-03 0. -1.
       11   -1    0    0    0    0 -0.00000000000E+00 -0.00000000000E+00 -0.35740347158E-01  0.35744000000E-01  0.51099999109E-03 0.  1.
       22    1    1    2    0    0  0.64564765202E-02 -0.10190915237E-01 -0.33639154901E-01  0.35737005818E-01  0.00000000000E+00 0.  1.
  9000001    1    1    2    0    0 -0.64564765202E-02  0.10190915237E-01  0.33639154901E-01  0.35750994182E-01  0.10000000475E-02 0. -1.
</event>
<event>
 4   0  0.2441219E-02  0.9118800E+02  0.7818609E-02  0.1379984E+01
      -11   -1    0    0    0    0  0.00000000000E+00  0.00000000000E+00  0.35740347158E-01  0.35744000000E-01  0.51099999109E-03 0.  1.
       11   -1    0    0    0    0 -0.00000000000E+00 -0.00000000000E+00 -0.35740347158E-01  0.35744000000E-01  0.51099999109E-03 0. -1.
       22    1    1    2    0    0 -0.11630406959E-01  0.19732104121E-01 -0.27431939155E-01  0.35737005818E-01  0.00000000000E+00 0. -1.
  9000001    1    1    2    0    0  0.11630406959E-01 -0.19732104121E-01  0.27431939155E-01  0.35750994182E-01  0.10000000475E-02 0.  1.
</event>
<event>
 4   0  0.2441219E-02  0.9118800E+02  0.7818609E-02  0.1379984E+01
      -11   -1    0    0    0    0  0.00000000000E+00  0.00000000000E+00  0.35740347158E-01  0.35744000000E-01  0.51099999109E-03 0.  1.
       11   -1    0    0    0    0 -0.00000000000E+00 -0.00000000000E+00 -0.35740347158E-01  0.35744000000E-01  0.51099999109E-03 0. -1.
       22    1    1    2    0    0  0.28968403600E-01 -0.20084328654E-02 -0.20831019542E-01  0.35737005818E-01  0.00000000000E+00 0. -1.
  9000001    1    1    2    0    0 -0.28968403600E-01  0.20084328654E-02  0.20831019542E-01  0.35750994182E-01  0.10000000475E-02 0.  1.
</event>
<event>
 4   0  0.2441219E-02  0.9118800E+02  0.7818609E-02  0.1379984E+01
      -11   -1    0    0    0    0  0.00000000000E+00  0.00000000000E+00  0.35740347158E-01  0.35744000000E-01  0.51099999109E-03 0.  1.
       11   -1    0    0    0    0 -0.00000000000E+00 -0.00000000000E+00 -0.35740347158E-01  0.35744000000E-01  0.51099999109E-03 0. -1.
       22    1    1    2    0    0  0.13985849851E-01  0.32884531003E-01  0.37041804071E-03  0.35737005818E-01  0.00000000000E+00 0.  1.
  9000001    1    1    2    0    0 -0.13985849851E-01 -0.32884531003E-01 -0.37041804071E-03  0.35750994182E-01  0.10000000475E-02 0. -1.
</event>
<event>
 4   0  0.2441219E-02  0.9118800E+02  0.7818609E-02  0.1379984E+01
      -11   -1    0    0    0    0  0.00000000000E+00  0.00000000000E+00  0.35740347158E-01  0.35744000000E-01  0.51099999109E-03 0. -1.
       11   -1    0    0    0    0 -0.00000000000E+00 -0.00000000000E+00 -0.35740347158E-01  0.35744000000E-01  0.51099999109E-03 0.  1.
       22    1    1    2    0    0 -0.10744959186E-02  0.37179897776E-02 -0.35526829234E-01  0.35737005818E-01  0.00000000000E+00 0.  1.
  9000001    1    1    2    0    0  0.10744959186E-02 -0.37179897776E-02  0.35526829234E-01  0.35750994182E-01  0.10000000475E-02 0. -1.
</event>
<event>
 4   0  0.2441219E-02  0.9118800E+02  0.7818609E-02  0.1379984E+01
      -11   -1    0    0    0    0  0.00000000000E+00  0.00000000000E+00  0.35740347158E-01  0.35744000000E-01  0.51099999109E-03 0. -1.
       11   -1    0    0    0    0 -0.00000000000E+00 -0.00000000000E+00 -0.35740347158E-01  0.35744000000E-01  0.51099999109E-03 0.  1.
       22    1    1    2    0    0 -0.15977356936E-01  0.15402467693E-01  0.28011098500E-01  0.35737005818E-01  0.00000000000E+00 0. -1.
  9000001    1    1    2    0    0  0.15977356936E-01 -0.15402467693E-01 -0.28011098500E-01  0.35750994182E-01  0.10000000475E-02 0.  1.
</event>
<event>
 4   0  0.2441219E-02  0.9118800E+02  0.7818609E-02  0.1379984E+01
      -11   -1    0    0    0    0  0.00000000000E+00  0.00000000000E+00  0.35740347158E-01  0.35744000000E-01  0.51099999109E-03 0. -1.
       11   -1    0    0    0    0 -0.00000000000E+00 -0.00000000000E+00 -0.35740347158E-01  0.35744000000E-01  0.51099999109E-03 0.  1.
       22    1    1    2    0    0  0.18591243833E-01  0.41096571908E-02  0.30242518998E-01  0.35737005818E-01  0.00000000000E+00 0. -1.
  9000001    1    1    2    0    0 -0.18591243833E-01 -0.41096571908E-02 -0.30242518998E-01  0.35750994182E-01  0.10000000475E-02 0.  1.
</event>
<event>
 4   0  0.2441219E-02  0.9118800E+02  0.7818609E-02  0.1379984E+01
      -11   -1    0    0    0    0  0.00000000000E+00  0.00000000000E+00  0.35740347158E-01  0.35744000000E-01  0.51099999109E-03 0.  1.
       11   -1    0    0    0    0 -0.00000000000E+00 -0.00000000000E+00 -0.35740347158E-01  0.35744000000E-01  0.51099999109E-03 0. -1.
       22    1    1    2    0    0  0.13021347621E-02  0.51063531808E-02 -0.35346332018E-01  0.35737005818E-01  0.00000000000E+00 0. -1.
  9000001    1    1    2    0    0 -0.13021347621E-02 -0.51063531808E-02  0.35346332018E-01  0.35750994182E-01  0.10000000475E-02 0.  1.
</event>
<event>
 4   0  0.2441219E-02  0.9118800E+02  0.7818609E-02  0.1379984E+01
      -11   -1    0    0    0    0  0.00000000000E+00  0.00000000000E+00  0.35740347158E-01  0.35744000000E-01  0.51099999109E-03 0. -1.
       11   -1    0    0    0    0 -0.00000000000E+00 -0.00000000000E+00 -0.35740347158E-01  0.35744000000E-01  0.51099999109E-03 0.  1.
       22    1    1    2    0    0  0.86233275018E-02 -0.88415040564E-02  0.33535050525E-01  0.35737005818E-01  0.00000000000E+00 0. -1.
  9000001    1    1    2    0    0 -0.86233275018E-02  0.88415040564E-02 -0.33535050525E-01  0.35750994182E-01  0.10000000475E-02 0.  1.
</event>
<event>
 4   0  0.2441219E-02  0.9118800E+02  0.7818609E-02  0.1379984E+01
      -11   -1    0    0    0    0  0.00000000000E+00  0.00000000000E+00  0.35740347158E-01  0.35744000000E-01  0.51099999109E-03 0. -1.
       11   -1    0    0    0    0 -0.00000000000E+00 -0.00000000000E+00 -0.35740347158E-01  0.35744000000E-01  0.51099999109E-03 0.  1.
       22    1    1    2    0    0  0.11022498321E-01  0.36147357121E-02  0.33801949668E-01  0.35737005818E-01  0.00000000000E+00 0. -1.
  9000001    1    1    2    0    0 -0.11022498321E-01 -0.36147357121E-02 -0.33801949668E-01  0.35750994182E-01  0.10000000475E-02 0.  1.
</event>
<event>
 4   0  0.2441219E-02  0.9118800E+02  0.7818609E-02  0.1379984E+01
      -11   -1    0    0    0    0  0.00000000000E+00  0.00000000000E+00  0.35740347158E-01  0.35744000000E-01  0.51099999109E-03 0.  1.
       11   -1    0    0    0    0 -0.00000000000E+00 -0.00000000000E+00 -0.35740347158E-01  0.35744000000E-01  0.51099999109E-03 0. -1.
       22    1    1    2    0    0 -0.79306532970E-02 -0.28337934889E-01 -0.20278061283E-01  0.35737005818E-01  0.00000000000E+00 0. -1.
  9000001    1    1    2    0    0  0.79306532970E-02  0.28337934889E-01  0.20278061283E-01  0.35750994182E-01  0.10000000475E-02 0.  1.
</event>
<event>
 4   0  0.2441219E-02  0.9118800E+02  0.7818609E-02  0.1379984E+01
      -11   -1    0    0    0    0  0.00000000000E+00  0.00000000000E+00  0.35740347158E-01  0.35744000000E-01  0.51099999109E-03 0.  1.
       11   -1    0    0    0    0 -0.00000000000E+00 -0.00000000000E+00 -0.35740347158E-01  0.35744000000E-01  0.51099999109E-03 0. -1.
       22    1    1    2    0    0 -0.29999183717E-02 -0.44912873225E-02  0.35326511473E-01  0.35737005818E-01  0.00000000000E+00 0.  1.
  9000001    1    1    2    0    0  0.29999183717E-02  0.44912873225E-02 -0.35326511473E-01  0.35750994182E-01  0.10000000475E-02 0. -1.
</event>
<event>
 4   0  0.2441219E-02  0.9118800E+02  0.7818609E-02  0.1379984E+01
      -11   -1    0    0    0    0  0.00000000000E+00  0.00000000000E+00  0.35740347158E-01  0.35744000000E-01  0.51099999109E-03 0.  1.
       11   -1    0    0    0    0 -0.00000000000E+00 -0.00000000000E+00 -0.35740347158E-01  0.35744000000E-01  0.51099999109E-03 0. -1.
       22    1    1    2    0    0 -0.40523111952E-03  0.88526106169E-02  0.34620812496E-01  0.35737005818E-01  0.00000000000E+00 0.  1.
  9000001    1    1    2    0    0  0.40523111952E-03 -0.88526106169E-02 -0.34620812496E-01  0.35750994182E-01  0.10000000475E-02 0. -1.
</event>
<event>
 4   0  0.2441219E-02  0.9118800E+02  0.7818609E-02  0.1379984E+01
      -11   -1    0    0    0    0  0.00000000000E+00  0.00000000000E+00  0.35740347158E-01  0.35744000000E-01  0.51099999109E-03 0. -1.
       11   -1    0    0    0    0 -0.00000000000E+00 -0.00000000000E+00 -0.35740347158E-01  0.35744000000E-01  0.51099999109E-03 0.  1.
       22    1    1    2    0    0  0.10233015036E-01 -0.13824743854E-01  0.31325635596E-01  0.35737005818E-01  0.00000000000E+00 0. -1.
  9000001    1    1    2    0    0 -0.10233015036E-01  0.13824743854E-01 -0.31325635596E-01  0.35750994182E-01  0.10000000475E-02 0.  1.
</event>
<event>
 4   0  0.2441219E-02  0.9118800E+02  0.7818609E-02  0.1379984E+01
      -11   -1    0    0    0    0  0.00000000000E+00  0.00000000000E+00  0.35740347158E-01  0.35744000000E-01  0.51099999109E-03 0. -1.
       11   -1    0    0    0    0 -0.00000000000E+00 -0.00000000000E+00 -0.35740347158E-01  0.35744000000E-01  0.51099999109E-03 0.  1.
       22    1    1    2    0    0  0.16461827468E-01  0.14268054383E-02  0.31687632407E-01  0.35737005818E-01  0.00000000000E+00 0. -1.
  9000001    1    1    2    0    0 -0.16461827468E-01 -0.14268054383E-02 -0.31687632407E-01  0.35750994182E-01  0.10000000475E-02 0.  1.
</event>
<event>
 4   0  0.2441219E-02  0.9118800E+02  0.7818609E-02  0.1379984E+01
      -11   -1    0    0    0    0  0.00000000000E+00  0.00000000000E+00  0.35740347158E-01  0.35744000000E-01  0.51099999109E-03 0. -1.
       11   -1    0    0    0    0 -0.00000000000E+00 -0.00000000000E+00 -0.35740347158E-01  0.35744000000E-01  0.51099999109E-03 0.  1.
       22    1    1    2    0    0 -0.27485424707E-02 -0.21959584397E-01 -0.28059860161E-01  0.35737005818E-01  0.00000000000E+00 0.  1.
  9000001    1    1    2    0    0  0.27485424707E-02  0.21959584397E-01  0.28059860161E-01  0.35750994182E-01  0.10000000475E-02 0. -1.
</event>
<event>
 4   0  0.2441219E-02  0.9118800E+02  0.7818609E-02  0.1379984E+01
      -11   -1    0    0    0    0  0.00000000000E+00  0.00000000000E+00  0.35740347158E-01  0.35744000000E-01  0.51099999109E-03 0. -1.
       11   -1    0    0    0    0 -0.00000000000E+00 -0.00000000000E+00 -0.35740347158E-01  0.35744000000E-01  0.51099999109E-03 0.  1.
       22    1    1    2    0    0 -0.42612592747E-02  0.15618108244E-02  0.35447651561E-01  0.35737005818E-01  0.00000000000E+00 0. -1.
  9000001    1    1    2    0    0  0.42612592747E-02 -0.15618108244E-02 -0.35447651561E-01  0.35750994182E-01  0.10000000475E-02 0.  1.
</event>
<event>
 4   0  0.2441219E-02  0.9118800E+02  0.7818609E-02  0.1379984E+01
      -11   -1    0    0    0    0  0.00000000000E+00  0.00000000000E+00  0.35740347158E-01  0.35744000000E-01  0.51099999109E-03 0.  1.
       11   -1    0    0    0    0 -0.00000000000E+00 -0.00000000000E+00 -0.35740347158E-01  0.35744000000E-01  0.51099999109E-03 0. -1.
       22    1    1    2    0    0  0.25144611993E-02  0.69705174300E-02  0.34960305441E-01  0.35737005818E-01  0.00000000000E+00 0.  1.
  9000001    1    1    2    0    0 -0.25144611993E-02 -0.69705174300E-02 -0.34960305441E-01  0.35750994182E-01  0.10000000475E-02 0. -1.
</event>
<event>
 4   0  0.2441219E-02  0.9118800E+02  0.7818609E-02  0.1379984E+01
      -11   -1    0    0    0    0  0.00000000000E+00  0.00000000000E+00  0.35740347158E-01  0.35744000000E-01  0.51099999109E-03 0.  1.
       11   -1    0    0    0    0 -0.00000000000E+00 -0.00000000000E+00 -0.35740347158E-01  0.35744000000E-01  0.51099999109E-03 0. -1.
       22    1    1    2    0    0  0.67169875426E-02  0.12065682079E-01 -0.32961113136E-01  0.35737005818E-01  0.00000000000E+00 0. -1.
  9000001    1    1    2    0    0 -0.67169875426E-02 -0.12065682079E-01  0.32961113136E-01  0.35750994182E-01  0.10000000475E-02 0.  1.
</event>
<event>
 4   0  0.2441219E-02  0.9118800E+02  0.7818609E-02  0.1379984E+01
      -11   -1    0    0    0    0  0.00000000000E+00  0.00000000000E+00  0.35740347158E-01  0.35744000000E-01  0.51099999109E-03 0.  1.
       11   -1    0    0    0    0 -0.00000000000E+00 -0.00000000000E+00 -0.35740347158E-01  0.35744000000E-01  0.51099999109E-03 0. -1.
       22    1    1    2    0    0 -0.33031052394E-01 -0.60906146238E-02 -0.12206046704E-01  0.35737005818E-01  0.00000000000E+00 0. -1.
  9000001    1    1    2    0    0  0.33031052394E-01  0.60906146238E-02  0.12206046704E-01  0.35750994182E-01  0.10000000475E-02 0.  1.
</event>
<event>
 4   0  0.2441219E-02  0.9118800E+02  0.7818609E-02  0.1379984E+01
      -11   -1    0    0    0    0  0.00000000000E+00  0.00000000000E+00  0.35740347158E-01  0.35744000000E-01  0.51099999109E-03 0. -1.
       11   -1    0    0    0    0 -0.00000000000E+00 -0.00000000000E+00 -0.35740347158E-01  0.35744000000E-01  0.51099999109E-03 0.  1.
       22    1    1    2    0    0 -0.66857815020E-02  0.20719169366E-02  0.35044843712E-01  0.35737005818E-01  0.00000000000E+00 0. -1.
  9000001    1    1    2    0    0  0.66857815020E-02 -0.20719169366E-02 -0.35044843712E-01  0.35750994182E-01  0.10000000475E-02 0.  1.
</event>
<event>
 4   0  0.2441219E-02  0.9118800E+02  0.7818609E-02  0.1379984E+01
      -11   -1    0    0    0    0  0.00000000000E+00  0.00000000000E+00  0.35740347158E-01  0.35744000000E-01  0.51099999109E-03 0.  1.
       11   -1    0    0    0    0 -0.00000000000E+00 -0.00000000000E+00 -0.35740347158E-01  0.35744000000E-01  0.51099999109E-03 0. -1.
       22    1    1    2    0    0  0.43852162719E-02  0.22758075325E-02 -0.35393843578E-01  0.35737005818E-01  0.00000000000E+00 0. -1.
  9000001    1    1    2    0    0 -0.43852162719E-02 -0.22758075325E-02  0.35393843578E-01  0.35750994182E-01  0.10000000475E-02 0.  1.
</event>
<event>
 4   0  0.2441219E-02  0.9118800E+02  0.7818609E-02  0.1379984E+01
      -11   -1    0    0    0    0  0.00000000000E+00  0.00000000000E+00  0.35740347158E-01  0.35744000000E-01  0.51099999109E-03 0. -1.
       11   -1    0    0    0    0 -0.00000000000E+00 -0.00000000000E+00 -0.35740347158E-01  0.35744000000E-01  0.51099999109E-03 0.  1.
       22    1    1    2    0    0  0.15630145125E-01 -0.24395163176E-01  0.20921476092E-01  0.35737005818E-01  0.00000000000E+00 0. -1.
  9000001    1    1    2    0    0 -0.15630145125E-01  0.24395163176E-01 -0.20921476092E-01  0.35750994182E-01  0.10000000475E-02 0.  1.
</event>
<event>
 4   0  0.2441219E-02  0.9118800E+02  0.7818609E-02  0.1379984E+01
      -11   -1    0    0    0    0  0.00000000000E+00  0.00000000000E+00  0.35740347158E-01  0.35744000000E-01  0.51099999109E-03 0.  1.
       11   -1    0    0    0    0 -0.00000000000E+00 -0.00000000000E+00 -0.35740347158E-01  0.35744000000E-01  0.51099999109E-03 0. -1.
       22    1    1    2    0    0  0.59665671819E-02  0.26050402987E-01  0.23725727916E-01  0.35737005818E-01  0.00000000000E+00 0.  1.
  9000001    1    1    2    0    0 -0.59665671819E-02 -0.26050402987E-01 -0.23725727916E-01  0.35750994182E-01  0.10000000475E-02 0. -1.
</event>
<event>
 4   0  0.2441219E-02  0.9118800E+02  0.7818609E-02  0.1379984E+01
      -11   -1    0    0    0    0  0.00000000000E+00  0.00000000000E+00  0.35740347158E-01  0.35744000000E-01  0.51099999109E-03 0. -1.
       11   -1    0    0    0    0 -0.00000000000E+00 -0.00000000000E+00 -0.35740347158E-01  0.35744000000E-01  0.51099999109E-03 0.  1.
       22    1    1    2    0    0 -0.46795269060E-02  0.34778159251E-02 -0.35258196341E-01  0.35737005818E-01  0.00000000000E+00 0.  1.
  9000001    1    1    2    0    0  0.46795269060E-02 -0.34778159251E-02  0.35258196341E-01  0.35750994182E-01  0.10000000475E-02 0. -1.
</event>
<event>
 4   0  0.2441219E-02  0.9118800E+02  0.7818609E-02  0.1379984E+01
      -11   -1    0    0    0    0  0.00000000000E+00  0.00000000000E+00  0.35740347158E-01  0.35744000000E-01  0.51099999109E-03 0.  1.
       11   -1    0    0    0    0 -0.00000000000E+00 -0.00000000000E+00 -0.35740347158E-01  0.35744000000E-01  0.51099999109E-03 0. -1.
       22    1    1    2    0    0  0.26393445451E-02 -0.44340718590E-02  0.35362500647E-01  0.35737005818E-01  0.00000000000E+00 0.  1.
  9000001    1    1    2    0    0 -0.26393445451E-02  0.44340718590E-02 -0.35362500647E-01  0.35750994182E-01  0.10000000475E-02 0. -1.
</event>
<event>
 4   0  0.2441219E-02  0.9118800E+02  0.7818609E-02  0.1379984E+01
      -11   -1    0    0    0    0  0.00000000000E+00  0.00000000000E+00  0.35740347158E-01  0.35744000000E-01  0.51099999109E-03 0.  1.
       11   -1    0    0    0    0 -0.00000000000E+00 -0.00000000000E+00 -0.35740347158E-01  0.35744000000E-01  0.51099999109E-03 0. -1.
       22    1    1    2    0    0  0.47850203831E-02 -0.10962520134E-01 -0.33675812048E-01  0.35737005818E-01  0.00000000000E+00 0. -1.
  9000001    1    1    2    0    0 -0.47850203831E-02  0.10962520134E-01  0.33675812048E-01  0.35750994182E-01  0.10000000475E-02 0.  1.
</event>
<event>
 4   0  0.2441219E-02  0.9118800E+02  0.7818609E-02  0.1379984E+01
      -11   -1    0    0    0    0  0.00000000000E+00  0.00000000000E+00  0.35740347158E-01  0.35744000000E-01  0.51099999109E-03 0. -1.
       11   -1    0    0    0    0 -0.00000000000E+00 -0.00000000000E+00 -0.35740347158E-01  0.35744000000E-01  0.51099999109E-03 0.  1.
       22    1    1    2    0    0 -0.12153373027E-02  0.88059467466E-02  0.34613752209E-01  0.35737005818E-01  0.00000000000E+00 0. -1.
  9000001    1    1    2    0    0  0.12153373027E-02 -0.88059467466E-02 -0.34613752209E-01  0.35750994182E-01  0.10000000475E-02 0.  1.
</event>
<event>
 4   0  0.2441219E-02  0.9118800E+02  0.7818609E-02  0.1379984E+01
      -11   -1    0    0    0    0  0.00000000000E+00  0.00000000000E+00  0.35740347158E-01  0.35744000000E-01  0.51099999109E-03 0.  1.
       11   -1    0    0    0    0 -0.00000000000E+00 -0.00000000000E+00 -0.35740347158E-01  0.35744000000E-01  0.51099999109E-03 0. -1.
       22    1    1    2    0    0 -0.31253164146E-01  0.17329005159E-01 -0.28088422987E-03  0.35737005818E-01  0.00000000000E+00 0.  1.
  9000001    1    1    2    0    0  0.31253164146E-01 -0.17329005159E-01  0.28088422987E-03  0.35750994182E-01  0.10000000475E-02 0. -1.
</event>
<event>
 4   0  0.2441219E-02  0.9118800E+02  0.7818609E-02  0.1379984E+01
      -11   -1    0    0    0    0  0.00000000000E+00  0.00000000000E+00  0.35740347158E-01  0.35744000000E-01  0.51099999109E-03 0.  1.
       11   -1    0    0    0    0 -0.00000000000E+00 -0.00000000000E+00 -0.35740347158E-01  0.35744000000E-01  0.51099999109E-03 0. -1.
       22    1    1    2    0    0  0.13888237920E-01 -0.63192555028E-03  0.32921893968E-01  0.35737005818E-01  0.00000000000E+00 0.  1.
  9000001    1    1    2    0    0 -0.13888237920E-01  0.63192555028E-03 -0.32921893968E-01  0.35750994182E-01  0.10000000475E-02 0. -1.
</event>
<event>
 4   0  0.2441219E-02  0.9118800E+02  0.7818609E-02  0.1379984E+01
      -11   -1    0    0    0    0  0.00000000000E+00  0.00000000000E+00  0.35740347158E-01  0.35744000000E-01  0.51099999109E-03 0.  1.
       11   -1    0    0    0    0 -0.00000000000E+00 -0.00000000000E+00 -0.35740347158E-01  0.35744000000E-01  0.51099999109E-03 0. -1.
       22    1    1    2    0    0 -0.15496286148E-02 -0.62030033502E-02  0.35160417880E-01  0.35737005818E-01  0.00000000000E+00 0.  1.
  9000001    1    1    2    0    0  0.15496286148E-02  0.62030033502E-02 -0.35160417880E-01  0.35750994182E-01  0.10000000475E-02 0. -1.
</event>
<event>
 4   0  0.2441219E-02  0.9118800E+02  0.7818609E-02  0.1379984E+01
      -11   -1    0    0    0    0  0.00000000000E+00  0.00000000000E+00  0.35740347158E-01  0.35744000000E-01  0.51099999109E-03 0.  1.
       11   -1    0    0    0    0 -0.00000000000E+00 -0.00000000000E+00 -0.35740347158E-01  0.35744000000E-01  0.51099999109E-03 0. -1.
       22    1    1    2    0    0 -0.74769542585E-02  0.12066485646E-01 -0.32796778257E-01  0.35737005818E-01  0.00000000000E+00 0. -1.
  9000001    1    1    2    0    0  0.74769542585E-02 -0.12066485646E-01  0.32796778257E-01  0.35750994182E-01  0.10000000475E-02 0.  1.
</event>
<event>
 4   0  0.2441219E-02  0.9118800E+02  0.7818609E-02  0.1379984E+01
      -11   -1    0    0    0    0  0.00000000000E+00  0.00000000000E+00  0.35740347158E-01  0.35744000000E-01  0.51099999109E-03 0. -1.
       11   -1    0    0    0    0 -0.00000000000E+00 -0.00000000000E+00 -0.35740347158E-01  0.35744000000E-01  0.51099999109E-03 0.  1.
       22    1    1    2    0    0  0.25371541992E-02 -0.27206831626E-02  0.35542851835E-01  0.35737005818E-01  0.00000000000E+00 0. -1.
  9000001    1    1    2    0    0 -0.25371541992E-02  0.27206831626E-02 -0.35542851835E-01  0.35750994182E-01  0.10000000475E-02 0.  1.
</event>
<event>
 4   0  0.2441219E-02  0.9118800E+02  0.7818609E-02  0.1379984E+01
      -11   -1    0    0    0    0  0.00000000000E+00  0.00000000000E+00  0.35740347158E-01  0.35744000000E-01  0.51099999109E-03 0.  1.
       11   -1    0    0    0    0 -0.00000000000E+00 -0.00000000000E+00 -0.35740347158E-01  0.35744000000E-01  0.51099999109E-03 0. -1.
       22    1    1    2    0    0 -0.71881426150E-02  0.63312213875E-02  0.34429345424E-01  0.35737005818E-01  0.00000000000E+00 0.  1.
  9000001    1    1    2    0    0  0.71881426150E-02 -0.63312213875E-02 -0.34429345424E-01  0.35750994182E-01  0.10000000475E-02 0. -1.
</event>
<event>
 4   0  0.2441219E-02  0.9118800E+02  0.7818609E-02  0.1379984E+01
      -11   -1    0    0    0    0  0.00000000000E+00  0.00000000000E+00  0.35740347158E-01  0.35744000000E-01  0.51099999109E-03 0. -1.
       11   -1    0    0    0    0 -0.00000000000E+00 -0.00000000000E+00 -0.35740347158E-01  0.35744000000E-01  0.51099999109E-03 0.  1.
       22    1    1    2    0    0 -0.11967143142E-01 -0.12535537829E-01  0.31253501583E-01  0.35737005818E-01  0.00000000000E+00 0. -1.
  9000001    1    1    2    0    0  0.11967143142E-01  0.12535537829E-01 -0.31253501583E-01  0.35750994182E-01  0.10000000475E-02 0.  1.
</event>
<event>
 4   0  0.2441219E-02  0.9118800E+02  0.7818609E-02  0.1379984E+01
      -11   -1    0    0    0    0  0.00000000000E+00  0.00000000000E+00  0.35740347158E-01  0.35744000000E-01  0.51099999109E-03 0.  1.
       11   -1    0    0    0    0 -0.00000000000E+00 -0.00000000000E+00 -0.35740347158E-01  0.35744000000E-01  0.51099999109E-03 0. -1.
       22    1    1    2    0    0 -0.81337547174E-02  0.26926526146E-01 -0.22043997115E-01  0.35737005818E-01  0.00000000000E+00 0. -1.
  9000001    1    1    2    0    0  0.81337547174E-02 -0.26926526146E-01  0.22043997115E-01  0.35750994182E-01  0.10000000475E-02 0.  1.
</event>
<event>
 4   0  0.2441219E-02  0.9118800E+02  0.7818609E-02  0.1379984E+01
      -11   -1    0    0    0    0  0.00000000000E+00  0.00000000000E+00  0.35740347158E-01  0.35744000000E-01  0.51099999109E-03 0. -1.
       11   -1    0    0    0    0 -0.00000000000E+00 -0.00000000000E+00 -0.35740347158E-01  0.35744000000E-01  0.51099999109E-03 0.  1.
       22    1    1    2    0    0  0.32351221692E-02  0.21226613236E-02  0.35526917659E-01  0.35737005818E-01  0.00000000000E+00 0. -1.
  9000001    1    1    2    0    0 -0.32351221692E-02 -0.21226613236E-02 -0.35526917659E-01  0.35750994182E-01  0.10000000475E-02 0.  1.
</event>
<event>
 4   0  0.2441219E-02  0.9118800E+02  0.7818609E-02  0.1379984E+01
      -11   -1    0    0    0    0  0.00000000000E+00  0.00000000000E+00  0.35740347158E-01  0.35744000000E-01  0.51099999109E-03 0.  1.
       11   -1    0    0    0    0 -0.00000000000E+00 -0.00000000000E+00 -0.35740347158E-01  0.35744000000E-01  0.51099999109E-03 0. -1.
       22    1    1    2    0    0 -0.13679436168E-01  0.13870490426E-01 -0.29960242094E-01  0.35737005818E-01  0.00000000000E+00 0. -1.
  9000001    1    1    2    0    0  0.13679436168E-01 -0.13870490426E-01  0.29960242094E-01  0.35750994182E-01  0.10000000475E-02 0.  1.
</event>
<event>
 4   0  0.2441219E-02  0.9118800E+02  0.7818609E-02  0.1379984E+01
      -11   -1    0    0    0    0  0.00000000000E+00  0.00000000000E+00  0.35740347158E-01  0.35744000000E-01  0.51099999109E-03 0.  1.
       11   -1    0    0    0    0 -0.00000000000E+00 -0.00000000000E+00 -0.35740347158E-01  0.35744000000E-01  0.51099999109E-03 0. -1.
       22    1    1    2    0    0  0.14076242306E-01  0.11754631071E-01 -0.30672815909E-01  0.35737005818E-01  0.00000000000E+00 0. -1.
  9000001    1    1    2    0    0 -0.14076242306E-01 -0.11754631071E-01  0.30672815909E-01  0.35750994182E-01  0.10000000475E-02 0.  1.
</event>
<event>
 4   0  0.2441219E-02  0.9118800E+02  0.7818609E-02  0.1379984E+01
      -11   -1    0    0    0    0  0.00000000000E+00  0.00000000000E+00  0.35740347158E-01  0.35744000000E-01  0.51099999109E-03 0. -1.
       11   -1    0    0    0    0 -0.00000000000E+00 -0.00000000000E+00 -0.35740347158E-01  0.35744000000E-01  0.51099999109E-03 0.  1.
       22    1    1    2    0    0  0.27490580165E-02 -0.48880368546E-02 -0.35294239765E-01  0.35737005818E-01  0.00000000000E+00 0.  1.
  9000001    1    1    2    0    0 -0.27490580165E-02  0.48880368546E-02  0.35294239765E-01  0.35750994182E-01  0.10000000475E-02 0. -1.
</event>
<event>
 4   0  0.2441219E-02  0.9118800E+02  0.7818609E-02  0.1379984E+01
      -11   -1    0    0    0    0  0.00000000000E+00  0.00000000000E+00  0.35740347158E-01  0.35744000000E-01  0.51099999109E-03 0.  1.
       11   -1    0    0    0    0 -0.00000000000E+00 -0.00000000000E+00 -0.35740347158E-01  0.35744000000E-01  0.51099999109E-03 0. -1.
       22    1    1    2    0    0 -0.35553598215E-01 -0.15418286107E-02  0.32707802347E-02  0.35737005818E-01  0.00000000000E+00 0.  1.
  9000001    1    1    2    0    0  0.35553598215E-01  0.15418286107E-02 -0.32707802347E-02  0.35750994182E-01  0.10000000475E-02 0. -1.
</event>
<event>
 4   0  0.2441219E-02  0.9118800E+02  0.7818609E-02  0.1379984E+01
      -11   -1    0    0    0    0  0.00000000000E+00  0.00000000000E+00  0.35740347158E-01  0.35744000000E-01  0.51099999109E-03 0. -1.
       11   -1    0    0    0    0 -0.00000000000E+00 -0.00000000000E+00 -0.35740347158E-01  0.35744000000E-01  0.51099999109E-03 0.  1.
       22    1    1    2    0    0 -0.34688484925E-02  0.24801186262E-01 -0.25495133556E-01  0.35737005818E-01  0.00000000000E+00 0.  1.
  9000001    1    1    2    0    0  0.34688484925E-02 -0.24801186262E-01  0.25495133556E-01  0.35750994182E-01  0.10000000475E-02 0. -1.
</event>
<event>
 4   0  0.2441219E-02  0.9118800E+02  0.7818609E-02  0.1379984E+01
      -11   -1    0    0    0    0  0.00000000000E+00  0.00000000000E+00  0.35740347158E-01  0.35744000000E-01  0.51099999109E-03 0. -1.
       11   -1    0    0    0    0 -0.00000000000E+00 -0.00000000000E+00 -0.35740347158E-01  0.35744000000E-01  0.51099999109E-03 0.  1.
       22    1    1    2    0    0 -0.89542249659E-02 -0.46169458822E-02  0.34287596166E-01  0.35737005818E-01  0.00000000000E+00 0. -1.
  9000001    1    1    2    0    0  0.89542249659E-02  0.46169458822E-02 -0.34287596166E-01  0.35750994182E-01  0.10000000475E-02 0.  1.
</event>
<event>
 4   0  0.2441219E-02  0.9118800E+02  0.7818609E-02  0.1379984E+01
      -11   -1    0    0    0    0  0.00000000000E+00  0.00000000000E+00  0.35740347158E-01  0.35744000000E-01  0.51099999109E-03 0.  1.
       11   -1    0    0    0    0 -0.00000000000E+00 -0.00000000000E+00 -0.35740347158E-01  0.35744000000E-01  0.51099999109E-03 0. -1.
       22    1    1    2    0    0 -0.10441641281E-01  0.91556493309E-02  0.32928404115E-01  0.35737005818E-01  0.00000000000E+00 0.  1.
  9000001    1    1    2    0    0  0.10441641281E-01 -0.91556493309E-02 -0.32928404115E-01  0.35750994182E-01  0.10000000475E-02 0. -1.
</event>
<event>
 4   0  0.2441219E-02  0.9118800E+02  0.7818609E-02  0.1379984E+01
      -11   -1    0    0    0    0  0.00000000000E+00  0.00000000000E+00  0.35740347158E-01  0.35744000000E-01  0.51099999109E-03 0. -1.
       11   -1    0    0    0    0 -0.00000000000E+00 -0.00000000000E+00 -0.35740347158E-01  0.35744000000E-01  0.51099999109E-03 0.  1.
       22    1    1    2    0    0  0.10903820683E-01 -0.68698200109E-02 -0.33332354438E-01  0.35737005818E-01  0.00000000000E+00 0.  1.
  9000001    1    1    2    0    0 -0.10903820683E-01  0.68698200109E-02  0.33332354438E-01  0.35750994182E-01  0.10000000475E-02 0. -1.
</event>
<event>
 4   0  0.2441219E-02  0.9118800E+02  0.7818609E-02  0.1379984E+01
      -11   -1    0    0    0    0  0.00000000000E+00  0.00000000000E+00  0.35740347158E-01  0.35744000000E-01  0.51099999109E-03 0. -1.
       11   -1    0    0    0    0 -0.00000000000E+00 -0.00000000000E+00 -0.35740347158E-01  0.35744000000E-01  0.51099999109E-03 0.  1.
       22    1    1    2    0    0  0.47524254576E-02 -0.69947174206E-03 -0.35412692307E-01  0.35737005818E-01  0.00000000000E+00 0.  1.
  9000001    1    1    2    0    0 -0.47524254576E-02  0.69947174206E-03  0.35412692307E-01  0.35750994182E-01  0.10000000475E-02 0. -1.
</event>
<event>
 4   0  0.2441219E-02  0.9118800E+02  0.7818609E-02  0.1379984E+01
      -11   -1    0    0    0    0  0.00000000000E+00  0.00000000000E+00  0.35740347158E-01  0.35744000000E-01  0.51099999109E-03 0.  1.
       11   -1    0    0    0    0 -0.00000000000E+00 -0.00000000000E+00 -0.35740347158E-01  0.35744000000E-01  0.51099999109E-03 0. -1.
       22    1    1    2    0    0 -0.34902872306E-01  0.73773160223E-02  0.21209191326E-02  0.35737005818E-01  0.00000000000E+00 0.  1.
  9000001    1    1    2    0    0  0.34902872306E-01 -0.73773160223E-02 -0.21209191326E-02  0.35750994182E-01  0.10000000475E-02 0. -1.
</event>
<event>
 4   0  0.2441219E-02  0.9118800E+02  0.7818609E-02  0.1379984E+01
      -11   -1    0    0    0    0  0.00000000000E+00  0.00000000000E+00  0.35740347158E-01  0.35744000000E-01  0.51099999109E-03 0. -1.
       11   -1    0    0    0    0 -0.00000000000E+00 -0.00000000000E+00 -0.35740347158E-01  0.35744000000E-01  0.51099999109E-03 0.  1.
       22    1    1    2    0    0 -0.88511152694E-02  0.23799958368E-02  0.34541669954E-01  0.35737005818E-01  0.00000000000E+00 0. -1.
  9000001    1    1    2    0    0  0.88511152694E-02 -0.23799958368E-02 -0.34541669954E-01  0.35750994182E-01  0.10000000475E-02 0.  1.
</event>
<event>
 4   0  0.2441219E-02  0.9118800E+02  0.7818609E-02  0.1379984E+01
      -11   -1    0    0    0    0  0.00000000000E+00  0.00000000000E+00  0.35740347158E-01  0.35744000000E-01  0.51099999109E-03 0. -1.
       11   -1    0    0    0    0 -0.00000000000E+00 -0.00000000000E+00 -0.35740347158E-01  0.35744000000E-01  0.51099999109E-03 0.  1.
       22    1    1    2    0    0  0.28427420004E-02 -0.11847333886E-01  0.33596027780E-01  0.35737005818E-01  0.00000000000E+00 0. -1.
  9000001    1    1    2    0    0 -0.28427420004E-02  0.11847333886E-01 -0.33596027780E-01  0.35750994182E-01  0.10000000475E-02 0.  1.
</event>
<event>
 4   0  0.2441219E-02  0.9118800E+02  0.7818609E-02  0.1379984E+01
      -11   -1    0    0    0    0  0.00000000000E+00  0.00000000000E+00  0.35740347158E-01  0.35744000000E-01  0.51099999109E-03 0. -1.
       11   -1    0    0    0    0 -0.00000000000E+00 -0.00000000000E+00 -0.35740347158E-01  0.35744000000E-01  0.51099999109E-03 0.  1.
       22    1    1    2    0    0 -0.58981151775E-02  0.28572261588E-02 -0.35130927698E-01  0.35737005818E-01  0.00000000000E+00 0.  1.
  9000001    1    1    2    0    0  0.58981151775E-02 -0.28572261588E-02  0.35130927698E-01  0.35750994182E-01  0.10000000475E-02 0. -1.
</event>
<event>
 4   0  0.2441219E-02  0.9118800E+02  0.7818609E-02  0.1379984E+01
      -11   -1    0    0    0    0  0.00000000000E+00  0.00000000000E+00  0.35740347158E-01  0.35744000000E-01  0.51099999109E-03 0.  1.
       11   -1    0    0    0    0 -0.00000000000E+00 -0.00000000000E+00 -0.35740347158E-01  0.35744000000E-01  0.51099999109E-03 0. -1.
       22    1    1    2    0    0 -0.49165407371E-02 -0.24116851262E-02 -0.35314939996E-01  0.35737005818E-01  0.00000000000E+00 0. -1.
  9000001    1    1    2    0    0  0.49165407371E-02  0.24116851262E-02  0.35314939996E-01  0.35750994182E-01  0.10000000475E-02 0.  1.
</event>
<event>
 4   0  0.2441219E-02  0.9118800E+02  0.7818609E-02  0.1379984E+01
      -11   -1    0    0    0    0  0.00000000000E+00  0.00000000000E+00  0.35740347158E-01  0.35744000000E-01  0.51099999109E-03 0. -1.
       11   -1    0    0    0    0 -0.00000000000E+00 -0.00000000000E+00 -0.35740347158E-01  0.35744000000E-01  0.51099999109E-03 0.  1.
       22    1    1    2    0    0  0.97087669462E-02 -0.17734826811E-01  0.29467767938E-01  0.35737005818E-01  0.00000000000E+00 0. -1.
  9000001    1    1    2    0    0 -0.97087669462E-02  0.17734826811E-01 -0.29467767938E-01  0.35750994182E-01  0.10000000475E-02 0.  1.
</event>
<event>
 4   0  0.2441219E-02  0.9118800E+02  0.7818609E-02  0.1379984E+01
      -11   -1    0    0    0    0  0.00000000000E+00  0.00000000000E+00  0.35740347158E-01  0.35744000000E-01  0.51099999109E-03 0.  1.
       11   -1    0    0    0    0 -0.00000000000E+00 -0.00000000000E+00 -0.35740347158E-01  0.35744000000E-01  0.51099999109E-03 0. -1.
       22    1    1    2    0    0 -0.14761760405E-02 -0.58055318331E-02 -0.35231382166E-01  0.35737005818E-01  0.00000000000E+00 0. -1.
  9000001    1    1    2    0    0  0.14761760405E-02  0.58055318331E-02  0.35231382166E-01  0.35750994182E-01  0.10000000475E-02 0.  1.
</event>
<event>
 4   0  0.2441219E-02  0.9118800E+02  0.7818609E-02  0.1379984E+01
      -11   -1    0    0    0    0  0.00000000000E+00  0.00000000000E+00  0.35740347158E-01  0.35744000000E-01  0.51099999109E-03 0. -1.
       11   -1    0    0    0    0 -0.00000000000E+00 -0.00000000000E+00 -0.35740347158E-01  0.35744000000E-01  0.51099999109E-03 0.  1.
       22    1    1    2    0    0  0.34291917111E-02 -0.10293807335E-01  0.34050135971E-01  0.35737005818E-01  0.00000000000E+00 0. -1.
  9000001    1    1    2    0    0 -0.34291917111E-02  0.10293807335E-01 -0.34050135971E-01  0.35750994182E-01  0.10000000475E-02 0.  1.
</event>
<event>
 4   0  0.2441219E-02  0.9118800E+02  0.7818609E-02  0.1379984E+01
      -11   -1    0    0    0    0  0.00000000000E+00  0.00000000000E+00  0.35740347158E-01  0.35744000000E-01  0.51099999109E-03 0. -1.
       11   -1    0    0    0    0 -0.00000000000E+00 -0.00000000000E+00 -0.35740347158E-01  0.35744000000E-01  0.51099999109E-03 0.  1.
       22    1    1    2    0    0  0.74037339595E-03  0.14203486813E-01 -0.32784850075E-01  0.35737005818E-01  0.00000000000E+00 0.  1.
  9000001    1    1    2    0    0 -0.74037339595E-03 -0.14203486813E-01  0.32784850075E-01  0.35750994182E-01  0.10000000475E-02 0. -1.
</event>
<event>
 4   0  0.2441219E-02  0.9118800E+02  0.7818609E-02  0.1379984E+01
      -11   -1    0    0    0    0  0.00000000000E+00  0.00000000000E+00  0.35740347158E-01  0.35744000000E-01  0.51099999109E-03 0.  1.
       11   -1    0    0    0    0 -0.00000000000E+00 -0.00000000000E+00 -0.35740347158E-01  0.35744000000E-01  0.51099999109E-03 0. -1.
       22    1    1    2    0    0 -0.55676261543E-02 -0.13249711998E-02  0.35275764700E-01  0.35737005818E-01  0.00000000000E+00 0.  1.
  9000001    1    1    2    0    0  0.55676261543E-02  0.13249711998E-02 -0.35275764700E-01  0.35750994182E-01  0.10000000475E-02 0. -1.
</event>
<event>
 4   0  0.2441219E-02  0.9118800E+02  0.7818609E-02  0.1379984E+01
      -11   -1    0    0    0    0  0.00000000000E+00  0.00000000000E+00  0.35740347158E-01  0.35744000000E-01  0.51099999109E-03 0.  1.
       11   -1    0    0    0    0 -0.00000000000E+00 -0.00000000000E+00 -0.35740347158E-01  0.35744000000E-01  0.51099999109E-03 0. -1.
       22    1    1    2    0    0 -0.12668788855E-01  0.16762888638E-01 -0.28907454719E-01  0.35737005818E-01  0.00000000000E+00 0. -1.
  9000001    1    1    2    0    0  0.12668788855E-01 -0.16762888638E-01  0.28907454719E-01  0.35750994182E-01  0.10000000475E-02 0.  1.
</event>
<event>
 4   0  0.2441219E-02  0.9118800E+02  0.7818609E-02  0.1379984E+01
      -11   -1    0    0    0    0  0.00000000000E+00  0.00000000000E+00  0.35740347158E-01  0.35744000000E-01  0.51099999109E-03 0. -1.
       11   -1    0    0    0    0 -0.00000000000E+00 -0.00000000000E+00 -0.35740347158E-01  0.35744000000E-01  0.51099999109E-03 0.  1.
       22    1    1    2    0    0 -0.27598847972E-02  0.28499090926E-01  0.21385004960E-01  0.35737005818E-01  0.00000000000E+00 0. -1.
  9000001    1    1    2    0    0  0.27598847972E-02 -0.28499090926E-01 -0.21385004960E-01  0.35750994182E-01  0.10000000475E-02 0.  1.
</event>
<event>
 4   0  0.2441219E-02  0.9118800E+02  0.7818609E-02  0.1379984E+01
      -11   -1    0    0    0    0  0.00000000000E+00  0.00000000000E+00  0.35740347158E-01  0.35744000000E-01  0.51099999109E-03 0.  1.
       11   -1    0    0    0    0 -0.00000000000E+00 -0.00000000000E+00 -0.35740347158E-01  0.35744000000E-01  0.51099999109E-03 0. -1.
       22    1    1    2    0    0  0.40190186353E-02 -0.43021525181E-02 -0.35248724201E-01  0.35737005818E-01  0.00000000000E+00 0. -1.
  9000001    1    1    2    0    0 -0.40190186353E-02  0.43021525181E-02  0.35248724201E-01  0.35750994182E-01  0.10000000475E-02 0.  1.
</event>
<event>
 4   0  0.2441219E-02  0.9118800E+02  0.7818609E-02  0.1379984E+01
      -11   -1    0    0    0    0  0.00000000000E+00  0.00000000000E+00  0.35740347158E-01  0.35744000000E-01  0.51099999109E-03 0. -1.
       11   -1    0    0    0    0 -0.00000000000E+00 -0.00000000000E+00 -0.35740347158E-01  0.35744000000E-01  0.51099999109E-03 0.  1.
       22    1    1    2    0    0 -0.34235676068E-02  0.22310568833E-02 -0.35502607720E-01  0.35737005818E-01  0.00000000000E+00 0.  1.
  9000001    1    1    2    0    0  0.34235676068E-02 -0.22310568833E-02  0.35502607720E-01  0.35750994182E-01  0.10000000475E-02 0. -1.
</event>
<event>
 4   0  0.2441219E-02  0.9118800E+02  0.7818609E-02  0.1379984E+01
      -11   -1    0    0    0    0  0.00000000000E+00  0.00000000000E+00  0.35740347158E-01  0.35744000000E-01  0.51099999109E-03 0. -1.
       11   -1    0    0    0    0 -0.00000000000E+00 -0.00000000000E+00 -0.35740347158E-01  0.35744000000E-01  0.51099999109E-03 0.  1.
       22    1    1    2    0    0 -0.24769062424E-02  0.21136858583E-01 -0.28709436246E-01  0.35737005818E-01  0.00000000000E+00 0.  1.
  9000001    1    1    2    0    0  0.24769062424E-02 -0.21136858583E-01  0.28709436246E-01  0.35750994182E-01  0.10000000475E-02 0. -1.
</event>
<event>
 4   0  0.2441219E-02  0.9118800E+02  0.7818609E-02  0.1379984E+01
      -11   -1    0    0    0    0  0.00000000000E+00  0.00000000000E+00  0.35740347158E-01  0.35744000000E-01  0.51099999109E-03 0.  1.
       11   -1    0    0    0    0 -0.00000000000E+00 -0.00000000000E+00 -0.35740347158E-01  0.35744000000E-01  0.51099999109E-03 0. -1.
       22    1    1    2    0    0 -0.28635064538E-02  0.30416036048E-02  0.35492007032E-01  0.35737005818E-01  0.00000000000E+00 0.  1.
  9000001    1    1    2    0    0  0.28635064538E-02 -0.30416036048E-02 -0.35492007032E-01  0.35750994182E-01  0.10000000475E-02 0. -1.
</event>
<event>
 4   0  0.2441219E-02  0.9118800E+02  0.7818609E-02  0.1379984E+01
      -11   -1    0    0    0    0  0.00000000000E+00  0.00000000000E+00  0.35740347158E-01  0.35744000000E-01  0.51099999109E-03 0. -1.
       11   -1    0    0    0    0 -0.00000000000E+00 -0.00000000000E+00 -0.35740347158E-01  0.35744000000E-01  0.51099999109E-03 0.  1.
       22    1    1    2    0    0  0.50175988964E-02 -0.38464517678E-02  0.35173315098E-01  0.35737005818E-01  0.00000000000E+00 0. -1.
  9000001    1    1    2    0    0 -0.50175988964E-02  0.38464517678E-02 -0.35173315098E-01  0.35750994182E-01  0.10000000475E-02 0.  1.
</event>
<event>
 4   0  0.2441219E-02  0.9118800E+02  0.7818609E-02  0.1379984E+01
      -11   -1    0    0    0    0  0.00000000000E+00  0.00000000000E+00  0.35740347158E-01  0.35744000000E-01  0.51099999109E-03 0. -1.
       11   -1    0    0    0    0 -0.00000000000E+00 -0.00000000000E+00 -0.35740347158E-01  0.35744000000E-01  0.51099999109E-03 0.  1.
       22    1    1    2    0    0 -0.32681415957E-02 -0.24024819340E-03  0.35586445681E-01  0.35737005818E-01  0.00000000000E+00 0. -1.
  9000001    1    1    2    0    0  0.32681415957E-02  0.24024819340E-03 -0.35586445681E-01  0.35750994182E-01  0.10000000475E-02 0.  1.
</event>
<event>
 4   0  0.2441219E-02  0.9118800E+02  0.7818609E-02  0.1379984E+01
      -11   -1    0    0    0    0  0.00000000000E+00  0.00000000000E+00  0.35740347158E-01  0.35744000000E-01  0.51099999109E-03 0. -1.
       11   -1    0    0    0    0 -0.00000000000E+00 -0.00000000000E+00 -0.35740347158E-01  0.35744000000E-01  0.51099999109E-03 0.  1.
       22    1    1    2    0    0  0.57058245984E-02  0.15427578439E-01 -0.31726439668E-01  0.35737005818E-01  0.00000000000E+00 0.  1.
  9000001    1    1    2    0    0 -0.57058245984E-02 -0.15427578439E-01  0.31726439668E-01  0.35750994182E-01  0.10000000475E-02 0. -1.
</event>
<event>
 4   0  0.2441219E-02  0.9118800E+02  0.7818609E-02  0.1379984E+01
      -11   -1    0    0    0    0  0.00000000000E+00  0.00000000000E+00  0.35740347158E-01  0.35744000000E-01  0.51099999109E-03 0.  1.
       11   -1    0    0    0    0 -0.00000000000E+00 -0.00000000000E+00 -0.35740347158E-01  0.35744000000E-01  0.51099999109E-03 0. -1.
       22    1    1    2    0    0  0.13351136541E-02  0.55234729443E-02  0.35282322812E-01  0.35737005818E-01  0.00000000000E+00 0.  1.
  9000001    1    1    2    0    0 -0.13351136541E-02 -0.55234729443E-02 -0.35282322812E-01  0.35750994182E-01  0.10000000475E-02 0. -1.
</event>
<event>
 4   0  0.2441219E-02  0.9118800E+02  0.7818609E-02  0.1379984E+01
      -11   -1    0    0    0    0  0.00000000000E+00  0.00000000000E+00  0.35740347158E-01  0.35744000000E-01  0.51099999109E-03 0.  1.
       11   -1    0    0    0    0 -0.00000000000E+00 -0.00000000000E+00 -0.35740347158E-01  0.35744000000E-01  0.51099999109E-03 0. -1.
       22    1    1    2    0    0 -0.61591106762E-03  0.55113628829E-02  0.35304094913E-01  0.35737005818E-01  0.00000000000E+00 0.  1.
  9000001    1    1    2    0    0  0.61591106762E-03 -0.55113628829E-02 -0.35304094913E-01  0.35750994182E-01  0.10000000475E-02 0. -1.
</event>
<event>
 4   0  0.2441219E-02  0.9118800E+02  0.7818609E-02  0.1379984E+01
      -11   -1    0    0    0    0  0.00000000000E+00  0.00000000000E+00  0.35740347158E-01  0.35744000000E-01  0.51099999109E-03 0. -1.
       11   -1    0    0    0    0 -0.00000000000E+00 -0.00000000000E+00 -0.35740347158E-01  0.35744000000E-01  0.51099999109E-03 0.  1.
       22    1    1    2    0    0 -0.19616456829E-02 -0.25979380790E-02 -0.35588428580E-01  0.35737005818E-01  0.00000000000E+00 0.  1.
  9000001    1    1    2    0    0  0.19616456829E-02  0.25979380790E-02  0.35588428580E-01  0.35750994182E-01  0.10000000475E-02 0. -1.
</event>
<event>
 4   0  0.2441219E-02  0.9118800E+02  0.7818609E-02  0.1379984E+01
      -11   -1    0    0    0    0  0.00000000000E+00  0.00000000000E+00  0.35740347158E-01  0.35744000000E-01  0.51099999109E-03 0. -1.
       11   -1    0    0    0    0 -0.00000000000E+00 -0.00000000000E+00 -0.35740347158E-01  0.35744000000E-01  0.51099999109E-03 0.  1.
       22    1    1    2    0    0 -0.45445999113E-02 -0.86880167291E-03 -0.35436215658E-01  0.35737005818E-01  0.00000000000E+00 0.  1.
  9000001    1    1    2    0    0  0.45445999113E-02  0.86880167291E-03  0.35436215658E-01  0.35750994182E-01  0.10000000475E-02 0. -1.
</event>
<event>
 4   0  0.2441219E-02  0.9118800E+02  0.7818609E-02  0.1379984E+01
      -11   -1    0    0    0    0  0.00000000000E+00  0.00000000000E+00  0.35740347158E-01  0.35744000000E-01  0.51099999109E-03 0.  1.
       11   -1    0    0    0    0 -0.00000000000E+00 -0.00000000000E+00 -0.35740347158E-01  0.35744000000E-01  0.51099999109E-03 0. -1.
       22    1    1    2    0    0 -0.15483703794E-01 -0.11743080816E-02  0.32187101488E-01  0.35737005818E-01  0.00000000000E+00 0.  1.
  9000001    1    1    2    0    0  0.15483703794E-01  0.11743080816E-02 -0.32187101488E-01  0.35750994182E-01  0.10000000475E-02 0. -1.
</event>
<event>
 4   0  0.2441219E-02  0.9118800E+02  0.7818609E-02  0.1379984E+01
      -11   -1    0    0    0    0  0.00000000000E+00  0.00000000000E+00  0.35740347158E-01  0.35744000000E-01  0.51099999109E-03 0.  1.
       11   -1    0    0    0    0 -0.00000000000E+00 -0.00000000000E+00 -0.35740347158E-01  0.35744000000E-01  0.51099999109E-03 0. -1.
       22    1    1    2    0    0  0.16267292874E-02 -0.62351310815E-02 -0.35151251430E-01  0.35737005818E-01  0.00000000000E+00 0. -1.
  9000001    1    1    2    0    0 -0.16267292874E-02  0.62351310815E-02  0.35151251430E-01  0.35750994182E-01  0.10000000475E-02 0.  1.
</event>
<event>
 4   0  0.2441219E-02  0.9118800E+02  0.7818609E-02  0.1379984E+01
      -11   -1    0    0    0    0  0.00000000000E+00  0.00000000000E+00  0.35740347158E-01  0.35744000000E-01  0.51099999109E-03 0. -1.
       11   -1    0    0    0    0 -0.00000000000E+00 -0.00000000000E+00 -0.35740347158E-01  0.35744000000E-01  0.51099999109E-03 0.  1.
       22    1    1    2    0    0  0.79707972012E-02  0.30059495967E-02 -0.34706832812E-01  0.35737005818E-01  0.00000000000E+00 0.  1.
  9000001    1    1    2    0    0 -0.79707972012E-02 -0.30059495967E-02  0.34706832812E-01  0.35750994182E-01  0.10000000475E-02 0. -1.
</event>
<event>
 4   0  0.2441219E-02  0.9118800E+02  0.7818609E-02  0.1379984E+01
      -11   -1    0    0    0    0  0.00000000000E+00  0.00000000000E+00  0.35740347158E-01  0.35744000000E-01  0.51099999109E-03 0. -1.
       11   -1    0    0    0    0 -0.00000000000E+00 -0.00000000000E+00 -0.35740347158E-01  0.35744000000E-01  0.51099999109E-03 0.  1.
       22    1    1    2    0    0 -0.42044699247E-02  0.65773086799E-02 -0.34873987843E-01  0.35737005818E-01  0.00000000000E+00 0.  1.
  9000001    1    1    2    0    0  0.42044699247E-02 -0.65773086799E-02  0.34873987843E-01  0.35750994182E-01  0.10000000475E-02 0. -1.
</event>
<event>
 4   0  0.2441219E-02  0.9118800E+02  0.7818609E-02  0.1379984E+01
      -11   -1    0    0    0    0  0.00000000000E+00  0.00000000000E+00  0.35740347158E-01  0.35744000000E-01  0.51099999109E-03 0.  1.
       11   -1    0    0    0    0 -0.00000000000E+00 -0.00000000000E+00 -0.35740347158E-01  0.35744000000E-01  0.51099999109E-03 0. -1.
       22    1    1    2    0    0 -0.13120917576E-01 -0.82901636828E-02  0.32190810691E-01  0.35737005818E-01  0.00000000000E+00 0.  1.
  9000001    1    1    2    0    0  0.13120917576E-01  0.82901636828E-02 -0.32190810691E-01  0.35750994182E-01  0.10000000475E-02 0. -1.
</event>
<event>
 4   0  0.2441219E-02  0.9118800E+02  0.7818609E-02  0.1379984E+01
      -11   -1    0    0    0    0  0.00000000000E+00  0.00000000000E+00  0.35740347158E-01  0.35744000000E-01  0.51099999109E-03 0.  1.
       11   -1    0    0    0    0 -0.00000000000E+00 -0.00000000000E+00 -0.35740347158E-01  0.35744000000E-01  0.51099999109E-03 0. -1.
       22    1    1    2    0    0  0.11059368829E-02  0.24076177446E-01  0.26386514891E-01  0.35737005818E-01  0.00000000000E+00 0.  1.
  9000001    1    1    2    0    0 -0.11059368829E-02 -0.24076177446E-01 -0.26386514891E-01  0.35750994182E-01  0.10000000475E-02 0. -1.
</event>
<event>
 4   0  0.2441219E-02  0.9118800E+02  0.7818609E-02  0.1379984E+01
      -11   -1    0    0    0    0  0.00000000000E+00  0.00000000000E+00  0.35740347158E-01  0.35744000000E-01  0.51099999109E-03 0.  1.
       11   -1    0    0    0    0 -0.00000000000E+00 -0.00000000000E+00 -0.35740347158E-01  0.35744000000E-01  0.51099999109E-03 0. -1.
       22    1    1    2    0    0  0.88985198727E-02 -0.75768196653E-02  0.33771907448E-01  0.35737005818E-01  0.00000000000E+00 0.  1.
  9000001    1    1    2    0    0 -0.88985198727E-02  0.75768196653E-02 -0.33771907448E-01  0.35750994182E-01  0.10000000475E-02 0. -1.
</event>
<event>
 4   0  0.2441219E-02  0.9118800E+02  0.7818609E-02  0.1379984E+01
      -11   -1    0    0    0    0  0.00000000000E+00  0.00000000000E+00  0.35740347158E-01  0.35744000000E-01  0.51099999109E-03 0. -1.
       11   -1    0    0    0    0 -0.00000000000E+00 -0.00000000000E+00 -0.35740347158E-01  0.35744000000E-01  0.51099999109E-03 0.  1.
       22    1    1    2    0    0 -0.17755868619E-01 -0.29832831268E-01  0.84773163789E-02  0.35737005818E-01  0.00000000000E+00 0. -1.
  9000001    1    1    2    0    0  0.17755868619E-01  0.29832831268E-01 -0.84773163789E-02  0.35750994182E-01  0.10000000475E-02 0.  1.
</event>
<event>
 4   0  0.2441219E-02  0.9118800E+02  0.7818609E-02  0.1379984E+01
      -11   -1    0    0    0    0  0.00000000000E+00  0.00000000000E+00  0.35740347158E-01  0.35744000000E-01  0.51099999109E-03 0.  1.
       11   -1    0    0    0    0 -0.00000000000E+00 -0.00000000000E+00 -0.35740347158E-01  0.35744000000E-01  0.51099999109E-03 0. -1.
       22    1    1    2    0    0 -0.29438078249E-02  0.17942177943E-02 -0.35570329811E-01  0.35737005818E-01  0.00000000000E+00 0. -1.
  9000001    1    1    2    0    0  0.29438078249E-02 -0.17942177943E-02  0.35570329811E-01  0.35750994182E-01  0.10000000475E-02 0.  1.
</event>
<event>
 4   0  0.2441219E-02  0.9118800E+02  0.7818609E-02  0.1379984E+01
      -11   -1    0    0    0    0  0.00000000000E+00  0.00000000000E+00  0.35740347158E-01  0.35744000000E-01  0.51099999109E-03 0.  1.
       11   -1    0    0    0    0 -0.00000000000E+00 -0.00000000000E+00 -0.35740347158E-01  0.35744000000E-01  0.51099999109E-03 0. -1.
       22    1    1    2    0    0  0.74274084792E-02  0.26852851232E-02  0.34853356108E-01  0.35737005818E-01  0.00000000000E+00 0.  1.
  9000001    1    1    2    0    0 -0.74274084792E-02 -0.26852851232E-02 -0.34853356108E-01  0.35750994182E-01  0.10000000475E-02 0. -1.
</event>
<event>
 4   0  0.2441219E-02  0.9118800E+02  0.7818609E-02  0.1379984E+01
      -11   -1    0    0    0    0  0.00000000000E+00  0.00000000000E+00  0.35740347158E-01  0.35744000000E-01  0.51099999109E-03 0.  1.
       11   -1    0    0    0    0 -0.00000000000E+00 -0.00000000000E+00 -0.35740347158E-01  0.35744000000E-01  0.51099999109E-03 0. -1.
       22    1    1    2    0    0 -0.12786992979E-02 -0.34714470867E-01  0.83907106605E-02  0.35737005818E-01  0.00000000000E+00 0.  1.
  9000001    1    1    2    0    0  0.12786992979E-02  0.34714470867E-01 -0.83907106605E-02  0.35750994182E-01  0.10000000475E-02 0. -1.
</event>
<event>
 4   0  0.2441219E-02  0.9118800E+02  0.7818609E-02  0.1379984E+01
      -11   -1    0    0    0    0  0.00000000000E+00  0.00000000000E+00  0.35740347158E-01  0.35744000000E-01  0.51099999109E-03 0. -1.
       11   -1    0    0    0    0 -0.00000000000E+00 -0.00000000000E+00 -0.35740347158E-01  0.35744000000E-01  0.51099999109E-03 0.  1.
       22    1    1    2    0    0 -0.30546304435E-01  0.18398077848E-01  0.23595766039E-02  0.35737005818E-01  0.00000000000E+00 0. -1.
  9000001    1    1    2    0    0  0.30546304435E-01 -0.18398077848E-01 -0.23595766039E-02  0.35750994182E-01  0.10000000475E-02 0.  1.
</event>
<event>
 4   0  0.2441219E-02  0.9118800E+02  0.7818609E-02  0.1379984E+01
      -11   -1    0    0    0    0  0.00000000000E+00  0.00000000000E+00  0.35740347158E-01  0.35744000000E-01  0.51099999109E-03 0.  1.
       11   -1    0    0    0    0 -0.00000000000E+00 -0.00000000000E+00 -0.35740347158E-01  0.35744000000E-01  0.51099999109E-03 0. -1.
       22    1    1    2    0    0 -0.67854379381E-03 -0.45138183612E-02  0.35444302885E-01  0.35737005818E-01  0.00000000000E+00 0.  1.
  9000001    1    1    2    0    0  0.67854379381E-03  0.45138183612E-02 -0.35444302885E-01  0.35750994182E-01  0.10000000475E-02 0. -1.
</event>
<event>
 4   0  0.2441219E-02  0.9118800E+02  0.7818609E-02  0.1379984E+01
      -11   -1    0    0    0    0  0.00000000000E+00  0.00000000000E+00  0.35740347158E-01  0.35744000000E-01  0.51099999109E-03 0.  1.
       11   -1    0    0    0    0 -0.00000000000E+00 -0.00000000000E+00 -0.35740347158E-01  0.35744000000E-01  0.51099999109E-03 0. -1.
       22    1    1    2    0    0 -0.75293277891E-02  0.51165954898E-02 -0.34558114221E-01  0.35737005818E-01  0.00000000000E+00 0. -1.
  9000001    1    1    2    0    0  0.75293277891E-02 -0.51165954898E-02  0.34558114221E-01  0.35750994182E-01  0.10000000475E-02 0.  1.
</event>
<event>
 4   0  0.2441219E-02  0.9118800E+02  0.7818609E-02  0.1379984E+01
      -11   -1    0    0    0    0  0.00000000000E+00  0.00000000000E+00  0.35740347158E-01  0.35744000000E-01  0.51099999109E-03 0.  1.
       11   -1    0    0    0    0 -0.00000000000E+00 -0.00000000000E+00 -0.35740347158E-01  0.35744000000E-01  0.51099999109E-03 0. -1.
       22    1    1    2    0    0 -0.58936763548E-02 -0.72270743770E-02  0.34498805194E-01  0.35737005818E-01  0.00000000000E+00 0.  1.
  9000001    1    1    2    0    0  0.58936763548E-02  0.72270743770E-02 -0.34498805194E-01  0.35750994182E-01  0.10000000475E-02 0. -1.
</event>
<event>
 4   0  0.2441219E-02  0.9118800E+02  0.7818609E-02  0.1379984E+01
      -11   -1    0    0    0    0  0.00000000000E+00  0.00000000000E+00  0.35740347158E-01  0.35744000000E-01  0.51099999109E-03 0. -1.
       11   -1    0    0    0    0 -0.00000000000E+00 -0.00000000000E+00 -0.35740347158E-01  0.35744000000E-01  0.51099999109E-03 0.  1.
       22    1    1    2    0    0 -0.29990892556E-02 -0.28205067245E-01  0.21739669505E-01  0.35737005818E-01  0.00000000000E+00 0. -1.
  9000001    1    1    2    0    0  0.29990892556E-02  0.28205067245E-01 -0.21739669505E-01  0.35750994182E-01  0.10000000475E-02 0.  1.
</event>
<event>
 4   0  0.2441219E-02  0.9118800E+02  0.7818609E-02  0.1379984E+01
      -11   -1    0    0    0    0  0.00000000000E+00  0.00000000000E+00  0.35740347158E-01  0.35744000000E-01  0.51099999109E-03 0.  1.
       11   -1    0    0    0    0 -0.00000000000E+00 -0.00000000000E+00 -0.35740347158E-01  0.35744000000E-01  0.51099999109E-03 0. -1.
       22    1    1    2    0    0  0.33182469127E-01 -0.12496720387E-01 -0.44597429353E-02  0.35737005818E-01  0.00000000000E+00 0.  1.
  9000001    1    1    2    0    0 -0.33182469127E-01  0.12496720387E-01  0.44597429353E-02  0.35750994182E-01  0.10000000475E-02 0. -1.
</event>
<event>
 4   0  0.2441219E-02  0.9118800E+02  0.7818609E-02  0.1379984E+01
      -11   -1    0    0    0    0  0.00000000000E+00  0.00000000000E+00  0.35740347158E-01  0.35744000000E-01  0.51099999109E-03 0. -1.
       11   -1    0    0    0    0 -0.00000000000E+00 -0.00000000000E+00 -0.35740347158E-01  0.35744000000E-01  0.51099999109E-03 0.  1.
       22    1    1    2    0    0  0.22207373275E-02  0.22250182019E-02 -0.35598471942E-01  0.35737005818E-01  0.00000000000E+00 0.  1.
  9000001    1    1    2    0    0 -0.22207373275E-02 -0.22250182019E-02  0.35598471942E-01  0.35750994182E-01  0.10000000475E-02 0. -1.
</event>
<event>
 4   0  0.2441219E-02  0.9118800E+02  0.7818609E-02  0.1379984E+01
      -11   -1    0    0    0    0  0.00000000000E+00  0.00000000000E+00  0.35740347158E-01  0.35744000000E-01  0.51099999109E-03 0. -1.
       11   -1    0    0    0    0 -0.00000000000E+00 -0.00000000000E+00 -0.35740347158E-01  0.35744000000E-01  0.51099999109E-03 0.  1.
       22    1    1    2    0    0 -0.34961843049E-02  0.41095007170E-02  0.35327358860E-01  0.35737005818E-01  0.00000000000E+00 0. -1.
  9000001    1    1    2    0    0  0.34961843049E-02 -0.41095007170E-02 -0.35327358860E-01  0.35750994182E-01  0.10000000475E-02 0.  1.
</event>
<event>
 4   0  0.2441219E-02  0.9118800E+02  0.7818609E-02  0.1379984E+01
      -11   -1    0    0    0    0  0.00000000000E+00  0.00000000000E+00  0.35740347158E-01  0.35744000000E-01  0.51099999109E-03 0. -1.
       11   -1    0    0    0    0 -0.00000000000E+00 -0.00000000000E+00 -0.35740347158E-01  0.35744000000E-01  0.51099999109E-03 0.  1.
       22    1    1    2    0    0 -0.35475328186E-02 -0.76278904082E-02 -0.34732749440E-01  0.35737005818E-01  0.00000000000E+00 0.  1.
  9000001    1    1    2    0    0  0.35475328186E-02  0.76278904082E-02  0.34732749440E-01  0.35750994182E-01  0.10000000475E-02 0. -1.
</event>
<event>
 4   0  0.2441219E-02  0.9118800E+02  0.7818609E-02  0.1379984E+01
      -11   -1    0    0    0    0  0.00000000000E+00  0.00000000000E+00  0.35740347158E-01  0.35744000000E-01  0.51099999109E-03 0. -1.
       11   -1    0    0    0    0 -0.00000000000E+00 -0.00000000000E+00 -0.35740347158E-01  0.35744000000E-01  0.51099999109E-03 0.  1.
       22    1    1    2    0    0  0.18482483364E-01 -0.18297724648E-02  0.30531677424E-01  0.35737005818E-01  0.00000000000E+00 0. -1.
  9000001    1    1    2    0    0 -0.18482483364E-01  0.18297724648E-02 -0.30531677424E-01  0.35750994182E-01  0.10000000475E-02 0.  1.
</event>
<event>
 4   0  0.2441219E-02  0.9118800E+02  0.7818609E-02  0.1379984E+01
      -11   -1    0    0    0    0  0.00000000000E+00  0.00000000000E+00  0.35740347158E-01  0.35744000000E-01  0.51099999109E-03 0. -1.
       11   -1    0    0    0    0 -0.00000000000E+00 -0.00000000000E+00 -0.35740347158E-01  0.35744000000E-01  0.51099999109E-03 0.  1.
       22    1    1    2    0    0  0.52489466549E-02 -0.11651032501E-02 -0.35330223298E-01  0.35737005818E-01  0.00000000000E+00 0.  1.
  9000001    1    1    2    0    0 -0.52489466549E-02  0.11651032501E-02  0.35330223298E-01  0.35750994182E-01  0.10000000475E-02 0. -1.
</event>
<event>
 4   0  0.2441219E-02  0.9118800E+02  0.7818609E-02  0.1379984E+01
      -11   -1    0    0    0    0  0.00000000000E+00  0.00000000000E+00  0.35740347158E-01  0.35744000000E-01  0.51099999109E-03 0. -1.
       11   -1    0    0    0    0 -0.00000000000E+00 -0.00000000000E+00 -0.35740347158E-01  0.35744000000E-01  0.51099999109E-03 0.  1.
       22    1    1    2    0    0 -0.71995896823E-02 -0.10937599631E-01 -0.33251592557E-01  0.35737005818E-01  0.00000000000E+00 0.  1.
  9000001    1    1    2    0    0  0.71995896823E-02  0.10937599631E-01  0.33251592557E-01  0.35750994182E-01  0.10000000475E-02 0. -1.
</event>
<event>
 4   0  0.2441219E-02  0.9118800E+02  0.7818609E-02  0.1379984E+01
      -11   -1    0    0    0    0  0.00000000000E+00  0.00000000000E+00  0.35740347158E-01  0.35744000000E-01  0.51099999109E-03 0.  1.
       11   -1    0    0    0    0 -0.00000000000E+00 -0.00000000000E+00 -0.35740347158E-01  0.35744000000E-01  0.51099999109E-03 0. -1.
       22    1    1    2    0    0  0.74417502588E-02 -0.62089211132E-02  0.34397721386E-01  0.35737005818E-01  0.00000000000E+00 0.  1.
  9000001    1    1    2    0    0 -0.74417502588E-02  0.62089211132E-02 -0.34397721386E-01  0.35750994182E-01  0.10000000475E-02 0. -1.
</event>
<event>
 4   0  0.2441219E-02  0.9118800E+02  0.7818609E-02  0.1379984E+01
      -11   -1    0    0    0    0  0.00000000000E+00  0.00000000000E+00  0.35740347158E-01  0.35744000000E-01  0.51099999109E-03 0.  1.
       11   -1    0    0    0    0 -0.00000000000E+00 -0.00000000000E+00 -0.35740347158E-01  0.35744000000E-01  0.51099999109E-03 0. -1.
       22    1    1    2    0    0 -0.57407584359E-02 -0.43058579028E-02 -0.35009096892E-01  0.35737005818E-01  0.00000000000E+00 0. -1.
  9000001    1    1    2    0    0  0.57407584359E-02  0.43058579028E-02  0.35009096892E-01  0.35750994182E-01  0.10000000475E-02 0.  1.
</event>
<event>
 4   0  0.2441219E-02  0.9118800E+02  0.7818609E-02  0.1379984E+01
      -11   -1    0    0    0    0  0.00000000000E+00  0.00000000000E+00  0.35740347158E-01  0.35744000000E-01  0.51099999109E-03 0. -1.
       11   -1    0    0    0    0 -0.00000000000E+00 -0.00000000000E+00 -0.35740347158E-01  0.35744000000E-01  0.51099999109E-03 0.  1.
       22    1    1    2    0    0 -0.28361820552E-01  0.88939932767E-02 -0.19840302504E-01  0.35737005818E-01  0.00000000000E+00 0. -1.
  9000001    1    1    2    0    0  0.28361820552E-01 -0.88939932767E-02  0.19840302504E-01  0.35750994182E-01  0.10000000475E-02 0.  1.
</event>
<event>
 4   0  0.2441219E-02  0.9118800E+02  0.7818609E-02  0.1379984E+01
      -11   -1    0    0    0    0  0.00000000000E+00  0.00000000000E+00  0.35740347158E-01  0.35744000000E-01  0.51099999109E-03 0. -1.
       11   -1    0    0    0    0 -0.00000000000E+00 -0.00000000000E+00 -0.35740347158E-01  0.35744000000E-01  0.51099999109E-03 0.  1.
       22    1    1    2    0    0 -0.12842603687E-01  0.16355802015E-01 -0.29063531373E-01  0.35737005818E-01  0.00000000000E+00 0.  1.
  9000001    1    1    2    0    0  0.12842603687E-01 -0.16355802015E-01  0.29063531373E-01  0.35750994182E-01  0.10000000475E-02 0. -1.
</event>
<event>
 4   0  0.2441219E-02  0.9118800E+02  0.7818609E-02  0.1379984E+01
      -11   -1    0    0    0    0  0.00000000000E+00  0.00000000000E+00  0.35740347158E-01  0.35744000000E-01  0.51099999109E-03 0.  1.
       11   -1    0    0    0    0 -0.00000000000E+00 -0.00000000000E+00 -0.35740347158E-01  0.35744000000E-01  0.51099999109E-03 0. -1.
       22    1    1    2    0    0  0.10824323812E-01 -0.82258130539E-02 -0.33050016618E-01  0.35737005818E-01  0.00000000000E+00 0. -1.
  9000001    1    1    2    0    0 -0.10824323812E-01  0.82258130539E-02  0.33050016618E-01  0.35750994182E-01  0.10000000475E-02 0.  1.
</event>
<event>
 4   0  0.2441219E-02  0.9118800E+02  0.7818609E-02  0.1379984E+01
      -11   -1    0    0    0    0  0.00000000000E+00  0.00000000000E+00  0.35740347158E-01  0.35744000000E-01  0.51099999109E-03 0. -1.
       11   -1    0    0    0    0 -0.00000000000E+00 -0.00000000000E+00 -0.35740347158E-01  0.35744000000E-01  0.51099999109E-03 0.  1.
       22    1    1    2    0    0 -0.64644052877E-02 -0.30373031010E-01  0.17686832289E-01  0.35737005818E-01  0.00000000000E+00 0. -1.
  9000001    1    1    2    0    0  0.64644052877E-02  0.30373031010E-01 -0.17686832289E-01  0.35750994182E-01  0.10000000475E-02 0.  1.
</event>
<event>
 4   0  0.2441219E-02  0.9118800E+02  0.7818609E-02  0.1379984E+01
      -11   -1    0    0    0    0  0.00000000000E+00  0.00000000000E+00  0.35740347158E-01  0.35744000000E-01  0.51099999109E-03 0.  1.
       11   -1    0    0    0    0 -0.00000000000E+00 -0.00000000000E+00 -0.35740347158E-01  0.35744000000E-01  0.51099999109E-03 0. -1.
       22    1    1    2    0    0  0.25828119611E-02 -0.71525714327E-02 -0.34918525014E-01  0.35737005818E-01  0.00000000000E+00 0. -1.
  9000001    1    1    2    0    0 -0.25828119611E-02  0.71525714327E-02  0.34918525014E-01  0.35750994182E-01  0.10000000475E-02 0.  1.
</event>
<event>
 4   0  0.2441219E-02  0.9118800E+02  0.7818609E-02  0.1379984E+01
      -11   -1    0    0    0    0  0.00000000000E+00  0.00000000000E+00  0.35740347158E-01  0.35744000000E-01  0.51099999109E-03 0.  1.
       11   -1    0    0    0    0 -0.00000000000E+00 -0.00000000000E+00 -0.35740347158E-01  0.35744000000E-01  0.51099999109E-03 0. -1.
       22    1    1    2    0    0 -0.17053654935E-01  0.12301979149E-01 -0.28895808472E-01  0.35737005818E-01  0.00000000000E+00 0. -1.
  9000001    1    1    2    0    0  0.17053654935E-01 -0.12301979149E-01  0.28895808472E-01  0.35750994182E-01  0.10000000475E-02 0.  1.
</event>
<event>
 4   0  0.2441219E-02  0.9118800E+02  0.7818609E-02  0.1379984E+01
      -11   -1    0    0    0    0  0.00000000000E+00  0.00000000000E+00  0.35740347158E-01  0.35744000000E-01  0.51099999109E-03 0.  1.
       11   -1    0    0    0    0 -0.00000000000E+00 -0.00000000000E+00 -0.35740347158E-01  0.35744000000E-01  0.51099999109E-03 0. -1.
       22    1    1    2    0    0  0.14077033851E-01 -0.10059762154E-01  0.31269344224E-01  0.35737005818E-01  0.00000000000E+00 0.  1.
  9000001    1    1    2    0    0 -0.14077033851E-01  0.10059762154E-01 -0.31269344224E-01  0.35750994182E-01  0.10000000475E-02 0. -1.
</event>
<event>
 4   0  0.2441219E-02  0.9118800E+02  0.7818609E-02  0.1379984E+01
      -11   -1    0    0    0    0  0.00000000000E+00  0.00000000000E+00  0.35740347158E-01  0.35744000000E-01  0.51099999109E-03 0.  1.
       11   -1    0    0    0    0 -0.00000000000E+00 -0.00000000000E+00 -0.35740347158E-01  0.35744000000E-01  0.51099999109E-03 0. -1.
       22    1    1    2    0    0 -0.29520213315E-01  0.12796376064E-01 -0.15554528290E-01  0.35737005818E-01  0.00000000000E+00 0. -1.
  9000001    1    1    2    0    0  0.29520213315E-01 -0.12796376064E-01  0.15554528290E-01  0.35750994182E-01  0.10000000475E-02 0.  1.
</event>
<event>
 4   0  0.2441219E-02  0.9118800E+02  0.7818609E-02  0.1379984E+01
      -11   -1    0    0    0    0  0.00000000000E+00  0.00000000000E+00  0.35740347158E-01  0.35744000000E-01  0.51099999109E-03 0. -1.
       11   -1    0    0    0    0 -0.00000000000E+00 -0.00000000000E+00 -0.35740347158E-01  0.35744000000E-01  0.51099999109E-03 0.  1.
       22    1    1    2    0    0 -0.14206917954E-02  0.29479354543E-02  0.35586864097E-01  0.35737005818E-01  0.00000000000E+00 0. -1.
  9000001    1    1    2    0    0  0.14206917954E-02 -0.29479354543E-02 -0.35586864097E-01  0.35750994182E-01  0.10000000475E-02 0.  1.
</event>
<event>
 4   0  0.2441219E-02  0.9118800E+02  0.7818609E-02  0.1379984E+01
      -11   -1    0    0    0    0  0.00000000000E+00  0.00000000000E+00  0.35740347158E-01  0.35744000000E-01  0.51099999109E-03 0. -1.
       11   -1    0    0    0    0 -0.00000000000E+00 -0.00000000000E+00 -0.35740347158E-01  0.35744000000E-01  0.51099999109E-03 0.  1.
       22    1    1    2    0    0 -0.10658594146E-01 -0.12627966749E-01 -0.31686943865E-01  0.35737005818E-01  0.00000000000E+00 0.  1.
  9000001    1    1    2    0    0  0.10658594146E-01  0.12627966749E-01  0.31686943865E-01  0.35750994182E-01  0.10000000475E-02 0. -1.
</event>
<event>
 4   0  0.2441219E-02  0.9118800E+02  0.7818609E-02  0.1379984E+01
      -11   -1    0    0    0    0  0.00000000000E+00  0.00000000000E+00  0.35740347158E-01  0.35744000000E-01  0.51099999109E-03 0.  1.
       11   -1    0    0    0    0 -0.00000000000E+00 -0.00000000000E+00 -0.35740347158E-01  0.35744000000E-01  0.51099999109E-03 0. -1.
       22    1    1    2    0    0 -0.19599935092E-02  0.24937699223E-02 -0.35595970585E-01  0.35737005818E-01  0.00000000000E+00 0. -1.
  9000001    1    1    2    0    0  0.19599935092E-02 -0.24937699223E-02  0.35595970585E-01  0.35750994182E-01  0.10000000475E-02 0.  1.
</event>
<event>
 4   0  0.2441219E-02  0.9118800E+02  0.7818609E-02  0.1379984E+01
      -11   -1    0    0    0    0  0.00000000000E+00  0.00000000000E+00  0.35740347158E-01  0.35744000000E-01  0.51099999109E-03 0.  1.
       11   -1    0    0    0    0 -0.00000000000E+00 -0.00000000000E+00 -0.35740347158E-01  0.35744000000E-01  0.51099999109E-03 0. -1.
       22    1    1    2    0    0  0.20070505451E-02  0.30897249607E-02  0.35546574134E-01  0.35737005818E-01  0.00000000000E+00 0.  1.
  9000001    1    1    2    0    0 -0.20070505451E-02 -0.30897249607E-02 -0.35546574134E-01  0.35750994182E-01  0.10000000475E-02 0. -1.
</event>
<event>
 4   0  0.2441219E-02  0.9118800E+02  0.7818609E-02  0.1379984E+01
      -11   -1    0    0    0    0  0.00000000000E+00  0.00000000000E+00  0.35740347158E-01  0.35744000000E-01  0.51099999109E-03 0. -1.
       11   -1    0    0    0    0 -0.00000000000E+00 -0.00000000000E+00 -0.35740347158E-01  0.35744000000E-01  0.51099999109E-03 0.  1.
       22    1    1    2    0    0  0.20665374118E-02  0.27307307115E-02  0.35572547249E-01  0.35737005818E-01  0.00000000000E+00 0. -1.
  9000001    1    1    2    0    0 -0.20665374118E-02 -0.27307307115E-02 -0.35572547249E-01  0.35750994182E-01  0.10000000475E-02 0.  1.
</event>
<event>
 4   0  0.2441219E-02  0.9118800E+02  0.7818609E-02  0.1379984E+01
      -11   -1    0    0    0    0  0.00000000000E+00  0.00000000000E+00  0.35740347158E-01  0.35744000000E-01  0.51099999109E-03 0. -1.
       11   -1    0    0    0    0 -0.00000000000E+00 -0.00000000000E+00 -0.35740347158E-01  0.35744000000E-01  0.51099999109E-03 0.  1.
       22    1    1    2    0    0 -0.12138704228E-01  0.18092709587E-01  0.28327359643E-01  0.35737005818E-01  0.00000000000E+00 0. -1.
  9000001    1    1    2    0    0  0.12138704228E-01 -0.18092709587E-01 -0.28327359643E-01  0.35750994182E-01  0.10000000475E-02 0.  1.
</event>
<event>
 4   0  0.2441219E-02  0.9118800E+02  0.7818609E-02  0.1379984E+01
      -11   -1    0    0    0    0  0.00000000000E+00  0.00000000000E+00  0.35740347158E-01  0.35744000000E-01  0.51099999109E-03 0.  1.
       11   -1    0    0    0    0 -0.00000000000E+00 -0.00000000000E+00 -0.35740347158E-01  0.35744000000E-01  0.51099999109E-03 0. -1.
       22    1    1    2    0    0  0.30213766164E-01 -0.29825965970E-02 -0.18851154782E-01  0.35737005818E-01  0.00000000000E+00 0. -1.
  9000001    1    1    2    0    0 -0.30213766164E-01  0.29825965970E-02  0.18851154782E-01  0.35750994182E-01  0.10000000475E-02 0.  1.
</event>
<event>
 4   0  0.2441219E-02  0.9118800E+02  0.7818609E-02  0.1379984E+01
      -11   -1    0    0    0    0  0.00000000000E+00  0.00000000000E+00  0.35740347158E-01  0.35744000000E-01  0.51099999109E-03 0. -1.
       11   -1    0    0    0    0 -0.00000000000E+00 -0.00000000000E+00 -0.35740347158E-01  0.35744000000E-01  0.51099999109E-03 0.  1.
       22    1    1    2    0    0  0.40701467146E-02 -0.97963349189E-02  0.34126226172E-01  0.35737005818E-01  0.00000000000E+00 0. -1.
  9000001    1    1    2    0    0 -0.40701467146E-02  0.97963349189E-02 -0.34126226172E-01  0.35750994182E-01  0.10000000475E-02 0.  1.
</event>
<event>
 4   0  0.2441219E-02  0.9118800E+02  0.7818609E-02  0.1379984E+01
      -11   -1    0    0    0    0  0.00000000000E+00  0.00000000000E+00  0.35740347158E-01  0.35744000000E-01  0.51099999109E-03 0.  1.
       11   -1    0    0    0    0 -0.00000000000E+00 -0.00000000000E+00 -0.35740347158E-01  0.35744000000E-01  0.51099999109E-03 0. -1.
       22    1    1    2    0    0 -0.13709160849E-01  0.29099679109E-02  0.32874375742E-01  0.35737005818E-01  0.00000000000E+00 0.  1.
  9000001    1    1    2    0    0  0.13709160849E-01 -0.29099679109E-02 -0.32874375742E-01  0.35750994182E-01  0.10000000475E-02 0. -1.
</event>
<event>
 4   0  0.2441219E-02  0.9118800E+02  0.7818609E-02  0.1379984E+01
      -11   -1    0    0    0    0  0.00000000000E+00  0.00000000000E+00  0.35740347158E-01  0.35744000000E-01  0.51099999109E-03 0. -1.
       11   -1    0    0    0    0 -0.00000000000E+00 -0.00000000000E+00 -0.35740347158E-01  0.35744000000E-01  0.51099999109E-03 0.  1.
       22    1    1    2    0    0 -0.34165234683E-01  0.58424725835E-02 -0.87026339717E-02  0.35737005818E-01  0.00000000000E+00 0.  1.
  9000001    1    1    2    0    0  0.34165234683E-01 -0.58424725835E-02  0.87026339717E-02  0.35750994182E-01  0.10000000475E-02 0. -1.
</event>
<event>
 4   0  0.2441219E-02  0.9118800E+02  0.7818609E-02  0.1379984E+01
      -11   -1    0    0    0    0  0.00000000000E+00  0.00000000000E+00  0.35740347158E-01  0.35744000000E-01  0.51099999109E-03 0.  1.
       11   -1    0    0    0    0 -0.00000000000E+00 -0.00000000000E+00 -0.35740347158E-01  0.35744000000E-01  0.51099999109E-03 0. -1.
       22    1    1    2    0    0  0.86643413756E-02  0.11786010659E-01  0.32606022851E-01  0.35737005818E-01  0.00000000000E+00 0.  1.
  9000001    1    1    2    0    0 -0.86643413756E-02 -0.11786010659E-01 -0.32606022851E-01  0.35750994182E-01  0.10000000475E-02 0. -1.
</event>
<event>
 4   0  0.2441219E-02  0.9118800E+02  0.7818609E-02  0.1379984E+01
      -11   -1    0    0    0    0  0.00000000000E+00  0.00000000000E+00  0.35740347158E-01  0.35744000000E-01  0.51099999109E-03 0. -1.
       11   -1    0    0    0    0 -0.00000000000E+00 -0.00000000000E+00 -0.35740347158E-01  0.35744000000E-01  0.51099999109E-03 0.  1.
       22    1    1    2    0    0 -0.28580905426E-02  0.78036606860E-02  0.34757269502E-01  0.35737005818E-01  0.00000000000E+00 0. -1.
  9000001    1    1    2    0    0  0.28580905426E-02 -0.78036606860E-02 -0.34757269502E-01  0.35750994182E-01  0.10000000475E-02 0.  1.
</event>
<event>
 4   0  0.2441219E-02  0.9118800E+02  0.7818609E-02  0.1379984E+01
      -11   -1    0    0    0    0  0.00000000000E+00  0.00000000000E+00  0.35740347158E-01  0.35744000000E-01  0.51099999109E-03 0. -1.
       11   -1    0    0    0    0 -0.00000000000E+00 -0.00000000000E+00 -0.35740347158E-01  0.35744000000E-01  0.51099999109E-03 0.  1.
       22    1    1    2    0    0 -0.10170743299E-01 -0.94989427545E-02 -0.32915948295E-01  0.35737005818E-01  0.00000000000E+00 0.  1.
  9000001    1    1    2    0    0  0.10170743299E-01  0.94989427545E-02  0.32915948295E-01  0.35750994182E-01  0.10000000475E-02 0. -1.
</event>
<event>
 4   0  0.2441219E-02  0.9118800E+02  0.7818609E-02  0.1379984E+01
      -11   -1    0    0    0    0  0.00000000000E+00  0.00000000000E+00  0.35740347158E-01  0.35744000000E-01  0.51099999109E-03 0. -1.
       11   -1    0    0    0    0 -0.00000000000E+00 -0.00000000000E+00 -0.35740347158E-01  0.35744000000E-01  0.51099999109E-03 0.  1.
       22    1    1    2    0    0  0.93740532664E-02 -0.27539137639E-02 -0.34375524275E-01  0.35737005818E-01  0.00000000000E+00 0.  1.
  9000001    1    1    2    0    0 -0.93740532664E-02  0.27539137639E-02  0.34375524275E-01  0.35750994182E-01  0.10000000475E-02 0. -1.
</event>
<event>
 4   0  0.2441219E-02  0.9118800E+02  0.7818609E-02  0.1379984E+01
      -11   -1    0    0    0    0  0.00000000000E+00  0.00000000000E+00  0.35740347158E-01  0.35744000000E-01  0.51099999109E-03 0. -1.
       11   -1    0    0    0    0 -0.00000000000E+00 -0.00000000000E+00 -0.35740347158E-01  0.35744000000E-01  0.51099999109E-03 0.  1.
       22    1    1    2    0    0 -0.23245416673E-01 -0.81441003018E-02 -0.25893200243E-01  0.35737005818E-01  0.00000000000E+00 0.  1.
  9000001    1    1    2    0    0  0.23245416673E-01  0.81441003018E-02  0.25893200243E-01  0.35750994182E-01  0.10000000475E-02 0. -1.
</event>
<event>
 4   0  0.2441219E-02  0.9118800E+02  0.7818609E-02  0.1379984E+01
      -11   -1    0    0    0    0  0.00000000000E+00  0.00000000000E+00  0.35740347158E-01  0.35744000000E-01  0.51099999109E-03 0. -1.
       11   -1    0    0    0    0 -0.00000000000E+00 -0.00000000000E+00 -0.35740347158E-01  0.35744000000E-01  0.51099999109E-03 0.  1.
       22    1    1    2    0    0  0.28064709530E-01  0.20824506616E-01 -0.74729905722E-02  0.35737005818E-01  0.00000000000E+00 0. -1.
  9000001    1    1    2    0    0 -0.28064709530E-01 -0.20824506616E-01  0.74729905722E-02  0.35750994182E-01  0.10000000475E-02 0.  1.
</event>
<event>
 4   0  0.2441219E-02  0.9118800E+02  0.7818609E-02  0.1379984E+01
      -11   -1    0    0    0    0  0.00000000000E+00  0.00000000000E+00  0.35740347158E-01  0.35744000000E-01  0.51099999109E-03 0. -1.
       11   -1    0    0    0    0 -0.00000000000E+00 -0.00000000000E+00 -0.35740347158E-01  0.35744000000E-01  0.51099999109E-03 0.  1.
       22    1    1    2    0    0 -0.96438616778E-02 -0.47360565563E-02  0.34083709967E-01  0.35737005818E-01  0.00000000000E+00 0. -1.
  9000001    1    1    2    0    0  0.96438616778E-02  0.47360565563E-02 -0.34083709967E-01  0.35750994182E-01  0.10000000475E-02 0.  1.
</event>
<event>
 4   0  0.2441219E-02  0.9118800E+02  0.7818609E-02  0.1379984E+01
      -11   -1    0    0    0    0  0.00000000000E+00  0.00000000000E+00  0.35740347158E-01  0.35744000000E-01  0.51099999109E-03 0.  1.
       11   -1    0    0    0    0 -0.00000000000E+00 -0.00000000000E+00 -0.35740347158E-01  0.35744000000E-01  0.51099999109E-03 0. -1.
       22    1    1    2    0    0 -0.69691728771E-03 -0.71945674863E-02 -0.34998372674E-01  0.35737005818E-01  0.00000000000E+00 0. -1.
  9000001    1    1    2    0    0  0.69691728771E-03  0.71945674863E-02  0.34998372674E-01  0.35750994182E-01  0.10000000475E-02 0.  1.
</event>
<event>
 4   0  0.2441219E-02  0.9118800E+02  0.7818609E-02  0.1379984E+01
      -11   -1    0    0    0    0  0.00000000000E+00  0.00000000000E+00  0.35740347158E-01  0.35744000000E-01  0.51099999109E-03 0. -1.
       11   -1    0    0    0    0 -0.00000000000E+00 -0.00000000000E+00 -0.35740347158E-01  0.35744000000E-01  0.51099999109E-03 0.  1.
       22    1    1    2    0    0 -0.65137993532E-02  0.92486932118E-02  0.33899346258E-01  0.35737005818E-01  0.00000000000E+00 0. -1.
  9000001    1    1    2    0    0  0.65137993532E-02 -0.92486932118E-02 -0.33899346258E-01  0.35750994182E-01  0.10000000475E-02 0.  1.
</event>
<event>
 4   0  0.2441219E-02  0.9118800E+02  0.7818609E-02  0.1379984E+01
      -11   -1    0    0    0    0  0.00000000000E+00  0.00000000000E+00  0.35740347158E-01  0.35744000000E-01  0.51099999109E-03 0. -1.
       11   -1    0    0    0    0 -0.00000000000E+00 -0.00000000000E+00 -0.35740347158E-01  0.35744000000E-01  0.51099999109E-03 0.  1.
       22    1    1    2    0    0  0.11124253046E-01 -0.10703320663E-01 -0.32230785064E-01  0.35737005818E-01  0.00000000000E+00 0.  1.
  9000001    1    1    2    0    0 -0.11124253046E-01  0.10703320663E-01  0.32230785064E-01  0.35750994182E-01  0.10000000475E-02 0. -1.
</event>
<event>
 4   0  0.2441219E-02  0.9118800E+02  0.7818609E-02  0.1379984E+01
      -11   -1    0    0    0    0  0.00000000000E+00  0.00000000000E+00  0.35740347158E-01  0.35744000000E-01  0.51099999109E-03 0. -1.
       11   -1    0    0    0    0 -0.00000000000E+00 -0.00000000000E+00 -0.35740347158E-01  0.35744000000E-01  0.51099999109E-03 0.  1.
       22    1    1    2    0    0 -0.32712238844E-02  0.25864133728E-02  0.35492860480E-01  0.35737005818E-01  0.00000000000E+00 0. -1.
  9000001    1    1    2    0    0  0.32712238844E-02 -0.25864133728E-02 -0.35492860480E-01  0.35750994182E-01  0.10000000475E-02 0.  1.
</event>
<event>
 4   0  0.2441219E-02  0.9118800E+02  0.7818609E-02  0.1379984E+01
      -11   -1    0    0    0    0  0.00000000000E+00  0.00000000000E+00  0.35740347158E-01  0.35744000000E-01  0.51099999109E-03 0.  1.
       11   -1    0    0    0    0 -0.00000000000E+00 -0.00000000000E+00 -0.35740347158E-01  0.35744000000E-01  0.51099999109E-03 0. -1.
       22    1    1    2    0    0 -0.15934719262E-02  0.45584155607E-02 -0.35409254153E-01  0.35737005818E-01  0.00000000000E+00 0. -1.
  9000001    1    1    2    0    0  0.15934719262E-02 -0.45584155607E-02  0.35409254153E-01  0.35750994182E-01  0.10000000475E-02 0.  1.
</event>
<event>
 4   0  0.2441219E-02  0.9118800E+02  0.7818609E-02  0.1379984E+01
      -11   -1    0    0    0    0  0.00000000000E+00  0.00000000000E+00  0.35740347158E-01  0.35744000000E-01  0.51099999109E-03 0. -1.
       11   -1    0    0    0    0 -0.00000000000E+00 -0.00000000000E+00 -0.35740347158E-01  0.35744000000E-01  0.51099999109E-03 0.  1.
       22    1    1    2    0    0  0.38153292285E-04 -0.48212302508E-02 -0.35410279130E-01  0.35737005818E-01  0.00000000000E+00 0.  1.
  9000001    1    1    2    0    0 -0.38153292285E-04  0.48212302508E-02  0.35410279130E-01  0.35750994182E-01  0.10000000475E-02 0. -1.
</event>
<event>
 4   0  0.2441219E-02  0.9118800E+02  0.7818609E-02  0.1379984E+01
      -11   -1    0    0    0    0  0.00000000000E+00  0.00000000000E+00  0.35740347158E-01  0.35744000000E-01  0.51099999109E-03 0. -1.
       11   -1    0    0    0    0 -0.00000000000E+00 -0.00000000000E+00 -0.35740347158E-01  0.35744000000E-01  0.51099999109E-03 0.  1.
       22    1    1    2    0    0 -0.11495092828E-01 -0.18854512250E-02 -0.33785226053E-01  0.35737005818E-01  0.00000000000E+00 0.  1.
  9000001    1    1    2    0    0  0.11495092828E-01  0.18854512250E-02  0.33785226053E-01  0.35750994182E-01  0.10000000475E-02 0. -1.
</event>
<event>
 4   0  0.2441219E-02  0.9118800E+02  0.7818609E-02  0.1379984E+01
      -11   -1    0    0    0    0  0.00000000000E+00  0.00000000000E+00  0.35740347158E-01  0.35744000000E-01  0.51099999109E-03 0. -1.
       11   -1    0    0    0    0 -0.00000000000E+00 -0.00000000000E+00 -0.35740347158E-01  0.35744000000E-01  0.51099999109E-03 0.  1.
       22    1    1    2    0    0 -0.14801179682E-01  0.38097640400E-02 -0.32303937265E-01  0.35737005818E-01  0.00000000000E+00 0.  1.
  9000001    1    1    2    0    0  0.14801179682E-01 -0.38097640400E-02  0.32303937265E-01  0.35750994182E-01  0.10000000475E-02 0. -1.
</event>
<event>
 4   0  0.2441219E-02  0.9118800E+02  0.7818609E-02  0.1379984E+01
      -11   -1    0    0    0    0  0.00000000000E+00  0.00000000000E+00  0.35740347158E-01  0.35744000000E-01  0.51099999109E-03 0. -1.
       11   -1    0    0    0    0 -0.00000000000E+00 -0.00000000000E+00 -0.35740347158E-01  0.35744000000E-01  0.51099999109E-03 0.  1.
       22    1    1    2    0    0 -0.50769907346E-02 -0.22053215666E-02 -0.35305726260E-01  0.35737005818E-01  0.00000000000E+00 0.  1.
  9000001    1    1    2    0    0  0.50769907346E-02  0.22053215666E-02  0.35305726260E-01  0.35750994182E-01  0.10000000475E-02 0. -1.
</event>
<event>
 4   0  0.2441219E-02  0.9118800E+02  0.7818609E-02  0.1379984E+01
      -11   -1    0    0    0    0  0.00000000000E+00  0.00000000000E+00  0.35740347158E-01  0.35744000000E-01  0.51099999109E-03 0. -1.
       11   -1    0    0    0    0 -0.00000000000E+00 -0.00000000000E+00 -0.35740347158E-01  0.35744000000E-01  0.51099999109E-03 0.  1.
       22    1    1    2    0    0  0.30479518761E-02  0.10227398798E-02 -0.35592099929E-01  0.35737005818E-01  0.00000000000E+00 0.  1.
  9000001    1    1    2    0    0 -0.30479518761E-02 -0.10227398798E-02  0.35592099929E-01  0.35750994182E-01  0.10000000475E-02 0. -1.
</event>
<event>
 4   0  0.2441219E-02  0.9118800E+02  0.7818609E-02  0.1379984E+01
      -11   -1    0    0    0    0  0.00000000000E+00  0.00000000000E+00  0.35740347158E-01  0.35744000000E-01  0.51099999109E-03 0. -1.
       11   -1    0    0    0    0 -0.00000000000E+00 -0.00000000000E+00 -0.35740347158E-01  0.35744000000E-01  0.51099999109E-03 0.  1.
       22    1    1    2    0    0 -0.26577613278E-02  0.16127081320E-02  0.35601531738E-01  0.35737005818E-01  0.00000000000E+00 0. -1.
  9000001    1    1    2    0    0  0.26577613278E-02 -0.16127081320E-02 -0.35601531738E-01  0.35750994182E-01  0.10000000475E-02 0.  1.
</event>
<event>
 4   0  0.2441219E-02  0.9118800E+02  0.7818609E-02  0.1379984E+01
      -11   -1    0    0    0    0  0.00000000000E+00  0.00000000000E+00  0.35740347158E-01  0.35744000000E-01  0.51099999109E-03 0.  1.
       11   -1    0    0    0    0 -0.00000000000E+00 -0.00000000000E+00 -0.35740347158E-01  0.35744000000E-01  0.51099999109E-03 0. -1.
       22    1    1    2    0    0  0.43374575743E-02  0.14940762169E-02 -0.35441328741E-01  0.35737005818E-01  0.00000000000E+00 0. -1.
  9000001    1    1    2    0    0 -0.43374575743E-02 -0.14940762169E-02  0.35441328741E-01  0.35750994182E-01  0.10000000475E-02 0.  1.
</event>
<event>
 4   0  0.2441219E-02  0.9118800E+02  0.7818609E-02  0.1379984E+01
      -11   -1    0    0    0    0  0.00000000000E+00  0.00000000000E+00  0.35740347158E-01  0.35744000000E-01  0.51099999109E-03 0.  1.
       11   -1    0    0    0    0 -0.00000000000E+00 -0.00000000000E+00 -0.35740347158E-01  0.35744000000E-01  0.51099999109E-03 0. -1.
       22    1    1    2    0    0  0.37346866279E-02  0.42430234752E-02  0.35287142877E-01  0.35737005818E-01  0.00000000000E+00 0.  1.
  9000001    1    1    2    0    0 -0.37346866279E-02 -0.42430234752E-02 -0.35287142877E-01  0.35750994182E-01  0.10000000475E-02 0. -1.
</event>
<event>
 4   0  0.2441219E-02  0.9118800E+02  0.7818609E-02  0.1379984E+01
      -11   -1    0    0    0    0  0.00000000000E+00  0.00000000000E+00  0.35740347158E-01  0.35744000000E-01  0.51099999109E-03 0.  1.
       11   -1    0    0    0    0 -0.00000000000E+00 -0.00000000000E+00 -0.35740347158E-01  0.35744000000E-01  0.51099999109E-03 0. -1.
       22    1    1    2    0    0 -0.57975798097E-03  0.35284459048E-01 -0.56395403389E-02  0.35737005818E-01  0.00000000000E+00 0.  1.
  9000001    1    1    2    0    0  0.57975798097E-03 -0.35284459048E-01  0.56395403389E-02  0.35750994182E-01  0.10000000475E-02 0. -1.
</event>
<event>
 4   0  0.2441219E-02  0.9118800E+02  0.7818609E-02  0.1379984E+01
      -11   -1    0    0    0    0  0.00000000000E+00  0.00000000000E+00  0.35740347158E-01  0.35744000000E-01  0.51099999109E-03 0. -1.
       11   -1    0    0    0    0 -0.00000000000E+00 -0.00000000000E+00 -0.35740347158E-01  0.35744000000E-01  0.51099999109E-03 0.  1.
       22    1    1    2    0    0  0.23336827758E-01 -0.21215729451E-02  0.26981938094E-01  0.35737005818E-01  0.00000000000E+00 0. -1.
  9000001    1    1    2    0    0 -0.23336827758E-01  0.21215729451E-02 -0.26981938094E-01  0.35750994182E-01  0.10000000475E-02 0.  1.
</event>
<event>
 4   0  0.2441219E-02  0.9118800E+02  0.7818609E-02  0.1379984E+01
      -11   -1    0    0    0    0  0.00000000000E+00  0.00000000000E+00  0.35740347158E-01  0.35744000000E-01  0.51099999109E-03 0.  1.
       11   -1    0    0    0    0 -0.00000000000E+00 -0.00000000000E+00 -0.35740347158E-01  0.35744000000E-01  0.51099999109E-03 0. -1.
       22    1    1    2    0    0  0.63537692070E-02  0.11718027532E-02  0.35148116309E-01  0.35737005818E-01  0.00000000000E+00 0.  1.
  9000001    1    1    2    0    0 -0.63537692070E-02 -0.11718027532E-02 -0.35148116309E-01  0.35750994182E-01  0.10000000475E-02 0. -1.
</event>
<event>
 4   0  0.2441219E-02  0.9118800E+02  0.7818609E-02  0.1379984E+01
      -11   -1    0    0    0    0  0.00000000000E+00  0.00000000000E+00  0.35740347158E-01  0.35744000000E-01  0.51099999109E-03 0. -1.
       11   -1    0    0    0    0 -0.00000000000E+00 -0.00000000000E+00 -0.35740347158E-01  0.35744000000E-01  0.51099999109E-03 0.  1.
       22    1    1    2    0    0  0.18970915004E-02 -0.42597387532E-02 -0.35431472654E-01  0.35737005818E-01  0.00000000000E+00 0.  1.
  9000001    1    1    2    0    0 -0.18970915004E-02  0.42597387532E-02  0.35431472654E-01  0.35750994182E-01  0.10000000475E-02 0. -1.
</event>
<event>
 4   0  0.2441219E-02  0.9118800E+02  0.7818609E-02  0.1379984E+01
      -11   -1    0    0    0    0  0.00000000000E+00  0.00000000000E+00  0.35740347158E-01  0.35744000000E-01  0.51099999109E-03 0.  1.
       11   -1    0    0    0    0 -0.00000000000E+00 -0.00000000000E+00 -0.35740347158E-01  0.35744000000E-01  0.51099999109E-03 0. -1.
       22    1    1    2    0    0 -0.97521705724E-02  0.29122682058E-02 -0.34257078800E-01  0.35737005818E-01  0.00000000000E+00 0. -1.
  9000001    1    1    2    0    0  0.97521705724E-02 -0.29122682058E-02  0.34257078800E-01  0.35750994182E-01  0.10000000475E-02 0.  1.
</event>
<event>
 4   0  0.2441219E-02  0.9118800E+02  0.7818609E-02  0.1379984E+01
      -11   -1    0    0    0    0  0.00000000000E+00  0.00000000000E+00  0.35740347158E-01  0.35744000000E-01  0.51099999109E-03 0. -1.
       11   -1    0    0    0    0 -0.00000000000E+00 -0.00000000000E+00 -0.35740347158E-01  0.35744000000E-01  0.51099999109E-03 0.  1.
       22    1    1    2    0    0  0.29693565137E-01  0.12588943997E-01  0.15392993970E-01  0.35737005818E-01  0.00000000000E+00 0. -1.
  9000001    1    1    2    0    0 -0.29693565137E-01 -0.12588943997E-01 -0.15392993970E-01  0.35750994182E-01  0.10000000475E-02 0.  1.
</event>
<event>
 4   0  0.2441219E-02  0.9118800E+02  0.7818609E-02  0.1379984E+01
      -11   -1    0    0    0    0  0.00000000000E+00  0.00000000000E+00  0.35740347158E-01  0.35744000000E-01  0.51099999109E-03 0.  1.
       11   -1    0    0    0    0 -0.00000000000E+00 -0.00000000000E+00 -0.35740347158E-01  0.35744000000E-01  0.51099999109E-03 0. -1.
       22    1    1    2    0    0 -0.28908303039E-01 -0.20614765506E-01  0.40589460909E-02  0.35737005818E-01  0.00000000000E+00 0.  1.
  9000001    1    1    2    0    0  0.28908303039E-01  0.20614765506E-01 -0.40589460909E-02  0.35750994182E-01  0.10000000475E-02 0. -1.
</event>
<event>
 4   0  0.2441219E-02  0.9118800E+02  0.7818609E-02  0.1379984E+01
      -11   -1    0    0    0    0  0.00000000000E+00  0.00000000000E+00  0.35740347158E-01  0.35744000000E-01  0.51099999109E-03 0.  1.
       11   -1    0    0    0    0 -0.00000000000E+00 -0.00000000000E+00 -0.35740347158E-01  0.35744000000E-01  0.51099999109E-03 0. -1.
       22    1    1    2    0    0 -0.20844327972E-01  0.31488968971E-02  0.28857096607E-01  0.35737005818E-01  0.00000000000E+00 0.  1.
  9000001    1    1    2    0    0  0.20844327972E-01 -0.31488968971E-02 -0.28857096607E-01  0.35750994182E-01  0.10000000475E-02 0. -1.
</event>
<event>
 4   0  0.2441219E-02  0.9118800E+02  0.7818609E-02  0.1379984E+01
      -11   -1    0    0    0    0  0.00000000000E+00  0.00000000000E+00  0.35740347158E-01  0.35744000000E-01  0.51099999109E-03 0. -1.
       11   -1    0    0    0    0 -0.00000000000E+00 -0.00000000000E+00 -0.35740347158E-01  0.35744000000E-01  0.51099999109E-03 0.  1.
       22    1    1    2    0    0  0.24394450025E-02 -0.24463063216E-02  0.35569625783E-01  0.35737005818E-01  0.00000000000E+00 0. -1.
  9000001    1    1    2    0    0 -0.24394450025E-02  0.24463063216E-02 -0.35569625783E-01  0.35750994182E-01  0.10000000475E-02 0.  1.
</event>
<event>
 4   0  0.2441219E-02  0.9118800E+02  0.7818609E-02  0.1379984E+01
      -11   -1    0    0    0    0  0.00000000000E+00  0.00000000000E+00  0.35740347158E-01  0.35744000000E-01  0.51099999109E-03 0. -1.
       11   -1    0    0    0    0 -0.00000000000E+00 -0.00000000000E+00 -0.35740347158E-01  0.35744000000E-01  0.51099999109E-03 0.  1.
       22    1    1    2    0    0  0.11091552175E-01 -0.55121684264E-02 -0.33522038340E-01  0.35737005818E-01  0.00000000000E+00 0.  1.
  9000001    1    1    2    0    0 -0.11091552175E-01  0.55121684264E-02  0.33522038340E-01  0.35750994182E-01  0.10000000475E-02 0. -1.
</event>
<event>
 4   0  0.2441219E-02  0.9118800E+02  0.7818609E-02  0.1379984E+01
      -11   -1    0    0    0    0  0.00000000000E+00  0.00000000000E+00  0.35740347158E-01  0.35744000000E-01  0.51099999109E-03 0.  1.
       11   -1    0    0    0    0 -0.00000000000E+00 -0.00000000000E+00 -0.35740347158E-01  0.35744000000E-01  0.51099999109E-03 0. -1.
       22    1    1    2    0    0 -0.20651107609E-02  0.28922137965E-02  0.35559865042E-01  0.35737005818E-01  0.00000000000E+00 0.  1.
  9000001    1    1    2    0    0  0.20651107609E-02 -0.28922137965E-02 -0.35559865042E-01  0.35750994182E-01  0.10000000475E-02 0. -1.
</event>
<event>
 4   0  0.2441219E-02  0.9118800E+02  0.7818609E-02  0.1379984E+01
      -11   -1    0    0    0    0  0.00000000000E+00  0.00000000000E+00  0.35740347158E-01  0.35744000000E-01  0.51099999109E-03 0.  1.
       11   -1    0    0    0    0 -0.00000000000E+00 -0.00000000000E+00 -0.35740347158E-01  0.35744000000E-01  0.51099999109E-03 0. -1.
       22    1    1    2    0    0 -0.21733752518E-02  0.65406473479E-02  0.35066079866E-01  0.35737005818E-01  0.00000000000E+00 0.  1.
  9000001    1    1    2    0    0  0.21733752518E-02 -0.65406473479E-02 -0.35066079866E-01  0.35750994182E-01  0.10000000475E-02 0. -1.
</event>
<event>
 4   0  0.2441219E-02  0.9118800E+02  0.7818609E-02  0.1379984E+01
      -11   -1    0    0    0    0  0.00000000000E+00  0.00000000000E+00  0.35740347158E-01  0.35744000000E-01  0.51099999109E-03 0.  1.
       11   -1    0    0    0    0 -0.00000000000E+00 -0.00000000000E+00 -0.35740347158E-01  0.35744000000E-01  0.51099999109E-03 0. -1.
       22    1    1    2    0    0 -0.30807148885E-01  0.24693730147E-02 -0.17943114540E-01  0.35737005818E-01  0.00000000000E+00 0. -1.
  9000001    1    1    2    0    0  0.30807148885E-01 -0.24693730147E-02  0.17943114540E-01  0.35750994182E-01  0.10000000475E-02 0.  1.
</event>
<event>
 4   0  0.2441219E-02  0.9118800E+02  0.7818609E-02  0.1379984E+01
      -11   -1    0    0    0    0  0.00000000000E+00  0.00000000000E+00  0.35740347158E-01  0.35744000000E-01  0.51099999109E-03 0. -1.
       11   -1    0    0    0    0 -0.00000000000E+00 -0.00000000000E+00 -0.35740347158E-01  0.35744000000E-01  0.51099999109E-03 0.  1.
       22    1    1    2    0    0 -0.31017193809E-01  0.11668106046E-01 -0.13376194315E-01  0.35737005818E-01  0.00000000000E+00 0. -1.
  9000001    1    1    2    0    0  0.31017193809E-01 -0.11668106046E-01  0.13376194315E-01  0.35750994182E-01  0.10000000475E-02 0.  1.
</event>
<event>
 4   0  0.2441219E-02  0.9118800E+02  0.7818609E-02  0.1379984E+01
      -11   -1    0    0    0    0  0.00000000000E+00  0.00000000000E+00  0.35740347158E-01  0.35744000000E-01  0.51099999109E-03 0. -1.
       11   -1    0    0    0    0 -0.00000000000E+00 -0.00000000000E+00 -0.35740347158E-01  0.35744000000E-01  0.51099999109E-03 0.  1.
       22    1    1    2    0    0 -0.52244784678E-02 -0.76715953507E-02  0.34510651028E-01  0.35737005818E-01  0.00000000000E+00 0. -1.
  9000001    1    1    2    0    0  0.52244784678E-02  0.76715953507E-02 -0.34510651028E-01  0.35750994182E-01  0.10000000475E-02 0.  1.
</event>
<event>
 4   0  0.2441219E-02  0.9118800E+02  0.7818609E-02  0.1379984E+01
      -11   -1    0    0    0    0  0.00000000000E+00  0.00000000000E+00  0.35740347158E-01  0.35744000000E-01  0.51099999109E-03 0.  1.
       11   -1    0    0    0    0 -0.00000000000E+00 -0.00000000000E+00 -0.35740347158E-01  0.35744000000E-01  0.51099999109E-03 0. -1.
       22    1    1    2    0    0  0.32813896061E-02  0.18139175381E-02  0.35539777297E-01  0.35737005818E-01  0.00000000000E+00 0.  1.
  9000001    1    1    2    0    0 -0.32813896061E-02 -0.18139175381E-02 -0.35539777297E-01  0.35750994182E-01  0.10000000475E-02 0. -1.
</event>
<event>
 4   0  0.2441219E-02  0.9118800E+02  0.7818609E-02  0.1379984E+01
      -11   -1    0    0    0    0  0.00000000000E+00  0.00000000000E+00  0.35740347158E-01  0.35744000000E-01  0.51099999109E-03 0. -1.
       11   -1    0    0    0    0 -0.00000000000E+00 -0.00000000000E+00 -0.35740347158E-01  0.35744000000E-01  0.51099999109E-03 0.  1.
       22    1    1    2    0    0  0.63354923116E-02  0.18879891312E-02 -0.35120230909E-01  0.35737005818E-01  0.00000000000E+00 0.  1.
  9000001    1    1    2    0    0 -0.63354923116E-02 -0.18879891312E-02  0.35120230909E-01  0.35750994182E-01  0.10000000475E-02 0. -1.
</event>
<event>
 4   0  0.2441219E-02  0.9118800E+02  0.7818609E-02  0.1379984E+01
      -11   -1    0    0    0    0  0.00000000000E+00  0.00000000000E+00  0.35740347158E-01  0.35744000000E-01  0.51099999109E-03 0. -1.
       11   -1    0    0    0    0 -0.00000000000E+00 -0.00000000000E+00 -0.35740347158E-01  0.35744000000E-01  0.51099999109E-03 0.  1.
       22    1    1    2    0    0  0.40648903704E-02 -0.27370971828E-02  0.35399414545E-01  0.35737005818E-01  0.00000000000E+00 0. -1.
  9000001    1    1    2    0    0 -0.40648903704E-02  0.27370971828E-02 -0.35399414545E-01  0.35750994182E-01  0.10000000475E-02 0.  1.
</event>
<event>
 4   0  0.2441219E-02  0.9118800E+02  0.7818609E-02  0.1379984E+01
      -11   -1    0    0    0    0  0.00000000000E+00  0.00000000000E+00  0.35740347158E-01  0.35744000000E-01  0.51099999109E-03 0.  1.
       11   -1    0    0    0    0 -0.00000000000E+00 -0.00000000000E+00 -0.35740347158E-01  0.35744000000E-01  0.51099999109E-03 0. -1.
       22    1    1    2    0    0  0.33193667251E-02 -0.65445675205E-02 -0.34975477486E-01  0.35737005818E-01  0.00000000000E+00 0. -1.
  9000001    1    1    2    0    0 -0.33193667251E-02  0.65445675205E-02  0.34975477486E-01  0.35750994182E-01  0.10000000475E-02 0.  1.
</event>
<event>
 4   0  0.2441219E-02  0.9118800E+02  0.7818609E-02  0.1379984E+01
      -11   -1    0    0    0    0  0.00000000000E+00  0.00000000000E+00  0.35740347158E-01  0.35744000000E-01  0.51099999109E-03 0. -1.
       11   -1    0    0    0    0 -0.00000000000E+00 -0.00000000000E+00 -0.35740347158E-01  0.35744000000E-01  0.51099999109E-03 0.  1.
       22    1    1    2    0    0  0.13400622080E-01 -0.80309355937E-02 -0.32141266096E-01  0.35737005818E-01  0.00000000000E+00 0.  1.
  9000001    1    1    2    0    0 -0.13400622080E-01  0.80309355937E-02  0.32141266096E-01  0.35750994182E-01  0.10000000475E-02 0. -1.
</event>
<event>
 4   0  0.2441219E-02  0.9118800E+02  0.7818609E-02  0.1379984E+01
      -11   -1    0    0    0    0  0.00000000000E+00  0.00000000000E+00  0.35740347158E-01  0.35744000000E-01  0.51099999109E-03 0.  1.
       11   -1    0    0    0    0 -0.00000000000E+00 -0.00000000000E+00 -0.35740347158E-01  0.35744000000E-01  0.51099999109E-03 0. -1.
       22    1    1    2    0    0  0.38448072247E-02  0.13194856496E-02 -0.35505070059E-01  0.35737005818E-01  0.00000000000E+00 0. -1.
  9000001    1    1    2    0    0 -0.38448072247E-02 -0.13194856496E-02  0.35505070059E-01  0.35750994182E-01  0.10000000475E-02 0.  1.
</event>
<event>
 4   0  0.2441219E-02  0.9118800E+02  0.7818609E-02  0.1379984E+01
      -11   -1    0    0    0    0  0.00000000000E+00  0.00000000000E+00  0.35740347158E-01  0.35744000000E-01  0.51099999109E-03 0. -1.
       11   -1    0    0    0    0 -0.00000000000E+00 -0.00000000000E+00 -0.35740347158E-01  0.35744000000E-01  0.51099999109E-03 0.  1.
       22    1    1    2    0    0  0.42906888446E-02  0.35405500513E-01 -0.22746664592E-02  0.35737005818E-01  0.00000000000E+00 0. -1.
  9000001    1    1    2    0    0 -0.42906888446E-02 -0.35405500513E-01  0.22746664592E-02  0.35750994182E-01  0.10000000475E-02 0.  1.
</event>
<event>
 4   0  0.2441219E-02  0.9118800E+02  0.7818609E-02  0.1379984E+01
      -11   -1    0    0    0    0  0.00000000000E+00  0.00000000000E+00  0.35740347158E-01  0.35744000000E-01  0.51099999109E-03 0. -1.
       11   -1    0    0    0    0 -0.00000000000E+00 -0.00000000000E+00 -0.35740347158E-01  0.35744000000E-01  0.51099999109E-03 0.  1.
       22    1    1    2    0    0 -0.62775581402E-02 -0.22238320565E-02 -0.35110972924E-01  0.35737005818E-01  0.00000000000E+00 0.  1.
  9000001    1    1    2    0    0  0.62775581402E-02  0.22238320565E-02  0.35110972924E-01  0.35750994182E-01  0.10000000475E-02 0. -1.
</event>
<event>
 4   0  0.2441219E-02  0.9118800E+02  0.7818609E-02  0.1379984E+01
      -11   -1    0    0    0    0  0.00000000000E+00  0.00000000000E+00  0.35740347158E-01  0.35744000000E-01  0.51099999109E-03 0.  1.
       11   -1    0    0    0    0 -0.00000000000E+00 -0.00000000000E+00 -0.35740347158E-01  0.35744000000E-01  0.51099999109E-03 0. -1.
       22    1    1    2    0    0 -0.23154472039E-02  0.13022583235E-01  0.33199165878E-01  0.35737005818E-01  0.00000000000E+00 0.  1.
  9000001    1    1    2    0    0  0.23154472039E-02 -0.13022583235E-01 -0.33199165878E-01  0.35750994182E-01  0.10000000475E-02 0. -1.
</event>
<event>
 4   0  0.2441219E-02  0.9118800E+02  0.7818609E-02  0.1379984E+01
      -11   -1    0    0    0    0  0.00000000000E+00  0.00000000000E+00  0.35740347158E-01  0.35744000000E-01  0.51099999109E-03 0. -1.
       11   -1    0    0    0    0 -0.00000000000E+00 -0.00000000000E+00 -0.35740347158E-01  0.35744000000E-01  0.51099999109E-03 0.  1.
       22    1    1    2    0    0 -0.38809452647E-02  0.12661369829E-01  0.33192793838E-01  0.35737005818E-01  0.00000000000E+00 0. -1.
  9000001    1    1    2    0    0  0.38809452647E-02 -0.12661369829E-01 -0.33192793838E-01  0.35750994182E-01  0.10000000475E-02 0.  1.
</event>
<event>
 4   0  0.2441219E-02  0.9118800E+02  0.7818609E-02  0.1379984E+01
      -11   -1    0    0    0    0  0.00000000000E+00  0.00000000000E+00  0.35740347158E-01  0.35744000000E-01  0.51099999109E-03 0. -1.
       11   -1    0    0    0    0 -0.00000000000E+00 -0.00000000000E+00 -0.35740347158E-01  0.35744000000E-01  0.51099999109E-03 0.  1.
       22    1    1    2    0    0 -0.74583593082E-02 -0.59923400941E-02  0.34432518373E-01  0.35737005818E-01  0.00000000000E+00 0. -1.
  9000001    1    1    2    0    0  0.74583593082E-02  0.59923400941E-02 -0.34432518373E-01  0.35750994182E-01  0.10000000475E-02 0.  1.
</event>
<event>
 4   0  0.2441219E-02  0.9118800E+02  0.7818609E-02  0.1379984E+01
      -11   -1    0    0    0    0  0.00000000000E+00  0.00000000000E+00  0.35740347158E-01  0.35744000000E-01  0.51099999109E-03 0. -1.
       11   -1    0    0    0    0 -0.00000000000E+00 -0.00000000000E+00 -0.35740347158E-01  0.35744000000E-01  0.51099999109E-03 0.  1.
       22    1    1    2    0    0  0.12407944259E-01 -0.77833985205E-02  0.32597472473E-01  0.35737005818E-01  0.00000000000E+00 0. -1.
  9000001    1    1    2    0    0 -0.12407944259E-01  0.77833985205E-02 -0.32597472473E-01  0.35750994182E-01  0.10000000475E-02 0.  1.
</event>
<event>
 4   0  0.2441219E-02  0.9118800E+02  0.7818609E-02  0.1379984E+01
      -11   -1    0    0    0    0  0.00000000000E+00  0.00000000000E+00  0.35740347158E-01  0.35744000000E-01  0.51099999109E-03 0. -1.
       11   -1    0    0    0    0 -0.00000000000E+00 -0.00000000000E+00 -0.35740347158E-01  0.35744000000E-01  0.51099999109E-03 0.  1.
       22    1    1    2    0    0  0.12817961399E-01  0.18331662905E-01  0.27870837547E-01  0.35737005818E-01  0.00000000000E+00 0. -1.
  9000001    1    1    2    0    0 -0.12817961399E-01 -0.18331662905E-01 -0.27870837547E-01  0.35750994182E-01  0.10000000475E-02 0.  1.
</event>
<event>
 4   0  0.2441219E-02  0.9118800E+02  0.7818609E-02  0.1379984E+01
      -11   -1    0    0    0    0  0.00000000000E+00  0.00000000000E+00  0.35740347158E-01  0.35744000000E-01  0.51099999109E-03 0. -1.
       11   -1    0    0    0    0 -0.00000000000E+00 -0.00000000000E+00 -0.35740347158E-01  0.35744000000E-01  0.51099999109E-03 0.  1.
       22    1    1    2    0    0  0.38962210491E-02 -0.22321029303E-01  0.27635569422E-01  0.35737005818E-01  0.00000000000E+00 0. -1.
  9000001    1    1    2    0    0 -0.38962210491E-02  0.22321029303E-01 -0.27635569422E-01  0.35750994182E-01  0.10000000475E-02 0.  1.
</event>
<event>
 4   0  0.2441219E-02  0.9118800E+02  0.7818609E-02  0.1379984E+01
      -11   -1    0    0    0    0  0.00000000000E+00  0.00000000000E+00  0.35740347158E-01  0.35744000000E-01  0.51099999109E-03 0.  1.
       11   -1    0    0    0    0 -0.00000000000E+00 -0.00000000000E+00 -0.35740347158E-01  0.35744000000E-01  0.51099999109E-03 0. -1.
       22    1    1    2    0    0 -0.30625379429E-01 -0.16846770069E-01  0.74435245648E-02  0.35737005818E-01  0.00000000000E+00 0.  1.
  9000001    1    1    2    0    0  0.30625379429E-01  0.16846770069E-01 -0.74435245648E-02  0.35750994182E-01  0.10000000475E-02 0. -1.
</event>
<event>
 4   0  0.2441219E-02  0.9118800E+02  0.7818609E-02  0.1379984E+01
      -11   -1    0    0    0    0  0.00000000000E+00  0.00000000000E+00  0.35740347158E-01  0.35744000000E-01  0.51099999109E-03 0. -1.
       11   -1    0    0    0    0 -0.00000000000E+00 -0.00000000000E+00 -0.35740347158E-01  0.35744000000E-01  0.51099999109E-03 0.  1.
       22    1    1    2    0    0 -0.32237067899E-02 -0.10641045502E-01 -0.33963354517E-01  0.35737005818E-01  0.00000000000E+00 0.  1.
  9000001    1    1    2    0    0  0.32237067899E-02  0.10641045502E-01  0.33963354517E-01  0.35750994182E-01  0.10000000475E-02 0. -1.
</event>
<event>
 4   0  0.2441219E-02  0.9118800E+02  0.7818609E-02  0.1379984E+01
      -11   -1    0    0    0    0  0.00000000000E+00  0.00000000000E+00  0.35740347158E-01  0.35744000000E-01  0.51099999109E-03 0. -1.
       11   -1    0    0    0    0 -0.00000000000E+00 -0.00000000000E+00 -0.35740347158E-01  0.35744000000E-01  0.51099999109E-03 0.  1.
       22    1    1    2    0    0  0.26179836862E-01 -0.15426291109E-01  0.18809020957E-01  0.35737005818E-01  0.00000000000E+00 0. -1.
  9000001    1    1    2    0    0 -0.26179836862E-01  0.15426291109E-01 -0.18809020957E-01  0.35750994182E-01  0.10000000475E-02 0.  1.
</event>
<event>
 4   0  0.2441219E-02  0.9118800E+02  0.7818609E-02  0.1379984E+01
      -11   -1    0    0    0    0  0.00000000000E+00  0.00000000000E+00  0.35740347158E-01  0.35744000000E-01  0.51099999109E-03 0. -1.
       11   -1    0    0    0    0 -0.00000000000E+00 -0.00000000000E+00 -0.35740347158E-01  0.35744000000E-01  0.51099999109E-03 0.  1.
       22    1    1    2    0    0  0.49962196552E-02 -0.31467007352E-01 -0.16186377678E-01  0.35737005818E-01  0.00000000000E+00 0.  1.
  9000001    1    1    2    0    0 -0.49962196552E-02  0.31467007352E-01  0.16186377678E-01  0.35750994182E-01  0.10000000475E-02 0. -1.
</event>
<event>
 4   0  0.2441219E-02  0.9118800E+02  0.7818609E-02  0.1379984E+01
      -11   -1    0    0    0    0  0.00000000000E+00  0.00000000000E+00  0.35740347158E-01  0.35744000000E-01  0.51099999109E-03 0. -1.
       11   -1    0    0    0    0 -0.00000000000E+00 -0.00000000000E+00 -0.35740347158E-01  0.35744000000E-01  0.51099999109E-03 0.  1.
       22    1    1    2    0    0 -0.34324620070E-02  0.19478365250E-02 -0.35518413849E-01  0.35737005818E-01  0.00000000000E+00 0.  1.
  9000001    1    1    2    0    0  0.34324620070E-02 -0.19478365250E-02  0.35518413849E-01  0.35750994182E-01  0.10000000475E-02 0. -1.
</event>
<event>
 4   0  0.2441219E-02  0.9118800E+02  0.7818609E-02  0.1379984E+01
      -11   -1    0    0    0    0  0.00000000000E+00  0.00000000000E+00  0.35740347158E-01  0.35744000000E-01  0.51099999109E-03 0.  1.
       11   -1    0    0    0    0 -0.00000000000E+00 -0.00000000000E+00 -0.35740347158E-01  0.35744000000E-01  0.51099999109E-03 0. -1.
       22    1    1    2    0    0 -0.14130125386E-02 -0.11166787741E-01  0.33918134265E-01  0.35737005818E-01  0.00000000000E+00 0.  1.
  9000001    1    1    2    0    0  0.14130125386E-02  0.11166787741E-01 -0.33918134265E-01  0.35750994182E-01  0.10000000475E-02 0. -1.
</event>
<event>
 4   0  0.2441219E-02  0.9118800E+02  0.7818609E-02  0.1379984E+01
      -11   -1    0    0    0    0  0.00000000000E+00  0.00000000000E+00  0.35740347158E-01  0.35744000000E-01  0.51099999109E-03 0.  1.
       11   -1    0    0    0    0 -0.00000000000E+00 -0.00000000000E+00 -0.35740347158E-01  0.35744000000E-01  0.51099999109E-03 0. -1.
       22    1    1    2    0    0  0.12346771631E-01 -0.17666649392E-01 -0.28505794401E-01  0.35737005818E-01  0.00000000000E+00 0. -1.
  9000001    1    1    2    0    0 -0.12346771631E-01  0.17666649392E-01  0.28505794401E-01  0.35750994182E-01  0.10000000475E-02 0.  1.
</event>
<event>
 4   0  0.2441219E-02  0.9118800E+02  0.7818609E-02  0.1379984E+01
      -11   -1    0    0    0    0  0.00000000000E+00  0.00000000000E+00  0.35740347158E-01  0.35744000000E-01  0.51099999109E-03 0.  1.
       11   -1    0    0    0    0 -0.00000000000E+00 -0.00000000000E+00 -0.35740347158E-01  0.35744000000E-01  0.51099999109E-03 0. -1.
       22    1    1    2    0    0  0.51839515969E-03 -0.41309137128E-02 -0.35493667086E-01  0.35737005818E-01  0.00000000000E+00 0. -1.
  9000001    1    1    2    0    0 -0.51839515969E-03  0.41309137128E-02  0.35493667086E-01  0.35750994182E-01  0.10000000475E-02 0.  1.
</event>
<event>
 4   0  0.2441219E-02  0.9118800E+02  0.7818609E-02  0.1379984E+01
      -11   -1    0    0    0    0  0.00000000000E+00  0.00000000000E+00  0.35740347158E-01  0.35744000000E-01  0.51099999109E-03 0. -1.
       11   -1    0    0    0    0 -0.00000000000E+00 -0.00000000000E+00 -0.35740347158E-01  0.35744000000E-01  0.51099999109E-03 0.  1.
       22    1    1    2    0    0 -0.62192155412E-03 -0.35672700464E-01 -0.20506681932E-02  0.35737005818E-01  0.00000000000E+00 0.  1.
  9000001    1    1    2    0    0  0.62192155412E-03  0.35672700464E-01  0.20506681932E-02  0.35750994182E-01  0.10000000475E-02 0. -1.
</event>
<event>
 4   0  0.2441219E-02  0.9118800E+02  0.7818609E-02  0.1379984E+01
      -11   -1    0    0    0    0  0.00000000000E+00  0.00000000000E+00  0.35740347158E-01  0.35744000000E-01  0.51099999109E-03 0.  1.
       11   -1    0    0    0    0 -0.00000000000E+00 -0.00000000000E+00 -0.35740347158E-01  0.35744000000E-01  0.51099999109E-03 0. -1.
       22    1    1    2    0    0 -0.19966121465E-02  0.20098367001E-01  0.29482244974E-01  0.35737005818E-01  0.00000000000E+00 0.  1.
  9000001    1    1    2    0    0  0.19966121465E-02 -0.20098367001E-01 -0.29482244974E-01  0.35750994182E-01  0.10000000475E-02 0. -1.
</event>
<event>
 4   0  0.2441219E-02  0.9118800E+02  0.7818609E-02  0.1379984E+01
      -11   -1    0    0    0    0  0.00000000000E+00  0.00000000000E+00  0.35740347158E-01  0.35744000000E-01  0.51099999109E-03 0.  1.
       11   -1    0    0    0    0 -0.00000000000E+00 -0.00000000000E+00 -0.35740347158E-01  0.35744000000E-01  0.51099999109E-03 0. -1.
       22    1    1    2    0    0 -0.16301275215E-01 -0.21950752004E-02  0.31726702572E-01  0.35737005818E-01  0.00000000000E+00 0.  1.
  9000001    1    1    2    0    0  0.16301275215E-01  0.21950752004E-02 -0.31726702572E-01  0.35750994182E-01  0.10000000475E-02 0. -1.
</event>
<event>
 4   0  0.2441219E-02  0.9118800E+02  0.7818609E-02  0.1379984E+01
      -11   -1    0    0    0    0  0.00000000000E+00  0.00000000000E+00  0.35740347158E-01  0.35744000000E-01  0.51099999109E-03 0.  1.
       11   -1    0    0    0    0 -0.00000000000E+00 -0.00000000000E+00 -0.35740347158E-01  0.35744000000E-01  0.51099999109E-03 0. -1.
       22    1    1    2    0    0  0.19278471973E-04 -0.48185587901E-02  0.35410658062E-01  0.35737005818E-01  0.00000000000E+00 0.  1.
  9000001    1    1    2    0    0 -0.19278471973E-04  0.48185587901E-02 -0.35410658062E-01  0.35750994182E-01  0.10000000475E-02 0. -1.
</event>
<event>
 4   0  0.2441219E-02  0.9118800E+02  0.7818609E-02  0.1379984E+01
      -11   -1    0    0    0    0  0.00000000000E+00  0.00000000000E+00  0.35740347158E-01  0.35744000000E-01  0.51099999109E-03 0. -1.
       11   -1    0    0    0    0 -0.00000000000E+00 -0.00000000000E+00 -0.35740347158E-01  0.35744000000E-01  0.51099999109E-03 0.  1.
       22    1    1    2    0    0 -0.45011879059E-03 -0.13611967912E-01  0.33040056106E-01  0.35737005818E-01  0.00000000000E+00 0. -1.
  9000001    1    1    2    0    0  0.45011879059E-03  0.13611967912E-01 -0.33040056106E-01  0.35750994182E-01  0.10000000475E-02 0.  1.
</event>
<event>
 4   0  0.2441219E-02  0.9118800E+02  0.7818609E-02  0.1379984E+01
      -11   -1    0    0    0    0  0.00000000000E+00  0.00000000000E+00  0.35740347158E-01  0.35744000000E-01  0.51099999109E-03 0.  1.
       11   -1    0    0    0    0 -0.00000000000E+00 -0.00000000000E+00 -0.35740347158E-01  0.35744000000E-01  0.51099999109E-03 0. -1.
       22    1    1    2    0    0  0.90486526267E-02  0.25667432695E-02  0.34477054681E-01  0.35737005818E-01  0.00000000000E+00 0.  1.
  9000001    1    1    2    0    0 -0.90486526267E-02 -0.25667432695E-02 -0.34477054681E-01  0.35750994182E-01  0.10000000475E-02 0. -1.
</event>
<event>
 4   0  0.2441219E-02  0.9118800E+02  0.7818609E-02  0.1379984E+01
      -11   -1    0    0    0    0  0.00000000000E+00  0.00000000000E+00  0.35740347158E-01  0.35744000000E-01  0.51099999109E-03 0. -1.
       11   -1    0    0    0    0 -0.00000000000E+00 -0.00000000000E+00 -0.35740347158E-01  0.35744000000E-01  0.51099999109E-03 0.  1.
       22    1    1    2    0    0  0.52833397522E-02 -0.20643845794E-01 -0.28688874791E-01  0.35737005818E-01  0.00000000000E+00 0.  1.
  9000001    1    1    2    0    0 -0.52833397522E-02  0.20643845794E-01  0.28688874791E-01  0.35750994182E-01  0.10000000475E-02 0. -1.
</event>
<event>
 4   0  0.2441219E-02  0.9118800E+02  0.7818609E-02  0.1379984E+01
      -11   -1    0    0    0    0  0.00000000000E+00  0.00000000000E+00  0.35740347158E-01  0.35744000000E-01  0.51099999109E-03 0.  1.
       11   -1    0    0    0    0 -0.00000000000E+00 -0.00000000000E+00 -0.35740347158E-01  0.35744000000E-01  0.51099999109E-03 0. -1.
       22    1    1    2    0    0  0.17241394740E-02  0.11991985708E-01  0.33620725851E-01  0.35737005818E-01  0.00000000000E+00 0.  1.
  9000001    1    1    2    0    0 -0.17241394740E-02 -0.11991985708E-01 -0.33620725851E-01  0.35750994182E-01  0.10000000475E-02 0. -1.
</event>
<event>
 4   0  0.2441219E-02  0.9118800E+02  0.7818609E-02  0.1379984E+01
      -11   -1    0    0    0    0  0.00000000000E+00  0.00000000000E+00  0.35740347158E-01  0.35744000000E-01  0.51099999109E-03 0. -1.
       11   -1    0    0    0    0 -0.00000000000E+00 -0.00000000000E+00 -0.35740347158E-01  0.35744000000E-01  0.51099999109E-03 0.  1.
       22    1    1    2    0    0 -0.42208754322E-02  0.10059177866E-02 -0.35472608092E-01  0.35737005818E-01  0.00000000000E+00 0.  1.
  9000001    1    1    2    0    0  0.42208754322E-02 -0.10059177866E-02  0.35472608092E-01  0.35750994182E-01  0.10000000475E-02 0. -1.
</event>
<event>
 4   0  0.2441219E-02  0.9118800E+02  0.7818609E-02  0.1379984E+01
      -11   -1    0    0    0    0  0.00000000000E+00  0.00000000000E+00  0.35740347158E-01  0.35744000000E-01  0.51099999109E-03 0. -1.
       11   -1    0    0    0    0 -0.00000000000E+00 -0.00000000000E+00 -0.35740347158E-01  0.35744000000E-01  0.51099999109E-03 0.  1.
       22    1    1    2    0    0 -0.16773143429E-01 -0.29304934010E-02  0.31419857619E-01  0.35737005818E-01  0.00000000000E+00 0. -1.
  9000001    1    1    2    0    0  0.16773143429E-01  0.29304934010E-02 -0.31419857619E-01  0.35750994182E-01  0.10000000475E-02 0.  1.
</event>
<event>
 4   0  0.2441219E-02  0.9118800E+02  0.7818609E-02  0.1379984E+01
      -11   -1    0    0    0    0  0.00000000000E+00  0.00000000000E+00  0.35740347158E-01  0.35744000000E-01  0.51099999109E-03 0.  1.
       11   -1    0    0    0    0 -0.00000000000E+00 -0.00000000000E+00 -0.35740347158E-01  0.35744000000E-01  0.51099999109E-03 0. -1.
       22    1    1    2    0    0  0.79175536978E-02 -0.79886242555E-02 -0.33920905218E-01  0.35737005818E-01  0.00000000000E+00 0. -1.
  9000001    1    1    2    0    0 -0.79175536978E-02  0.79886242555E-02  0.33920905218E-01  0.35750994182E-01  0.10000000475E-02 0.  1.
</event>
<event>
 4   0  0.2441219E-02  0.9118800E+02  0.7818609E-02  0.1379984E+01
      -11   -1    0    0    0    0  0.00000000000E+00  0.00000000000E+00  0.35740347158E-01  0.35744000000E-01  0.51099999109E-03 0. -1.
       11   -1    0    0    0    0 -0.00000000000E+00 -0.00000000000E+00 -0.35740347158E-01  0.35744000000E-01  0.51099999109E-03 0.  1.
       22    1    1    2    0    0  0.18611544491E-01  0.21235282020E-02 -0.30434102985E-01  0.35737005818E-01  0.00000000000E+00 0.  1.
  9000001    1    1    2    0    0 -0.18611544491E-01 -0.21235282020E-02  0.30434102985E-01  0.35750994182E-01  0.10000000475E-02 0. -1.
</event>
<event>
 4   0  0.2441219E-02  0.9118800E+02  0.7818609E-02  0.1379984E+01
      -11   -1    0    0    0    0  0.00000000000E+00  0.00000000000E+00  0.35740347158E-01  0.35744000000E-01  0.51099999109E-03 0. -1.
       11   -1    0    0    0    0 -0.00000000000E+00 -0.00000000000E+00 -0.35740347158E-01  0.35744000000E-01  0.51099999109E-03 0.  1.
       22    1    1    2    0    0 -0.13529913700E-02  0.89515887769E-02  0.34571260573E-01  0.35737005818E-01  0.00000000000E+00 0. -1.
  9000001    1    1    2    0    0  0.13529913700E-02 -0.89515887769E-02 -0.34571260573E-01  0.35750994182E-01  0.10000000475E-02 0.  1.
</event>
<event>
 4   0  0.2441219E-02  0.9118800E+02  0.7818609E-02  0.1379984E+01
      -11   -1    0    0    0    0  0.00000000000E+00  0.00000000000E+00  0.35740347158E-01  0.35744000000E-01  0.51099999109E-03 0. -1.
       11   -1    0    0    0    0 -0.00000000000E+00 -0.00000000000E+00 -0.35740347158E-01  0.35744000000E-01  0.51099999109E-03 0.  1.
       22    1    1    2    0    0 -0.16707520378E-02 -0.44436088974E-02  0.35420283913E-01  0.35737005818E-01  0.00000000000E+00 0. -1.
  9000001    1    1    2    0    0  0.16707520378E-02  0.44436088974E-02 -0.35420283913E-01  0.35750994182E-01  0.10000000475E-02 0.  1.
</event>
<event>
 4   0  0.2441219E-02  0.9118800E+02  0.7818609E-02  0.1379984E+01
      -11   -1    0    0    0    0  0.00000000000E+00  0.00000000000E+00  0.35740347158E-01  0.35744000000E-01  0.51099999109E-03 0.  1.
       11   -1    0    0    0    0 -0.00000000000E+00 -0.00000000000E+00 -0.35740347158E-01  0.35744000000E-01  0.51099999109E-03 0. -1.
       22    1    1    2    0    0 -0.33615154533E-01 -0.25461123127E-02  0.11860534672E-01  0.35737005818E-01  0.00000000000E+00 0.  1.
  9000001    1    1    2    0    0  0.33615154533E-01  0.25461123127E-02 -0.11860534672E-01  0.35750994182E-01  0.10000000475E-02 0. -1.
</event>
<event>
 4   0  0.2441219E-02  0.9118800E+02  0.7818609E-02  0.1379984E+01
      -11   -1    0    0    0    0  0.00000000000E+00  0.00000000000E+00  0.35740347158E-01  0.35744000000E-01  0.51099999109E-03 0.  1.
       11   -1    0    0    0    0 -0.00000000000E+00 -0.00000000000E+00 -0.35740347158E-01  0.35744000000E-01  0.51099999109E-03 0. -1.
       22    1    1    2    0    0  0.17901499211E-01  0.19729965786E-01  0.23820125124E-01  0.35737005818E-01  0.00000000000E+00 0.  1.
  9000001    1    1    2    0    0 -0.17901499211E-01 -0.19729965786E-01 -0.23820125124E-01  0.35750994182E-01  0.10000000475E-02 0. -1.
</event>
<event>
 4   0  0.2441219E-02  0.9118800E+02  0.7818609E-02  0.1379984E+01
      -11   -1    0    0    0    0  0.00000000000E+00  0.00000000000E+00  0.35740347158E-01  0.35744000000E-01  0.51099999109E-03 0.  1.
       11   -1    0    0    0    0 -0.00000000000E+00 -0.00000000000E+00 -0.35740347158E-01  0.35744000000E-01  0.51099999109E-03 0. -1.
       22    1    1    2    0    0 -0.70766374061E-03  0.34075263602E-02 -0.35567141592E-01  0.35737005818E-01  0.00000000000E+00 0. -1.
  9000001    1    1    2    0    0  0.70766374061E-03 -0.34075263602E-02  0.35567141592E-01  0.35750994182E-01  0.10000000475E-02 0.  1.
</event>
<event>
 4   0  0.2441219E-02  0.9118800E+02  0.7818609E-02  0.1379984E+01
      -11   -1    0    0    0    0  0.00000000000E+00  0.00000000000E+00  0.35740347158E-01  0.35744000000E-01  0.51099999109E-03 0. -1.
       11   -1    0    0    0    0 -0.00000000000E+00 -0.00000000000E+00 -0.35740347158E-01  0.35744000000E-01  0.51099999109E-03 0.  1.
       22    1    1    2    0    0  0.13769358859E-02  0.27400808452E-02 -0.35605190484E-01  0.35737005818E-01  0.00000000000E+00 0.  1.
  9000001    1    1    2    0    0 -0.13769358859E-02 -0.27400808452E-02  0.35605190484E-01  0.35750994182E-01  0.10000000475E-02 0. -1.
</event>
<event>
 4   0  0.2441219E-02  0.9118800E+02  0.7818609E-02  0.1379984E+01
      -11   -1    0    0    0    0  0.00000000000E+00  0.00000000000E+00  0.35740347158E-01  0.35744000000E-01  0.51099999109E-03 0. -1.
       11   -1    0    0    0    0 -0.00000000000E+00 -0.00000000000E+00 -0.35740347158E-01  0.35744000000E-01  0.51099999109E-03 0.  1.
       22    1    1    2    0    0 -0.40566866502E-02  0.14784079842E-01  0.32281695456E-01  0.35737005818E-01  0.00000000000E+00 0. -1.
  9000001    1    1    2    0    0  0.40566866502E-02 -0.14784079842E-01 -0.32281695456E-01  0.35750994182E-01  0.10000000475E-02 0.  1.
</event>
<event>
 4   0  0.2441219E-02  0.9118800E+02  0.7818609E-02  0.1379984E+01
      -11   -1    0    0    0    0  0.00000000000E+00  0.00000000000E+00  0.35740347158E-01  0.35744000000E-01  0.51099999109E-03 0.  1.
       11   -1    0    0    0    0 -0.00000000000E+00 -0.00000000000E+00 -0.35740347158E-01  0.35744000000E-01  0.51099999109E-03 0. -1.
       22    1    1    2    0    0  0.26368611158E-02  0.45879739864E-02 -0.35343048016E-01  0.35737005818E-01  0.00000000000E+00 0. -1.
  9000001    1    1    2    0    0 -0.26368611158E-02 -0.45879739864E-02  0.35343048016E-01  0.35750994182E-01  0.10000000475E-02 0.  1.
</event>
<event>
 4   0  0.2441219E-02  0.9118800E+02  0.7818609E-02  0.1379984E+01
      -11   -1    0    0    0    0  0.00000000000E+00  0.00000000000E+00  0.35740347158E-01  0.35744000000E-01  0.51099999109E-03 0.  1.
       11   -1    0    0    0    0 -0.00000000000E+00 -0.00000000000E+00 -0.35740347158E-01  0.35744000000E-01  0.51099999109E-03 0. -1.
       22    1    1    2    0    0  0.52438012099E-02  0.25055323149E-02  0.35261288144E-01  0.35737005818E-01  0.00000000000E+00 0.  1.
  9000001    1    1    2    0    0 -0.52438012099E-02 -0.25055323149E-02 -0.35261288144E-01  0.35750994182E-01  0.10000000475E-02 0. -1.
</event>
<event>
 4   0  0.2441219E-02  0.9118800E+02  0.7818609E-02  0.1379984E+01
      -11   -1    0    0    0    0  0.00000000000E+00  0.00000000000E+00  0.35740347158E-01  0.35744000000E-01  0.51099999109E-03 0. -1.
       11   -1    0    0    0    0 -0.00000000000E+00 -0.00000000000E+00 -0.35740347158E-01  0.35744000000E-01  0.51099999109E-03 0.  1.
       22    1    1    2    0    0  0.24715600672E-04 -0.39157662288E-02 -0.35521820742E-01  0.35737005818E-01  0.00000000000E+00 0.  1.
  9000001    1    1    2    0    0 -0.24715600672E-04  0.39157662288E-02  0.35521820742E-01  0.35750994182E-01  0.10000000475E-02 0. -1.
</event>
<event>
 4   0  0.2441219E-02  0.9118800E+02  0.7818609E-02  0.1379984E+01
      -11   -1    0    0    0    0  0.00000000000E+00  0.00000000000E+00  0.35740347158E-01  0.35744000000E-01  0.51099999109E-03 0.  1.
       11   -1    0    0    0    0 -0.00000000000E+00 -0.00000000000E+00 -0.35740347158E-01  0.35744000000E-01  0.51099999109E-03 0. -1.
       22    1    1    2    0    0  0.25153525445E-01 -0.57419869836E-02 -0.24727784535E-01  0.35737005818E-01  0.00000000000E+00 0. -1.
  9000001    1    1    2    0    0 -0.25153525445E-01  0.57419869836E-02  0.24727784535E-01  0.35750994182E-01  0.10000000475E-02 0.  1.
</event>
<event>
 4   0  0.2441219E-02  0.9118800E+02  0.7818609E-02  0.1379984E+01
      -11   -1    0    0    0    0  0.00000000000E+00  0.00000000000E+00  0.35740347158E-01  0.35744000000E-01  0.51099999109E-03 0. -1.
       11   -1    0    0    0    0 -0.00000000000E+00 -0.00000000000E+00 -0.35740347158E-01  0.35744000000E-01  0.51099999109E-03 0.  1.
       22    1    1    2    0    0 -0.26473406356E-02 -0.40977157911E-02 -0.35402456097E-01  0.35737005818E-01  0.00000000000E+00 0.  1.
  9000001    1    1    2    0    0  0.26473406356E-02  0.40977157911E-02  0.35402456097E-01  0.35750994182E-01  0.10000000475E-02 0. -1.
</event>
<event>
 4   0  0.2441219E-02  0.9118800E+02  0.7818609E-02  0.1379984E+01
      -11   -1    0    0    0    0  0.00000000000E+00  0.00000000000E+00  0.35740347158E-01  0.35744000000E-01  0.51099999109E-03 0.  1.
       11   -1    0    0    0    0 -0.00000000000E+00 -0.00000000000E+00 -0.35740347158E-01  0.35744000000E-01  0.51099999109E-03 0. -1.
       22    1    1    2    0    0 -0.52475975564E-02  0.52994193124E-02 -0.34950142485E-01  0.35737005818E-01  0.00000000000E+00 0. -1.
  9000001    1    1    2    0    0  0.52475975564E-02 -0.52994193124E-02  0.34950142485E-01  0.35750994182E-01  0.10000000475E-02 0.  1.
</event>
<event>
 4   0  0.2441219E-02  0.9118800E+02  0.7818609E-02  0.1379984E+01
      -11   -1    0    0    0    0  0.00000000000E+00  0.00000000000E+00  0.35740347158E-01  0.35744000000E-01  0.51099999109E-03 0. -1.
       11   -1    0    0    0    0 -0.00000000000E+00 -0.00000000000E+00 -0.35740347158E-01  0.35744000000E-01  0.51099999109E-03 0.  1.
       22    1    1    2    0    0  0.50392214929E-02 -0.31590586609E-02 -0.35238617737E-01  0.35737005818E-01  0.00000000000E+00 0.  1.
  9000001    1    1    2    0    0 -0.50392214929E-02  0.31590586609E-02  0.35238617737E-01  0.35750994182E-01  0.10000000475E-02 0. -1.
</event>
<event>
 4   0  0.2441219E-02  0.9118800E+02  0.7818609E-02  0.1379984E+01
      -11   -1    0    0    0    0  0.00000000000E+00  0.00000000000E+00  0.35740347158E-01  0.35744000000E-01  0.51099999109E-03 0. -1.
       11   -1    0    0    0    0 -0.00000000000E+00 -0.00000000000E+00 -0.35740347158E-01  0.35744000000E-01  0.51099999109E-03 0.  1.
       22    1    1    2    0    0 -0.28363237886E-01 -0.25043306093E-02 -0.21596033194E-01  0.35737005818E-01  0.00000000000E+00 0. -1.
  9000001    1    1    2    0    0  0.28363237886E-01  0.25043306093E-02  0.21596033194E-01  0.35750994182E-01  0.10000000475E-02 0.  1.
</event>
<event>
 4   0  0.2441219E-02  0.9118800E+02  0.7818609E-02  0.1379984E+01
      -11   -1    0    0    0    0  0.00000000000E+00  0.00000000000E+00  0.35740347158E-01  0.35744000000E-01  0.51099999109E-03 0.  1.
       11   -1    0    0    0    0 -0.00000000000E+00 -0.00000000000E+00 -0.35740347158E-01  0.35744000000E-01  0.51099999109E-03 0. -1.
       22    1    1    2    0    0 -0.35724523759E-01 -0.81715573712E-03 -0.47354361188E-03  0.35737005818E-01  0.00000000000E+00 0.  1.
  9000001    1    1    2    0    0  0.35724523759E-01  0.81715573712E-03  0.47354361188E-03  0.35750994182E-01  0.10000000475E-02 0. -1.
</event>
<event>
 4   0  0.2441219E-02  0.9118800E+02  0.7818609E-02  0.1379984E+01
      -11   -1    0    0    0    0  0.00000000000E+00  0.00000000000E+00  0.35740347158E-01  0.35744000000E-01  0.51099999109E-03 0. -1.
       11   -1    0    0    0    0 -0.00000000000E+00 -0.00000000000E+00 -0.35740347158E-01  0.35744000000E-01  0.51099999109E-03 0.  1.
       22    1    1    2    0    0 -0.15072759647E-01 -0.14181684619E-01 -0.29134606962E-01  0.35737005818E-01  0.00000000000E+00 0.  1.
  9000001    1    1    2    0    0  0.15072759647E-01  0.14181684619E-01  0.29134606962E-01  0.35750994182E-01  0.10000000475E-02 0. -1.
</event>
<event>
 4   0  0.2441219E-02  0.9118800E+02  0.7818609E-02  0.1379984E+01
      -11   -1    0    0    0    0  0.00000000000E+00  0.00000000000E+00  0.35740347158E-01  0.35744000000E-01  0.51099999109E-03 0. -1.
       11   -1    0    0    0    0 -0.00000000000E+00 -0.00000000000E+00 -0.35740347158E-01  0.35744000000E-01  0.51099999109E-03 0.  1.
       22    1    1    2    0    0  0.35684377274E-02 -0.17365891364E-03 -0.35557976315E-01  0.35737005818E-01  0.00000000000E+00 0.  1.
  9000001    1    1    2    0    0 -0.35684377274E-02  0.17365891364E-03  0.35557976315E-01  0.35750994182E-01  0.10000000475E-02 0. -1.
</event>
<event>
 4   0  0.2441219E-02  0.9118800E+02  0.7818609E-02  0.1379984E+01
      -11   -1    0    0    0    0  0.00000000000E+00  0.00000000000E+00  0.35740347158E-01  0.35744000000E-01  0.51099999109E-03 0.  1.
       11   -1    0    0    0    0 -0.00000000000E+00 -0.00000000000E+00 -0.35740347158E-01  0.35744000000E-01  0.51099999109E-03 0. -1.
       22    1    1    2    0    0  0.37078269772E-02 -0.32938914585E-02  0.35391183691E-01  0.35737005818E-01  0.00000000000E+00 0.  1.
  9000001    1    1    2    0    0 -0.37078269772E-02  0.32938914585E-02 -0.35391183691E-01  0.35750994182E-01  0.10000000475E-02 0. -1.
</event>
<event>
 4   0  0.2441219E-02  0.9118800E+02  0.7818609E-02  0.1379984E+01
      -11   -1    0    0    0    0  0.00000000000E+00  0.00000000000E+00  0.35740347158E-01  0.35744000000E-01  0.51099999109E-03 0. -1.
       11   -1    0    0    0    0 -0.00000000000E+00 -0.00000000000E+00 -0.35740347158E-01  0.35744000000E-01  0.51099999109E-03 0.  1.
       22    1    1    2    0    0 -0.47480612639E-03 -0.38174534531E-02  0.35529356779E-01  0.35737005818E-01  0.00000000000E+00 0. -1.
  9000001    1    1    2    0    0  0.47480612639E-03  0.38174534531E-02 -0.35529356779E-01  0.35750994182E-01  0.10000000475E-02 0.  1.
</event>
<event>
 4   0  0.2441219E-02  0.9118800E+02  0.7818609E-02  0.1379984E+01
      -11   -1    0    0    0    0  0.00000000000E+00  0.00000000000E+00  0.35740347158E-01  0.35744000000E-01  0.51099999109E-03 0.  1.
       11   -1    0    0    0    0 -0.00000000000E+00 -0.00000000000E+00 -0.35740347158E-01  0.35744000000E-01  0.51099999109E-03 0. -1.
       22    1    1    2    0    0 -0.98237282062E-02  0.56836131110E-02 -0.33886936878E-01  0.35737005818E-01  0.00000000000E+00 0. -1.
  9000001    1    1    2    0    0  0.98237282062E-02 -0.56836131110E-02  0.33886936878E-01  0.35750994182E-01  0.10000000475E-02 0.  1.
</event>
<event>
 4   0  0.2441219E-02  0.9118800E+02  0.7818609E-02  0.1379984E+01
      -11   -1    0    0    0    0  0.00000000000E+00  0.00000000000E+00  0.35740347158E-01  0.35744000000E-01  0.51099999109E-03 0.  1.
       11   -1    0    0    0    0 -0.00000000000E+00 -0.00000000000E+00 -0.35740347158E-01  0.35744000000E-01  0.51099999109E-03 0. -1.
       22    1    1    2    0    0  0.65057003655E-02  0.13040694435E-01  0.32630503157E-01  0.35737005818E-01  0.00000000000E+00 0.  1.
  9000001    1    1    2    0    0 -0.65057003655E-02 -0.13040694435E-01 -0.32630503157E-01  0.35750994182E-01  0.10000000475E-02 0. -1.
</event>
<event>
 4   0  0.2441219E-02  0.9118800E+02  0.7818609E-02  0.1379984E+01
      -11   -1    0    0    0    0  0.00000000000E+00  0.00000000000E+00  0.35740347158E-01  0.35744000000E-01  0.51099999109E-03 0. -1.
       11   -1    0    0    0    0 -0.00000000000E+00 -0.00000000000E+00 -0.35740347158E-01  0.35744000000E-01  0.51099999109E-03 0.  1.
       22    1    1    2    0    0  0.12833137053E-01  0.11520015011E-01 -0.31300693801E-01  0.35737005818E-01  0.00000000000E+00 0.  1.
  9000001    1    1    2    0    0 -0.12833137053E-01 -0.11520015011E-01  0.31300693801E-01  0.35750994182E-01  0.10000000475E-02 0. -1.
</event>
<event>
 4   0  0.2441219E-02  0.9118800E+02  0.7818609E-02  0.1379984E+01
      -11   -1    0    0    0    0  0.00000000000E+00  0.00000000000E+00  0.35740347158E-01  0.35744000000E-01  0.51099999109E-03 0.  1.
       11   -1    0    0    0    0 -0.00000000000E+00 -0.00000000000E+00 -0.35740347158E-01  0.35744000000E-01  0.51099999109E-03 0. -1.
       22    1    1    2    0    0 -0.87375496103E-02  0.31393517876E-02 -0.34509901217E-01  0.35737005818E-01  0.00000000000E+00 0. -1.
  9000001    1    1    2    0    0  0.87375496103E-02 -0.31393517876E-02  0.34509901217E-01  0.35750994182E-01  0.10000000475E-02 0.  1.
</event>
<event>
 4   0  0.2441219E-02  0.9118800E+02  0.7818609E-02  0.1379984E+01
      -11   -1    0    0    0    0  0.00000000000E+00  0.00000000000E+00  0.35740347158E-01  0.35744000000E-01  0.51099999109E-03 0.  1.
       11   -1    0    0    0    0 -0.00000000000E+00 -0.00000000000E+00 -0.35740347158E-01  0.35744000000E-01  0.51099999109E-03 0. -1.
       22    1    1    2    0    0 -0.19787835938E-02 -0.30660690245E-02 -0.35550207047E-01  0.35737005818E-01  0.00000000000E+00 0. -1.
  9000001    1    1    2    0    0  0.19787835938E-02  0.30660690245E-02  0.35550207047E-01  0.35750994182E-01  0.10000000475E-02 0.  1.
</event>
<event>
 4   0  0.2441219E-02  0.9118800E+02  0.7818609E-02  0.1379984E+01
      -11   -1    0    0    0    0  0.00000000000E+00  0.00000000000E+00  0.35740347158E-01  0.35744000000E-01  0.51099999109E-03 0.  1.
       11   -1    0    0    0    0 -0.00000000000E+00 -0.00000000000E+00 -0.35740347158E-01  0.35744000000E-01  0.51099999109E-03 0. -1.
       22    1    1    2    0    0  0.89223980632E-02 -0.47187837904E-02  0.34282028487E-01  0.35737005818E-01  0.00000000000E+00 0.  1.
  9000001    1    1    2    0    0 -0.89223980632E-02  0.47187837904E-02 -0.34282028487E-01  0.35750994182E-01  0.10000000475E-02 0. -1.
</event>
<event>
 4   0  0.2441219E-02  0.9118800E+02  0.7818609E-02  0.1379984E+01
      -11   -1    0    0    0    0  0.00000000000E+00  0.00000000000E+00  0.35740347158E-01  0.35744000000E-01  0.51099999109E-03 0. -1.
       11   -1    0    0    0    0 -0.00000000000E+00 -0.00000000000E+00 -0.35740347158E-01  0.35744000000E-01  0.51099999109E-03 0.  1.
       22    1    1    2    0    0  0.15921578894E-03 -0.12139943548E-01  0.33611456467E-01  0.35737005818E-01  0.00000000000E+00 0. -1.
  9000001    1    1    2    0    0 -0.15921578894E-03  0.12139943548E-01 -0.33611456467E-01  0.35750994182E-01  0.10000000475E-02 0.  1.
</event>
<event>
 4   0  0.2441219E-02  0.9118800E+02  0.7818609E-02  0.1379984E+01
      -11   -1    0    0    0    0  0.00000000000E+00  0.00000000000E+00  0.35740347158E-01  0.35744000000E-01  0.51099999109E-03 0.  1.
       11   -1    0    0    0    0 -0.00000000000E+00 -0.00000000000E+00 -0.35740347158E-01  0.35744000000E-01  0.51099999109E-03 0. -1.
       22    1    1    2    0    0 -0.47563631165E-02 -0.42576250343E-02 -0.35162241451E-01  0.35737005818E-01  0.00000000000E+00 0. -1.
  9000001    1    1    2    0    0  0.47563631165E-02  0.42576250343E-02  0.35162241451E-01  0.35750994182E-01  0.10000000475E-02 0.  1.
</event>
<event>
 4   0  0.2441219E-02  0.9118800E+02  0.7818609E-02  0.1379984E+01
      -11   -1    0    0    0    0  0.00000000000E+00  0.00000000000E+00  0.35740347158E-01  0.35744000000E-01  0.51099999109E-03 0.  1.
       11   -1    0    0    0    0 -0.00000000000E+00 -0.00000000000E+00 -0.35740347158E-01  0.35744000000E-01  0.51099999109E-03 0. -1.
       22    1    1    2    0    0  0.48695226542E-02 -0.34723438489E-01 -0.69068193465E-02  0.35737005818E-01  0.00000000000E+00 0. -1.
  9000001    1    1    2    0    0 -0.48695226542E-02  0.34723438489E-01  0.69068193465E-02  0.35750994182E-01  0.10000000475E-02 0.  1.
</event>
<event>
 4   0  0.2441219E-02  0.9118800E+02  0.7818609E-02  0.1379984E+01
      -11   -1    0    0    0    0  0.00000000000E+00  0.00000000000E+00  0.35740347158E-01  0.35744000000E-01  0.51099999109E-03 0.  1.
       11   -1    0    0    0    0 -0.00000000000E+00 -0.00000000000E+00 -0.35740347158E-01  0.35744000000E-01  0.51099999109E-03 0. -1.
       22    1    1    2    0    0 -0.18469674996E-01  0.23471925375E-01  0.19623287430E-01  0.35737005818E-01  0.00000000000E+00 0.  1.
  9000001    1    1    2    0    0  0.18469674996E-01 -0.23471925375E-01 -0.19623287430E-01  0.35750994182E-01  0.10000000475E-02 0. -1.
</event>
<event>
 4   0  0.2441219E-02  0.9118800E+02  0.7818609E-02  0.1379984E+01
      -11   -1    0    0    0    0  0.00000000000E+00  0.00000000000E+00  0.35740347158E-01  0.35744000000E-01  0.51099999109E-03 0.  1.
       11   -1    0    0    0    0 -0.00000000000E+00 -0.00000000000E+00 -0.35740347158E-01  0.35744000000E-01  0.51099999109E-03 0. -1.
       22    1    1    2    0    0 -0.27366760801E-02 -0.16658247281E-02  0.35593106311E-01  0.35737005818E-01  0.00000000000E+00 0.  1.
  9000001    1    1    2    0    0  0.27366760801E-02  0.16658247281E-02 -0.35593106311E-01  0.35750994182E-01  0.10000000475E-02 0. -1.
</event>
<event>
 4   0  0.2441219E-02  0.9118800E+02  0.7818609E-02  0.1379984E+01
      -11   -1    0    0    0    0  0.00000000000E+00  0.00000000000E+00  0.35740347158E-01  0.35744000000E-01  0.51099999109E-03 0.  1.
       11   -1    0    0    0    0 -0.00000000000E+00 -0.00000000000E+00 -0.35740347158E-01  0.35744000000E-01  0.51099999109E-03 0. -1.
       22    1    1    2    0    0 -0.21187372147E-02  0.13518442468E-01 -0.33013576763E-01  0.35737005818E-01  0.00000000000E+00 0. -1.
  9000001    1    1    2    0    0  0.21187372147E-02 -0.13518442468E-01  0.33013576763E-01  0.35750994182E-01  0.10000000475E-02 0.  1.
</event>
<event>
 4   0  0.2441219E-02  0.9118800E+02  0.7818609E-02  0.1379984E+01
      -11   -1    0    0    0    0  0.00000000000E+00  0.00000000000E+00  0.35740347158E-01  0.35744000000E-01  0.51099999109E-03 0.  1.
       11   -1    0    0    0    0 -0.00000000000E+00 -0.00000000000E+00 -0.35740347158E-01  0.35744000000E-01  0.51099999109E-03 0. -1.
       22    1    1    2    0    0  0.96790215536E-02 -0.82384786437E-02  0.33400263416E-01  0.35737005818E-01  0.00000000000E+00 0.  1.
  9000001    1    1    2    0    0 -0.96790215536E-02  0.82384786437E-02 -0.33400263416E-01  0.35750994182E-01  0.10000000475E-02 0. -1.
</event>
<event>
 4   0  0.2441219E-02  0.9118800E+02  0.7818609E-02  0.1379984E+01
      -11   -1    0    0    0    0  0.00000000000E+00  0.00000000000E+00  0.35740347158E-01  0.35744000000E-01  0.51099999109E-03 0. -1.
       11   -1    0    0    0    0 -0.00000000000E+00 -0.00000000000E+00 -0.35740347158E-01  0.35744000000E-01  0.51099999109E-03 0.  1.
       22    1    1    2    0    0  0.81105263215E-02 -0.14673781262E-02  0.34773549561E-01  0.35737005818E-01  0.00000000000E+00 0. -1.
  9000001    1    1    2    0    0 -0.81105263215E-02  0.14673781262E-02 -0.34773549561E-01  0.35750994182E-01  0.10000000475E-02 0.  1.
</event>
<event>
 4   0  0.2441219E-02  0.9118800E+02  0.7818609E-02  0.1379984E+01
      -11   -1    0    0    0    0  0.00000000000E+00  0.00000000000E+00  0.35740347158E-01  0.35744000000E-01  0.51099999109E-03 0.  1.
       11   -1    0    0    0    0 -0.00000000000E+00 -0.00000000000E+00 -0.35740347158E-01  0.35744000000E-01  0.51099999109E-03 0. -1.
       22    1    1    2    0    0 -0.41580673470E-02  0.10196698599E-01 -0.33998108749E-01  0.35737005818E-01  0.00000000000E+00 0. -1.
  9000001    1    1    2    0    0  0.41580673470E-02 -0.10196698599E-01  0.33998108749E-01  0.35750994182E-01  0.10000000475E-02 0.  1.
</event>
<event>
 4   0  0.2441219E-02  0.9118800E+02  0.7818609E-02  0.1379984E+01
      -11   -1    0    0    0    0  0.00000000000E+00  0.00000000000E+00  0.35740347158E-01  0.35744000000E-01  0.51099999109E-03 0.  1.
       11   -1    0    0    0    0 -0.00000000000E+00 -0.00000000000E+00 -0.35740347158E-01  0.35744000000E-01  0.51099999109E-03 0. -1.
       22    1    1    2    0    0  0.76451674513E-03  0.36310299256E-02 -0.35543842233E-01  0.35737005818E-01  0.00000000000E+00 0. -1.
  9000001    1    1    2    0    0 -0.76451674513E-03 -0.36310299256E-02  0.35543842233E-01  0.35750994182E-01  0.10000000475E-02 0.  1.
</event>
<event>
 4   0  0.2441219E-02  0.9118800E+02  0.7818609E-02  0.1379984E+01
      -11   -1    0    0    0    0  0.00000000000E+00  0.00000000000E+00  0.35740347158E-01  0.35744000000E-01  0.51099999109E-03 0. -1.
       11   -1    0    0    0    0 -0.00000000000E+00 -0.00000000000E+00 -0.35740347158E-01  0.35744000000E-01  0.51099999109E-03 0.  1.
       22    1    1    2    0    0  0.52399160363E-02  0.42346421450E-02  0.35096220177E-01  0.35737005818E-01  0.00000000000E+00 0. -1.
  9000001    1    1    2    0    0 -0.52399160363E-02 -0.42346421450E-02 -0.35096220177E-01  0.35750994182E-01  0.10000000475E-02 0.  1.
</event>
<event>
 4   0  0.2441219E-02  0.9118800E+02  0.7818609E-02  0.1379984E+01
      -11   -1    0    0    0    0  0.00000000000E+00  0.00000000000E+00  0.35740347158E-01  0.35744000000E-01  0.51099999109E-03 0. -1.
       11   -1    0    0    0    0 -0.00000000000E+00 -0.00000000000E+00 -0.35740347158E-01  0.35744000000E-01  0.51099999109E-03 0.  1.
       22    1    1    2    0    0 -0.39973432069E-03  0.18350424697E-01 -0.30663263212E-01  0.35737005818E-01  0.00000000000E+00 0.  1.
  9000001    1    1    2    0    0  0.39973432069E-03 -0.18350424697E-01  0.30663263212E-01  0.35750994182E-01  0.10000000475E-02 0. -1.
</event>
<event>
 4   0  0.2441219E-02  0.9118800E+02  0.7818609E-02  0.1379984E+01
      -11   -1    0    0    0    0  0.00000000000E+00  0.00000000000E+00  0.35740347158E-01  0.35744000000E-01  0.51099999109E-03 0.  1.
       11   -1    0    0    0    0 -0.00000000000E+00 -0.00000000000E+00 -0.35740347158E-01  0.35744000000E-01  0.51099999109E-03 0. -1.
       22    1    1    2    0    0  0.12691866976E-01  0.29942586977E-01  0.14815248315E-01  0.35737005818E-01  0.00000000000E+00 0.  1.
  9000001    1    1    2    0    0 -0.12691866976E-01 -0.29942586977E-01 -0.14815248315E-01  0.35750994182E-01  0.10000000475E-02 0. -1.
</event>
<event>
 4   0  0.2441219E-02  0.9118800E+02  0.7818609E-02  0.1379984E+01
      -11   -1    0    0    0    0  0.00000000000E+00  0.00000000000E+00  0.35740347158E-01  0.35744000000E-01  0.51099999109E-03 0. -1.
       11   -1    0    0    0    0 -0.00000000000E+00 -0.00000000000E+00 -0.35740347158E-01  0.35744000000E-01  0.51099999109E-03 0.  1.
       22    1    1    2    0    0  0.22911192513E-01  0.28566463500E-02 -0.27277287514E-01  0.35737005818E-01  0.00000000000E+00 0.  1.
  9000001    1    1    2    0    0 -0.22911192513E-01 -0.28566463500E-02  0.27277287514E-01  0.35750994182E-01  0.10000000475E-02 0. -1.
</event>
<event>
 4   0  0.2441219E-02  0.9118800E+02  0.7818609E-02  0.1379984E+01
      -11   -1    0    0    0    0  0.00000000000E+00  0.00000000000E+00  0.35740347158E-01  0.35744000000E-01  0.51099999109E-03 0. -1.
       11   -1    0    0    0    0 -0.00000000000E+00 -0.00000000000E+00 -0.35740347158E-01  0.35744000000E-01  0.51099999109E-03 0.  1.
       22    1    1    2    0    0 -0.88885780915E-03 -0.37934675457E-02  0.35523979516E-01  0.35737005818E-01  0.00000000000E+00 0. -1.
  9000001    1    1    2    0    0  0.88885780915E-03  0.37934675457E-02 -0.35523979516E-01  0.35750994182E-01  0.10000000475E-02 0.  1.
</event>
<event>
 4   0  0.2441219E-02  0.9118800E+02  0.7818609E-02  0.1379984E+01
      -11   -1    0    0    0    0  0.00000000000E+00  0.00000000000E+00  0.35740347158E-01  0.35744000000E-01  0.51099999109E-03 0.  1.
       11   -1    0    0    0    0 -0.00000000000E+00 -0.00000000000E+00 -0.35740347158E-01  0.35744000000E-01  0.51099999109E-03 0. -1.
       22    1    1    2    0    0  0.54969639450E-02 -0.11772383460E-02 -0.35292082428E-01  0.35737005818E-01  0.00000000000E+00 0. -1.
  9000001    1    1    2    0    0 -0.54969639450E-02  0.11772383460E-02  0.35292082428E-01  0.35750994182E-01  0.10000000475E-02 0.  1.
</event>
<event>
 4   0  0.2441219E-02  0.9118800E+02  0.7818609E-02  0.1379984E+01
      -11   -1    0    0    0    0  0.00000000000E+00  0.00000000000E+00  0.35740347158E-01  0.35744000000E-01  0.51099999109E-03 0. -1.
       11   -1    0    0    0    0 -0.00000000000E+00 -0.00000000000E+00 -0.35740347158E-01  0.35744000000E-01  0.51099999109E-03 0.  1.
       22    1    1    2    0    0 -0.59158305785E-02 -0.17198217009E-02  0.35201970779E-01  0.35737005818E-01  0.00000000000E+00 0. -1.
  9000001    1    1    2    0    0  0.59158305785E-02  0.17198217009E-02 -0.35201970779E-01  0.35750994182E-01  0.10000000475E-02 0.  1.
</event>
<event>
 4   0  0.2441219E-02  0.9118800E+02  0.7818609E-02  0.1379984E+01
      -11   -1    0    0    0    0  0.00000000000E+00  0.00000000000E+00  0.35740347158E-01  0.35744000000E-01  0.51099999109E-03 0. -1.
       11   -1    0    0    0    0 -0.00000000000E+00 -0.00000000000E+00 -0.35740347158E-01  0.35744000000E-01  0.51099999109E-03 0.  1.
       22    1    1    2    0    0 -0.26583333167E-01  0.17848944420E-01  0.15870575469E-01  0.35737005818E-01  0.00000000000E+00 0. -1.
  9000001    1    1    2    0    0  0.26583333167E-01 -0.17848944420E-01 -0.15870575469E-01  0.35750994182E-01  0.10000000475E-02 0.  1.
</event>
<event>
 4   0  0.2441219E-02  0.9118800E+02  0.7818609E-02  0.1379984E+01
      -11   -1    0    0    0    0  0.00000000000E+00  0.00000000000E+00  0.35740347158E-01  0.35744000000E-01  0.51099999109E-03 0.  1.
       11   -1    0    0    0    0 -0.00000000000E+00 -0.00000000000E+00 -0.35740347158E-01  0.35744000000E-01  0.51099999109E-03 0. -1.
       22    1    1    2    0    0 -0.26671912645E-02 -0.10982877353E-01  0.33902744442E-01  0.35737005818E-01  0.00000000000E+00 0.  1.
  9000001    1    1    2    0    0  0.26671912645E-02  0.10982877353E-01 -0.33902744442E-01  0.35750994182E-01  0.10000000475E-02 0. -1.
</event>
<event>
 4   0  0.2441219E-02  0.9118800E+02  0.7818609E-02  0.1379984E+01
      -11   -1    0    0    0    0  0.00000000000E+00  0.00000000000E+00  0.35740347158E-01  0.35744000000E-01  0.51099999109E-03 0.  1.
       11   -1    0    0    0    0 -0.00000000000E+00 -0.00000000000E+00 -0.35740347158E-01  0.35744000000E-01  0.51099999109E-03 0. -1.
       22    1    1    2    0    0  0.16639482213E-02 -0.33072465613E-02  0.35544718052E-01  0.35737005818E-01  0.00000000000E+00 0.  1.
  9000001    1    1    2    0    0 -0.16639482213E-02  0.33072465613E-02 -0.35544718052E-01  0.35750994182E-01  0.10000000475E-02 0. -1.
</event>
<event>
 4   0  0.2441219E-02  0.9118800E+02  0.7818609E-02  0.1379984E+01
      -11   -1    0    0    0    0  0.00000000000E+00  0.00000000000E+00  0.35740347158E-01  0.35744000000E-01  0.51099999109E-03 0.  1.
       11   -1    0    0    0    0 -0.00000000000E+00 -0.00000000000E+00 -0.35740347158E-01  0.35744000000E-01  0.51099999109E-03 0. -1.
       22    1    1    2    0    0  0.20309885312E-01 -0.46926274982E-02  0.29027941550E-01  0.35737005818E-01  0.00000000000E+00 0.  1.
  9000001    1    1    2    0    0 -0.20309885312E-01  0.46926274982E-02 -0.29027941550E-01  0.35750994182E-01  0.10000000475E-02 0. -1.
</event>
<event>
 4   0  0.2441219E-02  0.9118800E+02  0.7818609E-02  0.1379984E+01
      -11   -1    0    0    0    0  0.00000000000E+00  0.00000000000E+00  0.35740347158E-01  0.35744000000E-01  0.51099999109E-03 0. -1.
       11   -1    0    0    0    0 -0.00000000000E+00 -0.00000000000E+00 -0.35740347158E-01  0.35744000000E-01  0.51099999109E-03 0.  1.
       22    1    1    2    0    0  0.10214319388E-01  0.75025286848E-02 -0.33414268324E-01  0.35737005818E-01  0.00000000000E+00 0.  1.
  9000001    1    1    2    0    0 -0.10214319388E-01 -0.75025286848E-02  0.33414268324E-01  0.35750994182E-01  0.10000000475E-02 0. -1.
</event>
<event>
 4   0  0.2441219E-02  0.9118800E+02  0.7818609E-02  0.1379984E+01
      -11   -1    0    0    0    0  0.00000000000E+00  0.00000000000E+00  0.35740347158E-01  0.35744000000E-01  0.51099999109E-03 0. -1.
       11   -1    0    0    0    0 -0.00000000000E+00 -0.00000000000E+00 -0.35740347158E-01  0.35744000000E-01  0.51099999109E-03 0.  1.
       22    1    1    2    0    0  0.78299152455E-02 -0.48512765447E-02  0.34529568894E-01  0.35737005818E-01  0.00000000000E+00 0. -1.
  9000001    1    1    2    0    0 -0.78299152455E-02  0.48512765447E-02 -0.34529568894E-01  0.35750994182E-01  0.10000000475E-02 0.  1.
</event>
<event>
 4   0  0.2441219E-02  0.9118800E+02  0.7818609E-02  0.1379984E+01
      -11   -1    0    0    0    0  0.00000000000E+00  0.00000000000E+00  0.35740347158E-01  0.35744000000E-01  0.51099999109E-03 0. -1.
       11   -1    0    0    0    0 -0.00000000000E+00 -0.00000000000E+00 -0.35740347158E-01  0.35744000000E-01  0.51099999109E-03 0.  1.
       22    1    1    2    0    0 -0.87799060658E-02  0.20387901784E-02 -0.34581644972E-01  0.35737005818E-01  0.00000000000E+00 0.  1.
  9000001    1    1    2    0    0  0.87799060658E-02 -0.20387901784E-02  0.34581644972E-01  0.35750994182E-01  0.10000000475E-02 0. -1.
</event>
<event>
 4   0  0.2441219E-02  0.9118800E+02  0.7818609E-02  0.1379984E+01
      -11   -1    0    0    0    0  0.00000000000E+00  0.00000000000E+00  0.35740347158E-01  0.35744000000E-01  0.51099999109E-03 0.  1.
       11   -1    0    0    0    0 -0.00000000000E+00 -0.00000000000E+00 -0.35740347158E-01  0.35744000000E-01  0.51099999109E-03 0. -1.
       22    1    1    2    0    0  0.13993579909E-01 -0.17509448356E-01  0.27834017397E-01  0.35737005818E-01  0.00000000000E+00 0.  1.
  9000001    1    1    2    0    0 -0.13993579909E-01  0.17509448356E-01 -0.27834017397E-01  0.35750994182E-01  0.10000000475E-02 0. -1.
</event>
<event>
 4   0  0.2441219E-02  0.9118800E+02  0.7818609E-02  0.1379984E+01
      -11   -1    0    0    0    0  0.00000000000E+00  0.00000000000E+00  0.35740347158E-01  0.35744000000E-01  0.51099999109E-03 0. -1.
       11   -1    0    0    0    0 -0.00000000000E+00 -0.00000000000E+00 -0.35740347158E-01  0.35744000000E-01  0.51099999109E-03 0.  1.
       22    1    1    2    0    0 -0.18847594875E-01 -0.59297876691E-02  0.29778169361E-01  0.35737005818E-01  0.00000000000E+00 0. -1.
  9000001    1    1    2    0    0  0.18847594875E-01  0.59297876691E-02 -0.29778169361E-01  0.35750994182E-01  0.10000000475E-02 0.  1.
</event>
<event>
 4   0  0.2441219E-02  0.9118800E+02  0.7818609E-02  0.1379984E+01
      -11   -1    0    0    0    0  0.00000000000E+00  0.00000000000E+00  0.35740347158E-01  0.35744000000E-01  0.51099999109E-03 0. -1.
       11   -1    0    0    0    0 -0.00000000000E+00 -0.00000000000E+00 -0.35740347158E-01  0.35744000000E-01  0.51099999109E-03 0.  1.
       22    1    1    2    0    0 -0.59588416721E-02 -0.10331911647E-01 -0.33687941352E-01  0.35737005818E-01  0.00000000000E+00 0.  1.
  9000001    1    1    2    0    0  0.59588416721E-02  0.10331911647E-01  0.33687941352E-01  0.35750994182E-01  0.10000000475E-02 0. -1.
</event>
<event>
 4   0  0.2441219E-02  0.9118800E+02  0.7818609E-02  0.1379984E+01
      -11   -1    0    0    0    0  0.00000000000E+00  0.00000000000E+00  0.35740347158E-01  0.35744000000E-01  0.51099999109E-03 0.  1.
       11   -1    0    0    0    0 -0.00000000000E+00 -0.00000000000E+00 -0.35740347158E-01  0.35744000000E-01  0.51099999109E-03 0. -1.
       22    1    1    2    0    0 -0.27125356035E-02  0.10083041046E-01  0.34177595274E-01  0.35737005818E-01  0.00000000000E+00 0.  1.
  9000001    1    1    2    0    0  0.27125356035E-02 -0.10083041046E-01 -0.34177595274E-01  0.35750994182E-01  0.10000000475E-02 0. -1.
</event>
<event>
 4   0  0.2441219E-02  0.9118800E+02  0.7818609E-02  0.1379984E+01
      -11   -1    0    0    0    0  0.00000000000E+00  0.00000000000E+00  0.35740347158E-01  0.35744000000E-01  0.51099999109E-03 0. -1.
       11   -1    0    0    0    0 -0.00000000000E+00 -0.00000000000E+00 -0.35740347158E-01  0.35744000000E-01  0.51099999109E-03 0.  1.
       22    1    1    2    0    0 -0.34027509518E-02 -0.10035724359E-02  0.35560479654E-01  0.35737005818E-01  0.00000000000E+00 0. -1.
  9000001    1    1    2    0    0  0.34027509518E-02  0.10035724359E-02 -0.35560479654E-01  0.35750994182E-01  0.10000000475E-02 0.  1.
</event>
<event>
 4   0  0.2441219E-02  0.9118800E+02  0.7818609E-02  0.1379984E+01
      -11   -1    0    0    0    0  0.00000000000E+00  0.00000000000E+00  0.35740347158E-01  0.35744000000E-01  0.51099999109E-03 0.  1.
       11   -1    0    0    0    0 -0.00000000000E+00 -0.00000000000E+00 -0.35740347158E-01  0.35744000000E-01  0.51099999109E-03 0. -1.
       22    1    1    2    0    0 -0.98753727543E-02  0.80281899465E-02  0.33393992933E-01  0.35737005818E-01  0.00000000000E+00 0.  1.
  9000001    1    1    2    0    0  0.98753727543E-02 -0.80281899465E-02 -0.33393992933E-01  0.35750994182E-01  0.10000000475E-02 0. -1.
</event>
<event>
 4   0  0.2441219E-02  0.9118800E+02  0.7818609E-02  0.1379984E+01
      -11   -1    0    0    0    0  0.00000000000E+00  0.00000000000E+00  0.35740347158E-01  0.35744000000E-01  0.51099999109E-03 0.  1.
       11   -1    0    0    0    0 -0.00000000000E+00 -0.00000000000E+00 -0.35740347158E-01  0.35744000000E-01  0.51099999109E-03 0. -1.
       22    1    1    2    0    0  0.50082805867E-02  0.28549822636E-02  0.35268963505E-01  0.35737005818E-01  0.00000000000E+00 0.  1.
  9000001    1    1    2    0    0 -0.50082805867E-02 -0.28549822636E-02 -0.35268963505E-01  0.35750994182E-01  0.10000000475E-02 0. -1.
</event>
<event>
 4   0  0.2441219E-02  0.9118800E+02  0.7818609E-02  0.1379984E+01
      -11   -1    0    0    0    0  0.00000000000E+00  0.00000000000E+00  0.35740347158E-01  0.35744000000E-01  0.51099999109E-03 0.  1.
       11   -1    0    0    0    0 -0.00000000000E+00 -0.00000000000E+00 -0.35740347158E-01  0.35744000000E-01  0.51099999109E-03 0. -1.
       22    1    1    2    0    0  0.80494206393E-02  0.14002133040E-01  0.31879157495E-01  0.35737005818E-01  0.00000000000E+00 0.  1.
  9000001    1    1    2    0    0 -0.80494206393E-02 -0.14002133040E-01 -0.31879157495E-01  0.35750994182E-01  0.10000000475E-02 0. -1.
</event>
<event>
 4   0  0.2441219E-02  0.9118800E+02  0.7818609E-02  0.1379984E+01
      -11   -1    0    0    0    0  0.00000000000E+00  0.00000000000E+00  0.35740347158E-01  0.35744000000E-01  0.51099999109E-03 0.  1.
       11   -1    0    0    0    0 -0.00000000000E+00 -0.00000000000E+00 -0.35740347158E-01  0.35744000000E-01  0.51099999109E-03 0. -1.
       22    1    1    2    0    0 -0.16475575663E-02  0.26283594519E-02  0.35602118835E-01  0.35737005818E-01  0.00000000000E+00 0.  1.
  9000001    1    1    2    0    0  0.16475575663E-02 -0.26283594519E-02 -0.35602118835E-01  0.35750994182E-01  0.10000000475E-02 0. -1.
</event>
<event>
 4   0  0.2441219E-02  0.9118800E+02  0.7818609E-02  0.1379984E+01
      -11   -1    0    0    0    0  0.00000000000E+00  0.00000000000E+00  0.35740347158E-01  0.35744000000E-01  0.51099999109E-03 0. -1.
       11   -1    0    0    0    0 -0.00000000000E+00 -0.00000000000E+00 -0.35740347158E-01  0.35744000000E-01  0.51099999109E-03 0.  1.
       22    1    1    2    0    0 -0.17556553044E-01 -0.16695269017E-01 -0.26271068165E-01  0.35737005818E-01  0.00000000000E+00 0.  1.
  9000001    1    1    2    0    0  0.17556553044E-01  0.16695269017E-01  0.26271068165E-01  0.35750994182E-01  0.10000000475E-02 0. -1.
</event>
<event>
 4   0  0.2441219E-02  0.9118800E+02  0.7818609E-02  0.1379984E+01
      -11   -1    0    0    0    0  0.00000000000E+00  0.00000000000E+00  0.35740347158E-01  0.35744000000E-01  0.51099999109E-03 0.  1.
       11   -1    0    0    0    0 -0.00000000000E+00 -0.00000000000E+00 -0.35740347158E-01  0.35744000000E-01  0.51099999109E-03 0. -1.
       22    1    1    2    0    0  0.90954467723E-03  0.40631233548E-02  0.35493623962E-01  0.35737005818E-01  0.00000000000E+00 0.  1.
  9000001    1    1    2    0    0 -0.90954467723E-03 -0.40631233548E-02 -0.35493623962E-01  0.35750994182E-01  0.10000000475E-02 0. -1.
</event>
<event>
 4   0  0.2441219E-02  0.9118800E+02  0.7818609E-02  0.1379984E+01
      -11   -1    0    0    0    0  0.00000000000E+00  0.00000000000E+00  0.35740347158E-01  0.35744000000E-01  0.51099999109E-03 0. -1.
       11   -1    0    0    0    0 -0.00000000000E+00 -0.00000000000E+00 -0.35740347158E-01  0.35744000000E-01  0.51099999109E-03 0.  1.
       22    1    1    2    0    0 -0.11567623946E-02 -0.28427944158E-01  0.21625158417E-01  0.35737005818E-01  0.00000000000E+00 0. -1.
  9000001    1    1    2    0    0  0.11567623946E-02  0.28427944158E-01 -0.21625158417E-01  0.35750994182E-01  0.10000000475E-02 0.  1.
</event>
<event>
 4   0  0.2441219E-02  0.9118800E+02  0.7818609E-02  0.1379984E+01
      -11   -1    0    0    0    0  0.00000000000E+00  0.00000000000E+00  0.35740347158E-01  0.35744000000E-01  0.51099999109E-03 0. -1.
       11   -1    0    0    0    0 -0.00000000000E+00 -0.00000000000E+00 -0.35740347158E-01  0.35744000000E-01  0.51099999109E-03 0.  1.
       22    1    1    2    0    0  0.34925080031E-01  0.66442797406E-02  0.36367453026E-02  0.35737005818E-01  0.00000000000E+00 0. -1.
  9000001    1    1    2    0    0 -0.34925080031E-01 -0.66442797406E-02 -0.36367453026E-02  0.35750994182E-01  0.10000000475E-02 0.  1.
</event>
<event>
 4   0  0.2441219E-02  0.9118800E+02  0.7818609E-02  0.1379984E+01
      -11   -1    0    0    0    0  0.00000000000E+00  0.00000000000E+00  0.35740347158E-01  0.35744000000E-01  0.51099999109E-03 0.  1.
       11   -1    0    0    0    0 -0.00000000000E+00 -0.00000000000E+00 -0.35740347158E-01  0.35744000000E-01  0.51099999109E-03 0. -1.
       22    1    1    2    0    0 -0.41236573095E-03  0.87193070346E-02  0.34654541177E-01  0.35737005818E-01  0.00000000000E+00 0.  1.
  9000001    1    1    2    0    0  0.41236573095E-03 -0.87193070346E-02 -0.34654541177E-01  0.35750994182E-01  0.10000000475E-02 0. -1.
</event>
<event>
 4   0  0.2441219E-02  0.9118800E+02  0.7818609E-02  0.1379984E+01
      -11   -1    0    0    0    0  0.00000000000E+00  0.00000000000E+00  0.35740347158E-01  0.35744000000E-01  0.51099999109E-03 0.  1.
       11   -1    0    0    0    0 -0.00000000000E+00 -0.00000000000E+00 -0.35740347158E-01  0.35744000000E-01  0.51099999109E-03 0. -1.
       22    1    1    2    0    0 -0.20886852266E-02 -0.32603485947E-02 -0.35526625310E-01  0.35737005818E-01  0.00000000000E+00 0. -1.
  9000001    1    1    2    0    0  0.20886852266E-02  0.32603485947E-02  0.35526625310E-01  0.35750994182E-01  0.10000000475E-02 0.  1.
</event>
<event>
 4   0  0.2441219E-02  0.9118800E+02  0.7818609E-02  0.1379984E+01
      -11   -1    0    0    0    0  0.00000000000E+00  0.00000000000E+00  0.35740347158E-01  0.35744000000E-01  0.51099999109E-03 0.  1.
       11   -1    0    0    0    0 -0.00000000000E+00 -0.00000000000E+00 -0.35740347158E-01  0.35744000000E-01  0.51099999109E-03 0. -1.
       22    1    1    2    0    0 -0.36699911315E-02  0.22126039151E-02 -0.35479136600E-01  0.35737005818E-01  0.00000000000E+00 0. -1.
  9000001    1    1    2    0    0  0.36699911315E-02 -0.22126039151E-02  0.35479136600E-01  0.35750994182E-01  0.10000000475E-02 0.  1.
</event>
<event>
 4   0  0.2441219E-02  0.9118800E+02  0.7818609E-02  0.1379984E+01
      -11   -1    0    0    0    0  0.00000000000E+00  0.00000000000E+00  0.35740347158E-01  0.35744000000E-01  0.51099999109E-03 0.  1.
       11   -1    0    0    0    0 -0.00000000000E+00 -0.00000000000E+00 -0.35740347158E-01  0.35744000000E-01  0.51099999109E-03 0. -1.
       22    1    1    2    0    0 -0.20099242266E-01  0.47038054188E-02  0.29172388654E-01  0.35737005818E-01  0.00000000000E+00 0.  1.
  9000001    1    1    2    0    0  0.20099242266E-01 -0.47038054188E-02 -0.29172388654E-01  0.35750994182E-01  0.10000000475E-02 0. -1.
</event>
<event>
 4   0  0.2441219E-02  0.9118800E+02  0.7818609E-02  0.1379984E+01
      -11   -1    0    0    0    0  0.00000000000E+00  0.00000000000E+00  0.35740347158E-01  0.35744000000E-01  0.51099999109E-03 0. -1.
       11   -1    0    0    0    0 -0.00000000000E+00 -0.00000000000E+00 -0.35740347158E-01  0.35744000000E-01  0.51099999109E-03 0.  1.
       22    1    1    2    0    0 -0.25474108571E-02 -0.37035470571E-02  0.35453180703E-01  0.35737005818E-01  0.00000000000E+00 0. -1.
  9000001    1    1    2    0    0  0.25474108571E-02  0.37035470571E-02 -0.35453180703E-01  0.35750994182E-01  0.10000000475E-02 0.  1.
</event>
<event>
 4   0  0.2441219E-02  0.9118800E+02  0.7818609E-02  0.1379984E+01
      -11   -1    0    0    0    0  0.00000000000E+00  0.00000000000E+00  0.35740347158E-01  0.35744000000E-01  0.51099999109E-03 0. -1.
       11   -1    0    0    0    0 -0.00000000000E+00 -0.00000000000E+00 -0.35740347158E-01  0.35744000000E-01  0.51099999109E-03 0.  1.
       22    1    1    2    0    0  0.28251674285E-02  0.56051155585E-02 -0.35181453828E-01  0.35737005818E-01  0.00000000000E+00 0.  1.
  9000001    1    1    2    0    0 -0.28251674285E-02 -0.56051155585E-02  0.35181453828E-01  0.35750994182E-01  0.10000000475E-02 0. -1.
</event>
<event>
 4   0  0.2441219E-02  0.9118800E+02  0.7818609E-02  0.1379984E+01
      -11   -1    0    0    0    0  0.00000000000E+00  0.00000000000E+00  0.35740347158E-01  0.35744000000E-01  0.51099999109E-03 0. -1.
       11   -1    0    0    0    0 -0.00000000000E+00 -0.00000000000E+00 -0.35740347158E-01  0.35744000000E-01  0.51099999109E-03 0.  1.
       22    1    1    2    0    0  0.64409526390E-02  0.11210084995E-01 -0.33316387985E-01  0.35737005818E-01  0.00000000000E+00 0.  1.
  9000001    1    1    2    0    0 -0.64409526390E-02 -0.11210084995E-01  0.33316387985E-01  0.35750994182E-01  0.10000000475E-02 0. -1.
</event>
<event>
 4   0  0.2441219E-02  0.9118800E+02  0.7818609E-02  0.1379984E+01
      -11   -1    0    0    0    0  0.00000000000E+00  0.00000000000E+00  0.35740347158E-01  0.35744000000E-01  0.51099999109E-03 0. -1.
       11   -1    0    0    0    0 -0.00000000000E+00 -0.00000000000E+00 -0.35740347158E-01  0.35744000000E-01  0.51099999109E-03 0.  1.
       22    1    1    2    0    0  0.12921386037E-01  0.32666091139E-01 -0.65648958432E-02  0.35737005818E-01  0.00000000000E+00 0.  1.
  9000001    1    1    2    0    0 -0.12921386037E-01 -0.32666091139E-01  0.65648958432E-02  0.35750994182E-01  0.10000000475E-02 0. -1.
</event>
<event>
 4   0  0.2441219E-02  0.9118800E+02  0.7818609E-02  0.1379984E+01
      -11   -1    0    0    0    0  0.00000000000E+00  0.00000000000E+00  0.35740347158E-01  0.35744000000E-01  0.51099999109E-03 0.  1.
       11   -1    0    0    0    0 -0.00000000000E+00 -0.00000000000E+00 -0.35740347158E-01  0.35744000000E-01  0.51099999109E-03 0. -1.
       22    1    1    2    0    0 -0.11755996274E-01 -0.15264803901E-01  0.30098436809E-01  0.35737005818E-01  0.00000000000E+00 0.  1.
  9000001    1    1    2    0    0  0.11755996274E-01  0.15264803901E-01 -0.30098436809E-01  0.35750994182E-01  0.10000000475E-02 0. -1.
</event>
<event>
 4   0  0.2441219E-02  0.9118800E+02  0.7818609E-02  0.1379984E+01
      -11   -1    0    0    0    0  0.00000000000E+00  0.00000000000E+00  0.35740347158E-01  0.35744000000E-01  0.51099999109E-03 0.  1.
       11   -1    0    0    0    0 -0.00000000000E+00 -0.00000000000E+00 -0.35740347158E-01  0.35744000000E-01  0.51099999109E-03 0. -1.
       22    1    1    2    0    0 -0.23464946617E-02 -0.86350578586E-02  0.34598602912E-01  0.35737005818E-01  0.00000000000E+00 0.  1.
  9000001    1    1    2    0    0  0.23464946617E-02  0.86350578586E-02 -0.34598602912E-01  0.35750994182E-01  0.10000000475E-02 0. -1.
</event>
<event>
 4   0  0.2441219E-02  0.9118800E+02  0.7818609E-02  0.1379984E+01
      -11   -1    0    0    0    0  0.00000000000E+00  0.00000000000E+00  0.35740347158E-01  0.35744000000E-01  0.51099999109E-03 0. -1.
       11   -1    0    0    0    0 -0.00000000000E+00 -0.00000000000E+00 -0.35740347158E-01  0.35744000000E-01  0.51099999109E-03 0.  1.
       22    1    1    2    0    0  0.13664116694E-02 -0.12172626906E-01 -0.33572215569E-01  0.35737005818E-01  0.00000000000E+00 0.  1.
  9000001    1    1    2    0    0 -0.13664116694E-02  0.12172626906E-01  0.33572215569E-01  0.35750994182E-01  0.10000000475E-02 0. -1.
</event>
<event>
 4   0  0.2441219E-02  0.9118800E+02  0.7818609E-02  0.1379984E+01
      -11   -1    0    0    0    0  0.00000000000E+00  0.00000000000E+00  0.35740347158E-01  0.35744000000E-01  0.51099999109E-03 0.  1.
       11   -1    0    0    0    0 -0.00000000000E+00 -0.00000000000E+00 -0.35740347158E-01  0.35744000000E-01  0.51099999109E-03 0. -1.
       22    1    1    2    0    0  0.29903687757E-01 -0.62740549499E-02 -0.18534812594E-01  0.35737005818E-01  0.00000000000E+00 0. -1.
  9000001    1    1    2    0    0 -0.29903687757E-01  0.62740549499E-02  0.18534812594E-01  0.35750994182E-01  0.10000000475E-02 0.  1.
</event>
<event>
 4   0  0.2441219E-02  0.9118800E+02  0.7818609E-02  0.1379984E+01
      -11   -1    0    0    0    0  0.00000000000E+00  0.00000000000E+00  0.35740347158E-01  0.35744000000E-01  0.51099999109E-03 0. -1.
       11   -1    0    0    0    0 -0.00000000000E+00 -0.00000000000E+00 -0.35740347158E-01  0.35744000000E-01  0.51099999109E-03 0.  1.
       22    1    1    2    0    0  0.70585688402E-02 -0.92037582818E-03  0.35020895179E-01  0.35737005818E-01  0.00000000000E+00 0. -1.
  9000001    1    1    2    0    0 -0.70585688402E-02  0.92037582818E-03 -0.35020895179E-01  0.35750994182E-01  0.10000000475E-02 0.  1.
</event>
<event>
 4   0  0.2441219E-02  0.9118800E+02  0.7818609E-02  0.1379984E+01
      -11   -1    0    0    0    0  0.00000000000E+00  0.00000000000E+00  0.35740347158E-01  0.35744000000E-01  0.51099999109E-03 0. -1.
       11   -1    0    0    0    0 -0.00000000000E+00 -0.00000000000E+00 -0.35740347158E-01  0.35744000000E-01  0.51099999109E-03 0.  1.
       22    1    1    2    0    0  0.15416908281E-01 -0.32181791029E-01 -0.19454691221E-02  0.35737005818E-01  0.00000000000E+00 0.  1.
  9000001    1    1    2    0    0 -0.15416908281E-01  0.32181791029E-01  0.19454691221E-02  0.35750994182E-01  0.10000000475E-02 0. -1.
</event>
<event>
 4   0  0.2441219E-02  0.9118800E+02  0.7818609E-02  0.1379984E+01
      -11   -1    0    0    0    0  0.00000000000E+00  0.00000000000E+00  0.35740347158E-01  0.35744000000E-01  0.51099999109E-03 0.  1.
       11   -1    0    0    0    0 -0.00000000000E+00 -0.00000000000E+00 -0.35740347158E-01  0.35744000000E-01  0.51099999109E-03 0. -1.
       22    1    1    2    0    0 -0.36490613806E-02  0.27317344863E-02 -0.35445106328E-01  0.35737005818E-01  0.00000000000E+00 0. -1.
  9000001    1    1    2    0    0  0.36490613806E-02 -0.27317344863E-02  0.35445106328E-01  0.35750994182E-01  0.10000000475E-02 0.  1.
</event>
<event>
 4   0  0.2441219E-02  0.9118800E+02  0.7818609E-02  0.1379984E+01
      -11   -1    0    0    0    0  0.00000000000E+00  0.00000000000E+00  0.35740347158E-01  0.35744000000E-01  0.51099999109E-03 0. -1.
       11   -1    0    0    0    0 -0.00000000000E+00 -0.00000000000E+00 -0.35740347158E-01  0.35744000000E-01  0.51099999109E-03 0.  1.
       22    1    1    2    0    0 -0.44000964482E-02  0.50779073119E-02 -0.35099680817E-01  0.35737005818E-01  0.00000000000E+00 0.  1.
  9000001    1    1    2    0    0  0.44000964482E-02 -0.50779073119E-02  0.35099680817E-01  0.35750994182E-01  0.10000000475E-02 0. -1.
</event>
<event>
 4   0  0.2441219E-02  0.9118800E+02  0.7818609E-02  0.1379984E+01
      -11   -1    0    0    0    0  0.00000000000E+00  0.00000000000E+00  0.35740347158E-01  0.35744000000E-01  0.51099999109E-03 0.  1.
       11   -1    0    0    0    0 -0.00000000000E+00 -0.00000000000E+00 -0.35740347158E-01  0.35744000000E-01  0.51099999109E-03 0. -1.
       22    1    1    2    0    0  0.40165077689E-02 -0.86076702852E-03  0.35500145497E-01  0.35737005818E-01  0.00000000000E+00 0.  1.
  9000001    1    1    2    0    0 -0.40165077689E-02  0.86076702852E-03 -0.35500145497E-01  0.35750994182E-01  0.10000000475E-02 0. -1.
</event>
<event>
 4   0  0.2441219E-02  0.9118800E+02  0.7818609E-02  0.1379984E+01
      -11   -1    0    0    0    0  0.00000000000E+00  0.00000000000E+00  0.35740347158E-01  0.35744000000E-01  0.51099999109E-03 0.  1.
       11   -1    0    0    0    0 -0.00000000000E+00 -0.00000000000E+00 -0.35740347158E-01  0.35744000000E-01  0.51099999109E-03 0. -1.
       22    1    1    2    0    0 -0.25440003858E-03 -0.58344520623E-02  0.35256602710E-01  0.35737005818E-01  0.00000000000E+00 0.  1.
  9000001    1    1    2    0    0  0.25440003858E-03  0.58344520623E-02 -0.35256602710E-01  0.35750994182E-01  0.10000000475E-02 0. -1.
</event>
<event>
 4   0  0.2441219E-02  0.9118800E+02  0.7818609E-02  0.1379984E+01
      -11   -1    0    0    0    0  0.00000000000E+00  0.00000000000E+00  0.35740347158E-01  0.35744000000E-01  0.51099999109E-03 0. -1.
       11   -1    0    0    0    0 -0.00000000000E+00 -0.00000000000E+00 -0.35740347158E-01  0.35744000000E-01  0.51099999109E-03 0.  1.
       22    1    1    2    0    0 -0.28672302379E-02 -0.84570541904E-02  0.34603335245E-01  0.35737005818E-01  0.00000000000E+00 0. -1.
  9000001    1    1    2    0    0  0.28672302379E-02  0.84570541904E-02 -0.34603335245E-01  0.35750994182E-01  0.10000000475E-02 0.  1.
</event>
<event>
 4   0  0.2441219E-02  0.9118800E+02  0.7818609E-02  0.1379984E+01
      -11   -1    0    0    0    0  0.00000000000E+00  0.00000000000E+00  0.35740347158E-01  0.35744000000E-01  0.51099999109E-03 0. -1.
       11   -1    0    0    0    0 -0.00000000000E+00 -0.00000000000E+00 -0.35740347158E-01  0.35744000000E-01  0.51099999109E-03 0.  1.
       22    1    1    2    0    0 -0.18868433809E-01  0.54150858971E-02  0.29862897301E-01  0.35737005818E-01  0.00000000000E+00 0. -1.
  9000001    1    1    2    0    0  0.18868433809E-01 -0.54150858971E-02 -0.29862897301E-01  0.35750994182E-01  0.10000000475E-02 0.  1.
</event>
<event>
 4   0  0.2441219E-02  0.9118800E+02  0.7818609E-02  0.1379984E+01
      -11   -1    0    0    0    0  0.00000000000E+00  0.00000000000E+00  0.35740347158E-01  0.35744000000E-01  0.51099999109E-03 0. -1.
       11   -1    0    0    0    0 -0.00000000000E+00 -0.00000000000E+00 -0.35740347158E-01  0.35744000000E-01  0.51099999109E-03 0.  1.
       22    1    1    2    0    0 -0.11790627947E-01  0.13420965632E-01 -0.30951451646E-01  0.35737005818E-01  0.00000000000E+00 0.  1.
  9000001    1    1    2    0    0  0.11790627947E-01 -0.13420965632E-01  0.30951451646E-01  0.35750994182E-01  0.10000000475E-02 0. -1.
</event>
<event>
 4   0  0.2441219E-02  0.9118800E+02  0.7818609E-02  0.1379984E+01
      -11   -1    0    0    0    0  0.00000000000E+00  0.00000000000E+00  0.35740347158E-01  0.35744000000E-01  0.51099999109E-03 0.  1.
       11   -1    0    0    0    0 -0.00000000000E+00 -0.00000000000E+00 -0.35740347158E-01  0.35744000000E-01  0.51099999109E-03 0. -1.
       22    1    1    2    0    0 -0.27059408062E-02  0.10800986691E-01 -0.33958064664E-01  0.35737005818E-01  0.00000000000E+00 0. -1.
  9000001    1    1    2    0    0  0.27059408062E-02 -0.10800986691E-01  0.33958064664E-01  0.35750994182E-01  0.10000000475E-02 0.  1.
</event>
<event>
 4   0  0.2441219E-02  0.9118800E+02  0.7818609E-02  0.1379984E+01
      -11   -1    0    0    0    0  0.00000000000E+00  0.00000000000E+00  0.35740347158E-01  0.35744000000E-01  0.51099999109E-03 0. -1.
       11   -1    0    0    0    0 -0.00000000000E+00 -0.00000000000E+00 -0.35740347158E-01  0.35744000000E-01  0.51099999109E-03 0.  1.
       22    1    1    2    0    0 -0.21704267551E-01 -0.14274248865E-01  0.24541886120E-01  0.35737005818E-01  0.00000000000E+00 0. -1.
  9000001    1    1    2    0    0  0.21704267551E-01  0.14274248865E-01 -0.24541886120E-01  0.35750994182E-01  0.10000000475E-02 0.  1.
</event>
<event>
 4   0  0.2441219E-02  0.9118800E+02  0.7818609E-02  0.1379984E+01
      -11   -1    0    0    0    0  0.00000000000E+00  0.00000000000E+00  0.35740347158E-01  0.35744000000E-01  0.51099999109E-03 0. -1.
       11   -1    0    0    0    0 -0.00000000000E+00 -0.00000000000E+00 -0.35740347158E-01  0.35744000000E-01  0.51099999109E-03 0.  1.
       22    1    1    2    0    0  0.21898062731E-01  0.27209982511E-01 -0.75647396007E-02  0.35737005818E-01  0.00000000000E+00 0.  1.
  9000001    1    1    2    0    0 -0.21898062731E-01 -0.27209982511E-01  0.75647396007E-02  0.35750994182E-01  0.10000000475E-02 0. -1.
</event>
<event>
 4   0  0.2441219E-02  0.9118800E+02  0.7818609E-02  0.1379984E+01
      -11   -1    0    0    0    0  0.00000000000E+00  0.00000000000E+00  0.35740347158E-01  0.35744000000E-01  0.51099999109E-03 0.  1.
       11   -1    0    0    0    0 -0.00000000000E+00 -0.00000000000E+00 -0.35740347158E-01  0.35744000000E-01  0.51099999109E-03 0. -1.
       22    1    1    2    0    0 -0.31886009009E-01 -0.17759126227E-02  0.16039393651E-01  0.35737005818E-01  0.00000000000E+00 0.  1.
  9000001    1    1    2    0    0  0.31886009009E-01  0.17759126227E-02 -0.16039393651E-01  0.35750994182E-01  0.10000000475E-02 0. -1.
</event>
<event>
 4   0  0.2441219E-02  0.9118800E+02  0.7818609E-02  0.1379984E+01
      -11   -1    0    0    0    0  0.00000000000E+00  0.00000000000E+00  0.35740347158E-01  0.35744000000E-01  0.51099999109E-03 0.  1.
       11   -1    0    0    0    0 -0.00000000000E+00 -0.00000000000E+00 -0.35740347158E-01  0.35744000000E-01  0.51099999109E-03 0. -1.
       22    1    1    2    0    0  0.15729112748E-02  0.27013799991E-02 -0.35600029229E-01  0.35737005818E-01  0.00000000000E+00 0. -1.
  9000001    1    1    2    0    0 -0.15729112748E-02 -0.27013799991E-02  0.35600029229E-01  0.35750994182E-01  0.10000000475E-02 0.  1.
</event>
<event>
 4   0  0.2441219E-02  0.9118800E+02  0.7818609E-02  0.1379984E+01
      -11   -1    0    0    0    0  0.00000000000E+00  0.00000000000E+00  0.35740347158E-01  0.35744000000E-01  0.51099999109E-03 0. -1.
       11   -1    0    0    0    0 -0.00000000000E+00 -0.00000000000E+00 -0.35740347158E-01  0.35744000000E-01  0.51099999109E-03 0.  1.
       22    1    1    2    0    0  0.62805705078E-02  0.25045378699E-01  0.24706619048E-01  0.35737005818E-01  0.00000000000E+00 0. -1.
  9000001    1    1    2    0    0 -0.62805705078E-02 -0.25045378699E-01 -0.24706619048E-01  0.35750994182E-01  0.10000000475E-02 0.  1.
</event>
<event>
 4   0  0.2441219E-02  0.9118800E+02  0.7818609E-02  0.1379984E+01
      -11   -1    0    0    0    0  0.00000000000E+00  0.00000000000E+00  0.35740347158E-01  0.35744000000E-01  0.51099999109E-03 0.  1.
       11   -1    0    0    0    0 -0.00000000000E+00 -0.00000000000E+00 -0.35740347158E-01  0.35744000000E-01  0.51099999109E-03 0. -1.
       22    1    1    2    0    0 -0.32293586139E-01 -0.99010802750E-02 -0.11671610366E-01  0.35737005818E-01  0.00000000000E+00 0.  1.
  9000001    1    1    2    0    0  0.32293586139E-01  0.99010802750E-02  0.11671610366E-01  0.35750994182E-01  0.10000000475E-02 0. -1.
</event>
<event>
 4   0  0.2441219E-02  0.9118800E+02  0.7818609E-02  0.1379984E+01
      -11   -1    0    0    0    0  0.00000000000E+00  0.00000000000E+00  0.35740347158E-01  0.35744000000E-01  0.51099999109E-03 0.  1.
       11   -1    0    0    0    0 -0.00000000000E+00 -0.00000000000E+00 -0.35740347158E-01  0.35744000000E-01  0.51099999109E-03 0. -1.
       22    1    1    2    0    0  0.12848880526E-01 -0.41733328126E-03  0.33344650051E-01  0.35737005818E-01  0.00000000000E+00 0.  1.
  9000001    1    1    2    0    0 -0.12848880526E-01  0.41733328126E-03 -0.33344650051E-01  0.35750994182E-01  0.10000000475E-02 0. -1.
</event>
<event>
 4   0  0.2441219E-02  0.9118800E+02  0.7818609E-02  0.1379984E+01
      -11   -1    0    0    0    0  0.00000000000E+00  0.00000000000E+00  0.35740347158E-01  0.35744000000E-01  0.51099999109E-03 0. -1.
       11   -1    0    0    0    0 -0.00000000000E+00 -0.00000000000E+00 -0.35740347158E-01  0.35744000000E-01  0.51099999109E-03 0.  1.
       22    1    1    2    0    0  0.25927201277E-01 -0.24553043787E-01  0.14359176858E-02  0.35737005818E-01  0.00000000000E+00 0. -1.
  9000001    1    1    2    0    0 -0.25927201277E-01  0.24553043787E-01 -0.14359176858E-02  0.35750994182E-01  0.10000000475E-02 0.  1.
</event>
<event>
 4   0  0.2441219E-02  0.9118800E+02  0.7818609E-02  0.1379984E+01
      -11   -1    0    0    0    0  0.00000000000E+00  0.00000000000E+00  0.35740347158E-01  0.35744000000E-01  0.51099999109E-03 0. -1.
       11   -1    0    0    0    0 -0.00000000000E+00 -0.00000000000E+00 -0.35740347158E-01  0.35744000000E-01  0.51099999109E-03 0.  1.
       22    1    1    2    0    0 -0.31312492295E-01  0.62582816756E-02 -0.16046660763E-01  0.35737005818E-01  0.00000000000E+00 0.  1.
  9000001    1    1    2    0    0  0.31312492295E-01 -0.62582816756E-02  0.16046660763E-01  0.35750994182E-01  0.10000000475E-02 0. -1.
</event>
<event>
 4   0  0.2441219E-02  0.9118800E+02  0.7818609E-02  0.1379984E+01
      -11   -1    0    0    0    0  0.00000000000E+00  0.00000000000E+00  0.35740347158E-01  0.35744000000E-01  0.51099999109E-03 0. -1.
       11   -1    0    0    0    0 -0.00000000000E+00 -0.00000000000E+00 -0.35740347158E-01  0.35744000000E-01  0.51099999109E-03 0.  1.
       22    1    1    2    0    0  0.37290094527E-02  0.53265286809E-02 -0.35140520280E-01  0.35737005818E-01  0.00000000000E+00 0.  1.
  9000001    1    1    2    0    0 -0.37290094527E-02 -0.53265286809E-02  0.35140520280E-01  0.35750994182E-01  0.10000000475E-02 0. -1.
</event>
<event>
 4   0  0.2441219E-02  0.9118800E+02  0.7818609E-02  0.1379984E+01
      -11   -1    0    0    0    0  0.00000000000E+00  0.00000000000E+00  0.35740347158E-01  0.35744000000E-01  0.51099999109E-03 0. -1.
       11   -1    0    0    0    0 -0.00000000000E+00 -0.00000000000E+00 -0.35740347158E-01  0.35744000000E-01  0.51099999109E-03 0.  1.
       22    1    1    2    0    0  0.12456407247E-01 -0.11356777682E-02 -0.33476584942E-01  0.35737005818E-01  0.00000000000E+00 0.  1.
  9000001    1    1    2    0    0 -0.12456407247E-01  0.11356777682E-02  0.33476584942E-01  0.35750994182E-01  0.10000000475E-02 0. -1.
</event>
<event>
 4   0  0.2441219E-02  0.9118800E+02  0.7818609E-02  0.1379984E+01
      -11   -1    0    0    0    0  0.00000000000E+00  0.00000000000E+00  0.35740347158E-01  0.35744000000E-01  0.51099999109E-03 0.  1.
       11   -1    0    0    0    0 -0.00000000000E+00 -0.00000000000E+00 -0.35740347158E-01  0.35744000000E-01  0.51099999109E-03 0. -1.
       22    1    1    2    0    0 -0.15051759377E-02 -0.54232464171E-02 -0.35291024759E-01  0.35737005818E-01  0.00000000000E+00 0. -1.
  9000001    1    1    2    0    0  0.15051759377E-02  0.54232464171E-02  0.35291024759E-01  0.35750994182E-01  0.10000000475E-02 0.  1.
</event>
<event>
 4   0  0.2441219E-02  0.9118800E+02  0.7818609E-02  0.1379984E+01
      -11   -1    0    0    0    0  0.00000000000E+00  0.00000000000E+00  0.35740347158E-01  0.35744000000E-01  0.51099999109E-03 0.  1.
       11   -1    0    0    0    0 -0.00000000000E+00 -0.00000000000E+00 -0.35740347158E-01  0.35744000000E-01  0.51099999109E-03 0. -1.
       22    1    1    2    0    0  0.90075952549E-02  0.55166688926E-02  0.34140345296E-01  0.35737005818E-01  0.00000000000E+00 0.  1.
  9000001    1    1    2    0    0 -0.90075952549E-02 -0.55166688926E-02 -0.34140345296E-01  0.35750994182E-01  0.10000000475E-02 0. -1.
</event>
<event>
 4   0  0.2441219E-02  0.9118800E+02  0.7818609E-02  0.1379984E+01
      -11   -1    0    0    0    0  0.00000000000E+00  0.00000000000E+00  0.35740347158E-01  0.35744000000E-01  0.51099999109E-03 0. -1.
       11   -1    0    0    0    0 -0.00000000000E+00 -0.00000000000E+00 -0.35740347158E-01  0.35744000000E-01  0.51099999109E-03 0.  1.
       22    1    1    2    0    0 -0.11595607785E-01  0.33099267891E-03 -0.33801862505E-01  0.35737005818E-01  0.00000000000E+00 0.  1.
  9000001    1    1    2    0    0  0.11595607785E-01 -0.33099267891E-03  0.33801862505E-01  0.35750994182E-01  0.10000000475E-02 0. -1.
</event>
<event>
 4   0  0.2441219E-02  0.9118800E+02  0.7818609E-02  0.1379984E+01
      -11   -1    0    0    0    0  0.00000000000E+00  0.00000000000E+00  0.35740347158E-01  0.35744000000E-01  0.51099999109E-03 0. -1.
       11   -1    0    0    0    0 -0.00000000000E+00 -0.00000000000E+00 -0.35740347158E-01  0.35744000000E-01  0.51099999109E-03 0.  1.
       22    1    1    2    0    0  0.12226260957E-02  0.17214296913E-01  0.31293877230E-01  0.35737005818E-01  0.00000000000E+00 0. -1.
  9000001    1    1    2    0    0 -0.12226260957E-02 -0.17214296913E-01 -0.31293877230E-01  0.35750994182E-01  0.10000000475E-02 0.  1.
</event>
<event>
 4   0  0.2441219E-02  0.9118800E+02  0.7818609E-02  0.1379984E+01
      -11   -1    0    0    0    0  0.00000000000E+00  0.00000000000E+00  0.35740347158E-01  0.35744000000E-01  0.51099999109E-03 0. -1.
       11   -1    0    0    0    0 -0.00000000000E+00 -0.00000000000E+00 -0.35740347158E-01  0.35744000000E-01  0.51099999109E-03 0.  1.
       22    1    1    2    0    0  0.16219514351E-01  0.22879684355E-01 -0.22149062800E-01  0.35737005818E-01  0.00000000000E+00 0.  1.
  9000001    1    1    2    0    0 -0.16219514351E-01 -0.22879684355E-01  0.22149062800E-01  0.35750994182E-01  0.10000000475E-02 0. -1.
</event>
<event>
 4   0  0.2441219E-02  0.9118800E+02  0.7818609E-02  0.1379984E+01
      -11   -1    0    0    0    0  0.00000000000E+00  0.00000000000E+00  0.35740347158E-01  0.35744000000E-01  0.51099999109E-03 0.  1.
       11   -1    0    0    0    0 -0.00000000000E+00 -0.00000000000E+00 -0.35740347158E-01  0.35744000000E-01  0.51099999109E-03 0. -1.
       22    1    1    2    0    0 -0.40742938709E-02 -0.33984793505E-01 -0.10274605818E-01  0.35737005818E-01  0.00000000000E+00 0. -1.
  9000001    1    1    2    0    0  0.40742938709E-02  0.33984793505E-01  0.10274605818E-01  0.35750994182E-01  0.10000000475E-02 0.  1.
</event>
<event>
 4   0  0.2441219E-02  0.9118800E+02  0.7818609E-02  0.1379984E+01
      -11   -1    0    0    0    0  0.00000000000E+00  0.00000000000E+00  0.35740347158E-01  0.35744000000E-01  0.51099999109E-03 0.  1.
       11   -1    0    0    0    0 -0.00000000000E+00 -0.00000000000E+00 -0.35740347158E-01  0.35744000000E-01  0.51099999109E-03 0. -1.
       22    1    1    2    0    0 -0.60190244275E-03  0.56091900105E-02 -0.35288925823E-01  0.35737005818E-01  0.00000000000E+00 0. -1.
  9000001    1    1    2    0    0  0.60190244275E-03 -0.56091900105E-02  0.35288925823E-01  0.35750994182E-01  0.10000000475E-02 0.  1.
</event>
<event>
 4   0  0.2441219E-02  0.9118800E+02  0.7818609E-02  0.1379984E+01
      -11   -1    0    0    0    0  0.00000000000E+00  0.00000000000E+00  0.35740347158E-01  0.35744000000E-01  0.51099999109E-03 0.  1.
       11   -1    0    0    0    0 -0.00000000000E+00 -0.00000000000E+00 -0.35740347158E-01  0.35744000000E-01  0.51099999109E-03 0. -1.
       22    1    1    2    0    0 -0.30786786822E-01 -0.21970405402E-02 -0.18013338251E-01  0.35737005818E-01  0.00000000000E+00 0. -1.
  9000001    1    1    2    0    0  0.30786786822E-01  0.21970405402E-02  0.18013338251E-01  0.35750994182E-01  0.10000000475E-02 0.  1.
</event>
<event>
 4   0  0.2441219E-02  0.9118800E+02  0.7818609E-02  0.1379984E+01
      -11   -1    0    0    0    0  0.00000000000E+00  0.00000000000E+00  0.35740347158E-01  0.35744000000E-01  0.51099999109E-03 0. -1.
       11   -1    0    0    0    0 -0.00000000000E+00 -0.00000000000E+00 -0.35740347158E-01  0.35744000000E-01  0.51099999109E-03 0.  1.
       22    1    1    2    0    0  0.43767843296E-02 -0.26448653009E-02 -0.35369224353E-01  0.35737005818E-01  0.00000000000E+00 0.  1.
  9000001    1    1    2    0    0 -0.43767843296E-02  0.26448653009E-02  0.35369224353E-01  0.35750994182E-01  0.10000000475E-02 0. -1.
</event>
<event>
 4   0  0.2441219E-02  0.9118800E+02  0.7818609E-02  0.1379984E+01
      -11   -1    0    0    0    0  0.00000000000E+00  0.00000000000E+00  0.35740347158E-01  0.35744000000E-01  0.51099999109E-03 0. -1.
       11   -1    0    0    0    0 -0.00000000000E+00 -0.00000000000E+00 -0.35740347158E-01  0.35744000000E-01  0.51099999109E-03 0.  1.
       22    1    1    2    0    0 -0.24378277739E-01  0.29999488525E-02  0.25958302453E-01  0.35737005818E-01  0.00000000000E+00 0. -1.
  9000001    1    1    2    0    0  0.24378277739E-01 -0.29999488525E-02 -0.25958302453E-01  0.35750994182E-01  0.10000000475E-02 0.  1.
</event>
<event>
 4   0  0.2441219E-02  0.9118800E+02  0.7818609E-02  0.1379984E+01
      -11   -1    0    0    0    0  0.00000000000E+00  0.00000000000E+00  0.35740347158E-01  0.35744000000E-01  0.51099999109E-03 0.  1.
       11   -1    0    0    0    0 -0.00000000000E+00 -0.00000000000E+00 -0.35740347158E-01  0.35744000000E-01  0.51099999109E-03 0. -1.
       22    1    1    2    0    0 -0.88083838701E-02 -0.13996487147E-01 -0.31680345737E-01  0.35737005818E-01  0.00000000000E+00 0. -1.
  9000001    1    1    2    0    0  0.88083838701E-02  0.13996487147E-01  0.31680345737E-01  0.35750994182E-01  0.10000000475E-02 0.  1.
</event>
<event>
 4   0  0.2441219E-02  0.9118800E+02  0.7818609E-02  0.1379984E+01
      -11   -1    0    0    0    0  0.00000000000E+00  0.00000000000E+00  0.35740347158E-01  0.35744000000E-01  0.51099999109E-03 0.  1.
       11   -1    0    0    0    0 -0.00000000000E+00 -0.00000000000E+00 -0.35740347158E-01  0.35744000000E-01  0.51099999109E-03 0. -1.
       22    1    1    2    0    0  0.36174293085E-02 -0.88633821868E-02  0.34430919916E-01  0.35737005818E-01  0.00000000000E+00 0.  1.
  9000001    1    1    2    0    0 -0.36174293085E-02  0.88633821868E-02 -0.34430919916E-01  0.35750994182E-01  0.10000000475E-02 0. -1.
</event>
<event>
 4   0  0.2441219E-02  0.9118800E+02  0.7818609E-02  0.1379984E+01
      -11   -1    0    0    0    0  0.00000000000E+00  0.00000000000E+00  0.35740347158E-01  0.35744000000E-01  0.51099999109E-03 0. -1.
       11   -1    0    0    0    0 -0.00000000000E+00 -0.00000000000E+00 -0.35740347158E-01  0.35744000000E-01  0.51099999109E-03 0.  1.
       22    1    1    2    0    0  0.12532536189E-01  0.11173305677E-01  0.31547208463E-01  0.35737005818E-01  0.00000000000E+00 0. -1.
  9000001    1    1    2    0    0 -0.12532536189E-01 -0.11173305677E-01 -0.31547208463E-01  0.35750994182E-01  0.10000000475E-02 0.  1.
</event>
<event>
 4   0  0.2441219E-02  0.9118800E+02  0.7818609E-02  0.1379984E+01
      -11   -1    0    0    0    0  0.00000000000E+00  0.00000000000E+00  0.35740347158E-01  0.35744000000E-01  0.51099999109E-03 0. -1.
       11   -1    0    0    0    0 -0.00000000000E+00 -0.00000000000E+00 -0.35740347158E-01  0.35744000000E-01  0.51099999109E-03 0.  1.
       22    1    1    2    0    0 -0.10259432457E-01 -0.49911109554E-02  0.33866893007E-01  0.35737005818E-01  0.00000000000E+00 0. -1.
  9000001    1    1    2    0    0  0.10259432457E-01  0.49911109554E-02 -0.33866893007E-01  0.35750994182E-01  0.10000000475E-02 0.  1.
</event>
<event>
 4   0  0.2441219E-02  0.9118800E+02  0.7818609E-02  0.1379984E+01
      -11   -1    0    0    0    0  0.00000000000E+00  0.00000000000E+00  0.35740347158E-01  0.35744000000E-01  0.51099999109E-03 0. -1.
       11   -1    0    0    0    0 -0.00000000000E+00 -0.00000000000E+00 -0.35740347158E-01  0.35744000000E-01  0.51099999109E-03 0.  1.
       22    1    1    2    0    0  0.31659821875E-02 -0.13599355376E-02  0.35570503468E-01  0.35737005818E-01  0.00000000000E+00 0. -1.
  9000001    1    1    2    0    0 -0.31659821875E-02  0.13599355376E-02 -0.35570503468E-01  0.35750994182E-01  0.10000000475E-02 0.  1.
</event>
<event>
 4   0  0.2441219E-02  0.9118800E+02  0.7818609E-02  0.1379984E+01
      -11   -1    0    0    0    0  0.00000000000E+00  0.00000000000E+00  0.35740347158E-01  0.35744000000E-01  0.51099999109E-03 0.  1.
       11   -1    0    0    0    0 -0.00000000000E+00 -0.00000000000E+00 -0.35740347158E-01  0.35744000000E-01  0.51099999109E-03 0. -1.
       22    1    1    2    0    0  0.21971176167E-01  0.19643483618E-01 -0.20212237730E-01  0.35737005818E-01  0.00000000000E+00 0. -1.
  9000001    1    1    2    0    0 -0.21971176167E-01 -0.19643483618E-01  0.20212237730E-01  0.35750994182E-01  0.10000000475E-02 0.  1.
</event>
<event>
 4   0  0.2441219E-02  0.9118800E+02  0.7818609E-02  0.1379984E+01
      -11   -1    0    0    0    0  0.00000000000E+00  0.00000000000E+00  0.35740347158E-01  0.35744000000E-01  0.51099999109E-03 0.  1.
       11   -1    0    0    0    0 -0.00000000000E+00 -0.00000000000E+00 -0.35740347158E-01  0.35744000000E-01  0.51099999109E-03 0. -1.
       22    1    1    2    0    0  0.32592478748E-02 -0.49858989050E-02 -0.35237078487E-01  0.35737005818E-01  0.00000000000E+00 0. -1.
  9000001    1    1    2    0    0 -0.32592478748E-02  0.49858989050E-02  0.35237078487E-01  0.35750994182E-01  0.10000000475E-02 0.  1.
</event>
<event>
 4   0  0.2441219E-02  0.9118800E+02  0.7818609E-02  0.1379984E+01
      -11   -1    0    0    0    0  0.00000000000E+00  0.00000000000E+00  0.35740347158E-01  0.35744000000E-01  0.51099999109E-03 0. -1.
       11   -1    0    0    0    0 -0.00000000000E+00 -0.00000000000E+00 -0.35740347158E-01  0.35744000000E-01  0.51099999109E-03 0.  1.
       22    1    1    2    0    0 -0.49504524609E-02 -0.17217323673E-02 -0.35350562131E-01  0.35737005818E-01  0.00000000000E+00 0.  1.
  9000001    1    1    2    0    0  0.49504524609E-02  0.17217323673E-02  0.35350562131E-01  0.35750994182E-01  0.10000000475E-02 0. -1.
</event>
<event>
 4   0  0.2441219E-02  0.9118800E+02  0.7818609E-02  0.1379984E+01
      -11   -1    0    0    0    0  0.00000000000E+00  0.00000000000E+00  0.35740347158E-01  0.35744000000E-01  0.51099999109E-03 0.  1.
       11   -1    0    0    0    0 -0.00000000000E+00 -0.00000000000E+00 -0.35740347158E-01  0.35744000000E-01  0.51099999109E-03 0. -1.
       22    1    1    2    0    0  0.14766050010E-01  0.90178006683E-02 -0.31269419935E-01  0.35737005818E-01  0.00000000000E+00 0. -1.
  9000001    1    1    2    0    0 -0.14766050010E-01 -0.90178006683E-02  0.31269419935E-01  0.35750994182E-01  0.10000000475E-02 0.  1.
</event>
<event>
 4   0  0.2441219E-02  0.9118800E+02  0.7818609E-02  0.1379984E+01
      -11   -1    0    0    0    0  0.00000000000E+00  0.00000000000E+00  0.35740347158E-01  0.35744000000E-01  0.51099999109E-03 0. -1.
       11   -1    0    0    0    0 -0.00000000000E+00 -0.00000000000E+00 -0.35740347158E-01  0.35744000000E-01  0.51099999109E-03 0.  1.
       22    1    1    2    0    0 -0.23570502445E-01  0.19806564089E-01  0.18145661144E-01  0.35737005818E-01  0.00000000000E+00 0. -1.
  9000001    1    1    2    0    0  0.23570502445E-01 -0.19806564089E-01 -0.18145661144E-01  0.35750994182E-01  0.10000000475E-02 0.  1.
</event>
<event>
 4   0  0.2441219E-02  0.9118800E+02  0.7818609E-02  0.1379984E+01
      -11   -1    0    0    0    0  0.00000000000E+00  0.00000000000E+00  0.35740347158E-01  0.35744000000E-01  0.51099999109E-03 0. -1.
       11   -1    0    0    0    0 -0.00000000000E+00 -0.00000000000E+00 -0.35740347158E-01  0.35744000000E-01  0.51099999109E-03 0.  1.
       22    1    1    2    0    0 -0.49807364425E-02  0.21778366521E-02 -0.35321139235E-01  0.35737005818E-01  0.00000000000E+00 0.  1.
  9000001    1    1    2    0    0  0.49807364425E-02 -0.21778366521E-02  0.35321139235E-01  0.35750994182E-01  0.10000000475E-02 0. -1.
</event>
<event>
 4   0  0.2441219E-02  0.9118800E+02  0.7818609E-02  0.1379984E+01
      -11   -1    0    0    0    0  0.00000000000E+00  0.00000000000E+00  0.35740347158E-01  0.35744000000E-01  0.51099999109E-03 0. -1.
       11   -1    0    0    0    0 -0.00000000000E+00 -0.00000000000E+00 -0.35740347158E-01  0.35744000000E-01  0.51099999109E-03 0.  1.
       22    1    1    2    0    0 -0.19395232265E-01 -0.12650483097E-02  0.29989301476E-01  0.35737005818E-01  0.00000000000E+00 0. -1.
  9000001    1    1    2    0    0  0.19395232265E-01  0.12650483097E-02 -0.29989301476E-01  0.35750994182E-01  0.10000000475E-02 0.  1.
</event>
<event>
 4   0  0.2441219E-02  0.9118800E+02  0.7818609E-02  0.1379984E+01
      -11   -1    0    0    0    0  0.00000000000E+00  0.00000000000E+00  0.35740347158E-01  0.35744000000E-01  0.51099999109E-03 0. -1.
       11   -1    0    0    0    0 -0.00000000000E+00 -0.00000000000E+00 -0.35740347158E-01  0.35744000000E-01  0.51099999109E-03 0.  1.
       22    1    1    2    0    0 -0.21158786167E-01 -0.22139434406E-01  0.18419685041E-01  0.35737005818E-01  0.00000000000E+00 0. -1.
  9000001    1    1    2    0    0  0.21158786167E-01  0.22139434406E-01 -0.18419685041E-01  0.35750994182E-01  0.10000000475E-02 0.  1.
</event>
<event>
 4   0  0.2441219E-02  0.9118800E+02  0.7818609E-02  0.1379984E+01
      -11   -1    0    0    0    0  0.00000000000E+00  0.00000000000E+00  0.35740347158E-01  0.35744000000E-01  0.51099999109E-03 0.  1.
       11   -1    0    0    0    0 -0.00000000000E+00 -0.00000000000E+00 -0.35740347158E-01  0.35744000000E-01  0.51099999109E-03 0. -1.
       22    1    1    2    0    0 -0.66808971113E-02  0.57964565177E-02  0.34625139574E-01  0.35737005818E-01  0.00000000000E+00 0.  1.
  9000001    1    1    2    0    0  0.66808971113E-02 -0.57964565177E-02 -0.34625139574E-01  0.35750994182E-01  0.10000000475E-02 0. -1.
</event>
<event>
 4   0  0.2441219E-02  0.9118800E+02  0.7818609E-02  0.1379984E+01
      -11   -1    0    0    0    0  0.00000000000E+00  0.00000000000E+00  0.35740347158E-01  0.35744000000E-01  0.51099999109E-03 0.  1.
       11   -1    0    0    0    0 -0.00000000000E+00 -0.00000000000E+00 -0.35740347158E-01  0.35744000000E-01  0.51099999109E-03 0. -1.
       22    1    1    2    0    0  0.18674681058E-01 -0.21137288148E-01  0.21945498901E-01  0.35737005818E-01  0.00000000000E+00 0.  1.
  9000001    1    1    2    0    0 -0.18674681058E-01  0.21137288148E-01 -0.21945498901E-01  0.35750994182E-01  0.10000000475E-02 0. -1.
</event>
<event>
 4   0  0.2441219E-02  0.9118800E+02  0.7818609E-02  0.1379984E+01
      -11   -1    0    0    0    0  0.00000000000E+00  0.00000000000E+00  0.35740347158E-01  0.35744000000E-01  0.51099999109E-03 0.  1.
       11   -1    0    0    0    0 -0.00000000000E+00 -0.00000000000E+00 -0.35740347158E-01  0.35744000000E-01  0.51099999109E-03 0. -1.
       22    1    1    2    0    0  0.66808147012E-02  0.78548094917E-02  0.34216987998E-01  0.35737005818E-01  0.00000000000E+00 0.  1.
  9000001    1    1    2    0    0 -0.66808147012E-02 -0.78548094917E-02 -0.34216987998E-01  0.35750994182E-01  0.10000000475E-02 0. -1.
</event>
<event>
 4   0  0.2441219E-02  0.9118800E+02  0.7818609E-02  0.1379984E+01
      -11   -1    0    0    0    0  0.00000000000E+00  0.00000000000E+00  0.35740347158E-01  0.35744000000E-01  0.51099999109E-03 0.  1.
       11   -1    0    0    0    0 -0.00000000000E+00 -0.00000000000E+00 -0.35740347158E-01  0.35744000000E-01  0.51099999109E-03 0. -1.
       22    1    1    2    0    0 -0.13966712467E-02  0.44010466477E-02  0.35437461573E-01  0.35737005818E-01  0.00000000000E+00 0.  1.
  9000001    1    1    2    0    0  0.13966712467E-02 -0.44010466477E-02 -0.35437461573E-01  0.35750994182E-01  0.10000000475E-02 0. -1.
</event>
<event>
 4   0  0.2441219E-02  0.9118800E+02  0.7818609E-02  0.1379984E+01
      -11   -1    0    0    0    0  0.00000000000E+00  0.00000000000E+00  0.35740347158E-01  0.35744000000E-01  0.51099999109E-03 0. -1.
       11   -1    0    0    0    0 -0.00000000000E+00 -0.00000000000E+00 -0.35740347158E-01  0.35744000000E-01  0.51099999109E-03 0.  1.
       22    1    1    2    0    0 -0.20614859533E-01 -0.24731837182E-02  0.29086844339E-01  0.35737005818E-01  0.00000000000E+00 0. -1.
  9000001    1    1    2    0    0  0.20614859533E-01  0.24731837182E-02 -0.29086844339E-01  0.35750994182E-01  0.10000000475E-02 0.  1.
</event>
<event>
 4   0  0.2441219E-02  0.9118800E+02  0.7818609E-02  0.1379984E+01
      -11   -1    0    0    0    0  0.00000000000E+00  0.00000000000E+00  0.35740347158E-01  0.35744000000E-01  0.51099999109E-03 0. -1.
       11   -1    0    0    0    0 -0.00000000000E+00 -0.00000000000E+00 -0.35740347158E-01  0.35744000000E-01  0.51099999109E-03 0.  1.
       22    1    1    2    0    0  0.18862273466E-01  0.72723930885E-03 -0.30345005315E-01  0.35737005818E-01  0.00000000000E+00 0.  1.
  9000001    1    1    2    0    0 -0.18862273466E-01 -0.72723930885E-03  0.30345005315E-01  0.35750994182E-01  0.10000000475E-02 0. -1.
</event>
<event>
 4   0  0.2441219E-02  0.9118800E+02  0.7818609E-02  0.1379984E+01
      -11   -1    0    0    0    0  0.00000000000E+00  0.00000000000E+00  0.35740347158E-01  0.35744000000E-01  0.51099999109E-03 0.  1.
       11   -1    0    0    0    0 -0.00000000000E+00 -0.00000000000E+00 -0.35740347158E-01  0.35744000000E-01  0.51099999109E-03 0. -1.
       22    1    1    2    0    0 -0.13182027063E-01  0.11645596535E-01  0.31108645563E-01  0.35737005818E-01  0.00000000000E+00 0.  1.
  9000001    1    1    2    0    0  0.13182027063E-01 -0.11645596535E-01 -0.31108645563E-01  0.35750994182E-01  0.10000000475E-02 0. -1.
</event>
<event>
 4   0  0.2441219E-02  0.9118800E+02  0.7818609E-02  0.1379984E+01
      -11   -1    0    0    0    0  0.00000000000E+00  0.00000000000E+00  0.35740347158E-01  0.35744000000E-01  0.51099999109E-03 0. -1.
       11   -1    0    0    0    0 -0.00000000000E+00 -0.00000000000E+00 -0.35740347158E-01  0.35744000000E-01  0.51099999109E-03 0.  1.
       22    1    1    2    0    0  0.20756492242E-01  0.22242134885E-01 -0.18750707999E-01  0.35737005818E-01  0.00000000000E+00 0.  1.
  9000001    1    1    2    0    0 -0.20756492242E-01 -0.22242134885E-01  0.18750707999E-01  0.35750994182E-01  0.10000000475E-02 0. -1.
</event>
<event>
 4   0  0.2441219E-02  0.9118800E+02  0.7818609E-02  0.1379984E+01
      -11   -1    0    0    0    0  0.00000000000E+00  0.00000000000E+00  0.35740347158E-01  0.35744000000E-01  0.51099999109E-03 0.  1.
       11   -1    0    0    0    0 -0.00000000000E+00 -0.00000000000E+00 -0.35740347158E-01  0.35744000000E-01  0.51099999109E-03 0. -1.
       22    1    1    2    0    0 -0.35379691384E-02 -0.10296373055E-01 -0.34038229407E-01  0.35737005818E-01  0.00000000000E+00 0. -1.
  9000001    1    1    2    0    0  0.35379691384E-02  0.10296373055E-01  0.34038229407E-01  0.35750994182E-01  0.10000000475E-02 0.  1.
</event>
<event>
 4   0  0.2441219E-02  0.9118800E+02  0.7818609E-02  0.1379984E+01
      -11   -1    0    0    0    0  0.00000000000E+00  0.00000000000E+00  0.35740347158E-01  0.35744000000E-01  0.51099999109E-03 0. -1.
       11   -1    0    0    0    0 -0.00000000000E+00 -0.00000000000E+00 -0.35740347158E-01  0.35744000000E-01  0.51099999109E-03 0.  1.
       22    1    1    2    0    0  0.12537006500E-01 -0.32912795408E-01 -0.60584611359E-02  0.35737005818E-01  0.00000000000E+00 0.  1.
  9000001    1    1    2    0    0 -0.12537006500E-01  0.32912795408E-01  0.60584611359E-02  0.35750994182E-01  0.10000000475E-02 0. -1.
</event>
<event>
 4   0  0.2441219E-02  0.9118800E+02  0.7818609E-02  0.1379984E+01
      -11   -1    0    0    0    0  0.00000000000E+00  0.00000000000E+00  0.35740347158E-01  0.35744000000E-01  0.51099999109E-03 0. -1.
       11   -1    0    0    0    0 -0.00000000000E+00 -0.00000000000E+00 -0.35740347158E-01  0.35744000000E-01  0.51099999109E-03 0.  1.
       22    1    1    2    0    0  0.11534938122E-02  0.89056716747E-02 -0.34590346181E-01  0.35737005818E-01  0.00000000000E+00 0.  1.
  9000001    1    1    2    0    0 -0.11534938122E-02 -0.89056716747E-02  0.34590346181E-01  0.35750994182E-01  0.10000000475E-02 0. -1.
</event>
<event>
 4   0  0.2441219E-02  0.9118800E+02  0.7818609E-02  0.1379984E+01
      -11   -1    0    0    0    0  0.00000000000E+00  0.00000000000E+00  0.35740347158E-01  0.35744000000E-01  0.51099999109E-03 0.  1.
       11   -1    0    0    0    0 -0.00000000000E+00 -0.00000000000E+00 -0.35740347158E-01  0.35744000000E-01  0.51099999109E-03 0. -1.
       22    1    1    2    0    0  0.17448261803E-01  0.78126360417E-02 -0.30193616262E-01  0.35737005818E-01  0.00000000000E+00 0. -1.
  9000001    1    1    2    0    0 -0.17448261803E-01 -0.78126360417E-02  0.30193616262E-01  0.35750994182E-01  0.10000000475E-02 0.  1.
</event>
<event>
 4   0  0.2441219E-02  0.9118800E+02  0.7818609E-02  0.1379984E+01
      -11   -1    0    0    0    0  0.00000000000E+00  0.00000000000E+00  0.35740347158E-01  0.35744000000E-01  0.51099999109E-03 0.  1.
       11   -1    0    0    0    0 -0.00000000000E+00 -0.00000000000E+00 -0.35740347158E-01  0.35744000000E-01  0.51099999109E-03 0. -1.
       22    1    1    2    0    0 -0.24251038789E-03 -0.41565825792E-02 -0.35493627524E-01  0.35737005818E-01  0.00000000000E+00 0. -1.
  9000001    1    1    2    0    0  0.24251038789E-03  0.41565825792E-02  0.35493627524E-01  0.35750994182E-01  0.10000000475E-02 0.  1.
</event>
<event>
 4   0  0.2441219E-02  0.9118800E+02  0.7818609E-02  0.1379984E+01
      -11   -1    0    0    0    0  0.00000000000E+00  0.00000000000E+00  0.35740347158E-01  0.35744000000E-01  0.51099999109E-03 0.  1.
       11   -1    0    0    0    0 -0.00000000000E+00 -0.00000000000E+00 -0.35740347158E-01  0.35744000000E-01  0.51099999109E-03 0. -1.
       22    1    1    2    0    0  0.58616204207E-02 -0.46202418282E-03  0.35249986164E-01  0.35737005818E-01  0.00000000000E+00 0.  1.
  9000001    1    1    2    0    0 -0.58616204207E-02  0.46202418282E-03 -0.35249986164E-01  0.35750994182E-01  0.10000000475E-02 0. -1.
</event>
<event>
 4   0  0.2441219E-02  0.9118800E+02  0.7818609E-02  0.1379984E+01
      -11   -1    0    0    0    0  0.00000000000E+00  0.00000000000E+00  0.35740347158E-01  0.35744000000E-01  0.51099999109E-03 0. -1.
       11   -1    0    0    0    0 -0.00000000000E+00 -0.00000000000E+00 -0.35740347158E-01  0.35744000000E-01  0.51099999109E-03 0.  1.
       22    1    1    2    0    0  0.15169529367E-02  0.32184364535E-02  0.35559444673E-01  0.35737005818E-01  0.00000000000E+00 0. -1.
  9000001    1    1    2    0    0 -0.15169529367E-02 -0.32184364535E-02 -0.35559444673E-01  0.35750994182E-01  0.10000000475E-02 0.  1.
</event>
<event>
 4   0  0.2441219E-02  0.9118800E+02  0.7818609E-02  0.1379984E+01
      -11   -1    0    0    0    0  0.00000000000E+00  0.00000000000E+00  0.35740347158E-01  0.35744000000E-01  0.51099999109E-03 0. -1.
       11   -1    0    0    0    0 -0.00000000000E+00 -0.00000000000E+00 -0.35740347158E-01  0.35744000000E-01  0.51099999109E-03 0.  1.
       22    1    1    2    0    0 -0.11849114114E-02  0.38897818625E-02 -0.35504917503E-01  0.35737005818E-01  0.00000000000E+00 0.  1.
  9000001    1    1    2    0    0  0.11849114114E-02 -0.38897818625E-02  0.35504917503E-01  0.35750994182E-01  0.10000000475E-02 0. -1.
</event>
<event>
 4   0  0.2441219E-02  0.9118800E+02  0.7818609E-02  0.1379984E+01
      -11   -1    0    0    0    0  0.00000000000E+00  0.00000000000E+00  0.35740347158E-01  0.35744000000E-01  0.51099999109E-03 0. -1.
       11   -1    0    0    0    0 -0.00000000000E+00 -0.00000000000E+00 -0.35740347158E-01  0.35744000000E-01  0.51099999109E-03 0.  1.
       22    1    1    2    0    0  0.50441357399E-02  0.92911436468E-02  0.34137441750E-01  0.35737005818E-01  0.00000000000E+00 0. -1.
  9000001    1    1    2    0    0 -0.50441357399E-02 -0.92911436468E-02 -0.34137441750E-01  0.35750994182E-01  0.10000000475E-02 0.  1.
</event>
<event>
 4   0  0.2441219E-02  0.9118800E+02  0.7818609E-02  0.1379984E+01
      -11   -1    0    0    0    0  0.00000000000E+00  0.00000000000E+00  0.35740347158E-01  0.35744000000E-01  0.51099999109E-03 0. -1.
       11   -1    0    0    0    0 -0.00000000000E+00 -0.00000000000E+00 -0.35740347158E-01  0.35744000000E-01  0.51099999109E-03 0.  1.
       22    1    1    2    0    0  0.67504432288E-02  0.20863205400E-02 -0.35031590996E-01  0.35737005818E-01  0.00000000000E+00 0.  1.
  9000001    1    1    2    0    0 -0.67504432288E-02 -0.20863205400E-02  0.35031590996E-01  0.35750994182E-01  0.10000000475E-02 0. -1.
</event>
<event>
 4   0  0.2441219E-02  0.9118800E+02  0.7818609E-02  0.1379984E+01
      -11   -1    0    0    0    0  0.00000000000E+00  0.00000000000E+00  0.35740347158E-01  0.35744000000E-01  0.51099999109E-03 0.  1.
       11   -1    0    0    0    0 -0.00000000000E+00 -0.00000000000E+00 -0.35740347158E-01  0.35744000000E-01  0.51099999109E-03 0. -1.
       22    1    1    2    0    0 -0.20375128853E-01 -0.14496976623E-01 -0.25530871076E-01  0.35737005818E-01  0.00000000000E+00 0. -1.
  9000001    1    1    2    0    0  0.20375128853E-01  0.14496976623E-01  0.25530871076E-01  0.35750994182E-01  0.10000000475E-02 0.  1.
</event>
<event>
 4   0  0.2441219E-02  0.9118800E+02  0.7818609E-02  0.1379984E+01
      -11   -1    0    0    0    0  0.00000000000E+00  0.00000000000E+00  0.35740347158E-01  0.35744000000E-01  0.51099999109E-03 0. -1.
       11   -1    0    0    0    0 -0.00000000000E+00 -0.00000000000E+00 -0.35740347158E-01  0.35744000000E-01  0.51099999109E-03 0.  1.
       22    1    1    2    0    0 -0.24192265637E-01 -0.98894372919E-02 -0.24373487610E-01  0.35737005818E-01  0.00000000000E+00 0.  1.
  9000001    1    1    2    0    0  0.24192265637E-01  0.98894372919E-02  0.24373487610E-01  0.35750994182E-01  0.10000000475E-02 0. -1.
</event>
<event>
 4   0  0.2441219E-02  0.9118800E+02  0.7818609E-02  0.1379984E+01
      -11   -1    0    0    0    0  0.00000000000E+00  0.00000000000E+00  0.35740347158E-01  0.35744000000E-01  0.51099999109E-03 0.  1.
       11   -1    0    0    0    0 -0.00000000000E+00 -0.00000000000E+00 -0.35740347158E-01  0.35744000000E-01  0.51099999109E-03 0. -1.
       22    1    1    2    0    0  0.21090964564E-01  0.17673658690E-01 -0.22802337318E-01  0.35737005818E-01  0.00000000000E+00 0. -1.
  9000001    1    1    2    0    0 -0.21090964564E-01 -0.17673658690E-01  0.22802337318E-01  0.35750994182E-01  0.10000000475E-02 0.  1.
</event>
<event>
 4   0  0.2441219E-02  0.9118800E+02  0.7818609E-02  0.1379984E+01
      -11   -1    0    0    0    0  0.00000000000E+00  0.00000000000E+00  0.35740347158E-01  0.35744000000E-01  0.51099999109E-03 0.  1.
       11   -1    0    0    0    0 -0.00000000000E+00 -0.00000000000E+00 -0.35740347158E-01  0.35744000000E-01  0.51099999109E-03 0. -1.
       22    1    1    2    0    0 -0.40185369074E-02  0.47219803335E-02  0.35194997482E-01  0.35737005818E-01  0.00000000000E+00 0.  1.
  9000001    1    1    2    0    0  0.40185369074E-02 -0.47219803335E-02 -0.35194997482E-01  0.35750994182E-01  0.10000000475E-02 0. -1.
</event>
<event>
 4   0  0.2441219E-02  0.9118800E+02  0.7818609E-02  0.1379984E+01
      -11   -1    0    0    0    0  0.00000000000E+00  0.00000000000E+00  0.35740347158E-01  0.35744000000E-01  0.51099999109E-03 0.  1.
       11   -1    0    0    0    0 -0.00000000000E+00 -0.00000000000E+00 -0.35740347158E-01  0.35744000000E-01  0.51099999109E-03 0. -1.
       22    1    1    2    0    0  0.50991212200E-02  0.16650682752E-01 -0.31207167631E-01  0.35737005818E-01  0.00000000000E+00 0. -1.
  9000001    1    1    2    0    0 -0.50991212200E-02 -0.16650682752E-01  0.31207167631E-01  0.35750994182E-01  0.10000000475E-02 0.  1.
</event>
<event>
 4   0  0.2441219E-02  0.9118800E+02  0.7818609E-02  0.1379984E+01
      -11   -1    0    0    0    0  0.00000000000E+00  0.00000000000E+00  0.35740347158E-01  0.35744000000E-01  0.51099999109E-03 0. -1.
       11   -1    0    0    0    0 -0.00000000000E+00 -0.00000000000E+00 -0.35740347158E-01  0.35744000000E-01  0.51099999109E-03 0.  1.
       22    1    1    2    0    0  0.14802333794E-01  0.10855263780E-01 -0.30662481103E-01  0.35737005818E-01  0.00000000000E+00 0.  1.
  9000001    1    1    2    0    0 -0.14802333794E-01 -0.10855263780E-01  0.30662481103E-01  0.35750994182E-01  0.10000000475E-02 0. -1.
</event>
<event>
 4   0  0.2441219E-02  0.9118800E+02  0.7818609E-02  0.1379984E+01
      -11   -1    0    0    0    0  0.00000000000E+00  0.00000000000E+00  0.35740347158E-01  0.35744000000E-01  0.51099999109E-03 0. -1.
       11   -1    0    0    0    0 -0.00000000000E+00 -0.00000000000E+00 -0.35740347158E-01  0.35744000000E-01  0.51099999109E-03 0.  1.
       22    1    1    2    0    0 -0.27169992315E-01 -0.72970176590E-02 -0.22038117790E-01  0.35737005818E-01  0.00000000000E+00 0.  1.
  9000001    1    1    2    0    0  0.27169992315E-01  0.72970176590E-02  0.22038117790E-01  0.35750994182E-01  0.10000000475E-02 0. -1.
</event>
<event>
 4   0  0.2441219E-02  0.9118800E+02  0.7818609E-02  0.1379984E+01
      -11   -1    0    0    0    0  0.00000000000E+00  0.00000000000E+00  0.35740347158E-01  0.35744000000E-01  0.51099999109E-03 0. -1.
       11   -1    0    0    0    0 -0.00000000000E+00 -0.00000000000E+00 -0.35740347158E-01  0.35744000000E-01  0.51099999109E-03 0.  1.
       22    1    1    2    0    0 -0.21743485662E-02 -0.47196013145E-02 -0.35357193845E-01  0.35737005818E-01  0.00000000000E+00 0.  1.
  9000001    1    1    2    0    0  0.21743485662E-02  0.47196013145E-02  0.35357193845E-01  0.35750994182E-01  0.10000000475E-02 0. -1.
</event>
<event>
 4   0  0.2441219E-02  0.9118800E+02  0.7818609E-02  0.1379984E+01
      -11   -1    0    0    0    0  0.00000000000E+00  0.00000000000E+00  0.35740347158E-01  0.35744000000E-01  0.51099999109E-03 0.  1.
       11   -1    0    0    0    0 -0.00000000000E+00 -0.00000000000E+00 -0.35740347158E-01  0.35744000000E-01  0.51099999109E-03 0. -1.
       22    1    1    2    0    0 -0.39815673647E-02 -0.14580654019E-02 -0.35484570611E-01  0.35737005818E-01  0.00000000000E+00 0. -1.
  9000001    1    1    2    0    0  0.39815673647E-02  0.14580654019E-02  0.35484570611E-01  0.35750994182E-01  0.10000000475E-02 0.  1.
</event>
<event>
 4   0  0.2441219E-02  0.9118800E+02  0.7818609E-02  0.1379984E+01
      -11   -1    0    0    0    0  0.00000000000E+00  0.00000000000E+00  0.35740347158E-01  0.35744000000E-01  0.51099999109E-03 0.  1.
       11   -1    0    0    0    0 -0.00000000000E+00 -0.00000000000E+00 -0.35740347158E-01  0.35744000000E-01  0.51099999109E-03 0. -1.
       22    1    1    2    0    0 -0.35913247141E-02  0.68012064786E-03  0.35549590821E-01  0.35737005818E-01  0.00000000000E+00 0.  1.
  9000001    1    1    2    0    0  0.35913247141E-02 -0.68012064786E-03 -0.35549590821E-01  0.35750994182E-01  0.10000000475E-02 0. -1.
</event>
<event>
 4   0  0.2441219E-02  0.9118800E+02  0.7818609E-02  0.1379984E+01
      -11   -1    0    0    0    0  0.00000000000E+00  0.00000000000E+00  0.35740347158E-01  0.35744000000E-01  0.51099999109E-03 0.  1.
       11   -1    0    0    0    0 -0.00000000000E+00 -0.00000000000E+00 -0.35740347158E-01  0.35744000000E-01  0.51099999109E-03 0. -1.
       22    1    1    2    0    0 -0.29167640210E-02  0.18259182262E-02 -0.35570944536E-01  0.35737005818E-01  0.00000000000E+00 0. -1.
  9000001    1    1    2    0    0  0.29167640210E-02 -0.18259182262E-02  0.35570944536E-01  0.35750994182E-01  0.10000000475E-02 0.  1.
</event>
<event>
 4   0  0.2441219E-02  0.9118800E+02  0.7818609E-02  0.1379984E+01
      -11   -1    0    0    0    0  0.00000000000E+00  0.00000000000E+00  0.35740347158E-01  0.35744000000E-01  0.51099999109E-03 0.  1.
       11   -1    0    0    0    0 -0.00000000000E+00 -0.00000000000E+00 -0.35740347158E-01  0.35744000000E-01  0.51099999109E-03 0. -1.
       22    1    1    2    0    0  0.16144685298E-01  0.63262368890E-03 -0.31876049140E-01  0.35737005818E-01  0.00000000000E+00 0. -1.
  9000001    1    1    2    0    0 -0.16144685298E-01 -0.63262368890E-03  0.31876049140E-01  0.35750994182E-01  0.10000000475E-02 0.  1.
</event>
<event>
 4   0  0.2441219E-02  0.9118800E+02  0.7818609E-02  0.1379984E+01
      -11   -1    0    0    0    0  0.00000000000E+00  0.00000000000E+00  0.35740347158E-01  0.35744000000E-01  0.51099999109E-03 0. -1.
       11   -1    0    0    0    0 -0.00000000000E+00 -0.00000000000E+00 -0.35740347158E-01  0.35744000000E-01  0.51099999109E-03 0.  1.
       22    1    1    2    0    0 -0.92621526616E-02  0.12365051645E-01 -0.32225015295E-01  0.35737005818E-01  0.00000000000E+00 0.  1.
  9000001    1    1    2    0    0  0.92621526616E-02 -0.12365051645E-01  0.32225015295E-01  0.35750994182E-01  0.10000000475E-02 0. -1.
</event>
<event>
 4   0  0.2441219E-02  0.9118800E+02  0.7818609E-02  0.1379984E+01
      -11   -1    0    0    0    0  0.00000000000E+00  0.00000000000E+00  0.35740347158E-01  0.35744000000E-01  0.51099999109E-03 0.  1.
       11   -1    0    0    0    0 -0.00000000000E+00 -0.00000000000E+00 -0.35740347158E-01  0.35744000000E-01  0.51099999109E-03 0. -1.
       22    1    1    2    0    0  0.98838878852E-02  0.26951439036E-01 -0.21285259665E-01  0.35737005818E-01  0.00000000000E+00 0. -1.
  9000001    1    1    2    0    0 -0.98838878852E-02 -0.26951439036E-01  0.21285259665E-01  0.35750994182E-01  0.10000000475E-02 0.  1.
</event>
<event>
 4   0  0.2441219E-02  0.9118800E+02  0.7818609E-02  0.1379984E+01
      -11   -1    0    0    0    0  0.00000000000E+00  0.00000000000E+00  0.35740347158E-01  0.35744000000E-01  0.51099999109E-03 0.  1.
       11   -1    0    0    0    0 -0.00000000000E+00 -0.00000000000E+00 -0.35740347158E-01  0.35744000000E-01  0.51099999109E-03 0. -1.
       22    1    1    2    0    0  0.11693074775E-01  0.82737736300E-02  0.32740651446E-01  0.35737005818E-01  0.00000000000E+00 0.  1.
  9000001    1    1    2    0    0 -0.11693074775E-01 -0.82737736300E-02 -0.32740651446E-01  0.35750994182E-01  0.10000000475E-02 0. -1.
</event>
<event>
 4   0  0.2441219E-02  0.9118800E+02  0.7818609E-02  0.1379984E+01
      -11   -1    0    0    0    0  0.00000000000E+00  0.00000000000E+00  0.35740347158E-01  0.35744000000E-01  0.51099999109E-03 0.  1.
       11   -1    0    0    0    0 -0.00000000000E+00 -0.00000000000E+00 -0.35740347158E-01  0.35744000000E-01  0.51099999109E-03 0. -1.
       22    1    1    2    0    0  0.30769131505E-02  0.63212695866E-02 -0.35038660664E-01  0.35737005818E-01  0.00000000000E+00 0. -1.
  9000001    1    1    2    0    0 -0.30769131505E-02 -0.63212695866E-02  0.35038660664E-01  0.35750994182E-01  0.10000000475E-02 0.  1.
</event>
<event>
 4   0  0.2441219E-02  0.9118800E+02  0.7818609E-02  0.1379984E+01
      -11   -1    0    0    0    0  0.00000000000E+00  0.00000000000E+00  0.35740347158E-01  0.35744000000E-01  0.51099999109E-03 0. -1.
       11   -1    0    0    0    0 -0.00000000000E+00 -0.00000000000E+00 -0.35740347158E-01  0.35744000000E-01  0.51099999109E-03 0.  1.
       22    1    1    2    0    0 -0.80381743502E-03 -0.48901608445E-02 -0.35391719220E-01  0.35737005818E-01  0.00000000000E+00 0.  1.
  9000001    1    1    2    0    0  0.80381743502E-03  0.48901608445E-02  0.35391719220E-01  0.35750994182E-01  0.10000000475E-02 0. -1.
</event>
<event>
 4   0  0.2441219E-02  0.9118800E+02  0.7818609E-02  0.1379984E+01
      -11   -1    0    0    0    0  0.00000000000E+00  0.00000000000E+00  0.35740347158E-01  0.35744000000E-01  0.51099999109E-03 0. -1.
       11   -1    0    0    0    0 -0.00000000000E+00 -0.00000000000E+00 -0.35740347158E-01  0.35744000000E-01  0.51099999109E-03 0.  1.
       22    1    1    2    0    0  0.70474867225E-02  0.19024199214E-01  0.29420169272E-01  0.35737005818E-01  0.00000000000E+00 0. -1.
  9000001    1    1    2    0    0 -0.70474867225E-02 -0.19024199214E-01 -0.29420169272E-01  0.35750994182E-01  0.10000000475E-02 0.  1.
</event>
<event>
 4   0  0.2441219E-02  0.9118800E+02  0.7818609E-02  0.1379984E+01
      -11   -1    0    0    0    0  0.00000000000E+00  0.00000000000E+00  0.35740347158E-01  0.35744000000E-01  0.51099999109E-03 0. -1.
       11   -1    0    0    0    0 -0.00000000000E+00 -0.00000000000E+00 -0.35740347158E-01  0.35744000000E-01  0.51099999109E-03 0.  1.
       22    1    1    2    0    0 -0.29337730825E-01 -0.16214074119E-01  0.12390921489E-01  0.35737005818E-01  0.00000000000E+00 0.  1.
  9000001    1    1    2    0    0  0.29337730825E-01  0.16214074119E-01 -0.12390921489E-01  0.35750994182E-01  0.10000000475E-02 0. -1.
</event>
<event>
 4   0  0.2441219E-02  0.9118800E+02  0.7818609E-02  0.1379984E+01
      -11   -1    0    0    0    0  0.00000000000E+00  0.00000000000E+00  0.35740347158E-01  0.35744000000E-01  0.51099999109E-03 0. -1.
       11   -1    0    0    0    0 -0.00000000000E+00 -0.00000000000E+00 -0.35740347158E-01  0.35744000000E-01  0.51099999109E-03 0.  1.
       22    1    1    2    0    0  0.14078931825E-01  0.59549336037E-02  0.32302570011E-01  0.35737005818E-01  0.00000000000E+00 0. -1.
  9000001    1    1    2    0    0 -0.14078931825E-01 -0.59549336037E-02 -0.32302570011E-01  0.35750994182E-01  0.10000000475E-02 0.  1.
</event>
<event>
 4   0  0.2441219E-02  0.9118800E+02  0.7818609E-02  0.1379984E+01
      -11   -1    0    0    0    0  0.00000000000E+00  0.00000000000E+00  0.35740347158E-01  0.35744000000E-01  0.51099999109E-03 0. -1.
       11   -1    0    0    0    0 -0.00000000000E+00 -0.00000000000E+00 -0.35740347158E-01  0.35744000000E-01  0.51099999109E-03 0.  1.
       22    1    1    2    0    0  0.86288763981E-02  0.49012920752E-02 -0.34331522148E-01  0.35737005818E-01  0.00000000000E+00 0.  1.
  9000001    1    1    2    0    0 -0.86288763981E-02 -0.49012920752E-02  0.34331522148E-01  0.35750994182E-01  0.10000000475E-02 0. -1.
</event>
<event>
 4   0  0.2441219E-02  0.9118800E+02  0.7818609E-02  0.1379984E+01
      -11   -1    0    0    0    0  0.00000000000E+00  0.00000000000E+00  0.35740347158E-01  0.35744000000E-01  0.51099999109E-03 0. -1.
       11   -1    0    0    0    0 -0.00000000000E+00 -0.00000000000E+00 -0.35740347158E-01  0.35744000000E-01  0.51099999109E-03 0.  1.
       22    1    1    2    0    0 -0.14035794537E-01 -0.52862366546E-02  0.32437412946E-01  0.35737005818E-01  0.00000000000E+00 0. -1.
  9000001    1    1    2    0    0  0.14035794537E-01  0.52862366546E-02 -0.32437412946E-01  0.35750994182E-01  0.10000000475E-02 0.  1.
</event>
<event>
 4   0  0.2441219E-02  0.9118800E+02  0.7818609E-02  0.1379984E+01
      -11   -1    0    0    0    0  0.00000000000E+00  0.00000000000E+00  0.35740347158E-01  0.35744000000E-01  0.51099999109E-03 0. -1.
       11   -1    0    0    0    0 -0.00000000000E+00 -0.00000000000E+00 -0.35740347158E-01  0.35744000000E-01  0.51099999109E-03 0.  1.
       22    1    1    2    0    0  0.25940947471E-01 -0.24512572434E-01 -0.18260947063E-02  0.35737005818E-01  0.00000000000E+00 0.  1.
  9000001    1    1    2    0    0 -0.25940947471E-01  0.24512572434E-01  0.18260947063E-02  0.35750994182E-01  0.10000000475E-02 0. -1.
</event>
<event>
 4   0  0.2441219E-02  0.9118800E+02  0.7818609E-02  0.1379984E+01
      -11   -1    0    0    0    0  0.00000000000E+00  0.00000000000E+00  0.35740347158E-01  0.35744000000E-01  0.51099999109E-03 0. -1.
       11   -1    0    0    0    0 -0.00000000000E+00 -0.00000000000E+00 -0.35740347158E-01  0.35744000000E-01  0.51099999109E-03 0.  1.
       22    1    1    2    0    0 -0.85415615208E-02 -0.47115059134E-02  0.34379892724E-01  0.35737005818E-01  0.00000000000E+00 0. -1.
  9000001    1    1    2    0    0  0.85415615208E-02  0.47115059134E-02 -0.34379892724E-01  0.35750994182E-01  0.10000000475E-02 0.  1.
</event>
<event>
 4   0  0.2441219E-02  0.9118800E+02  0.7818609E-02  0.1379984E+01
      -11   -1    0    0    0    0  0.00000000000E+00  0.00000000000E+00  0.35740347158E-01  0.35744000000E-01  0.51099999109E-03 0.  1.
       11   -1    0    0    0    0 -0.00000000000E+00 -0.00000000000E+00 -0.35740347158E-01  0.35744000000E-01  0.51099999109E-03 0. -1.
       22    1    1    2    0    0 -0.61301396127E-02 -0.20170841446E-01  0.28856405330E-01  0.35737005818E-01  0.00000000000E+00 0.  1.
  9000001    1    1    2    0    0  0.61301396127E-02  0.20170841446E-01 -0.28856405330E-01  0.35750994182E-01  0.10000000475E-02 0. -1.
</event>
<event>
 4   0  0.2441219E-02  0.9118800E+02  0.7818609E-02  0.1379984E+01
      -11   -1    0    0    0    0  0.00000000000E+00  0.00000000000E+00  0.35740347158E-01  0.35744000000E-01  0.51099999109E-03 0. -1.
       11   -1    0    0    0    0 -0.00000000000E+00 -0.00000000000E+00 -0.35740347158E-01  0.35744000000E-01  0.51099999109E-03 0.  1.
       22    1    1    2    0    0  0.12593520919E-01 -0.16531844671E-01  0.29072924303E-01  0.35737005818E-01  0.00000000000E+00 0. -1.
  9000001    1    1    2    0    0 -0.12593520919E-01  0.16531844671E-01 -0.29072924303E-01  0.35750994182E-01  0.10000000475E-02 0.  1.
</event>
<event>
 4   0  0.2441219E-02  0.9118800E+02  0.7818609E-02  0.1379984E+01
      -11   -1    0    0    0    0  0.00000000000E+00  0.00000000000E+00  0.35740347158E-01  0.35744000000E-01  0.51099999109E-03 0.  1.
       11   -1    0    0    0    0 -0.00000000000E+00 -0.00000000000E+00 -0.35740347158E-01  0.35744000000E-01  0.51099999109E-03 0. -1.
       22    1    1    2    0    0 -0.56928519543E-02 -0.63171277130E-02  0.34710501566E-01  0.35737005818E-01  0.00000000000E+00 0.  1.
  9000001    1    1    2    0    0  0.56928519543E-02  0.63171277130E-02 -0.34710501566E-01  0.35750994182E-01  0.10000000475E-02 0. -1.
</event>
<event>
 4   0  0.2441219E-02  0.9118800E+02  0.7818609E-02  0.1379984E+01
      -11   -1    0    0    0    0  0.00000000000E+00  0.00000000000E+00  0.35740347158E-01  0.35744000000E-01  0.51099999109E-03 0.  1.
       11   -1    0    0    0    0 -0.00000000000E+00 -0.00000000000E+00 -0.35740347158E-01  0.35744000000E-01  0.51099999109E-03 0. -1.
       22    1    1    2    0    0  0.12504356027E-01 -0.14894480538E-01  0.29982146600E-01  0.35737005818E-01  0.00000000000E+00 0.  1.
  9000001    1    1    2    0    0 -0.12504356027E-01  0.14894480538E-01 -0.29982146600E-01  0.35750994182E-01  0.10000000475E-02 0. -1.
</event>
<event>
 4   0  0.2441219E-02  0.9118800E+02  0.7818609E-02  0.1379984E+01
      -11   -1    0    0    0    0  0.00000000000E+00  0.00000000000E+00  0.35740347158E-01  0.35744000000E-01  0.51099999109E-03 0. -1.
       11   -1    0    0    0    0 -0.00000000000E+00 -0.00000000000E+00 -0.35740347158E-01  0.35744000000E-01  0.51099999109E-03 0.  1.
       22    1    1    2    0    0 -0.40127304148E-02  0.34260525354E-01 -0.93406628219E-02  0.35737005818E-01  0.00000000000E+00 0. -1.
  9000001    1    1    2    0    0  0.40127304148E-02 -0.34260525354E-01  0.93406628219E-02  0.35750994182E-01  0.10000000475E-02 0.  1.
</event>
<event>
 4   0  0.2441219E-02  0.9118800E+02  0.7818609E-02  0.1379984E+01
      -11   -1    0    0    0    0  0.00000000000E+00  0.00000000000E+00  0.35740347158E-01  0.35744000000E-01  0.51099999109E-03 0.  1.
       11   -1    0    0    0    0 -0.00000000000E+00 -0.00000000000E+00 -0.35740347158E-01  0.35744000000E-01  0.51099999109E-03 0. -1.
       22    1    1    2    0    0  0.14724042575E-01  0.65591843863E-02 -0.31895348490E-01  0.35737005818E-01  0.00000000000E+00 0. -1.
  9000001    1    1    2    0    0 -0.14724042575E-01 -0.65591843863E-02  0.31895348490E-01  0.35750994182E-01  0.10000000475E-02 0.  1.
</event>
<event>
 4   0  0.2441219E-02  0.9118800E+02  0.7818609E-02  0.1379984E+01
      -11   -1    0    0    0    0  0.00000000000E+00  0.00000000000E+00  0.35740347158E-01  0.35744000000E-01  0.51099999109E-03 0. -1.
       11   -1    0    0    0    0 -0.00000000000E+00 -0.00000000000E+00 -0.35740347158E-01  0.35744000000E-01  0.51099999109E-03 0.  1.
       22    1    1    2    0    0 -0.77400928137E-03  0.32246965917E-02 -0.35582802397E-01  0.35737005818E-01  0.00000000000E+00 0.  1.
  9000001    1    1    2    0    0  0.77400928137E-03 -0.32246965917E-02  0.35582802397E-01  0.35750994182E-01  0.10000000475E-02 0. -1.
</event>
<event>
 4   0  0.2441219E-02  0.9118800E+02  0.7818609E-02  0.1379984E+01
      -11   -1    0    0    0    0  0.00000000000E+00  0.00000000000E+00  0.35740347158E-01  0.35744000000E-01  0.51099999109E-03 0. -1.
       11   -1    0    0    0    0 -0.00000000000E+00 -0.00000000000E+00 -0.35740347158E-01  0.35744000000E-01  0.51099999109E-03 0.  1.
       22    1    1    2    0    0  0.21591826225E-01 -0.19715794228E-02  0.28408440642E-01  0.35737005818E-01  0.00000000000E+00 0. -1.
  9000001    1    1    2    0    0 -0.21591826225E-01  0.19715794228E-02 -0.28408440642E-01  0.35750994182E-01  0.10000000475E-02 0.  1.
</event>
<event>
 4   0  0.2441219E-02  0.9118800E+02  0.7818609E-02  0.1379984E+01
      -11   -1    0    0    0    0  0.00000000000E+00  0.00000000000E+00  0.35740347158E-01  0.35744000000E-01  0.51099999109E-03 0. -1.
       11   -1    0    0    0    0 -0.00000000000E+00 -0.00000000000E+00 -0.35740347158E-01  0.35744000000E-01  0.51099999109E-03 0.  1.
       22    1    1    2    0    0 -0.42168695965E-02 -0.52498088061E-03  0.35483460806E-01  0.35737005818E-01  0.00000000000E+00 0. -1.
  9000001    1    1    2    0    0  0.42168695965E-02  0.52498088061E-03 -0.35483460806E-01  0.35750994182E-01  0.10000000475E-02 0.  1.
</event>
<event>
 4   0  0.2441219E-02  0.9118800E+02  0.7818609E-02  0.1379984E+01
      -11   -1    0    0    0    0  0.00000000000E+00  0.00000000000E+00  0.35740347158E-01  0.35744000000E-01  0.51099999109E-03 0.  1.
       11   -1    0    0    0    0 -0.00000000000E+00 -0.00000000000E+00 -0.35740347158E-01  0.35744000000E-01  0.51099999109E-03 0. -1.
       22    1    1    2    0    0 -0.32865721298E-02  0.16688614102E-02 -0.35546405305E-01  0.35737005818E-01  0.00000000000E+00 0. -1.
  9000001    1    1    2    0    0  0.32865721298E-02 -0.16688614102E-02  0.35546405305E-01  0.35750994182E-01  0.10000000475E-02 0.  1.
</event>
<event>
 4   0  0.2441219E-02  0.9118800E+02  0.7818609E-02  0.1379984E+01
      -11   -1    0    0    0    0  0.00000000000E+00  0.00000000000E+00  0.35740347158E-01  0.35744000000E-01  0.51099999109E-03 0.  1.
       11   -1    0    0    0    0 -0.00000000000E+00 -0.00000000000E+00 -0.35740347158E-01  0.35744000000E-01  0.51099999109E-03 0. -1.
       22    1    1    2    0    0 -0.70720904597E-02  0.25311310580E-01 -0.24216867636E-01  0.35737005818E-01  0.00000000000E+00 0. -1.
  9000001    1    1    2    0    0  0.70720904597E-02 -0.25311310580E-01  0.24216867636E-01  0.35750994182E-01  0.10000000475E-02 0.  1.
</event>
<event>
 4   0  0.2441219E-02  0.9118800E+02  0.7818609E-02  0.1379984E+01
      -11   -1    0    0    0    0  0.00000000000E+00  0.00000000000E+00  0.35740347158E-01  0.35744000000E-01  0.51099999109E-03 0.  1.
       11   -1    0    0    0    0 -0.00000000000E+00 -0.00000000000E+00 -0.35740347158E-01  0.35744000000E-01  0.51099999109E-03 0. -1.
       22    1    1    2    0    0 -0.18642581148E-01  0.12921137690E-01 -0.27615791747E-01  0.35737005818E-01  0.00000000000E+00 0. -1.
  9000001    1    1    2    0    0  0.18642581148E-01 -0.12921137690E-01  0.27615791747E-01  0.35750994182E-01  0.10000000475E-02 0.  1.
</event>
<event>
 4   0  0.2441219E-02  0.9118800E+02  0.7818609E-02  0.1379984E+01
      -11   -1    0    0    0    0  0.00000000000E+00  0.00000000000E+00  0.35740347158E-01  0.35744000000E-01  0.51099999109E-03 0.  1.
       11   -1    0    0    0    0 -0.00000000000E+00 -0.00000000000E+00 -0.35740347158E-01  0.35744000000E-01  0.51099999109E-03 0. -1.
       22    1    1    2    0    0  0.16681991920E-01  0.65711376992E-02  0.30913829911E-01  0.35737005818E-01  0.00000000000E+00 0.  1.
  9000001    1    1    2    0    0 -0.16681991920E-01 -0.65711376992E-02 -0.30913829911E-01  0.35750994182E-01  0.10000000475E-02 0. -1.
</event>
<event>
 4   0  0.2441219E-02  0.9118800E+02  0.7818609E-02  0.1379984E+01
      -11   -1    0    0    0    0  0.00000000000E+00  0.00000000000E+00  0.35740347158E-01  0.35744000000E-01  0.51099999109E-03 0. -1.
       11   -1    0    0    0    0 -0.00000000000E+00 -0.00000000000E+00 -0.35740347158E-01  0.35744000000E-01  0.51099999109E-03 0.  1.
       22    1    1    2    0    0  0.27031896330E-01  0.81505236873E-02  0.21908425988E-01  0.35737005818E-01  0.00000000000E+00 0. -1.
  9000001    1    1    2    0    0 -0.27031896330E-01 -0.81505236873E-02 -0.21908425988E-01  0.35750994182E-01  0.10000000475E-02 0.  1.
</event>
<event>
 4   0  0.2441219E-02  0.9118800E+02  0.7818609E-02  0.1379984E+01
      -11   -1    0    0    0    0  0.00000000000E+00  0.00000000000E+00  0.35740347158E-01  0.35744000000E-01  0.51099999109E-03 0. -1.
       11   -1    0    0    0    0 -0.00000000000E+00 -0.00000000000E+00 -0.35740347158E-01  0.35744000000E-01  0.51099999109E-03 0.  1.
       22    1    1    2    0    0 -0.75873928840E-02 -0.96840791193E-02  0.33552699827E-01  0.35737005818E-01  0.00000000000E+00 0. -1.
  9000001    1    1    2    0    0  0.75873928840E-02  0.96840791193E-02 -0.33552699827E-01  0.35750994182E-01  0.10000000475E-02 0.  1.
</event>
<event>
 4   0  0.2441219E-02  0.9118800E+02  0.7818609E-02  0.1379984E+01
      -11   -1    0    0    0    0  0.00000000000E+00  0.00000000000E+00  0.35740347158E-01  0.35744000000E-01  0.51099999109E-03 0.  1.
       11   -1    0    0    0    0 -0.00000000000E+00 -0.00000000000E+00 -0.35740347158E-01  0.35744000000E-01  0.51099999109E-03 0. -1.
       22    1    1    2    0    0  0.51407906643E-02  0.22982089159E-02  0.35290566615E-01  0.35737005818E-01  0.00000000000E+00 0.  1.
  9000001    1    1    2    0    0 -0.51407906643E-02 -0.22982089159E-02 -0.35290566615E-01  0.35750994182E-01  0.10000000475E-02 0. -1.
</event>
<event>
 4   0  0.2441219E-02  0.9118800E+02  0.7818609E-02  0.1379984E+01
      -11   -1    0    0    0    0  0.00000000000E+00  0.00000000000E+00  0.35740347158E-01  0.35744000000E-01  0.51099999109E-03 0. -1.
       11   -1    0    0    0    0 -0.00000000000E+00 -0.00000000000E+00 -0.35740347158E-01  0.35744000000E-01  0.51099999109E-03 0.  1.
       22    1    1    2    0    0 -0.25701832730E-01  0.46519350809E-02  0.24390753969E-01  0.35737005818E-01  0.00000000000E+00 0. -1.
  9000001    1    1    2    0    0  0.25701832730E-01 -0.46519350809E-02 -0.24390753969E-01  0.35750994182E-01  0.10000000475E-02 0.  1.
</event>
<event>
 4   0  0.2441219E-02  0.9118800E+02  0.7818609E-02  0.1379984E+01
      -11   -1    0    0    0    0  0.00000000000E+00  0.00000000000E+00  0.35740347158E-01  0.35744000000E-01  0.51099999109E-03 0.  1.
       11   -1    0    0    0    0 -0.00000000000E+00 -0.00000000000E+00 -0.35740347158E-01  0.35744000000E-01  0.51099999109E-03 0. -1.
       22    1    1    2    0    0 -0.82463364168E-02 -0.42481098568E-04 -0.34772542558E-01  0.35737005818E-01  0.00000000000E+00 0. -1.
  9000001    1    1    2    0    0  0.82463364168E-02  0.42481098568E-04  0.34772542558E-01  0.35750994182E-01  0.10000000475E-02 0.  1.
</event>
<event>
 4   0  0.2441219E-02  0.9118800E+02  0.7818609E-02  0.1379984E+01
      -11   -1    0    0    0    0  0.00000000000E+00  0.00000000000E+00  0.35740347158E-01  0.35744000000E-01  0.51099999109E-03 0. -1.
       11   -1    0    0    0    0 -0.00000000000E+00 -0.00000000000E+00 -0.35740347158E-01  0.35744000000E-01  0.51099999109E-03 0.  1.
       22    1    1    2    0    0  0.92448884623E-02 -0.28616753815E-01  0.19306657486E-01  0.35737005818E-01  0.00000000000E+00 0.  1.
  9000001    1    1    2    0    0 -0.92448884623E-02  0.28616753815E-01 -0.19306657486E-01  0.35750994182E-01  0.10000000475E-02 0. -1.
</event>
<event>
 4   0  0.2441219E-02  0.9118800E+02  0.7818609E-02  0.1379984E+01
      -11   -1    0    0    0    0  0.00000000000E+00  0.00000000000E+00  0.35740347158E-01  0.35744000000E-01  0.51099999109E-03 0. -1.
       11   -1    0    0    0    0 -0.00000000000E+00 -0.00000000000E+00 -0.35740347158E-01  0.35744000000E-01  0.51099999109E-03 0.  1.
       22    1    1    2    0    0 -0.31485531021E-02  0.56837865690E-02  0.35141354107E-01  0.35737005818E-01  0.00000000000E+00 0. -1.
  9000001    1    1    2    0    0  0.31485531021E-02 -0.56837865690E-02 -0.35141354107E-01  0.35750994182E-01  0.10000000475E-02 0.  1.
</event>
<event>
 4   0  0.2441219E-02  0.9118800E+02  0.7818609E-02  0.1379984E+01
      -11   -1    0    0    0    0  0.00000000000E+00  0.00000000000E+00  0.35740347158E-01  0.35744000000E-01  0.51099999109E-03 0.  1.
       11   -1    0    0    0    0 -0.00000000000E+00 -0.00000000000E+00 -0.35740347158E-01  0.35744000000E-01  0.51099999109E-03 0. -1.
       22    1    1    2    0    0  0.14423175584E-01 -0.32696536336E-01  0.20518912559E-03  0.35737005818E-01  0.00000000000E+00 0. -1.
  9000001    1    1    2    0    0 -0.14423175584E-01  0.32696536336E-01 -0.20518912559E-03  0.35750994182E-01  0.10000000475E-02 0.  1.
</event>
<event>
 4   0  0.2441219E-02  0.9118800E+02  0.7818609E-02  0.1379984E+01
      -11   -1    0    0    0    0  0.00000000000E+00  0.00000000000E+00  0.35740347158E-01  0.35744000000E-01  0.51099999109E-03 0. -1.
       11   -1    0    0    0    0 -0.00000000000E+00 -0.00000000000E+00 -0.35740347158E-01  0.35744000000E-01  0.51099999109E-03 0.  1.
       22    1    1    2    0    0 -0.18656540787E-01 -0.88781280525E-02 -0.29158976543E-01  0.35737005818E-01  0.00000000000E+00 0.  1.
  9000001    1    1    2    0    0  0.18656540787E-01  0.88781280525E-02  0.29158976543E-01  0.35750994182E-01  0.10000000475E-02 0. -1.
</event>
<event>
 4   0  0.2441219E-02  0.9118800E+02  0.7818609E-02  0.1379984E+01
      -11   -1    0    0    0    0  0.00000000000E+00  0.00000000000E+00  0.35740347158E-01  0.35744000000E-01  0.51099999109E-03 0. -1.
       11   -1    0    0    0    0 -0.00000000000E+00 -0.00000000000E+00 -0.35740347158E-01  0.35744000000E-01  0.51099999109E-03 0.  1.
       22    1    1    2    0    0  0.23811439929E-03 -0.57063303120E-02 -0.35277679640E-01  0.35737005818E-01  0.00000000000E+00 0.  1.
  9000001    1    1    2    0    0 -0.23811439929E-03  0.57063303120E-02  0.35277679640E-01  0.35750994182E-01  0.10000000475E-02 0. -1.
</event>
<event>
 4   0  0.2441219E-02  0.9118800E+02  0.7818609E-02  0.1379984E+01
      -11   -1    0    0    0    0  0.00000000000E+00  0.00000000000E+00  0.35740347158E-01  0.35744000000E-01  0.51099999109E-03 0. -1.
       11   -1    0    0    0    0 -0.00000000000E+00 -0.00000000000E+00 -0.35740347158E-01  0.35744000000E-01  0.51099999109E-03 0.  1.
       22    1    1    2    0    0 -0.19930611452E-02 -0.67608505489E-02  0.35035013800E-01  0.35737005818E-01  0.00000000000E+00 0. -1.
  9000001    1    1    2    0    0  0.19930611452E-02  0.67608505489E-02 -0.35035013800E-01  0.35750994182E-01  0.10000000475E-02 0.  1.
</event>
<event>
 4   0  0.2441219E-02  0.9118800E+02  0.7818609E-02  0.1379984E+01
      -11   -1    0    0    0    0  0.00000000000E+00  0.00000000000E+00  0.35740347158E-01  0.35744000000E-01  0.51099999109E-03 0.  1.
       11   -1    0    0    0    0 -0.00000000000E+00 -0.00000000000E+00 -0.35740347158E-01  0.35744000000E-01  0.51099999109E-03 0. -1.
       22    1    1    2    0    0 -0.24695399828E-03  0.16741804096E-01  0.31571895639E-01  0.35737005818E-01  0.00000000000E+00 0.  1.
  9000001    1    1    2    0    0  0.24695399828E-03 -0.16741804096E-01 -0.31571895639E-01  0.35750994182E-01  0.10000000475E-02 0. -1.
</event>
<event>
 4   0  0.2441219E-02  0.9118800E+02  0.7818609E-02  0.1379984E+01
      -11   -1    0    0    0    0  0.00000000000E+00  0.00000000000E+00  0.35740347158E-01  0.35744000000E-01  0.51099999109E-03 0. -1.
       11   -1    0    0    0    0 -0.00000000000E+00 -0.00000000000E+00 -0.35740347158E-01  0.35744000000E-01  0.51099999109E-03 0.  1.
       22    1    1    2    0    0 -0.84309537888E-02  0.64672223937E-02  0.34120780143E-01  0.35737005818E-01  0.00000000000E+00 0. -1.
  9000001    1    1    2    0    0  0.84309537888E-02 -0.64672223937E-02 -0.34120780143E-01  0.35750994182E-01  0.10000000475E-02 0.  1.
</event>
<event>
 4   0  0.2441219E-02  0.9118800E+02  0.7818609E-02  0.1379984E+01
      -11   -1    0    0    0    0  0.00000000000E+00  0.00000000000E+00  0.35740347158E-01  0.35744000000E-01  0.51099999109E-03 0.  1.
       11   -1    0    0    0    0 -0.00000000000E+00 -0.00000000000E+00 -0.35740347158E-01  0.35744000000E-01  0.51099999109E-03 0. -1.
       22    1    1    2    0    0 -0.80631865349E-02  0.77566251396E-02  0.33940438627E-01  0.35737005818E-01  0.00000000000E+00 0.  1.
  9000001    1    1    2    0    0  0.80631865349E-02 -0.77566251396E-02 -0.33940438627E-01  0.35750994182E-01  0.10000000475E-02 0. -1.
</event>
<event>
 4   0  0.2441219E-02  0.9118800E+02  0.7818609E-02  0.1379984E+01
      -11   -1    0    0    0    0  0.00000000000E+00  0.00000000000E+00  0.35740347158E-01  0.35744000000E-01  0.51099999109E-03 0.  1.
       11   -1    0    0    0    0 -0.00000000000E+00 -0.00000000000E+00 -0.35740347158E-01  0.35744000000E-01  0.51099999109E-03 0. -1.
       22    1    1    2    0    0 -0.12809553547E-01 -0.19132413099E-01 -0.27331295099E-01  0.35737005818E-01  0.00000000000E+00 0. -1.
  9000001    1    1    2    0    0  0.12809553547E-01  0.19132413099E-01  0.27331295099E-01  0.35750994182E-01  0.10000000475E-02 0.  1.
</event>
<event>
 4   0  0.2441219E-02  0.9118800E+02  0.7818609E-02  0.1379984E+01
      -11   -1    0    0    0    0  0.00000000000E+00  0.00000000000E+00  0.35740347158E-01  0.35744000000E-01  0.51099999109E-03 0.  1.
       11   -1    0    0    0    0 -0.00000000000E+00 -0.00000000000E+00 -0.35740347158E-01  0.35744000000E-01  0.51099999109E-03 0. -1.
       22    1    1    2    0    0 -0.83230865922E-02 -0.20006547437E-02 -0.34696645300E-01  0.35737005818E-01  0.00000000000E+00 0. -1.
  9000001    1    1    2    0    0  0.83230865922E-02  0.20006547437E-02  0.34696645300E-01  0.35750994182E-01  0.10000000475E-02 0.  1.
</event>
<event>
 4   0  0.2441219E-02  0.9118800E+02  0.7818609E-02  0.1379984E+01
      -11   -1    0    0    0    0  0.00000000000E+00  0.00000000000E+00  0.35740347158E-01  0.35744000000E-01  0.51099999109E-03 0.  1.
       11   -1    0    0    0    0 -0.00000000000E+00 -0.00000000000E+00 -0.35740347158E-01  0.35744000000E-01  0.51099999109E-03 0. -1.
       22    1    1    2    0    0 -0.30952278701E-01  0.19609430627E-02 -0.17755132508E-01  0.35737005818E-01  0.00000000000E+00 0. -1.
  9000001    1    1    2    0    0  0.30952278701E-01 -0.19609430627E-02  0.17755132508E-01  0.35750994182E-01  0.10000000475E-02 0.  1.
</event>
<event>
 4   0  0.2441219E-02  0.9118800E+02  0.7818609E-02  0.1379984E+01
      -11   -1    0    0    0    0  0.00000000000E+00  0.00000000000E+00  0.35740347158E-01  0.35744000000E-01  0.51099999109E-03 0.  1.
       11   -1    0    0    0    0 -0.00000000000E+00 -0.00000000000E+00 -0.35740347158E-01  0.35744000000E-01  0.51099999109E-03 0. -1.
       22    1    1    2    0    0 -0.44517018027E-02 -0.51062270511E-02 -0.35089063556E-01  0.35737005818E-01  0.00000000000E+00 0. -1.
  9000001    1    1    2    0    0  0.44517018027E-02  0.51062270511E-02  0.35089063556E-01  0.35750994182E-01  0.10000000475E-02 0.  1.
</event>
<event>
 4   0  0.2441219E-02  0.9118800E+02  0.7818609E-02  0.1379984E+01
      -11   -1    0    0    0    0  0.00000000000E+00  0.00000000000E+00  0.35740347158E-01  0.35744000000E-01  0.51099999109E-03 0.  1.
       11   -1    0    0    0    0 -0.00000000000E+00 -0.00000000000E+00 -0.35740347158E-01  0.35744000000E-01  0.51099999109E-03 0. -1.
       22    1    1    2    0    0  0.20141064946E-02 -0.16339149397E-01  0.31719223775E-01  0.35737005818E-01  0.00000000000E+00 0.  1.
  9000001    1    1    2    0    0 -0.20141064946E-02  0.16339149397E-01 -0.31719223775E-01  0.35750994182E-01  0.10000000475E-02 0. -1.
</event>
<event>
 4   0  0.2441219E-02  0.9118800E+02  0.7818609E-02  0.1379984E+01
      -11   -1    0    0    0    0  0.00000000000E+00  0.00000000000E+00  0.35740347158E-01  0.35744000000E-01  0.51099999109E-03 0.  1.
       11   -1    0    0    0    0 -0.00000000000E+00 -0.00000000000E+00 -0.35740347158E-01  0.35744000000E-01  0.51099999109E-03 0. -1.
       22    1    1    2    0    0  0.78816335916E-02 -0.12618623354E-02 -0.34834194985E-01  0.35737005818E-01  0.00000000000E+00 0. -1.
  9000001    1    1    2    0    0 -0.78816335916E-02  0.12618623354E-02  0.34834194985E-01  0.35750994182E-01  0.10000000475E-02 0.  1.
</event>
<event>
 4   0  0.2441219E-02  0.9118800E+02  0.7818609E-02  0.1379984E+01
      -11   -1    0    0    0    0  0.00000000000E+00  0.00000000000E+00  0.35740347158E-01  0.35744000000E-01  0.51099999109E-03 0. -1.
       11   -1    0    0    0    0 -0.00000000000E+00 -0.00000000000E+00 -0.35740347158E-01  0.35744000000E-01  0.51099999109E-03 0.  1.
       22    1    1    2    0    0  0.65932264308E-02 -0.48687090091E-02 -0.34784459500E-01  0.35737005818E-01  0.00000000000E+00 0.  1.
  9000001    1    1    2    0    0 -0.65932264308E-02  0.48687090091E-02  0.34784459500E-01  0.35750994182E-01  0.10000000475E-02 0. -1.
</event>
<event>
 4   0  0.2441219E-02  0.9118800E+02  0.7818609E-02  0.1379984E+01
      -11   -1    0    0    0    0  0.00000000000E+00  0.00000000000E+00  0.35740347158E-01  0.35744000000E-01  0.51099999109E-03 0. -1.
       11   -1    0    0    0    0 -0.00000000000E+00 -0.00000000000E+00 -0.35740347158E-01  0.35744000000E-01  0.51099999109E-03 0.  1.
       22    1    1    2    0    0 -0.70179140144E-02 -0.47270532699E-02  0.34720850150E-01  0.35737005818E-01  0.00000000000E+00 0. -1.
  9000001    1    1    2    0    0  0.70179140144E-02  0.47270532699E-02 -0.34720850150E-01  0.35750994182E-01  0.10000000475E-02 0.  1.
</event>
<event>
 4   0  0.2441219E-02  0.9118800E+02  0.7818609E-02  0.1379984E+01
      -11   -1    0    0    0    0  0.00000000000E+00  0.00000000000E+00  0.35740347158E-01  0.35744000000E-01  0.51099999109E-03 0. -1.
       11   -1    0    0    0    0 -0.00000000000E+00 -0.00000000000E+00 -0.35740347158E-01  0.35744000000E-01  0.51099999109E-03 0.  1.
       22    1    1    2    0    0  0.13275332052E-02 -0.97862223452E-02  0.34345321263E-01  0.35737005818E-01  0.00000000000E+00 0. -1.
  9000001    1    1    2    0    0 -0.13275332052E-02  0.97862223452E-02 -0.34345321263E-01  0.35750994182E-01  0.10000000475E-02 0.  1.
</event>
<event>
 4   0  0.2441219E-02  0.9118800E+02  0.7818609E-02  0.1379984E+01
      -11   -1    0    0    0    0  0.00000000000E+00  0.00000000000E+00  0.35740347158E-01  0.35744000000E-01  0.51099999109E-03 0. -1.
       11   -1    0    0    0    0 -0.00000000000E+00 -0.00000000000E+00 -0.35740347158E-01  0.35744000000E-01  0.51099999109E-03 0.  1.
       22    1    1    2    0    0  0.55390601390E-02 -0.98582602389E-02 -0.33900842212E-01  0.35737005818E-01  0.00000000000E+00 0.  1.
  9000001    1    1    2    0    0 -0.55390601390E-02  0.98582602389E-02  0.33900842212E-01  0.35750994182E-01  0.10000000475E-02 0. -1.
</event>
<event>
 4   0  0.2441219E-02  0.9118800E+02  0.7818609E-02  0.1379984E+01
      -11   -1    0    0    0    0  0.00000000000E+00  0.00000000000E+00  0.35740347158E-01  0.35744000000E-01  0.51099999109E-03 0. -1.
       11   -1    0    0    0    0 -0.00000000000E+00 -0.00000000000E+00 -0.35740347158E-01  0.35744000000E-01  0.51099999109E-03 0.  1.
       22    1    1    2    0    0 -0.31842257614E-02 -0.22042578241E-02 -0.35526546956E-01  0.35737005818E-01  0.00000000000E+00 0.  1.
  9000001    1    1    2    0    0  0.31842257614E-02  0.22042578241E-02  0.35526546956E-01  0.35750994182E-01  0.10000000475E-02 0. -1.
</event>
<event>
 4   0  0.2441219E-02  0.9118800E+02  0.7818609E-02  0.1379984E+01
      -11   -1    0    0    0    0  0.00000000000E+00  0.00000000000E+00  0.35740347158E-01  0.35744000000E-01  0.51099999109E-03 0.  1.
       11   -1    0    0    0    0 -0.00000000000E+00 -0.00000000000E+00 -0.35740347158E-01  0.35744000000E-01  0.51099999109E-03 0. -1.
       22    1    1    2    0    0  0.68048181468E-02 -0.66210571406E-02  0.34452715963E-01  0.35737005818E-01  0.00000000000E+00 0.  1.
  9000001    1    1    2    0    0 -0.68048181468E-02  0.66210571406E-02 -0.34452715963E-01  0.35750994182E-01  0.10000000475E-02 0. -1.
</event>
<event>
 4   0  0.2441219E-02  0.9118800E+02  0.7818609E-02  0.1379984E+01
      -11   -1    0    0    0    0  0.00000000000E+00  0.00000000000E+00  0.35740347158E-01  0.35744000000E-01  0.51099999109E-03 0.  1.
       11   -1    0    0    0    0 -0.00000000000E+00 -0.00000000000E+00 -0.35740347158E-01  0.35744000000E-01  0.51099999109E-03 0. -1.
       22    1    1    2    0    0 -0.38230367337E-02  0.51845122122E-02 -0.35151654415E-01  0.35737005818E-01  0.00000000000E+00 0. -1.
  9000001    1    1    2    0    0  0.38230367337E-02 -0.51845122122E-02  0.35151654415E-01  0.35750994182E-01  0.10000000475E-02 0.  1.
</event>
<event>
 4   0  0.2441219E-02  0.9118800E+02  0.7818609E-02  0.1379984E+01
      -11   -1    0    0    0    0  0.00000000000E+00  0.00000000000E+00  0.35740347158E-01  0.35744000000E-01  0.51099999109E-03 0.  1.
       11   -1    0    0    0    0 -0.00000000000E+00 -0.00000000000E+00 -0.35740347158E-01  0.35744000000E-01  0.51099999109E-03 0. -1.
       22    1    1    2    0    0  0.43961916176E-02 -0.66900381544E-02  0.34828874137E-01  0.35737005818E-01  0.00000000000E+00 0.  1.
  9000001    1    1    2    0    0 -0.43961916176E-02  0.66900381544E-02 -0.34828874137E-01  0.35750994182E-01  0.10000000475E-02 0. -1.
</event>
<event>
 4   0  0.2441219E-02  0.9118800E+02  0.7818609E-02  0.1379984E+01
      -11   -1    0    0    0    0  0.00000000000E+00  0.00000000000E+00  0.35740347158E-01  0.35744000000E-01  0.51099999109E-03 0.  1.
       11   -1    0    0    0    0 -0.00000000000E+00 -0.00000000000E+00 -0.35740347158E-01  0.35744000000E-01  0.51099999109E-03 0. -1.
       22    1    1    2    0    0  0.17725389900E-01 -0.29865205274E-01 -0.84269598154E-02  0.35737005818E-01  0.00000000000E+00 0. -1.
  9000001    1    1    2    0    0 -0.17725389900E-01  0.29865205274E-01  0.84269598154E-02  0.35750994182E-01  0.10000000475E-02 0.  1.
</event>
<event>
 4   0  0.2441219E-02  0.9118800E+02  0.7818609E-02  0.1379984E+01
      -11   -1    0    0    0    0  0.00000000000E+00  0.00000000000E+00  0.35740347158E-01  0.35744000000E-01  0.51099999109E-03 0. -1.
       11   -1    0    0    0    0 -0.00000000000E+00 -0.00000000000E+00 -0.35740347158E-01  0.35744000000E-01  0.51099999109E-03 0.  1.
       22    1    1    2    0    0 -0.14655878403E-01 -0.11875293615E-01  0.30353191177E-01  0.35737005818E-01  0.00000000000E+00 0. -1.
  9000001    1    1    2    0    0  0.14655878403E-01  0.11875293615E-01 -0.30353191177E-01  0.35750994182E-01  0.10000000475E-02 0.  1.
</event>
<event>
 4   0  0.2441219E-02  0.9118800E+02  0.7818609E-02  0.1379984E+01
      -11   -1    0    0    0    0  0.00000000000E+00  0.00000000000E+00  0.35740347158E-01  0.35744000000E-01  0.51099999109E-03 0.  1.
       11   -1    0    0    0    0 -0.00000000000E+00 -0.00000000000E+00 -0.35740347158E-01  0.35744000000E-01  0.51099999109E-03 0. -1.
       22    1    1    2    0    0  0.16662636623E-01 -0.24521983701E-01  0.19954008143E-01  0.35737005818E-01  0.00000000000E+00 0.  1.
  9000001    1    1    2    0    0 -0.16662636623E-01  0.24521983701E-01 -0.19954008143E-01  0.35750994182E-01  0.10000000475E-02 0. -1.
</event>
<event>
 4   0  0.2441219E-02  0.9118800E+02  0.7818609E-02  0.1379984E+01
      -11   -1    0    0    0    0  0.00000000000E+00  0.00000000000E+00  0.35740347158E-01  0.35744000000E-01  0.51099999109E-03 0.  1.
       11   -1    0    0    0    0 -0.00000000000E+00 -0.00000000000E+00 -0.35740347158E-01  0.35744000000E-01  0.51099999109E-03 0. -1.
       22    1    1    2    0    0  0.15310926933E-01 -0.20220909699E-01  0.25175859713E-01  0.35737005818E-01  0.00000000000E+00 0.  1.
  9000001    1    1    2    0    0 -0.15310926933E-01  0.20220909699E-01 -0.25175859713E-01  0.35750994182E-01  0.10000000475E-02 0. -1.
</event>
<event>
 4   0  0.2441219E-02  0.9118800E+02  0.7818609E-02  0.1379984E+01
      -11   -1    0    0    0    0  0.00000000000E+00  0.00000000000E+00  0.35740347158E-01  0.35744000000E-01  0.51099999109E-03 0. -1.
       11   -1    0    0    0    0 -0.00000000000E+00 -0.00000000000E+00 -0.35740347158E-01  0.35744000000E-01  0.51099999109E-03 0.  1.
       22    1    1    2    0    0  0.71077941440E-02  0.10462616228E-01  0.33423741696E-01  0.35737005818E-01  0.00000000000E+00 0. -1.
  9000001    1    1    2    0    0 -0.71077941440E-02 -0.10462616228E-01 -0.33423741696E-01  0.35750994182E-01  0.10000000475E-02 0.  1.
</event>
<event>
 4   0  0.2441219E-02  0.9118800E+02  0.7818609E-02  0.1379984E+01
      -11   -1    0    0    0    0  0.00000000000E+00  0.00000000000E+00  0.35740347158E-01  0.35744000000E-01  0.51099999109E-03 0. -1.
       11   -1    0    0    0    0 -0.00000000000E+00 -0.00000000000E+00 -0.35740347158E-01  0.35744000000E-01  0.51099999109E-03 0.  1.
       22    1    1    2    0    0  0.62565202158E-02 -0.34159408344E-01 -0.84335260279E-02  0.35737005818E-01  0.00000000000E+00 0.  1.
  9000001    1    1    2    0    0 -0.62565202158E-02  0.34159408344E-01  0.84335260279E-02  0.35750994182E-01  0.10000000475E-02 0. -1.
</event>
<event>
 4   0  0.2441219E-02  0.9118800E+02  0.7818609E-02  0.1379984E+01
      -11   -1    0    0    0    0  0.00000000000E+00  0.00000000000E+00  0.35740347158E-01  0.35744000000E-01  0.51099999109E-03 0. -1.
       11   -1    0    0    0    0 -0.00000000000E+00 -0.00000000000E+00 -0.35740347158E-01  0.35744000000E-01  0.51099999109E-03 0.  1.
       22    1    1    2    0    0 -0.94676441271E-03 -0.44186920573E-02 -0.35450139386E-01  0.35737005818E-01  0.00000000000E+00 0.  1.
  9000001    1    1    2    0    0  0.94676441271E-03  0.44186920573E-02  0.35450139386E-01  0.35750994182E-01  0.10000000475E-02 0. -1.
</event>
<event>
 4   0  0.2441219E-02  0.9118800E+02  0.7818609E-02  0.1379984E+01
      -11   -1    0    0    0    0  0.00000000000E+00  0.00000000000E+00  0.35740347158E-01  0.35744000000E-01  0.51099999109E-03 0.  1.
       11   -1    0    0    0    0 -0.00000000000E+00 -0.00000000000E+00 -0.35740347158E-01  0.35744000000E-01  0.51099999109E-03 0. -1.
       22    1    1    2    0    0  0.46431444164E-04 -0.37644826906E-02 -0.35538149911E-01  0.35737005818E-01  0.00000000000E+00 0. -1.
  9000001    1    1    2    0    0 -0.46431444164E-04  0.37644826906E-02  0.35538149911E-01  0.35750994182E-01  0.10000000475E-02 0.  1.
</event>
<event>
 4   0  0.2441219E-02  0.9118800E+02  0.7818609E-02  0.1379984E+01
      -11   -1    0    0    0    0  0.00000000000E+00  0.00000000000E+00  0.35740347158E-01  0.35744000000E-01  0.51099999109E-03 0. -1.
       11   -1    0    0    0    0 -0.00000000000E+00 -0.00000000000E+00 -0.35740347158E-01  0.35744000000E-01  0.51099999109E-03 0.  1.
       22    1    1    2    0    0 -0.18244450562E-01 -0.10439009243E-01 -0.28901569068E-01  0.35737005818E-01  0.00000000000E+00 0.  1.
  9000001    1    1    2    0    0  0.18244450562E-01  0.10439009243E-01  0.28901569068E-01  0.35750994182E-01  0.10000000475E-02 0. -1.
</event>
<event>
 4   0  0.2441219E-02  0.9118800E+02  0.7818609E-02  0.1379984E+01
      -11   -1    0    0    0    0  0.00000000000E+00  0.00000000000E+00  0.35740347158E-01  0.35744000000E-01  0.51099999109E-03 0. -1.
       11   -1    0    0    0    0 -0.00000000000E+00 -0.00000000000E+00 -0.35740347158E-01  0.35744000000E-01  0.51099999109E-03 0.  1.
       22    1    1    2    0    0 -0.15163009337E-02  0.72685116628E-02 -0.34957161706E-01  0.35737005818E-01  0.00000000000E+00 0.  1.
  9000001    1    1    2    0    0  0.15163009337E-02 -0.72685116628E-02  0.34957161706E-01  0.35750994182E-01  0.10000000475E-02 0. -1.
</event>
<event>
 4   0  0.2441219E-02  0.9118800E+02  0.7818609E-02  0.1379984E+01
      -11   -1    0    0    0    0  0.00000000000E+00  0.00000000000E+00  0.35740347158E-01  0.35744000000E-01  0.51099999109E-03 0.  1.
       11   -1    0    0    0    0 -0.00000000000E+00 -0.00000000000E+00 -0.35740347158E-01  0.35744000000E-01  0.51099999109E-03 0. -1.
       22    1    1    2    0    0  0.28200277702E-02  0.72850374155E-02 -0.34872758109E-01  0.35737005818E-01  0.00000000000E+00 0. -1.
  9000001    1    1    2    0    0 -0.28200277702E-02 -0.72850374155E-02  0.34872758109E-01  0.35750994182E-01  0.10000000475E-02 0.  1.
</event>
<event>
 4   0  0.2441219E-02  0.9118800E+02  0.7818609E-02  0.1379984E+01
      -11   -1    0    0    0    0  0.00000000000E+00  0.00000000000E+00  0.35740347158E-01  0.35744000000E-01  0.51099999109E-03 0.  1.
       11   -1    0    0    0    0 -0.00000000000E+00 -0.00000000000E+00 -0.35740347158E-01  0.35744000000E-01  0.51099999109E-03 0. -1.
       22    1    1    2    0    0  0.33195492134E-02  0.26283803992E-01 -0.23984908289E-01  0.35737005818E-01  0.00000000000E+00 0. -1.
  9000001    1    1    2    0    0 -0.33195492134E-02 -0.26283803992E-01  0.23984908289E-01  0.35750994182E-01  0.10000000475E-02 0.  1.
</event>
<event>
 4   0  0.2441219E-02  0.9118800E+02  0.7818609E-02  0.1379984E+01
      -11   -1    0    0    0    0  0.00000000000E+00  0.00000000000E+00  0.35740347158E-01  0.35744000000E-01  0.51099999109E-03 0.  1.
       11   -1    0    0    0    0 -0.00000000000E+00 -0.00000000000E+00 -0.35740347158E-01  0.35744000000E-01  0.51099999109E-03 0. -1.
       22    1    1    2    0    0  0.31815356963E-01 -0.11407698132E-01  0.11609524947E-01  0.35737005818E-01  0.00000000000E+00 0.  1.
  9000001    1    1    2    0    0 -0.31815356963E-01  0.11407698132E-01 -0.11609524947E-01  0.35750994182E-01  0.10000000475E-02 0. -1.
</event>
<event>
 4   0  0.2441219E-02  0.9118800E+02  0.7818609E-02  0.1379984E+01
      -11   -1    0    0    0    0  0.00000000000E+00  0.00000000000E+00  0.35740347158E-01  0.35744000000E-01  0.51099999109E-03 0.  1.
       11   -1    0    0    0    0 -0.00000000000E+00 -0.00000000000E+00 -0.35740347158E-01  0.35744000000E-01  0.51099999109E-03 0. -1.
       22    1    1    2    0    0  0.15771042009E-01  0.33519693420E-02 -0.31893135944E-01  0.35737005818E-01  0.00000000000E+00 0. -1.
  9000001    1    1    2    0    0 -0.15771042009E-01 -0.33519693420E-02  0.31893135944E-01  0.35750994182E-01  0.10000000475E-02 0.  1.
</event>
<event>
 4   0  0.2441219E-02  0.9118800E+02  0.7818609E-02  0.1379984E+01
      -11   -1    0    0    0    0  0.00000000000E+00  0.00000000000E+00  0.35740347158E-01  0.35744000000E-01  0.51099999109E-03 0.  1.
       11   -1    0    0    0    0 -0.00000000000E+00 -0.00000000000E+00 -0.35740347158E-01  0.35744000000E-01  0.51099999109E-03 0. -1.
       22    1    1    2    0    0 -0.93700984943E-02 -0.35061629395E-02 -0.34308040756E-01  0.35737005818E-01  0.00000000000E+00 0. -1.
  9000001    1    1    2    0    0  0.93700984943E-02  0.35061629395E-02  0.34308040756E-01  0.35750994182E-01  0.10000000475E-02 0.  1.
</event>
<event>
 4   0  0.2441219E-02  0.9118800E+02  0.7818609E-02  0.1379984E+01
      -11   -1    0    0    0    0  0.00000000000E+00  0.00000000000E+00  0.35740347158E-01  0.35744000000E-01  0.51099999109E-03 0.  1.
       11   -1    0    0    0    0 -0.00000000000E+00 -0.00000000000E+00 -0.35740347158E-01  0.35744000000E-01  0.51099999109E-03 0. -1.
       22    1    1    2    0    0 -0.26818054293E-01  0.17893001338E-01  0.15419664456E-01  0.35737005818E-01  0.00000000000E+00 0. -1.
  9000001    1    1    2    0    0  0.26818054293E-01 -0.17893001338E-01 -0.15419664456E-01  0.35750994182E-01  0.10000000475E-02 0.  1.
</event>
<event>
 4   0  0.2441219E-02  0.9118800E+02  0.7818609E-02  0.1379984E+01
      -11   -1    0    0    0    0  0.00000000000E+00  0.00000000000E+00  0.35740347158E-01  0.35744000000E-01  0.51099999109E-03 0. -1.
       11   -1    0    0    0    0 -0.00000000000E+00 -0.00000000000E+00 -0.35740347158E-01  0.35744000000E-01  0.51099999109E-03 0.  1.
       22    1    1    2    0    0 -0.65670308570E-02  0.38791893475E-02 -0.34913601656E-01  0.35737005818E-01  0.00000000000E+00 0.  1.
  9000001    1    1    2    0    0  0.65670308570E-02 -0.38791893475E-02  0.34913601656E-01  0.35750994182E-01  0.10000000475E-02 0. -1.
</event>
<event>
 4   0  0.2441219E-02  0.9118800E+02  0.7818609E-02  0.1379984E+01
      -11   -1    0    0    0    0  0.00000000000E+00  0.00000000000E+00  0.35740347158E-01  0.35744000000E-01  0.51099999109E-03 0. -1.
       11   -1    0    0    0    0 -0.00000000000E+00 -0.00000000000E+00 -0.35740347158E-01  0.35744000000E-01  0.51099999109E-03 0.  1.
       22    1    1    2    0    0 -0.29502797597E-02 -0.13984872193E-02  0.35587549336E-01  0.35737005818E-01  0.00000000000E+00 0. -1.
  9000001    1    1    2    0    0  0.29502797597E-02  0.13984872193E-02 -0.35587549336E-01  0.35750994182E-01  0.10000000475E-02 0.  1.
</event>
<event>
 4   0  0.2441219E-02  0.9118800E+02  0.7818609E-02  0.1379984E+01
      -11   -1    0    0    0    0  0.00000000000E+00  0.00000000000E+00  0.35740347158E-01  0.35744000000E-01  0.51099999109E-03 0.  1.
       11   -1    0    0    0    0 -0.00000000000E+00 -0.00000000000E+00 -0.35740347158E-01  0.35744000000E-01  0.51099999109E-03 0. -1.
       22    1    1    2    0    0  0.14763798397E-01  0.23362716555E-01  0.22657169217E-01  0.35737005818E-01  0.00000000000E+00 0.  1.
  9000001    1    1    2    0    0 -0.14763798397E-01 -0.23362716555E-01 -0.22657169217E-01  0.35750994182E-01  0.10000000475E-02 0. -1.
</event>
<event>
 4   0  0.2441219E-02  0.9118800E+02  0.7818609E-02  0.1379984E+01
      -11   -1    0    0    0    0  0.00000000000E+00  0.00000000000E+00  0.35740347158E-01  0.35744000000E-01  0.51099999109E-03 0. -1.
       11   -1    0    0    0    0 -0.00000000000E+00 -0.00000000000E+00 -0.35740347158E-01  0.35744000000E-01  0.51099999109E-03 0.  1.
       22    1    1    2    0    0 -0.50578543395E-03  0.23065358814E-01  0.27292251442E-01  0.35737005818E-01  0.00000000000E+00 0. -1.
  9000001    1    1    2    0    0  0.50578543395E-03 -0.23065358814E-01 -0.27292251442E-01  0.35750994182E-01  0.10000000475E-02 0.  1.
</event>
<event>
 4   0  0.2441219E-02  0.9118800E+02  0.7818609E-02  0.1379984E+01
      -11   -1    0    0    0    0  0.00000000000E+00  0.00000000000E+00  0.35740347158E-01  0.35744000000E-01  0.51099999109E-03 0.  1.
       11   -1    0    0    0    0 -0.00000000000E+00 -0.00000000000E+00 -0.35740347158E-01  0.35744000000E-01  0.51099999109E-03 0. -1.
       22    1    1    2    0    0  0.66064860238E-02 -0.12212019442E-01 -0.32929538540E-01  0.35737005818E-01  0.00000000000E+00 0. -1.
  9000001    1    1    2    0    0 -0.66064860238E-02  0.12212019442E-01  0.32929538540E-01  0.35750994182E-01  0.10000000475E-02 0.  1.
</event>
<event>
 4   0  0.2441219E-02  0.9118800E+02  0.7818609E-02  0.1379984E+01
      -11   -1    0    0    0    0  0.00000000000E+00  0.00000000000E+00  0.35740347158E-01  0.35744000000E-01  0.51099999109E-03 0.  1.
       11   -1    0    0    0    0 -0.00000000000E+00 -0.00000000000E+00 -0.35740347158E-01  0.35744000000E-01  0.51099999109E-03 0. -1.
       22    1    1    2    0    0  0.23425504612E-02 -0.22694011811E-02  0.35587861140E-01  0.35737005818E-01  0.00000000000E+00 0.  1.
  9000001    1    1    2    0    0 -0.23425504612E-02  0.22694011811E-02 -0.35587861140E-01  0.35750994182E-01  0.10000000475E-02 0. -1.
</event>
<event>
 4   0  0.2441219E-02  0.9118800E+02  0.7818609E-02  0.1379984E+01
      -11   -1    0    0    0    0  0.00000000000E+00  0.00000000000E+00  0.35740347158E-01  0.35744000000E-01  0.51099999109E-03 0.  1.
       11   -1    0    0    0    0 -0.00000000000E+00 -0.00000000000E+00 -0.35740347158E-01  0.35744000000E-01  0.51099999109E-03 0. -1.
       22    1    1    2    0    0 -0.12697537105E-02 -0.30478050131E-02 -0.35584156516E-01  0.35737005818E-01  0.00000000000E+00 0. -1.
  9000001    1    1    2    0    0  0.12697537105E-02  0.30478050131E-02  0.35584156516E-01  0.35750994182E-01  0.10000000475E-02 0.  1.
</event>
<event>
 4   0  0.2441219E-02  0.9118800E+02  0.7818609E-02  0.1379984E+01
      -11   -1    0    0    0    0  0.00000000000E+00  0.00000000000E+00  0.35740347158E-01  0.35744000000E-01  0.51099999109E-03 0.  1.
       11   -1    0    0    0    0 -0.00000000000E+00 -0.00000000000E+00 -0.35740347158E-01  0.35744000000E-01  0.51099999109E-03 0. -1.
       22    1    1    2    0    0  0.23867658923E-02 -0.39748058349E-02 -0.35434980627E-01  0.35737005818E-01  0.00000000000E+00 0. -1.
  9000001    1    1    2    0    0 -0.23867658923E-02  0.39748058349E-02  0.35434980627E-01  0.35750994182E-01  0.10000000475E-02 0.  1.
</event>
<event>
 4   0  0.2441219E-02  0.9118800E+02  0.7818609E-02  0.1379984E+01
      -11   -1    0    0    0    0  0.00000000000E+00  0.00000000000E+00  0.35740347158E-01  0.35744000000E-01  0.51099999109E-03 0.  1.
       11   -1    0    0    0    0 -0.00000000000E+00 -0.00000000000E+00 -0.35740347158E-01  0.35744000000E-01  0.51099999109E-03 0. -1.
       22    1    1    2    0    0 -0.16442949889E-01 -0.31372404545E-02  0.31574051152E-01  0.35737005818E-01  0.00000000000E+00 0.  1.
  9000001    1    1    2    0    0  0.16442949889E-01  0.31372404545E-02 -0.31574051152E-01  0.35750994182E-01  0.10000000475E-02 0. -1.
</event>
<event>
 4   0  0.2441219E-02  0.9118800E+02  0.7818609E-02  0.1379984E+01
      -11   -1    0    0    0    0  0.00000000000E+00  0.00000000000E+00  0.35740347158E-01  0.35744000000E-01  0.51099999109E-03 0.  1.
       11   -1    0    0    0    0 -0.00000000000E+00 -0.00000000000E+00 -0.35740347158E-01  0.35744000000E-01  0.51099999109E-03 0. -1.
       22    1    1    2    0    0  0.62051520439E-02 -0.25202658908E-01  0.24565334457E-01  0.35737005818E-01  0.00000000000E+00 0.  1.
  9000001    1    1    2    0    0 -0.62051520439E-02  0.25202658908E-01 -0.24565334457E-01  0.35750994182E-01  0.10000000475E-02 0. -1.
</event>
<event>
 4   0  0.2441219E-02  0.9118800E+02  0.7818609E-02  0.1379984E+01
      -11   -1    0    0    0    0  0.00000000000E+00  0.00000000000E+00  0.35740347158E-01  0.35744000000E-01  0.51099999109E-03 0. -1.
       11   -1    0    0    0    0 -0.00000000000E+00 -0.00000000000E+00 -0.35740347158E-01  0.35744000000E-01  0.51099999109E-03 0.  1.
       22    1    1    2    0    0  0.71271111102E-02  0.16343425689E-01  0.30971443441E-01  0.35737005818E-01  0.00000000000E+00 0. -1.
  9000001    1    1    2    0    0 -0.71271111102E-02 -0.16343425689E-01 -0.30971443441E-01  0.35750994182E-01  0.10000000475E-02 0.  1.
</event>
<event>
 4   0  0.2441219E-02  0.9118800E+02  0.7818609E-02  0.1379984E+01
      -11   -1    0    0    0    0  0.00000000000E+00  0.00000000000E+00  0.35740347158E-01  0.35744000000E-01  0.51099999109E-03 0.  1.
       11   -1    0    0    0    0 -0.00000000000E+00 -0.00000000000E+00 -0.35740347158E-01  0.35744000000E-01  0.51099999109E-03 0. -1.
       22    1    1    2    0    0  0.20641953370E-01 -0.28725339679E-01 -0.50890280304E-02  0.35737005818E-01  0.00000000000E+00 0.  1.
  9000001    1    1    2    0    0 -0.20641953370E-01  0.28725339679E-01  0.50890280304E-02  0.35750994182E-01  0.10000000475E-02 0. -1.
</event>
<event>
 4   0  0.2441219E-02  0.9118800E+02  0.7818609E-02  0.1379984E+01
      -11   -1    0    0    0    0  0.00000000000E+00  0.00000000000E+00  0.35740347158E-01  0.35744000000E-01  0.51099999109E-03 0.  1.
       11   -1    0    0    0    0 -0.00000000000E+00 -0.00000000000E+00 -0.35740347158E-01  0.35744000000E-01  0.51099999109E-03 0. -1.
       22    1    1    2    0    0  0.40142826121E-02  0.17688400946E-01 -0.30791875421E-01  0.35737005818E-01  0.00000000000E+00 0. -1.
  9000001    1    1    2    0    0 -0.40142826121E-02 -0.17688400946E-01  0.30791875421E-01  0.35750994182E-01  0.10000000475E-02 0.  1.
</event>
<event>
 4   0  0.2441219E-02  0.9118800E+02  0.7818609E-02  0.1379984E+01
      -11   -1    0    0    0    0  0.00000000000E+00  0.00000000000E+00  0.35740347158E-01  0.35744000000E-01  0.51099999109E-03 0.  1.
       11   -1    0    0    0    0 -0.00000000000E+00 -0.00000000000E+00 -0.35740347158E-01  0.35744000000E-01  0.51099999109E-03 0. -1.
       22    1    1    2    0    0  0.14566456737E-02 -0.54265371182E-02  0.35292555350E-01  0.35737005818E-01  0.00000000000E+00 0.  1.
  9000001    1    1    2    0    0 -0.14566456737E-02  0.54265371182E-02 -0.35292555350E-01  0.35750994182E-01  0.10000000475E-02 0. -1.
</event>
<event>
 4   0  0.2441219E-02  0.9118800E+02  0.7818609E-02  0.1379984E+01
      -11   -1    0    0    0    0  0.00000000000E+00  0.00000000000E+00  0.35740347158E-01  0.35744000000E-01  0.51099999109E-03 0.  1.
       11   -1    0    0    0    0 -0.00000000000E+00 -0.00000000000E+00 -0.35740347158E-01  0.35744000000E-01  0.51099999109E-03 0. -1.
       22    1    1    2    0    0  0.16149975035E-01  0.14307394889E-02 -0.31847525426E-01  0.35737005818E-01  0.00000000000E+00 0. -1.
  9000001    1    1    2    0    0 -0.16149975035E-01 -0.14307394889E-02  0.31847525426E-01  0.35750994182E-01  0.10000000475E-02 0.  1.
</event>
<event>
 4   0  0.2441219E-02  0.9118800E+02  0.7818609E-02  0.1379984E+01
      -11   -1    0    0    0    0  0.00000000000E+00  0.00000000000E+00  0.35740347158E-01  0.35744000000E-01  0.51099999109E-03 0. -1.
       11   -1    0    0    0    0 -0.00000000000E+00 -0.00000000000E+00 -0.35740347158E-01  0.35744000000E-01  0.51099999109E-03 0.  1.
       22    1    1    2    0    0 -0.34491531944E-02 -0.67792223924E-02  0.34918176798E-01  0.35737005818E-01  0.00000000000E+00 0. -1.
  9000001    1    1    2    0    0  0.34491531944E-02  0.67792223924E-02 -0.34918176798E-01  0.35750994182E-01  0.10000000475E-02 0.  1.
</event>
<event>
 4   0  0.2441219E-02  0.9118800E+02  0.7818609E-02  0.1379984E+01
      -11   -1    0    0    0    0  0.00000000000E+00  0.00000000000E+00  0.35740347158E-01  0.35744000000E-01  0.51099999109E-03 0. -1.
       11   -1    0    0    0    0 -0.00000000000E+00 -0.00000000000E+00 -0.35740347158E-01  0.35744000000E-01  0.51099999109E-03 0.  1.
       22    1    1    2    0    0  0.72725740946E-02 -0.30092983143E-01  0.17850927608E-01  0.35737005818E-01  0.00000000000E+00 0. -1.
  9000001    1    1    2    0    0 -0.72725740946E-02  0.30092983143E-01 -0.17850927608E-01  0.35750994182E-01  0.10000000475E-02 0.  1.
</event>
<event>
 4   0  0.2441219E-02  0.9118800E+02  0.7818609E-02  0.1379984E+01
      -11   -1    0    0    0    0  0.00000000000E+00  0.00000000000E+00  0.35740347158E-01  0.35744000000E-01  0.51099999109E-03 0. -1.
       11   -1    0    0    0    0 -0.00000000000E+00 -0.00000000000E+00 -0.35740347158E-01  0.35744000000E-01  0.51099999109E-03 0.  1.
       22    1    1    2    0    0  0.23412957606E-02  0.24078476244E-02 -0.35578844681E-01  0.35737005818E-01  0.00000000000E+00 0.  1.
  9000001    1    1    2    0    0 -0.23412957606E-02 -0.24078476244E-02  0.35578844681E-01  0.35750994182E-01  0.10000000475E-02 0. -1.
</event>
<event>
 4   0  0.2441219E-02  0.9118800E+02  0.7818609E-02  0.1379984E+01
      -11   -1    0    0    0    0  0.00000000000E+00  0.00000000000E+00  0.35740347158E-01  0.35744000000E-01  0.51099999109E-03 0. -1.
       11   -1    0    0    0    0 -0.00000000000E+00 -0.00000000000E+00 -0.35740347158E-01  0.35744000000E-01  0.51099999109E-03 0.  1.
       22    1    1    2    0    0  0.21259728994E-02 -0.24458728454E-02 -0.35589767211E-01  0.35737005818E-01  0.00000000000E+00 0.  1.
  9000001    1    1    2    0    0 -0.21259728994E-02  0.24458728454E-02  0.35589767211E-01  0.35750994182E-01  0.10000000475E-02 0. -1.
</event>
<event>
 4   0  0.2441219E-02  0.9118800E+02  0.7818609E-02  0.1379984E+01
      -11   -1    0    0    0    0  0.00000000000E+00  0.00000000000E+00  0.35740347158E-01  0.35744000000E-01  0.51099999109E-03 0.  1.
       11   -1    0    0    0    0 -0.00000000000E+00 -0.00000000000E+00 -0.35740347158E-01  0.35744000000E-01  0.51099999109E-03 0. -1.
       22    1    1    2    0    0  0.52273170328E-02  0.17204658407E-02 -0.35310745373E-01  0.35737005818E-01  0.00000000000E+00 0. -1.
  9000001    1    1    2    0    0 -0.52273170328E-02 -0.17204658407E-02  0.35310745373E-01  0.35750994182E-01  0.10000000475E-02 0.  1.
</event>
<event>
 4   0  0.2441219E-02  0.9118800E+02  0.7818609E-02  0.1379984E+01
      -11   -1    0    0    0    0  0.00000000000E+00  0.00000000000E+00  0.35740347158E-01  0.35744000000E-01  0.51099999109E-03 0.  1.
       11   -1    0    0    0    0 -0.00000000000E+00 -0.00000000000E+00 -0.35740347158E-01  0.35744000000E-01  0.51099999109E-03 0. -1.
       22    1    1    2    0    0  0.32255035419E-02  0.37238745744E-03 -0.35589198352E-01  0.35737005818E-01  0.00000000000E+00 0. -1.
  9000001    1    1    2    0    0 -0.32255035419E-02 -0.37238745744E-03  0.35589198352E-01  0.35750994182E-01  0.10000000475E-02 0.  1.
</event>
<event>
 4   0  0.2441219E-02  0.9118800E+02  0.7818609E-02  0.1379984E+01
      -11   -1    0    0    0    0  0.00000000000E+00  0.00000000000E+00  0.35740347158E-01  0.35744000000E-01  0.51099999109E-03 0.  1.
       11   -1    0    0    0    0 -0.00000000000E+00 -0.00000000000E+00 -0.35740347158E-01  0.35744000000E-01  0.51099999109E-03 0. -1.
       22    1    1    2    0    0  0.26016701946E-01  0.70320101958E-04  0.24500201219E-01  0.35737005818E-01  0.00000000000E+00 0.  1.
  9000001    1    1    2    0    0 -0.26016701946E-01 -0.70320101958E-04 -0.24500201219E-01  0.35750994182E-01  0.10000000475E-02 0. -1.
</event>
<event>
 4   0  0.2441219E-02  0.9118800E+02  0.7818609E-02  0.1379984E+01
      -11   -1    0    0    0    0  0.00000000000E+00  0.00000000000E+00  0.35740347158E-01  0.35744000000E-01  0.51099999109E-03 0. -1.
       11   -1    0    0    0    0 -0.00000000000E+00 -0.00000000000E+00 -0.35740347158E-01  0.35744000000E-01  0.51099999109E-03 0.  1.
       22    1    1    2    0    0 -0.15318969699E-01  0.87339473749E-02 -0.31083450830E-01  0.35737005818E-01  0.00000000000E+00 0.  1.
  9000001    1    1    2    0    0  0.15318969699E-01 -0.87339473749E-02  0.31083450830E-01  0.35750994182E-01  0.10000000475E-02 0. -1.
</event>
<event>
 4   0  0.2441219E-02  0.9118800E+02  0.7818609E-02  0.1379984E+01
      -11   -1    0    0    0    0  0.00000000000E+00  0.00000000000E+00  0.35740347158E-01  0.35744000000E-01  0.51099999109E-03 0. -1.
       11   -1    0    0    0    0 -0.00000000000E+00 -0.00000000000E+00 -0.35740347158E-01  0.35744000000E-01  0.51099999109E-03 0.  1.
       22    1    1    2    0    0 -0.33897563793E-02 -0.80928884136E-03  0.35566672435E-01  0.35737005818E-01  0.00000000000E+00 0. -1.
  9000001    1    1    2    0    0  0.33897563793E-02  0.80928884136E-03 -0.35566672435E-01  0.35750994182E-01  0.10000000475E-02 0.  1.
</event>
<event>
 4   0  0.2441219E-02  0.9118800E+02  0.7818609E-02  0.1379984E+01
      -11   -1    0    0    0    0  0.00000000000E+00  0.00000000000E+00  0.35740347158E-01  0.35744000000E-01  0.51099999109E-03 0.  1.
       11   -1    0    0    0    0 -0.00000000000E+00 -0.00000000000E+00 -0.35740347158E-01  0.35744000000E-01  0.51099999109E-03 0. -1.
       22    1    1    2    0    0  0.20653297074E-02 -0.49541206101E-02  0.35331638613E-01  0.35737005818E-01  0.00000000000E+00 0.  1.
  9000001    1    1    2    0    0 -0.20653297074E-02  0.49541206101E-02 -0.35331638613E-01  0.35750994182E-01  0.10000000475E-02 0. -1.
</event>
<event>
 4   0  0.2441219E-02  0.9118800E+02  0.7818609E-02  0.1379984E+01
      -11   -1    0    0    0    0  0.00000000000E+00  0.00000000000E+00  0.35740347158E-01  0.35744000000E-01  0.51099999109E-03 0. -1.
       11   -1    0    0    0    0 -0.00000000000E+00 -0.00000000000E+00 -0.35740347158E-01  0.35744000000E-01  0.51099999109E-03 0.  1.
       22    1    1    2    0    0 -0.13780049598E-01  0.26733267357E-02 -0.32864831387E-01  0.35737005818E-01  0.00000000000E+00 0.  1.
  9000001    1    1    2    0    0  0.13780049598E-01 -0.26733267357E-02  0.32864831387E-01  0.35750994182E-01  0.10000000475E-02 0. -1.
</event>
<event>
 4   0  0.2441219E-02  0.9118800E+02  0.7818609E-02  0.1379984E+01
      -11   -1    0    0    0    0  0.00000000000E+00  0.00000000000E+00  0.35740347158E-01  0.35744000000E-01  0.51099999109E-03 0.  1.
       11   -1    0    0    0    0 -0.00000000000E+00 -0.00000000000E+00 -0.35740347158E-01  0.35744000000E-01  0.51099999109E-03 0. -1.
       22    1    1    2    0    0  0.20479646350E-01  0.28427219019E-01 -0.70434997747E-02  0.35737005818E-01  0.00000000000E+00 0.  1.
  9000001    1    1    2    0    0 -0.20479646350E-01 -0.28427219019E-01  0.70434997747E-02  0.35750994182E-01  0.10000000475E-02 0. -1.
</event>
<event>
 4   0  0.2441219E-02  0.9118800E+02  0.7818609E-02  0.1379984E+01
      -11   -1    0    0    0    0  0.00000000000E+00  0.00000000000E+00  0.35740347158E-01  0.35744000000E-01  0.51099999109E-03 0.  1.
       11   -1    0    0    0    0 -0.00000000000E+00 -0.00000000000E+00 -0.35740347158E-01  0.35744000000E-01  0.51099999109E-03 0. -1.
       22    1    1    2    0    0  0.10557232162E-01 -0.63295292143E-03 -0.34136165639E-01  0.35737005818E-01  0.00000000000E+00 0. -1.
  9000001    1    1    2    0    0 -0.10557232162E-01  0.63295292143E-03  0.34136165639E-01  0.35750994182E-01  0.10000000475E-02 0.  1.
</event>
<event>
 4   0  0.2441219E-02  0.9118800E+02  0.7818609E-02  0.1379984E+01
      -11   -1    0    0    0    0  0.00000000000E+00  0.00000000000E+00  0.35740347158E-01  0.35744000000E-01  0.51099999109E-03 0.  1.
       11   -1    0    0    0    0 -0.00000000000E+00 -0.00000000000E+00 -0.35740347158E-01  0.35744000000E-01  0.51099999109E-03 0. -1.
       22    1    1    2    0    0  0.32738948821E-02 -0.13597172850E-01  0.32886655161E-01  0.35737005818E-01  0.00000000000E+00 0.  1.
  9000001    1    1    2    0    0 -0.32738948821E-02  0.13597172850E-01 -0.32886655161E-01  0.35750994182E-01  0.10000000475E-02 0. -1.
</event>
<event>
 4   0  0.2441219E-02  0.9118800E+02  0.7818609E-02  0.1379984E+01
      -11   -1    0    0    0    0  0.00000000000E+00  0.00000000000E+00  0.35740347158E-01  0.35744000000E-01  0.51099999109E-03 0.  1.
       11   -1    0    0    0    0 -0.00000000000E+00 -0.00000000000E+00 -0.35740347158E-01  0.35744000000E-01  0.51099999109E-03 0. -1.
       22    1    1    2    0    0 -0.16593903576E-01 -0.14118300413E-02 -0.31619340362E-01  0.35737005818E-01  0.00000000000E+00 0. -1.
  9000001    1    1    2    0    0  0.16593903576E-01  0.14118300413E-02  0.31619340362E-01  0.35750994182E-01  0.10000000475E-02 0.  1.
</event>
<event>
 4   0  0.2441219E-02  0.9118800E+02  0.7818609E-02  0.1379984E+01
      -11   -1    0    0    0    0  0.00000000000E+00  0.00000000000E+00  0.35740347158E-01  0.35744000000E-01  0.51099999109E-03 0. -1.
       11   -1    0    0    0    0 -0.00000000000E+00 -0.00000000000E+00 -0.35740347158E-01  0.35744000000E-01  0.51099999109E-03 0.  1.
       22    1    1    2    0    0  0.16793245294E-01  0.46514390706E-02  0.31200714927E-01  0.35737005818E-01  0.00000000000E+00 0. -1.
  9000001    1    1    2    0    0 -0.16793245294E-01 -0.46514390706E-02 -0.31200714927E-01  0.35750994182E-01  0.10000000475E-02 0.  1.
</event>
<event>
 4   0  0.2441219E-02  0.9118800E+02  0.7818609E-02  0.1379984E+01
      -11   -1    0    0    0    0  0.00000000000E+00  0.00000000000E+00  0.35740347158E-01  0.35744000000E-01  0.51099999109E-03 0.  1.
       11   -1    0    0    0    0 -0.00000000000E+00 -0.00000000000E+00 -0.35740347158E-01  0.35744000000E-01  0.51099999109E-03 0. -1.
       22    1    1    2    0    0 -0.76090217967E-02  0.13748472576E-01  0.32096976088E-01  0.35737005818E-01  0.00000000000E+00 0.  1.
  9000001    1    1    2    0    0  0.76090217967E-02 -0.13748472576E-01 -0.32096976088E-01  0.35750994182E-01  0.10000000475E-02 0. -1.
</event>
<event>
 4   0  0.2441219E-02  0.9118800E+02  0.7818609E-02  0.1379984E+01
      -11   -1    0    0    0    0  0.00000000000E+00  0.00000000000E+00  0.35740347158E-01  0.35744000000E-01  0.51099999109E-03 0.  1.
       11   -1    0    0    0    0 -0.00000000000E+00 -0.00000000000E+00 -0.35740347158E-01  0.35744000000E-01  0.51099999109E-03 0. -1.
       22    1    1    2    0    0 -0.27238877966E-02 -0.17055952099E-02 -0.35592203713E-01  0.35737005818E-01  0.00000000000E+00 0. -1.
  9000001    1    1    2    0    0  0.27238877966E-02  0.17055952099E-02  0.35592203713E-01  0.35750994182E-01  0.10000000475E-02 0.  1.
</event>
<event>
 4   0  0.2441219E-02  0.9118800E+02  0.7818609E-02  0.1379984E+01
      -11   -1    0    0    0    0  0.00000000000E+00  0.00000000000E+00  0.35740347158E-01  0.35744000000E-01  0.51099999109E-03 0. -1.
       11   -1    0    0    0    0 -0.00000000000E+00 -0.00000000000E+00 -0.35740347158E-01  0.35744000000E-01  0.51099999109E-03 0.  1.
       22    1    1    2    0    0 -0.19306931476E-01  0.18774921881E-01  0.23492089950E-01  0.35737005818E-01  0.00000000000E+00 0. -1.
  9000001    1    1    2    0    0  0.19306931476E-01 -0.18774921881E-01 -0.23492089950E-01  0.35750994182E-01  0.10000000475E-02 0.  1.
</event>
<event>
 4   0  0.2441219E-02  0.9118800E+02  0.7818609E-02  0.1379984E+01
      -11   -1    0    0    0    0  0.00000000000E+00  0.00000000000E+00  0.35740347158E-01  0.35744000000E-01  0.51099999109E-03 0. -1.
       11   -1    0    0    0    0 -0.00000000000E+00 -0.00000000000E+00 -0.35740347158E-01  0.35744000000E-01  0.51099999109E-03 0.  1.
       22    1    1    2    0    0  0.61912649753E-03 -0.41638716169E-02 -0.35488201425E-01  0.35737005818E-01  0.00000000000E+00 0.  1.
  9000001    1    1    2    0    0 -0.61912649753E-03  0.41638716169E-02  0.35488201425E-01  0.35750994182E-01  0.10000000475E-02 0. -1.
</event>
<event>
 4   0  0.2441219E-02  0.9118800E+02  0.7818609E-02  0.1379984E+01
      -11   -1    0    0    0    0  0.00000000000E+00  0.00000000000E+00  0.35740347158E-01  0.35744000000E-01  0.51099999109E-03 0.  1.
       11   -1    0    0    0    0 -0.00000000000E+00 -0.00000000000E+00 -0.35740347158E-01  0.35744000000E-01  0.51099999109E-03 0. -1.
       22    1    1    2    0    0 -0.18513949729E-01  0.31580762348E-02 -0.30403845230E-01  0.35737005818E-01  0.00000000000E+00 0. -1.
  9000001    1    1    2    0    0  0.18513949729E-01 -0.31580762348E-02  0.30403845230E-01  0.35750994182E-01  0.10000000475E-02 0.  1.
</event>
<event>
 4   0  0.2441219E-02  0.9118800E+02  0.7818609E-02  0.1379984E+01
      -11   -1    0    0    0    0  0.00000000000E+00  0.00000000000E+00  0.35740347158E-01  0.35744000000E-01  0.51099999109E-03 0.  1.
       11   -1    0    0    0    0 -0.00000000000E+00 -0.00000000000E+00 -0.35740347158E-01  0.35744000000E-01  0.51099999109E-03 0. -1.
       22    1    1    2    0    0  0.14108928832E-01  0.83512754746E-02  0.31754179411E-01  0.35737005818E-01  0.00000000000E+00 0.  1.
  9000001    1    1    2    0    0 -0.14108928832E-01 -0.83512754746E-02 -0.31754179411E-01  0.35750994182E-01  0.10000000475E-02 0. -1.
</event>
<event>
 4   0  0.2441219E-02  0.9118800E+02  0.7818609E-02  0.1379984E+01
      -11   -1    0    0    0    0  0.00000000000E+00  0.00000000000E+00  0.35740347158E-01  0.35744000000E-01  0.51099999109E-03 0. -1.
       11   -1    0    0    0    0 -0.00000000000E+00 -0.00000000000E+00 -0.35740347158E-01  0.35744000000E-01  0.51099999109E-03 0.  1.
       22    1    1    2    0    0  0.33773551071E-02 -0.79851977649E-02 -0.34669347759E-01  0.35737005818E-01  0.00000000000E+00 0.  1.
  9000001    1    1    2    0    0 -0.33773551071E-02  0.79851977649E-02  0.34669347759E-01  0.35750994182E-01  0.10000000475E-02 0. -1.
</event>
<event>
 4   0  0.2441219E-02  0.9118800E+02  0.7818609E-02  0.1379984E+01
      -11   -1    0    0    0    0  0.00000000000E+00  0.00000000000E+00  0.35740347158E-01  0.35744000000E-01  0.51099999109E-03 0.  1.
       11   -1    0    0    0    0 -0.00000000000E+00 -0.00000000000E+00 -0.35740347158E-01  0.35744000000E-01  0.51099999109E-03 0. -1.
       22    1    1    2    0    0  0.10415947934E-01  0.39464984505E-02 -0.33956836771E-01  0.35737005818E-01  0.00000000000E+00 0. -1.
  9000001    1    1    2    0    0 -0.10415947934E-01 -0.39464984505E-02  0.33956836771E-01  0.35750994182E-01  0.10000000475E-02 0.  1.
</event>
<event>
 4   0  0.2441219E-02  0.9118800E+02  0.7818609E-02  0.1379984E+01
      -11   -1    0    0    0    0  0.00000000000E+00  0.00000000000E+00  0.35740347158E-01  0.35744000000E-01  0.51099999109E-03 0.  1.
       11   -1    0    0    0    0 -0.00000000000E+00 -0.00000000000E+00 -0.35740347158E-01  0.35744000000E-01  0.51099999109E-03 0. -1.
       22    1    1    2    0    0 -0.23663580054E-02  0.22090335220E-01  0.27991981433E-01  0.35737005818E-01  0.00000000000E+00 0.  1.
  9000001    1    1    2    0    0  0.23663580054E-02 -0.22090335220E-01 -0.27991981433E-01  0.35750994182E-01  0.10000000475E-02 0. -1.
</event>
<event>
 4   0  0.2441219E-02  0.9118800E+02  0.7818609E-02  0.1379984E+01
      -11   -1    0    0    0    0  0.00000000000E+00  0.00000000000E+00  0.35740347158E-01  0.35744000000E-01  0.51099999109E-03 0.  1.
       11   -1    0    0    0    0 -0.00000000000E+00 -0.00000000000E+00 -0.35740347158E-01  0.35744000000E-01  0.51099999109E-03 0. -1.
       22    1    1    2    0    0  0.25296647792E-02 -0.34194262219E-02 -0.35482980502E-01  0.35737005818E-01  0.00000000000E+00 0. -1.
  9000001    1    1    2    0    0 -0.25296647792E-02  0.34194262219E-02  0.35482980502E-01  0.35750994182E-01  0.10000000475E-02 0.  1.
</event>
<event>
 4   0  0.2441219E-02  0.9118800E+02  0.7818609E-02  0.1379984E+01
      -11   -1    0    0    0    0  0.00000000000E+00  0.00000000000E+00  0.35740347158E-01  0.35744000000E-01  0.51099999109E-03 0.  1.
       11   -1    0    0    0    0 -0.00000000000E+00 -0.00000000000E+00 -0.35740347158E-01  0.35744000000E-01  0.51099999109E-03 0. -1.
       22    1    1    2    0    0  0.17018824411E-01 -0.11151205522E-01  0.29379309317E-01  0.35737005818E-01  0.00000000000E+00 0.  1.
  9000001    1    1    2    0    0 -0.17018824411E-01  0.11151205522E-01 -0.29379309317E-01  0.35750994182E-01  0.10000000475E-02 0. -1.
</event>
<event>
 4   0  0.2441219E-02  0.9118800E+02  0.7818609E-02  0.1379984E+01
      -11   -1    0    0    0    0  0.00000000000E+00  0.00000000000E+00  0.35740347158E-01  0.35744000000E-01  0.51099999109E-03 0.  1.
       11   -1    0    0    0    0 -0.00000000000E+00 -0.00000000000E+00 -0.35740347158E-01  0.35744000000E-01  0.51099999109E-03 0. -1.
       22    1    1    2    0    0  0.14044779759E-01  0.16344087348E-01 -0.28508745240E-01  0.35737005818E-01  0.00000000000E+00 0. -1.
  9000001    1    1    2    0    0 -0.14044779759E-01 -0.16344087348E-01  0.28508745240E-01  0.35750994182E-01  0.10000000475E-02 0.  1.
</event>
<event>
 4   0  0.2441219E-02  0.9118800E+02  0.7818609E-02  0.1379984E+01
      -11   -1    0    0    0    0  0.00000000000E+00  0.00000000000E+00  0.35740347158E-01  0.35744000000E-01  0.51099999109E-03 0. -1.
       11   -1    0    0    0    0 -0.00000000000E+00 -0.00000000000E+00 -0.35740347158E-01  0.35744000000E-01  0.51099999109E-03 0.  1.
       22    1    1    2    0    0  0.29056954237E-01  0.28595707046E-03  0.20802529267E-01  0.35737005818E-01  0.00000000000E+00 0. -1.
  9000001    1    1    2    0    0 -0.29056954237E-01 -0.28595707046E-03 -0.20802529267E-01  0.35750994182E-01  0.10000000475E-02 0.  1.
</event>
<event>
 4   0  0.2441219E-02  0.9118800E+02  0.7818609E-02  0.1379984E+01
      -11   -1    0    0    0    0  0.00000000000E+00  0.00000000000E+00  0.35740347158E-01  0.35744000000E-01  0.51099999109E-03 0.  1.
       11   -1    0    0    0    0 -0.00000000000E+00 -0.00000000000E+00 -0.35740347158E-01  0.35744000000E-01  0.51099999109E-03 0. -1.
       22    1    1    2    0    0 -0.10980563439E-02 -0.30639105956E-02  0.35588485624E-01  0.35737005818E-01  0.00000000000E+00 0.  1.
  9000001    1    1    2    0    0  0.10980563439E-02  0.30639105956E-02 -0.35588485624E-01  0.35750994182E-01  0.10000000475E-02 0. -1.
</event>
<event>
 4   0  0.2441219E-02  0.9118800E+02  0.7818609E-02  0.1379984E+01
      -11   -1    0    0    0    0  0.00000000000E+00  0.00000000000E+00  0.35740347158E-01  0.35744000000E-01  0.51099999109E-03 0.  1.
       11   -1    0    0    0    0 -0.00000000000E+00 -0.00000000000E+00 -0.35740347158E-01  0.35744000000E-01  0.51099999109E-03 0. -1.
       22    1    1    2    0    0 -0.21290815043E-02 -0.15291844602E-01 -0.32229801202E-01  0.35737005818E-01  0.00000000000E+00 0. -1.
  9000001    1    1    2    0    0  0.21290815043E-02  0.15291844602E-01  0.32229801202E-01  0.35750994182E-01  0.10000000475E-02 0.  1.
</event>
<event>
 4   0  0.2441219E-02  0.9118800E+02  0.7818609E-02  0.1379984E+01
      -11   -1    0    0    0    0  0.00000000000E+00  0.00000000000E+00  0.35740347158E-01  0.35744000000E-01  0.51099999109E-03 0. -1.
       11   -1    0    0    0    0 -0.00000000000E+00 -0.00000000000E+00 -0.35740347158E-01  0.35744000000E-01  0.51099999109E-03 0.  1.
       22    1    1    2    0    0 -0.80442525853E-02 -0.69466564332E-02  0.34119899613E-01  0.35737005818E-01  0.00000000000E+00 0. -1.
  9000001    1    1    2    0    0  0.80442525853E-02  0.69466564332E-02 -0.34119899613E-01  0.35750994182E-01  0.10000000475E-02 0.  1.
</event>
<event>
 4   0  0.2441219E-02  0.9118800E+02  0.7818609E-02  0.1379984E+01
      -11   -1    0    0    0    0  0.00000000000E+00  0.00000000000E+00  0.35740347158E-01  0.35744000000E-01  0.51099999109E-03 0.  1.
       11   -1    0    0    0    0 -0.00000000000E+00 -0.00000000000E+00 -0.35740347158E-01  0.35744000000E-01  0.51099999109E-03 0. -1.
       22    1    1    2    0    0 -0.15816917520E-01  0.95153216920E-02  0.30600937210E-01  0.35737005818E-01  0.00000000000E+00 0.  1.
  9000001    1    1    2    0    0  0.15816917520E-01 -0.95153216920E-02 -0.30600937210E-01  0.35750994182E-01  0.10000000475E-02 0. -1.
</event>
<event>
 4   0  0.2441219E-02  0.9118800E+02  0.7818609E-02  0.1379984E+01
      -11   -1    0    0    0    0  0.00000000000E+00  0.00000000000E+00  0.35740347158E-01  0.35744000000E-01  0.51099999109E-03 0. -1.
       11   -1    0    0    0    0 -0.00000000000E+00 -0.00000000000E+00 -0.35740347158E-01  0.35744000000E-01  0.51099999109E-03 0.  1.
       22    1    1    2    0    0 -0.22312455356E-01 -0.27607756225E-01 -0.41351804180E-02  0.35737005818E-01  0.00000000000E+00 0.  1.
  9000001    1    1    2    0    0  0.22312455356E-01  0.27607756225E-01  0.41351804180E-02  0.35750994182E-01  0.10000000475E-02 0. -1.
</event>
<event>
 4   0  0.2441219E-02  0.9118800E+02  0.7818609E-02  0.1379984E+01
      -11   -1    0    0    0    0  0.00000000000E+00  0.00000000000E+00  0.35740347158E-01  0.35744000000E-01  0.51099999109E-03 0.  1.
       11   -1    0    0    0    0 -0.00000000000E+00 -0.00000000000E+00 -0.35740347158E-01  0.35744000000E-01  0.51099999109E-03 0. -1.
       22    1    1    2    0    0  0.68379797870E-02 -0.12957089582E-01 -0.32595850148E-01  0.35737005818E-01  0.00000000000E+00 0. -1.
  9000001    1    1    2    0    0 -0.68379797870E-02  0.12957089582E-01  0.32595850148E-01  0.35750994182E-01  0.10000000475E-02 0.  1.
</event>
<event>
 4   0  0.2441219E-02  0.9118800E+02  0.7818609E-02  0.1379984E+01
      -11   -1    0    0    0    0  0.00000000000E+00  0.00000000000E+00  0.35740347158E-01  0.35744000000E-01  0.51099999109E-03 0.  1.
       11   -1    0    0    0    0 -0.00000000000E+00 -0.00000000000E+00 -0.35740347158E-01  0.35744000000E-01  0.51099999109E-03 0. -1.
       22    1    1    2    0    0  0.12962329696E-01  0.12094223956E-01  0.31029684830E-01  0.35737005818E-01  0.00000000000E+00 0.  1.
  9000001    1    1    2    0    0 -0.12962329696E-01 -0.12094223956E-01 -0.31029684830E-01  0.35750994182E-01  0.10000000475E-02 0. -1.
</event>
<event>
 4   0  0.2441219E-02  0.9118800E+02  0.7818609E-02  0.1379984E+01
      -11   -1    0    0    0    0  0.00000000000E+00  0.00000000000E+00  0.35740347158E-01  0.35744000000E-01  0.51099999109E-03 0. -1.
       11   -1    0    0    0    0 -0.00000000000E+00 -0.00000000000E+00 -0.35740347158E-01  0.35744000000E-01  0.51099999109E-03 0.  1.
       22    1    1    2    0    0  0.14115056967E-01 -0.18342333846E-01  0.27229717971E-01  0.35737005818E-01  0.00000000000E+00 0. -1.
  9000001    1    1    2    0    0 -0.14115056967E-01  0.18342333846E-01 -0.27229717971E-01  0.35750994182E-01  0.10000000475E-02 0.  1.
</event>
<event>
 4   0  0.2441219E-02  0.9118800E+02  0.7818609E-02  0.1379984E+01
      -11   -1    0    0    0    0  0.00000000000E+00  0.00000000000E+00  0.35740347158E-01  0.35744000000E-01  0.51099999109E-03 0. -1.
       11   -1    0    0    0    0 -0.00000000000E+00 -0.00000000000E+00 -0.35740347158E-01  0.35744000000E-01  0.51099999109E-03 0.  1.
       22    1    1    2    0    0  0.32426049718E-03 -0.12394704667E-01 -0.33517155849E-01  0.35737005818E-01  0.00000000000E+00 0.  1.
  9000001    1    1    2    0    0 -0.32426049718E-03  0.12394704667E-01  0.33517155849E-01  0.35750994182E-01  0.10000000475E-02 0. -1.
</event>
<event>
 4   0  0.2441219E-02  0.9118800E+02  0.7818609E-02  0.1379984E+01
      -11   -1    0    0    0    0  0.00000000000E+00  0.00000000000E+00  0.35740347158E-01  0.35744000000E-01  0.51099999109E-03 0.  1.
       11   -1    0    0    0    0 -0.00000000000E+00 -0.00000000000E+00 -0.35740347158E-01  0.35744000000E-01  0.51099999109E-03 0. -1.
       22    1    1    2    0    0 -0.21733756437E-01 -0.24249931475E-01 -0.14721353180E-01  0.35737005818E-01  0.00000000000E+00 0. -1.
  9000001    1    1    2    0    0  0.21733756437E-01  0.24249931475E-01  0.14721353180E-01  0.35750994182E-01  0.10000000475E-02 0.  1.
</event>
<event>
 4   0  0.2441219E-02  0.9118800E+02  0.7818609E-02  0.1379984E+01
      -11   -1    0    0    0    0  0.00000000000E+00  0.00000000000E+00  0.35740347158E-01  0.35744000000E-01  0.51099999109E-03 0.  1.
       11   -1    0    0    0    0 -0.00000000000E+00 -0.00000000000E+00 -0.35740347158E-01  0.35744000000E-01  0.51099999109E-03 0. -1.
       22    1    1    2    0    0  0.58341845194E-02 -0.64837258024E-02  0.34656271807E-01  0.35737005818E-01  0.00000000000E+00 0.  1.
  9000001    1    1    2    0    0 -0.58341845194E-02  0.64837258024E-02 -0.34656271807E-01  0.35750994182E-01  0.10000000475E-02 0. -1.
</event>
<event>
 4   0  0.2441219E-02  0.9118800E+02  0.7818609E-02  0.1379984E+01
      -11   -1    0    0    0    0  0.00000000000E+00  0.00000000000E+00  0.35740347158E-01  0.35744000000E-01  0.51099999109E-03 0.  1.
       11   -1    0    0    0    0 -0.00000000000E+00 -0.00000000000E+00 -0.35740347158E-01  0.35744000000E-01  0.51099999109E-03 0. -1.
       22    1    1    2    0    0 -0.14550977432E-01 -0.67119025185E-03 -0.32633604525E-01  0.35737005818E-01  0.00000000000E+00 0. -1.
  9000001    1    1    2    0    0  0.14550977432E-01  0.67119025185E-03  0.32633604525E-01  0.35750994182E-01  0.10000000475E-02 0.  1.
</event>
<event>
 4   0  0.2441219E-02  0.9118800E+02  0.7818609E-02  0.1379984E+01
      -11   -1    0    0    0    0  0.00000000000E+00  0.00000000000E+00  0.35740347158E-01  0.35744000000E-01  0.51099999109E-03 0. -1.
       11   -1    0    0    0    0 -0.00000000000E+00 -0.00000000000E+00 -0.35740347158E-01  0.35744000000E-01  0.51099999109E-03 0.  1.
       22    1    1    2    0    0 -0.28019770022E-02  0.27625112064E-02  0.35519727499E-01  0.35737005818E-01  0.00000000000E+00 0. -1.
  9000001    1    1    2    0    0  0.28019770022E-02 -0.27625112064E-02 -0.35519727499E-01  0.35750994182E-01  0.10000000475E-02 0.  1.
</event>
<event>
 4   0  0.2441219E-02  0.9118800E+02  0.7818609E-02  0.1379984E+01
      -11   -1    0    0    0    0  0.00000000000E+00  0.00000000000E+00  0.35740347158E-01  0.35744000000E-01  0.51099999109E-03 0.  1.
       11   -1    0    0    0    0 -0.00000000000E+00 -0.00000000000E+00 -0.35740347158E-01  0.35744000000E-01  0.51099999109E-03 0. -1.
       22    1    1    2    0    0 -0.22977269170E-02 -0.27074505048E-02  0.35560142683E-01  0.35737005818E-01  0.00000000000E+00 0.  1.
  9000001    1    1    2    0    0  0.22977269170E-02  0.27074505048E-02 -0.35560142683E-01  0.35750994182E-01  0.10000000475E-02 0. -1.
</event>
<event>
 4   0  0.2441219E-02  0.9118800E+02  0.7818609E-02  0.1379984E+01
      -11   -1    0    0    0    0  0.00000000000E+00  0.00000000000E+00  0.35740347158E-01  0.35744000000E-01  0.51099999109E-03 0.  1.
       11   -1    0    0    0    0 -0.00000000000E+00 -0.00000000000E+00 -0.35740347158E-01  0.35744000000E-01  0.51099999109E-03 0. -1.
       22    1    1    2    0    0  0.52684427912E-02  0.18109620778E-02 -0.35300106399E-01  0.35737005818E-01  0.00000000000E+00 0. -1.
  9000001    1    1    2    0    0 -0.52684427912E-02 -0.18109620778E-02  0.35300106399E-01  0.35750994182E-01  0.10000000475E-02 0.  1.
</event>
<event>
 4   0  0.2441219E-02  0.9118800E+02  0.7818609E-02  0.1379984E+01
      -11   -1    0    0    0    0  0.00000000000E+00  0.00000000000E+00  0.35740347158E-01  0.35744000000E-01  0.51099999109E-03 0. -1.
       11   -1    0    0    0    0 -0.00000000000E+00 -0.00000000000E+00 -0.35740347158E-01  0.35744000000E-01  0.51099999109E-03 0.  1.
       22    1    1    2    0    0 -0.70357912754E-02  0.38404277409E-02  0.34826460354E-01  0.35737005818E-01  0.00000000000E+00 0. -1.
  9000001    1    1    2    0    0  0.70357912754E-02 -0.38404277409E-02 -0.34826460354E-01  0.35750994182E-01  0.10000000475E-02 0.  1.
</event>
<event>
 4   0  0.2441219E-02  0.9118800E+02  0.7818609E-02  0.1379984E+01
      -11   -1    0    0    0    0  0.00000000000E+00  0.00000000000E+00  0.35740347158E-01  0.35744000000E-01  0.51099999109E-03 0. -1.
       11   -1    0    0    0    0 -0.00000000000E+00 -0.00000000000E+00 -0.35740347158E-01  0.35744000000E-01  0.51099999109E-03 0.  1.
       22    1    1    2    0    0 -0.15970726367E-01  0.11915783685E-01 -0.29666202712E-01  0.35737005818E-01  0.00000000000E+00 0. -1.
  9000001    1    1    2    0    0  0.15970726367E-01 -0.11915783685E-01  0.29666202712E-01  0.35750994182E-01  0.10000000475E-02 0.  1.
</event>
<event>
 4   0  0.2441219E-02  0.9118800E+02  0.7818609E-02  0.1379984E+01
      -11   -1    0    0    0    0  0.00000000000E+00  0.00000000000E+00  0.35740347158E-01  0.35744000000E-01  0.51099999109E-03 0.  1.
       11   -1    0    0    0    0 -0.00000000000E+00 -0.00000000000E+00 -0.35740347158E-01  0.35744000000E-01  0.51099999109E-03 0. -1.
       22    1    1    2    0    0 -0.19655325886E-03 -0.26632444982E-01  0.23828718512E-01  0.35737005818E-01  0.00000000000E+00 0.  1.
  9000001    1    1    2    0    0  0.19655325886E-03  0.26632444982E-01 -0.23828718512E-01  0.35750994182E-01  0.10000000475E-02 0. -1.
</event>
<event>
 4   0  0.2441219E-02  0.9118800E+02  0.7818609E-02  0.1379984E+01
      -11   -1    0    0    0    0  0.00000000000E+00  0.00000000000E+00  0.35740347158E-01  0.35744000000E-01  0.51099999109E-03 0.  1.
       11   -1    0    0    0    0 -0.00000000000E+00 -0.00000000000E+00 -0.35740347158E-01  0.35744000000E-01  0.51099999109E-03 0. -1.
       22    1    1    2    0    0 -0.13105197064E-01 -0.55044351314E-02  0.32788543558E-01  0.35737005818E-01  0.00000000000E+00 0.  1.
  9000001    1    1    2    0    0  0.13105197064E-01  0.55044351314E-02 -0.32788543558E-01  0.35750994182E-01  0.10000000475E-02 0. -1.
</event>
<event>
 4   0  0.2441219E-02  0.9118800E+02  0.7818609E-02  0.1379984E+01
      -11   -1    0    0    0    0  0.00000000000E+00  0.00000000000E+00  0.35740347158E-01  0.35744000000E-01  0.51099999109E-03 0. -1.
       11   -1    0    0    0    0 -0.00000000000E+00 -0.00000000000E+00 -0.35740347158E-01  0.35744000000E-01  0.51099999109E-03 0.  1.
       22    1    1    2    0    0 -0.10436746280E-01 -0.36024996459E-02  0.33988673235E-01  0.35737005818E-01  0.00000000000E+00 0. -1.
  9000001    1    1    2    0    0  0.10436746280E-01  0.36024996459E-02 -0.33988673235E-01  0.35750994182E-01  0.10000000475E-02 0.  1.
</event>
<event>
 4   0  0.2441219E-02  0.9118800E+02  0.7818609E-02  0.1379984E+01
      -11   -1    0    0    0    0  0.00000000000E+00  0.00000000000E+00  0.35740347158E-01  0.35744000000E-01  0.51099999109E-03 0.  1.
       11   -1    0    0    0    0 -0.00000000000E+00 -0.00000000000E+00 -0.35740347158E-01  0.35744000000E-01  0.51099999109E-03 0. -1.
       22    1    1    2    0    0  0.33696304500E-01  0.72995736700E-02 -0.94025992220E-02  0.35737005818E-01  0.00000000000E+00 0. -1.
  9000001    1    1    2    0    0 -0.33696304500E-01 -0.72995736700E-02  0.94025992220E-02  0.35750994182E-01  0.10000000475E-02 0.  1.
</event>
<event>
 4   0  0.2441219E-02  0.9118800E+02  0.7818609E-02  0.1379984E+01
      -11   -1    0    0    0    0  0.00000000000E+00  0.00000000000E+00  0.35740347158E-01  0.35744000000E-01  0.51099999109E-03 0.  1.
       11   -1    0    0    0    0 -0.00000000000E+00 -0.00000000000E+00 -0.35740347158E-01  0.35744000000E-01  0.51099999109E-03 0. -1.
       22    1    1    2    0    0 -0.30798269360E-01  0.54949651902E-02 -0.17274418858E-01  0.35737005818E-01  0.00000000000E+00 0. -1.
  9000001    1    1    2    0    0  0.30798269360E-01 -0.54949651902E-02  0.17274418858E-01  0.35750994182E-01  0.10000000475E-02 0.  1.
</event>
<event>
 4   0  0.2441219E-02  0.9118800E+02  0.7818609E-02  0.1379984E+01
      -11   -1    0    0    0    0  0.00000000000E+00  0.00000000000E+00  0.35740347158E-01  0.35744000000E-01  0.51099999109E-03 0. -1.
       11   -1    0    0    0    0 -0.00000000000E+00 -0.00000000000E+00 -0.35740347158E-01  0.35744000000E-01  0.51099999109E-03 0.  1.
       22    1    1    2    0    0  0.64458235817E-02  0.58536001117E-02  0.34660067931E-01  0.35737005818E-01  0.00000000000E+00 0. -1.
  9000001    1    1    2    0    0 -0.64458235817E-02 -0.58536001117E-02 -0.34660067931E-01  0.35750994182E-01  0.10000000475E-02 0.  1.
</event>
<event>
 4   0  0.2441219E-02  0.9118800E+02  0.7818609E-02  0.1379984E+01
      -11   -1    0    0    0    0  0.00000000000E+00  0.00000000000E+00  0.35740347158E-01  0.35744000000E-01  0.51099999109E-03 0. -1.
       11   -1    0    0    0    0 -0.00000000000E+00 -0.00000000000E+00 -0.35740347158E-01  0.35744000000E-01  0.51099999109E-03 0.  1.
       22    1    1    2    0    0  0.30934154572E-02 -0.65483413943E-02 -0.34995479575E-01  0.35737005818E-01  0.00000000000E+00 0.  1.
  9000001    1    1    2    0    0 -0.30934154572E-02  0.65483413943E-02  0.34995479575E-01  0.35750994182E-01  0.10000000475E-02 0. -1.
</event>
<event>
 4   0  0.2441219E-02  0.9118800E+02  0.7818609E-02  0.1379984E+01
      -11   -1    0    0    0    0  0.00000000000E+00  0.00000000000E+00  0.35740347158E-01  0.35744000000E-01  0.51099999109E-03 0.  1.
       11   -1    0    0    0    0 -0.00000000000E+00 -0.00000000000E+00 -0.35740347158E-01  0.35744000000E-01  0.51099999109E-03 0. -1.
       22    1    1    2    0    0  0.14735041006E-02 -0.35885117383E-02 -0.35525835022E-01  0.35737005818E-01  0.00000000000E+00 0. -1.
  9000001    1    1    2    0    0 -0.14735041006E-02  0.35885117383E-02  0.35525835022E-01  0.35750994182E-01  0.10000000475E-02 0.  1.
</event>
<event>
 4   0  0.2441219E-02  0.9118800E+02  0.7818609E-02  0.1379984E+01
      -11   -1    0    0    0    0  0.00000000000E+00  0.00000000000E+00  0.35740347158E-01  0.35744000000E-01  0.51099999109E-03 0.  1.
       11   -1    0    0    0    0 -0.00000000000E+00 -0.00000000000E+00 -0.35740347158E-01  0.35744000000E-01  0.51099999109E-03 0. -1.
       22    1    1    2    0    0  0.13289194130E-01 -0.71031973865E-02 -0.32404868325E-01  0.35737005818E-01  0.00000000000E+00 0. -1.
  9000001    1    1    2    0    0 -0.13289194130E-01  0.71031973865E-02  0.32404868325E-01  0.35750994182E-01  0.10000000475E-02 0.  1.
</event>
<event>
 4   0  0.2441219E-02  0.9118800E+02  0.7818609E-02  0.1379984E+01
      -11   -1    0    0    0    0  0.00000000000E+00  0.00000000000E+00  0.35740347158E-01  0.35744000000E-01  0.51099999109E-03 0.  1.
       11   -1    0    0    0    0 -0.00000000000E+00 -0.00000000000E+00 -0.35740347158E-01  0.35744000000E-01  0.51099999109E-03 0. -1.
       22    1    1    2    0    0 -0.27492651300E-02  0.38454465466E-02 -0.35422982186E-01  0.35737005818E-01  0.00000000000E+00 0. -1.
  9000001    1    1    2    0    0  0.27492651300E-02 -0.38454465466E-02  0.35422982186E-01  0.35750994182E-01  0.10000000475E-02 0.  1.
</event>
<event>
 4   0  0.2441219E-02  0.9118800E+02  0.7818609E-02  0.1379984E+01
      -11   -1    0    0    0    0  0.00000000000E+00  0.00000000000E+00  0.35740347158E-01  0.35744000000E-01  0.51099999109E-03 0.  1.
       11   -1    0    0    0    0 -0.00000000000E+00 -0.00000000000E+00 -0.35740347158E-01  0.35744000000E-01  0.51099999109E-03 0. -1.
       22    1    1    2    0    0  0.47603637319E-02 -0.40908657773E-02 -0.35181491429E-01  0.35737005818E-01  0.00000000000E+00 0. -1.
  9000001    1    1    2    0    0 -0.47603637319E-02  0.40908657773E-02  0.35181491429E-01  0.35750994182E-01  0.10000000475E-02 0.  1.
</event>
<event>
 4   0  0.2441219E-02  0.9118800E+02  0.7818609E-02  0.1379984E+01
      -11   -1    0    0    0    0  0.00000000000E+00  0.00000000000E+00  0.35740347158E-01  0.35744000000E-01  0.51099999109E-03 0.  1.
       11   -1    0    0    0    0 -0.00000000000E+00 -0.00000000000E+00 -0.35740347158E-01  0.35744000000E-01  0.51099999109E-03 0. -1.
       22    1    1    2    0    0 -0.66770112965E-03  0.36626753872E-02 -0.35542545900E-01  0.35737005818E-01  0.00000000000E+00 0. -1.
  9000001    1    1    2    0    0  0.66770112965E-03 -0.36626753872E-02  0.35542545900E-01  0.35750994182E-01  0.10000000475E-02 0.  1.
</event>
<event>
 4   0  0.2441219E-02  0.9118800E+02  0.7818609E-02  0.1379984E+01
      -11   -1    0    0    0    0  0.00000000000E+00  0.00000000000E+00  0.35740347158E-01  0.35744000000E-01  0.51099999109E-03 0.  1.
       11   -1    0    0    0    0 -0.00000000000E+00 -0.00000000000E+00 -0.35740347158E-01  0.35744000000E-01  0.51099999109E-03 0. -1.
       22    1    1    2    0    0 -0.55923856941E-02 -0.23450141219E-03  0.35295946172E-01  0.35737005818E-01  0.00000000000E+00 0.  1.
  9000001    1    1    2    0    0  0.55923856941E-02  0.23450141219E-03 -0.35295946172E-01  0.35750994182E-01  0.10000000475E-02 0. -1.
</event>
<event>
 4   0  0.2441219E-02  0.9118800E+02  0.7818609E-02  0.1379984E+01
      -11   -1    0    0    0    0  0.00000000000E+00  0.00000000000E+00  0.35740347158E-01  0.35744000000E-01  0.51099999109E-03 0.  1.
       11   -1    0    0    0    0 -0.00000000000E+00 -0.00000000000E+00 -0.35740347158E-01  0.35744000000E-01  0.51099999109E-03 0. -1.
       22    1    1    2    0    0 -0.13685800261E-01 -0.67901729981E-03 -0.33005626666E-01  0.35737005818E-01  0.00000000000E+00 0. -1.
  9000001    1    1    2    0    0  0.13685800261E-01  0.67901729981E-03  0.33005626666E-01  0.35750994182E-01  0.10000000475E-02 0.  1.
</event>
<event>
 4   0  0.2441219E-02  0.9118800E+02  0.7818609E-02  0.1379984E+01
      -11   -1    0    0    0    0  0.00000000000E+00  0.00000000000E+00  0.35740347158E-01  0.35744000000E-01  0.51099999109E-03 0.  1.
       11   -1    0    0    0    0 -0.00000000000E+00 -0.00000000000E+00 -0.35740347158E-01  0.35744000000E-01  0.51099999109E-03 0. -1.
       22    1    1    2    0    0  0.14986519848E-01 -0.55153176285E-02  0.31970597104E-01  0.35737005818E-01  0.00000000000E+00 0.  1.
  9000001    1    1    2    0    0 -0.14986519848E-01  0.55153176285E-02 -0.31970597104E-01  0.35750994182E-01  0.10000000475E-02 0. -1.
</event>
<event>
 4   0  0.2441219E-02  0.9118800E+02  0.7818609E-02  0.1379984E+01
      -11   -1    0    0    0    0  0.00000000000E+00  0.00000000000E+00  0.35740347158E-01  0.35744000000E-01  0.51099999109E-03 0. -1.
       11   -1    0    0    0    0 -0.00000000000E+00 -0.00000000000E+00 -0.35740347158E-01  0.35744000000E-01  0.51099999109E-03 0.  1.
       22    1    1    2    0    0  0.15819060354E-01  0.62565598335E-02 -0.31428432564E-01  0.35737005818E-01  0.00000000000E+00 0.  1.
  9000001    1    1    2    0    0 -0.15819060354E-01 -0.62565598335E-02  0.31428432564E-01  0.35750994182E-01  0.10000000475E-02 0. -1.
</event>
<event>
 4   0  0.2441219E-02  0.9118800E+02  0.7818609E-02  0.1379984E+01
      -11   -1    0    0    0    0  0.00000000000E+00  0.00000000000E+00  0.35740347158E-01  0.35744000000E-01  0.51099999109E-03 0. -1.
       11   -1    0    0    0    0 -0.00000000000E+00 -0.00000000000E+00 -0.35740347158E-01  0.35744000000E-01  0.51099999109E-03 0.  1.
       22    1    1    2    0    0 -0.13279767202E-02  0.63266614790E-02  0.35147452500E-01  0.35737005818E-01  0.00000000000E+00 0. -1.
  9000001    1    1    2    0    0  0.13279767202E-02 -0.63266614790E-02 -0.35147452500E-01  0.35750994182E-01  0.10000000475E-02 0.  1.
</event>
<event>
 4   0  0.2441219E-02  0.9118800E+02  0.7818609E-02  0.1379984E+01
      -11   -1    0    0    0    0  0.00000000000E+00  0.00000000000E+00  0.35740347158E-01  0.35744000000E-01  0.51099999109E-03 0.  1.
       11   -1    0    0    0    0 -0.00000000000E+00 -0.00000000000E+00 -0.35740347158E-01  0.35744000000E-01  0.51099999109E-03 0. -1.
       22    1    1    2    0    0 -0.12719870785E-02  0.28310796049E-02 -0.35601974974E-01  0.35737005818E-01  0.00000000000E+00 0. -1.
  9000001    1    1    2    0    0  0.12719870785E-02 -0.28310796049E-02  0.35601974974E-01  0.35750994182E-01  0.10000000475E-02 0.  1.
</event>
<event>
 4   0  0.2441219E-02  0.9118800E+02  0.7818609E-02  0.1379984E+01
      -11   -1    0    0    0    0  0.00000000000E+00  0.00000000000E+00  0.35740347158E-01  0.35744000000E-01  0.51099999109E-03 0.  1.
       11   -1    0    0    0    0 -0.00000000000E+00 -0.00000000000E+00 -0.35740347158E-01  0.35744000000E-01  0.51099999109E-03 0. -1.
       22    1    1    2    0    0  0.55655363404E-02 -0.21122728109E-02 -0.35237716919E-01  0.35737005818E-01  0.00000000000E+00 0. -1.
  9000001    1    1    2    0    0 -0.55655363404E-02  0.21122728109E-02  0.35237716919E-01  0.35750994182E-01  0.10000000475E-02 0.  1.
</event>
<event>
 4   0  0.2441219E-02  0.9118800E+02  0.7818609E-02  0.1379984E+01
      -11   -1    0    0    0    0  0.00000000000E+00  0.00000000000E+00  0.35740347158E-01  0.35744000000E-01  0.51099999109E-03 0. -1.
       11   -1    0    0    0    0 -0.00000000000E+00 -0.00000000000E+00 -0.35740347158E-01  0.35744000000E-01  0.51099999109E-03 0.  1.
       22    1    1    2    0    0 -0.10638324796E-02  0.74979419656E-02 -0.34925387780E-01  0.35737005818E-01  0.00000000000E+00 0.  1.
  9000001    1    1    2    0    0  0.10638324796E-02 -0.74979419656E-02  0.34925387780E-01  0.35750994182E-01  0.10000000475E-02 0. -1.
</event>
<event>
 4   0  0.2441219E-02  0.9118800E+02  0.7818609E-02  0.1379984E+01
      -11   -1    0    0    0    0  0.00000000000E+00  0.00000000000E+00  0.35740347158E-01  0.35744000000E-01  0.51099999109E-03 0. -1.
       11   -1    0    0    0    0 -0.00000000000E+00 -0.00000000000E+00 -0.35740347158E-01  0.35744000000E-01  0.51099999109E-03 0.  1.
       22    1    1    2    0    0 -0.21756676158E-01 -0.27322869316E-01 -0.75658072775E-02  0.35737005818E-01  0.00000000000E+00 0. -1.
  9000001    1    1    2    0    0  0.21756676158E-01  0.27322869316E-01  0.75658072775E-02  0.35750994182E-01  0.10000000475E-02 0.  1.
</event>
<event>
 4   0  0.2441219E-02  0.9118800E+02  0.7818609E-02  0.1379984E+01
      -11   -1    0    0    0    0  0.00000000000E+00  0.00000000000E+00  0.35740347158E-01  0.35744000000E-01  0.51099999109E-03 0. -1.
       11   -1    0    0    0    0 -0.00000000000E+00 -0.00000000000E+00 -0.35740347158E-01  0.35744000000E-01  0.51099999109E-03 0.  1.
       22    1    1    2    0    0  0.16127608616E-01  0.20963647790E-02 -0.31821990508E-01  0.35737005818E-01  0.00000000000E+00 0.  1.
  9000001    1    1    2    0    0 -0.16127608616E-01 -0.20963647790E-02  0.31821990508E-01  0.35750994182E-01  0.10000000475E-02 0. -1.
</event>
<event>
 4   0  0.2441219E-02  0.9118800E+02  0.7818609E-02  0.1379984E+01
      -11   -1    0    0    0    0  0.00000000000E+00  0.00000000000E+00  0.35740347158E-01  0.35744000000E-01  0.51099999109E-03 0.  1.
       11   -1    0    0    0    0 -0.00000000000E+00 -0.00000000000E+00 -0.35740347158E-01  0.35744000000E-01  0.51099999109E-03 0. -1.
       22    1    1    2    0    0 -0.32812449859E-01 -0.88808639269E-02 -0.11027555262E-01  0.35737005818E-01  0.00000000000E+00 0. -1.
  9000001    1    1    2    0    0  0.32812449859E-01  0.88808639269E-02  0.11027555262E-01  0.35750994182E-01  0.10000000475E-02 0.  1.
</event>
<event>
 4   0  0.2441219E-02  0.9118800E+02  0.7818609E-02  0.1379984E+01
      -11   -1    0    0    0    0  0.00000000000E+00  0.00000000000E+00  0.35740347158E-01  0.35744000000E-01  0.51099999109E-03 0.  1.
       11   -1    0    0    0    0 -0.00000000000E+00 -0.00000000000E+00 -0.35740347158E-01  0.35744000000E-01  0.51099999109E-03 0. -1.
       22    1    1    2    0    0  0.58037175217E-02 -0.12352090592E-01 -0.33028416641E-01  0.35737005818E-01  0.00000000000E+00 0. -1.
  9000001    1    1    2    0    0 -0.58037175217E-02  0.12352090592E-01  0.33028416641E-01  0.35750994182E-01  0.10000000475E-02 0.  1.
</event>
<event>
 4   0  0.2441219E-02  0.9118800E+02  0.7818609E-02  0.1379984E+01
      -11   -1    0    0    0    0  0.00000000000E+00  0.00000000000E+00  0.35740347158E-01  0.35744000000E-01  0.51099999109E-03 0. -1.
       11   -1    0    0    0    0 -0.00000000000E+00 -0.00000000000E+00 -0.35740347158E-01  0.35744000000E-01  0.51099999109E-03 0.  1.
       22    1    1    2    0    0  0.31112649853E-02 -0.15353273114E-02  0.35568193447E-01  0.35737005818E-01  0.00000000000E+00 0. -1.
  9000001    1    1    2    0    0 -0.31112649853E-02  0.15353273114E-02 -0.35568193447E-01  0.35750994182E-01  0.10000000475E-02 0.  1.
</event>
<event>
 4   0  0.2441219E-02  0.9118800E+02  0.7818609E-02  0.1379984E+01
      -11   -1    0    0    0    0  0.00000000000E+00  0.00000000000E+00  0.35740347158E-01  0.35744000000E-01  0.51099999109E-03 0.  1.
       11   -1    0    0    0    0 -0.00000000000E+00 -0.00000000000E+00 -0.35740347158E-01  0.35744000000E-01  0.51099999109E-03 0. -1.
       22    1    1    2    0    0 -0.31426998073E-01 -0.97649670071E-02  0.13932795712E-01  0.35737005818E-01  0.00000000000E+00 0.  1.
  9000001    1    1    2    0    0  0.31426998073E-01  0.97649670071E-02 -0.13932795712E-01  0.35750994182E-01  0.10000000475E-02 0. -1.
</event>
<event>
 4   0  0.2441219E-02  0.9118800E+02  0.7818609E-02  0.1379984E+01
      -11   -1    0    0    0    0  0.00000000000E+00  0.00000000000E+00  0.35740347158E-01  0.35744000000E-01  0.51099999109E-03 0. -1.
       11   -1    0    0    0    0 -0.00000000000E+00 -0.00000000000E+00 -0.35740347158E-01  0.35744000000E-01  0.51099999109E-03 0.  1.
       22    1    1    2    0    0 -0.28385959225E-02  0.35009209249E-02  0.35451650325E-01  0.35737005818E-01  0.00000000000E+00 0. -1.
  9000001    1    1    2    0    0  0.28385959225E-02 -0.35009209249E-02 -0.35451650325E-01  0.35750994182E-01  0.10000000475E-02 0.  1.
</event>
<event>
 4   0  0.2441219E-02  0.9118800E+02  0.7818609E-02  0.1379984E+01
      -11   -1    0    0    0    0  0.00000000000E+00  0.00000000000E+00  0.35740347158E-01  0.35744000000E-01  0.51099999109E-03 0. -1.
       11   -1    0    0    0    0 -0.00000000000E+00 -0.00000000000E+00 -0.35740347158E-01  0.35744000000E-01  0.51099999109E-03 0.  1.
       22    1    1    2    0    0 -0.58548243193E-02 -0.10342437343E-01 -0.33702946560E-01  0.35737005818E-01  0.00000000000E+00 0.  1.
  9000001    1    1    2    0    0  0.58548243193E-02  0.10342437343E-01  0.33702946560E-01  0.35750994182E-01  0.10000000475E-02 0. -1.
</event>
<event>
 4   0  0.2441219E-02  0.9118800E+02  0.7818609E-02  0.1379984E+01
      -11   -1    0    0    0    0  0.00000000000E+00  0.00000000000E+00  0.35740347158E-01  0.35744000000E-01  0.51099999109E-03 0. -1.
       11   -1    0    0    0    0 -0.00000000000E+00 -0.00000000000E+00 -0.35740347158E-01  0.35744000000E-01  0.51099999109E-03 0.  1.
       22    1    1    2    0    0  0.38544667749E-02 -0.23511829045E-03 -0.35527755208E-01  0.35737005818E-01  0.00000000000E+00 0.  1.
  9000001    1    1    2    0    0 -0.38544667749E-02  0.23511829045E-03  0.35527755208E-01  0.35750994182E-01  0.10000000475E-02 0. -1.
</event>
<event>
 4   0  0.2441219E-02  0.9118800E+02  0.7818609E-02  0.1379984E+01
      -11   -1    0    0    0    0  0.00000000000E+00  0.00000000000E+00  0.35740347158E-01  0.35744000000E-01  0.51099999109E-03 0.  1.
       11   -1    0    0    0    0 -0.00000000000E+00 -0.00000000000E+00 -0.35740347158E-01  0.35744000000E-01  0.51099999109E-03 0. -1.
       22    1    1    2    0    0  0.11664470006E-02 -0.11130296043E-01 -0.33939497584E-01  0.35737005818E-01  0.00000000000E+00 0. -1.
  9000001    1    1    2    0    0 -0.11664470006E-02  0.11130296043E-01  0.33939497584E-01  0.35750994182E-01  0.10000000475E-02 0.  1.
</event>
<event>
 4   0  0.2441219E-02  0.9118800E+02  0.7818609E-02  0.1379984E+01
      -11   -1    0    0    0    0  0.00000000000E+00  0.00000000000E+00  0.35740347158E-01  0.35744000000E-01  0.51099999109E-03 0.  1.
       11   -1    0    0    0    0 -0.00000000000E+00 -0.00000000000E+00 -0.35740347158E-01  0.35744000000E-01  0.51099999109E-03 0. -1.
       22    1    1    2    0    0  0.91120783494E-02 -0.50417636229E-02  0.34186023937E-01  0.35737005818E-01  0.00000000000E+00 0.  1.
  9000001    1    1    2    0    0 -0.91120783494E-02  0.50417636229E-02 -0.34186023937E-01  0.35750994182E-01  0.10000000475E-02 0. -1.
</event>
<event>
 4   0  0.2441219E-02  0.9118800E+02  0.7818609E-02  0.1379984E+01
      -11   -1    0    0    0    0  0.00000000000E+00  0.00000000000E+00  0.35740347158E-01  0.35744000000E-01  0.51099999109E-03 0.  1.
       11   -1    0    0    0    0 -0.00000000000E+00 -0.00000000000E+00 -0.35740347158E-01  0.35744000000E-01  0.51099999109E-03 0. -1.
       22    1    1    2    0    0 -0.35021132245E-01  0.69006435845E-02  0.17421249221E-02  0.35737005818E-01  0.00000000000E+00 0. -1.
  9000001    1    1    2    0    0  0.35021132245E-01 -0.69006435845E-02 -0.17421249221E-02  0.35750994182E-01  0.10000000475E-02 0.  1.
</event>
<event>
 4   0  0.2441219E-02  0.9118800E+02  0.7818609E-02  0.1379984E+01
      -11   -1    0    0    0    0  0.00000000000E+00  0.00000000000E+00  0.35740347158E-01  0.35744000000E-01  0.51099999109E-03 0.  1.
       11   -1    0    0    0    0 -0.00000000000E+00 -0.00000000000E+00 -0.35740347158E-01  0.35744000000E-01  0.51099999109E-03 0. -1.
       22    1    1    2    0    0  0.14352402339E-03  0.63990973346E-02 -0.35159131659E-01  0.35737005818E-01  0.00000000000E+00 0. -1.
  9000001    1    1    2    0    0 -0.14352402339E-03 -0.63990973346E-02  0.35159131659E-01  0.35750994182E-01  0.10000000475E-02 0.  1.
</event>
<event>
 4   0  0.2441219E-02  0.9118800E+02  0.7818609E-02  0.1379984E+01
      -11   -1    0    0    0    0  0.00000000000E+00  0.00000000000E+00  0.35740347158E-01  0.35744000000E-01  0.51099999109E-03 0.  1.
       11   -1    0    0    0    0 -0.00000000000E+00 -0.00000000000E+00 -0.35740347158E-01  0.35744000000E-01  0.51099999109E-03 0. -1.
       22    1    1    2    0    0  0.22127806019E-02  0.28869016148E-02 -0.35551413276E-01  0.35737005818E-01  0.00000000000E+00 0. -1.
  9000001    1    1    2    0    0 -0.22127806019E-02 -0.28869016148E-02  0.35551413276E-01  0.35750994182E-01  0.10000000475E-02 0.  1.
</event>
<event>
 4   0  0.2441219E-02  0.9118800E+02  0.7818609E-02  0.1379984E+01
      -11   -1    0    0    0    0  0.00000000000E+00  0.00000000000E+00  0.35740347158E-01  0.35744000000E-01  0.51099999109E-03 0. -1.
       11   -1    0    0    0    0 -0.00000000000E+00 -0.00000000000E+00 -0.35740347158E-01  0.35744000000E-01  0.51099999109E-03 0.  1.
       22    1    1    2    0    0 -0.13904387657E-01  0.14981475839E-01 -0.29314790984E-01  0.35737005818E-01  0.00000000000E+00 0.  1.
  9000001    1    1    2    0    0  0.13904387657E-01 -0.14981475839E-01  0.29314790984E-01  0.35750994182E-01  0.10000000475E-02 0. -1.
</event>
<event>
 4   0  0.2441219E-02  0.9118800E+02  0.7818609E-02  0.1379984E+01
      -11   -1    0    0    0    0  0.00000000000E+00  0.00000000000E+00  0.35740347158E-01  0.35744000000E-01  0.51099999109E-03 0.  1.
       11   -1    0    0    0    0 -0.00000000000E+00 -0.00000000000E+00 -0.35740347158E-01  0.35744000000E-01  0.51099999109E-03 0. -1.
       22    1    1    2    0    0 -0.31895663194E-01  0.16112266533E-01  0.44172550710E-03  0.35737005818E-01  0.00000000000E+00 0. -1.
  9000001    1    1    2    0    0  0.31895663194E-01 -0.16112266533E-01 -0.44172550710E-03  0.35750994182E-01  0.10000000475E-02 0.  1.
</event>
<event>
 4   0  0.2441219E-02  0.9118800E+02  0.7818609E-02  0.1379984E+01
      -11   -1    0    0    0    0  0.00000000000E+00  0.00000000000E+00  0.35740347158E-01  0.35744000000E-01  0.51099999109E-03 0.  1.
       11   -1    0    0    0    0 -0.00000000000E+00 -0.00000000000E+00 -0.35740347158E-01  0.35744000000E-01  0.51099999109E-03 0. -1.
       22    1    1    2    0    0 -0.16497066523E-01 -0.14856662288E-02 -0.31666594020E-01  0.35737005818E-01  0.00000000000E+00 0. -1.
  9000001    1    1    2    0    0  0.16497066523E-01  0.14856662288E-02  0.31666594020E-01  0.35750994182E-01  0.10000000475E-02 0.  1.
</event>
<event>
 4   0  0.2441219E-02  0.9118800E+02  0.7818609E-02  0.1379984E+01
      -11   -1    0    0    0    0  0.00000000000E+00  0.00000000000E+00  0.35740347158E-01  0.35744000000E-01  0.51099999109E-03 0.  1.
       11   -1    0    0    0    0 -0.00000000000E+00 -0.00000000000E+00 -0.35740347158E-01  0.35744000000E-01  0.51099999109E-03 0. -1.
       22    1    1    2    0    0 -0.94299757720E-02  0.40770573697E-02 -0.34228449352E-01  0.35737005818E-01  0.00000000000E+00 0. -1.
  9000001    1    1    2    0    0  0.94299757720E-02 -0.40770573697E-02  0.34228449352E-01  0.35750994182E-01  0.10000000475E-02 0.  1.
</event>
<event>
 4   0  0.2441219E-02  0.9118800E+02  0.7818609E-02  0.1379984E+01
      -11   -1    0    0    0    0  0.00000000000E+00  0.00000000000E+00  0.35740347158E-01  0.35744000000E-01  0.51099999109E-03 0. -1.
       11   -1    0    0    0    0 -0.00000000000E+00 -0.00000000000E+00 -0.35740347158E-01  0.35744000000E-01  0.51099999109E-03 0.  1.
       22    1    1    2    0    0  0.21176366120E-01  0.10619318694E-01 -0.26756778081E-01  0.35737005818E-01  0.00000000000E+00 0.  1.
  9000001    1    1    2    0    0 -0.21176366120E-01 -0.10619318694E-01  0.26756778081E-01  0.35750994182E-01  0.10000000475E-02 0. -1.
</event>
<event>
 4   0  0.2441219E-02  0.9118800E+02  0.7818609E-02  0.1379984E+01
      -11   -1    0    0    0    0  0.00000000000E+00  0.00000000000E+00  0.35740347158E-01  0.35744000000E-01  0.51099999109E-03 0.  1.
       11   -1    0    0    0    0 -0.00000000000E+00 -0.00000000000E+00 -0.35740347158E-01  0.35744000000E-01  0.51099999109E-03 0. -1.
       22    1    1    2    0    0  0.94242294240E-02  0.28379740479E-02  0.34354961620E-01  0.35737005818E-01  0.00000000000E+00 0.  1.
  9000001    1    1    2    0    0 -0.94242294240E-02 -0.28379740479E-02 -0.34354961620E-01  0.35750994182E-01  0.10000000475E-02 0. -1.
</event>
<event>
 4   0  0.2441219E-02  0.9118800E+02  0.7818609E-02  0.1379984E+01
      -11   -1    0    0    0    0  0.00000000000E+00  0.00000000000E+00  0.35740347158E-01  0.35744000000E-01  0.51099999109E-03 0.  1.
       11   -1    0    0    0    0 -0.00000000000E+00 -0.00000000000E+00 -0.35740347158E-01  0.35744000000E-01  0.51099999109E-03 0. -1.
       22    1    1    2    0    0 -0.31964079439E-03  0.12458018638E-01  0.33493718609E-01  0.35737005818E-01  0.00000000000E+00 0.  1.
  9000001    1    1    2    0    0  0.31964079439E-03 -0.12458018638E-01 -0.33493718609E-01  0.35750994182E-01  0.10000000475E-02 0. -1.
</event>
<event>
 4   0  0.2441219E-02  0.9118800E+02  0.7818609E-02  0.1379984E+01
      -11   -1    0    0    0    0  0.00000000000E+00  0.00000000000E+00  0.35740347158E-01  0.35744000000E-01  0.51099999109E-03 0. -1.
       11   -1    0    0    0    0 -0.00000000000E+00 -0.00000000000E+00 -0.35740347158E-01  0.35744000000E-01  0.51099999109E-03 0.  1.
       22    1    1    2    0    0  0.41109640381E-02 -0.68581474995E-02  0.34831011648E-01  0.35737005818E-01  0.00000000000E+00 0. -1.
  9000001    1    1    2    0    0 -0.41109640381E-02  0.68581474995E-02 -0.34831011648E-01  0.35750994182E-01  0.10000000475E-02 0.  1.
</event>
<event>
 4   0  0.2441219E-02  0.9118800E+02  0.7818609E-02  0.1379984E+01
      -11   -1    0    0    0    0  0.00000000000E+00  0.00000000000E+00  0.35740347158E-01  0.35744000000E-01  0.51099999109E-03 0. -1.
       11   -1    0    0    0    0 -0.00000000000E+00 -0.00000000000E+00 -0.35740347158E-01  0.35744000000E-01  0.51099999109E-03 0.  1.
       22    1    1    2    0    0 -0.16941194630E-01  0.14274364671E-01  0.28042325556E-01  0.35737005818E-01  0.00000000000E+00 0. -1.
  9000001    1    1    2    0    0  0.16941194630E-01 -0.14274364671E-01 -0.28042325556E-01  0.35750994182E-01  0.10000000475E-02 0.  1.
</event>
<event>
 4   0  0.2441219E-02  0.9118800E+02  0.7818609E-02  0.1379984E+01
      -11   -1    0    0    0    0  0.00000000000E+00  0.00000000000E+00  0.35740347158E-01  0.35744000000E-01  0.51099999109E-03 0.  1.
       11   -1    0    0    0    0 -0.00000000000E+00 -0.00000000000E+00 -0.35740347158E-01  0.35744000000E-01  0.51099999109E-03 0. -1.
       22    1    1    2    0    0 -0.20633603247E-02 -0.19638078160E-01 -0.29786272262E-01  0.35737005818E-01  0.00000000000E+00 0. -1.
  9000001    1    1    2    0    0  0.20633603247E-02  0.19638078160E-01  0.29786272262E-01  0.35750994182E-01  0.10000000475E-02 0.  1.
</event>
<event>
 4   0  0.2441219E-02  0.9118800E+02  0.7818609E-02  0.1379984E+01
      -11   -1    0    0    0    0  0.00000000000E+00  0.00000000000E+00  0.35740347158E-01  0.35744000000E-01  0.51099999109E-03 0. -1.
       11   -1    0    0    0    0 -0.00000000000E+00 -0.00000000000E+00 -0.35740347158E-01  0.35744000000E-01  0.51099999109E-03 0.  1.
       22    1    1    2    0    0 -0.29060341183E-02  0.11234108679E-01 -0.33800641307E-01  0.35737005818E-01  0.00000000000E+00 0.  1.
  9000001    1    1    2    0    0  0.29060341183E-02 -0.11234108679E-01  0.33800641307E-01  0.35750994182E-01  0.10000000475E-02 0. -1.
</event>
<event>
 4   0  0.2441219E-02  0.9118800E+02  0.7818609E-02  0.1379984E+01
      -11   -1    0    0    0    0  0.00000000000E+00  0.00000000000E+00  0.35740347158E-01  0.35744000000E-01  0.51099999109E-03 0. -1.
       11   -1    0    0    0    0 -0.00000000000E+00 -0.00000000000E+00 -0.35740347158E-01  0.35744000000E-01  0.51099999109E-03 0.  1.
       22    1    1    2    0    0  0.30388850060E-02 -0.10834210491E-02  0.35591079804E-01  0.35737005818E-01  0.00000000000E+00 0. -1.
  9000001    1    1    2    0    0 -0.30388850060E-02  0.10834210491E-02 -0.35591079804E-01  0.35750994182E-01  0.10000000475E-02 0.  1.
</event>
<event>
 4   0  0.2441219E-02  0.9118800E+02  0.7818609E-02  0.1379984E+01
      -11   -1    0    0    0    0  0.00000000000E+00  0.00000000000E+00  0.35740347158E-01  0.35744000000E-01  0.51099999109E-03 0. -1.
       11   -1    0    0    0    0 -0.00000000000E+00 -0.00000000000E+00 -0.35740347158E-01  0.35744000000E-01  0.51099999109E-03 0.  1.
       22    1    1    2    0    0  0.34206262487E-01  0.58740936864E-02 -0.85182283894E-02  0.35737005818E-01  0.00000000000E+00 0.  1.
  9000001    1    1    2    0    0 -0.34206262487E-01 -0.58740936864E-02  0.85182283894E-02  0.35750994182E-01  0.10000000475E-02 0. -1.
</event>
<event>
 4   0  0.2441219E-02  0.9118800E+02  0.7818609E-02  0.1379984E+01
      -11   -1    0    0    0    0  0.00000000000E+00  0.00000000000E+00  0.35740347158E-01  0.35744000000E-01  0.51099999109E-03 0. -1.
       11   -1    0    0    0    0 -0.00000000000E+00 -0.00000000000E+00 -0.35740347158E-01  0.35744000000E-01  0.51099999109E-03 0.  1.
       22    1    1    2    0    0  0.14232935406E-01  0.28004081528E-02 -0.32660600864E-01  0.35737005818E-01  0.00000000000E+00 0.  1.
  9000001    1    1    2    0    0 -0.14232935406E-01 -0.28004081528E-02  0.32660600864E-01  0.35750994182E-01  0.10000000475E-02 0. -1.
</event>
<event>
 4   0  0.2441219E-02  0.9118800E+02  0.7818609E-02  0.1379984E+01
      -11   -1    0    0    0    0  0.00000000000E+00  0.00000000000E+00  0.35740347158E-01  0.35744000000E-01  0.51099999109E-03 0. -1.
       11   -1    0    0    0    0 -0.00000000000E+00 -0.00000000000E+00 -0.35740347158E-01  0.35744000000E-01  0.51099999109E-03 0.  1.
       22    1    1    2    0    0  0.30129307494E-02 -0.29120112954E-02 -0.35490506102E-01  0.35737005818E-01  0.00000000000E+00 0.  1.
  9000001    1    1    2    0    0 -0.30129307494E-02  0.29120112954E-02  0.35490506102E-01  0.35750994182E-01  0.10000000475E-02 0. -1.
</event>
<event>
 4   0  0.2441219E-02  0.9118800E+02  0.7818609E-02  0.1379984E+01
      -11   -1    0    0    0    0  0.00000000000E+00  0.00000000000E+00  0.35740347158E-01  0.35744000000E-01  0.51099999109E-03 0.  1.
       11   -1    0    0    0    0 -0.00000000000E+00 -0.00000000000E+00 -0.35740347158E-01  0.35744000000E-01  0.51099999109E-03 0. -1.
       22    1    1    2    0    0 -0.10417097654E-02 -0.15405699626E-01  0.32229068318E-01  0.35737005818E-01  0.00000000000E+00 0.  1.
  9000001    1    1    2    0    0  0.10417097654E-02  0.15405699626E-01 -0.32229068318E-01  0.35750994182E-01  0.10000000475E-02 0. -1.
</event>
<event>
 4   0  0.2441219E-02  0.9118800E+02  0.7818609E-02  0.1379984E+01
      -11   -1    0    0    0    0  0.00000000000E+00  0.00000000000E+00  0.35740347158E-01  0.35744000000E-01  0.51099999109E-03 0. -1.
       11   -1    0    0    0    0 -0.00000000000E+00 -0.00000000000E+00 -0.35740347158E-01  0.35744000000E-01  0.51099999109E-03 0.  1.
       22    1    1    2    0    0 -0.50960144592E-02  0.19243139169E-02 -0.35319417286E-01  0.35737005818E-01  0.00000000000E+00 0.  1.
  9000001    1    1    2    0    0  0.50960144592E-02 -0.19243139169E-02  0.35319417286E-01  0.35750994182E-01  0.10000000475E-02 0. -1.
</event>
<event>
 4   0  0.2441219E-02  0.9118800E+02  0.7818609E-02  0.1379984E+01
      -11   -1    0    0    0    0  0.00000000000E+00  0.00000000000E+00  0.35740347158E-01  0.35744000000E-01  0.51099999109E-03 0.  1.
       11   -1    0    0    0    0 -0.00000000000E+00 -0.00000000000E+00 -0.35740347158E-01  0.35744000000E-01  0.51099999109E-03 0. -1.
       22    1    1    2    0    0 -0.13149138767E-02  0.52135883179E-02  0.35330200724E-01  0.35737005818E-01  0.00000000000E+00 0.  1.
  9000001    1    1    2    0    0  0.13149138767E-02 -0.52135883179E-02 -0.35330200724E-01  0.35750994182E-01  0.10000000475E-02 0. -1.
</event>
<event>
 4   0  0.2441219E-02  0.9118800E+02  0.7818609E-02  0.1379984E+01
      -11   -1    0    0    0    0  0.00000000000E+00  0.00000000000E+00  0.35740347158E-01  0.35744000000E-01  0.51099999109E-03 0.  1.
       11   -1    0    0    0    0 -0.00000000000E+00 -0.00000000000E+00 -0.35740347158E-01  0.35744000000E-01  0.51099999109E-03 0. -1.
       22    1    1    2    0    0  0.60660043691E-02  0.12392188520E-03 -0.35218202953E-01  0.35737005818E-01  0.00000000000E+00 0. -1.
  9000001    1    1    2    0    0 -0.60660043691E-02 -0.12392188520E-03  0.35218202953E-01  0.35750994182E-01  0.10000000475E-02 0.  1.
</event>
<event>
 4   0  0.2441219E-02  0.9118800E+02  0.7818609E-02  0.1379984E+01
      -11   -1    0    0    0    0  0.00000000000E+00  0.00000000000E+00  0.35740347158E-01  0.35744000000E-01  0.51099999109E-03 0.  1.
       11   -1    0    0    0    0 -0.00000000000E+00 -0.00000000000E+00 -0.35740347158E-01  0.35744000000E-01  0.51099999109E-03 0. -1.
       22    1    1    2    0    0 -0.29326388871E-02  0.18568674449E-01 -0.30393050904E-01  0.35737005818E-01  0.00000000000E+00 0. -1.
  9000001    1    1    2    0    0  0.29326388871E-02 -0.18568674449E-01  0.30393050904E-01  0.35750994182E-01  0.10000000475E-02 0.  1.
</event>
<event>
 4   0  0.2441219E-02  0.9118800E+02  0.7818609E-02  0.1379984E+01
      -11   -1    0    0    0    0  0.00000000000E+00  0.00000000000E+00  0.35740347158E-01  0.35744000000E-01  0.51099999109E-03 0. -1.
       11   -1    0    0    0    0 -0.00000000000E+00 -0.00000000000E+00 -0.35740347158E-01  0.35744000000E-01  0.51099999109E-03 0.  1.
       22    1    1    2    0    0  0.33222462320E-02  0.59573726148E-02 -0.35079993962E-01  0.35737005818E-01  0.00000000000E+00 0.  1.
  9000001    1    1    2    0    0 -0.33222462320E-02 -0.59573726148E-02  0.35079993962E-01  0.35750994182E-01  0.10000000475E-02 0. -1.
</event>
<event>
 4   0  0.2441219E-02  0.9118800E+02  0.7818609E-02  0.1379984E+01
      -11   -1    0    0    0    0  0.00000000000E+00  0.00000000000E+00  0.35740347158E-01  0.35744000000E-01  0.51099999109E-03 0. -1.
       11   -1    0    0    0    0 -0.00000000000E+00 -0.00000000000E+00 -0.35740347158E-01  0.35744000000E-01  0.51099999109E-03 0.  1.
       22    1    1    2    0    0 -0.33474451284E-02  0.35442686276E-02  0.35402914511E-01  0.35737005818E-01  0.00000000000E+00 0. -1.
  9000001    1    1    2    0    0  0.33474451284E-02 -0.35442686276E-02 -0.35402914511E-01  0.35750994182E-01  0.10000000475E-02 0.  1.
</event>
<event>
 4   0  0.2441219E-02  0.9118800E+02  0.7818609E-02  0.1379984E+01
      -11   -1    0    0    0    0  0.00000000000E+00  0.00000000000E+00  0.35740347158E-01  0.35744000000E-01  0.51099999109E-03 0. -1.
       11   -1    0    0    0    0 -0.00000000000E+00 -0.00000000000E+00 -0.35740347158E-01  0.35744000000E-01  0.51099999109E-03 0.  1.
       22    1    1    2    0    0  0.21942460746E-02 -0.55449212235E-02 -0.35235957737E-01  0.35737005818E-01  0.00000000000E+00 0.  1.
  9000001    1    1    2    0    0 -0.21942460746E-02  0.55449212235E-02  0.35235957737E-01  0.35750994182E-01  0.10000000475E-02 0. -1.
</event>
<event>
 4   0  0.2441219E-02  0.9118800E+02  0.7818609E-02  0.1379984E+01
      -11   -1    0    0    0    0  0.00000000000E+00  0.00000000000E+00  0.35740347158E-01  0.35744000000E-01  0.51099999109E-03 0.  1.
       11   -1    0    0    0    0 -0.00000000000E+00 -0.00000000000E+00 -0.35740347158E-01  0.35744000000E-01  0.51099999109E-03 0. -1.
       22    1    1    2    0    0 -0.46874671504E-02 -0.36509712731E-02  0.35239631743E-01  0.35737005818E-01  0.00000000000E+00 0.  1.
  9000001    1    1    2    0    0  0.46874671504E-02  0.36509712731E-02 -0.35239631743E-01  0.35750994182E-01  0.10000000475E-02 0. -1.
</event>
<event>
 4   0  0.2441219E-02  0.9118800E+02  0.7818609E-02  0.1379984E+01
      -11   -1    0    0    0    0  0.00000000000E+00  0.00000000000E+00  0.35740347158E-01  0.35744000000E-01  0.51099999109E-03 0. -1.
       11   -1    0    0    0    0 -0.00000000000E+00 -0.00000000000E+00 -0.35740347158E-01  0.35744000000E-01  0.51099999109E-03 0.  1.
       22    1    1    2    0    0 -0.50067244599E-02  0.31664411280E-01  0.15793395877E-01  0.35737005818E-01  0.00000000000E+00 0.  1.
  9000001    1    1    2    0    0  0.50067244599E-02 -0.31664411280E-01 -0.15793395877E-01  0.35750994182E-01  0.10000000475E-02 0. -1.
</event>
<event>
 4   0  0.2441219E-02  0.9118800E+02  0.7818609E-02  0.1379984E+01
      -11   -1    0    0    0    0  0.00000000000E+00  0.00000000000E+00  0.35740347158E-01  0.35744000000E-01  0.51099999109E-03 0. -1.
       11   -1    0    0    0    0 -0.00000000000E+00 -0.00000000000E+00 -0.35740347158E-01  0.35744000000E-01  0.51099999109E-03 0.  1.
       22    1    1    2    0    0 -0.38596135156E-02 -0.17381284958E-01  0.30985930704E-01  0.35737005818E-01  0.00000000000E+00 0. -1.
  9000001    1    1    2    0    0  0.38596135156E-02  0.17381284958E-01 -0.30985930704E-01  0.35750994182E-01  0.10000000475E-02 0.  1.
</event>
<event>
 4   0  0.2441219E-02  0.9118800E+02  0.7818609E-02  0.1379984E+01
      -11   -1    0    0    0    0  0.00000000000E+00  0.00000000000E+00  0.35740347158E-01  0.35744000000E-01  0.51099999109E-03 0.  1.
       11   -1    0    0    0    0 -0.00000000000E+00 -0.00000000000E+00 -0.35740347158E-01  0.35744000000E-01  0.51099999109E-03 0. -1.
       22    1    1    2    0    0 -0.15581711216E-01  0.17503782700E-02 -0.32113549109E-01  0.35737005818E-01  0.00000000000E+00 0. -1.
  9000001    1    1    2    0    0  0.15581711216E-01 -0.17503782700E-02  0.32113549109E-01  0.35750994182E-01  0.10000000475E-02 0.  1.
</event>
<event>
 4   0  0.2441219E-02  0.9118800E+02  0.7818609E-02  0.1379984E+01
      -11   -1    0    0    0    0  0.00000000000E+00  0.00000000000E+00  0.35740347158E-01  0.35744000000E-01  0.51099999109E-03 0.  1.
       11   -1    0    0    0    0 -0.00000000000E+00 -0.00000000000E+00 -0.35740347158E-01  0.35744000000E-01  0.51099999109E-03 0. -1.
       22    1    1    2    0    0  0.30755651161E-02 -0.45896804073E-02 -0.35307355011E-01  0.35737005818E-01  0.00000000000E+00 0. -1.
  9000001    1    1    2    0    0 -0.30755651161E-02  0.45896804073E-02  0.35307355011E-01  0.35750994182E-01  0.10000000475E-02 0.  1.
</event>
<event>
 4   0  0.2441219E-02  0.9118800E+02  0.7818609E-02  0.1379984E+01
      -11   -1    0    0    0    0  0.00000000000E+00  0.00000000000E+00  0.35740347158E-01  0.35744000000E-01  0.51099999109E-03 0. -1.
       11   -1    0    0    0    0 -0.00000000000E+00 -0.00000000000E+00 -0.35740347158E-01  0.35744000000E-01  0.51099999109E-03 0.  1.
       22    1    1    2    0    0 -0.39404907587E-02  0.17705100251E-02  0.35474940616E-01  0.35737005818E-01  0.00000000000E+00 0. -1.
  9000001    1    1    2    0    0  0.39404907587E-02 -0.17705100251E-02 -0.35474940616E-01  0.35750994182E-01  0.10000000475E-02 0.  1.
</event>
<event>
 4   0  0.2441219E-02  0.9118800E+02  0.7818609E-02  0.1379984E+01
      -11   -1    0    0    0    0  0.00000000000E+00  0.00000000000E+00  0.35740347158E-01  0.35744000000E-01  0.51099999109E-03 0.  1.
       11   -1    0    0    0    0 -0.00000000000E+00 -0.00000000000E+00 -0.35740347158E-01  0.35744000000E-01  0.51099999109E-03 0. -1.
       22    1    1    2    0    0  0.48513253817E-02  0.15078019716E-01 -0.32035161126E-01  0.35737005818E-01  0.00000000000E+00 0. -1.
  9000001    1    1    2    0    0 -0.48513253817E-02 -0.15078019716E-01  0.32035161126E-01  0.35750994182E-01  0.10000000475E-02 0.  1.
</event>
<event>
 4   0  0.2441219E-02  0.9118800E+02  0.7818609E-02  0.1379984E+01
      -11   -1    0    0    0    0  0.00000000000E+00  0.00000000000E+00  0.35740347158E-01  0.35744000000E-01  0.51099999109E-03 0. -1.
       11   -1    0    0    0    0 -0.00000000000E+00 -0.00000000000E+00 -0.35740347158E-01  0.35744000000E-01  0.51099999109E-03 0.  1.
       22    1    1    2    0    0  0.21996282745E-01 -0.20602512382E-01  0.19205041365E-01  0.35737005818E-01  0.00000000000E+00 0. -1.
  9000001    1    1    2    0    0 -0.21996282745E-01  0.20602512382E-01 -0.19205041365E-01  0.35750994182E-01  0.10000000475E-02 0.  1.
</event>
<event>
 4   0  0.2441219E-02  0.9118800E+02  0.7818609E-02  0.1379984E+01
      -11   -1    0    0    0    0  0.00000000000E+00  0.00000000000E+00  0.35740347158E-01  0.35744000000E-01  0.51099999109E-03 0.  1.
       11   -1    0    0    0    0 -0.00000000000E+00 -0.00000000000E+00 -0.35740347158E-01  0.35744000000E-01  0.51099999109E-03 0. -1.
       22    1    1    2    0    0 -0.18650605957E-03 -0.62874850721E-02  0.35179060986E-01  0.35737005818E-01  0.00000000000E+00 0.  1.
  9000001    1    1    2    0    0  0.18650605957E-03  0.62874850721E-02 -0.35179060986E-01  0.35750994182E-01  0.10000000475E-02 0. -1.
</event>
<event>
 4   0  0.2441219E-02  0.9118800E+02  0.7818609E-02  0.1379984E+01
      -11   -1    0    0    0    0  0.00000000000E+00  0.00000000000E+00  0.35740347158E-01  0.35744000000E-01  0.51099999109E-03 0. -1.
       11   -1    0    0    0    0 -0.00000000000E+00 -0.00000000000E+00 -0.35740347158E-01  0.35744000000E-01  0.51099999109E-03 0.  1.
       22    1    1    2    0    0 -0.59150522497E-02 -0.19712467781E-03 -0.35243536764E-01  0.35737005818E-01  0.00000000000E+00 0.  1.
  9000001    1    1    2    0    0  0.59150522497E-02  0.19712467781E-03  0.35243536764E-01  0.35750994182E-01  0.10000000475E-02 0. -1.
</event>
<event>
 4   0  0.2441219E-02  0.9118800E+02  0.7818609E-02  0.1379984E+01
      -11   -1    0    0    0    0  0.00000000000E+00  0.00000000000E+00  0.35740347158E-01  0.35744000000E-01  0.51099999109E-03 0.  1.
       11   -1    0    0    0    0 -0.00000000000E+00 -0.00000000000E+00 -0.35740347158E-01  0.35744000000E-01  0.51099999109E-03 0. -1.
       22    1    1    2    0    0 -0.11198601439E-01  0.34677047888E-03 -0.33935301102E-01  0.35737005818E-01  0.00000000000E+00 0. -1.
  9000001    1    1    2    0    0  0.11198601439E-01 -0.34677047888E-03  0.33935301102E-01  0.35750994182E-01  0.10000000475E-02 0.  1.
</event>
<event>
 4   0  0.2441219E-02  0.9118800E+02  0.7818609E-02  0.1379984E+01
      -11   -1    0    0    0    0  0.00000000000E+00  0.00000000000E+00  0.35740347158E-01  0.35744000000E-01  0.51099999109E-03 0.  1.
       11   -1    0    0    0    0 -0.00000000000E+00 -0.00000000000E+00 -0.35740347158E-01  0.35744000000E-01  0.51099999109E-03 0. -1.
       22    1    1    2    0    0  0.11309191535E-01 -0.11019609654E-02 -0.33882465284E-01  0.35737005818E-01  0.00000000000E+00 0. -1.
  9000001    1    1    2    0    0 -0.11309191535E-01  0.11019609654E-02  0.33882465284E-01  0.35750994182E-01  0.10000000475E-02 0.  1.
</event>
<event>
 4   0  0.2441219E-02  0.9118800E+02  0.7818609E-02  0.1379984E+01
      -11   -1    0    0    0    0  0.00000000000E+00  0.00000000000E+00  0.35740347158E-01  0.35744000000E-01  0.51099999109E-03 0. -1.
       11   -1    0    0    0    0 -0.00000000000E+00 -0.00000000000E+00 -0.35740347158E-01  0.35744000000E-01  0.51099999109E-03 0.  1.
       22    1    1    2    0    0  0.12265148155E-01  0.28604424715E-01 -0.17563786958E-01  0.35737005818E-01  0.00000000000E+00 0.  1.
  9000001    1    1    2    0    0 -0.12265148155E-01 -0.28604424715E-01  0.17563786958E-01  0.35750994182E-01  0.10000000475E-02 0. -1.
</event>
<event>
 4   0  0.2441219E-02  0.9118800E+02  0.7818609E-02  0.1379984E+01
      -11   -1    0    0    0    0  0.00000000000E+00  0.00000000000E+00  0.35740347158E-01  0.35744000000E-01  0.51099999109E-03 0. -1.
       11   -1    0    0    0    0 -0.00000000000E+00 -0.00000000000E+00 -0.35740347158E-01  0.35744000000E-01  0.51099999109E-03 0.  1.
       22    1    1    2    0    0 -0.35678490037E-02 -0.41637664301E-02 -0.35313837054E-01  0.35737005818E-01  0.00000000000E+00 0.  1.
  9000001    1    1    2    0    0  0.35678490037E-02  0.41637664301E-02  0.35313837054E-01  0.35750994182E-01  0.10000000475E-02 0. -1.
</event>
<event>
 4   0  0.2441219E-02  0.9118800E+02  0.7818609E-02  0.1379984E+01
      -11   -1    0    0    0    0  0.00000000000E+00  0.00000000000E+00  0.35740347158E-01  0.35744000000E-01  0.51099999109E-03 0.  1.
       11   -1    0    0    0    0 -0.00000000000E+00 -0.00000000000E+00 -0.35740347158E-01  0.35744000000E-01  0.51099999109E-03 0. -1.
       22    1    1    2    0    0 -0.10497760025E-01 -0.16112387762E-01 -0.30121779163E-01  0.35737005818E-01  0.00000000000E+00 0. -1.
  9000001    1    1    2    0    0  0.10497760025E-01  0.16112387762E-01  0.30121779163E-01  0.35750994182E-01  0.10000000475E-02 0.  1.
</event>
<event>
 4   0  0.2441219E-02  0.9118800E+02  0.7818609E-02  0.1379984E+01
      -11   -1    0    0    0    0  0.00000000000E+00  0.00000000000E+00  0.35740347158E-01  0.35744000000E-01  0.51099999109E-03 0.  1.
       11   -1    0    0    0    0 -0.00000000000E+00 -0.00000000000E+00 -0.35740347158E-01  0.35744000000E-01  0.51099999109E-03 0. -1.
       22    1    1    2    0    0 -0.12877504862E-01 -0.32908206008E-01  0.53247939626E-02  0.35737005818E-01  0.00000000000E+00 0. -1.
  9000001    1    1    2    0    0  0.12877504862E-01  0.32908206008E-01 -0.53247939626E-02  0.35750994182E-01  0.10000000475E-02 0.  1.
</event>
<event>
 4   0  0.2441219E-02  0.9118800E+02  0.7818609E-02  0.1379984E+01
      -11   -1    0    0    0    0  0.00000000000E+00  0.00000000000E+00  0.35740347158E-01  0.35744000000E-01  0.51099999109E-03 0.  1.
       11   -1    0    0    0    0 -0.00000000000E+00 -0.00000000000E+00 -0.35740347158E-01  0.35744000000E-01  0.51099999109E-03 0. -1.
       22    1    1    2    0    0  0.11680605563E-01 -0.16807280161E-01  0.29295261940E-01  0.35737005818E-01  0.00000000000E+00 0.  1.
  9000001    1    1    2    0    0 -0.11680605563E-01  0.16807280161E-01 -0.29295261940E-01  0.35750994182E-01  0.10000000475E-02 0. -1.
</event>
<event>
 4   0  0.2441219E-02  0.9118800E+02  0.7818609E-02  0.1379984E+01
      -11   -1    0    0    0    0  0.00000000000E+00  0.00000000000E+00  0.35740347158E-01  0.35744000000E-01  0.51099999109E-03 0.  1.
       11   -1    0    0    0    0 -0.00000000000E+00 -0.00000000000E+00 -0.35740347158E-01  0.35744000000E-01  0.51099999109E-03 0. -1.
       22    1    1    2    0    0  0.66822706215E-02 -0.11827697569E-02 -0.35086776710E-01  0.35737005818E-01  0.00000000000E+00 0. -1.
  9000001    1    1    2    0    0 -0.66822706215E-02  0.11827697569E-02  0.35086776710E-01  0.35750994182E-01  0.10000000475E-02 0.  1.
</event>
<event>
 4   0  0.2441219E-02  0.9118800E+02  0.7818609E-02  0.1379984E+01
      -11   -1    0    0    0    0  0.00000000000E+00  0.00000000000E+00  0.35740347158E-01  0.35744000000E-01  0.51099999109E-03 0.  1.
       11   -1    0    0    0    0 -0.00000000000E+00 -0.00000000000E+00 -0.35740347158E-01  0.35744000000E-01  0.51099999109E-03 0. -1.
       22    1    1    2    0    0  0.12238288595E-02  0.52564556790E-02 -0.35327121330E-01  0.35737005818E-01  0.00000000000E+00 0. -1.
  9000001    1    1    2    0    0 -0.12238288595E-02 -0.52564556790E-02  0.35327121330E-01  0.35750994182E-01  0.10000000475E-02 0.  1.
</event>
<event>
 4   0  0.2441219E-02  0.9118800E+02  0.7818609E-02  0.1379984E+01
      -11   -1    0    0    0    0  0.00000000000E+00  0.00000000000E+00  0.35740347158E-01  0.35744000000E-01  0.51099999109E-03 0. -1.
       11   -1    0    0    0    0 -0.00000000000E+00 -0.00000000000E+00 -0.35740347158E-01  0.35744000000E-01  0.51099999109E-03 0.  1.
       22    1    1    2    0    0 -0.34285479682E-02 -0.23681224580E-01 -0.26543892821E-01  0.35737005818E-01  0.00000000000E+00 0.  1.
  9000001    1    1    2    0    0  0.34285479682E-02  0.23681224580E-01  0.26543892821E-01  0.35750994182E-01  0.10000000475E-02 0. -1.
</event>
<event>
 4   0  0.2441219E-02  0.9118800E+02  0.7818609E-02  0.1379984E+01
      -11   -1    0    0    0    0  0.00000000000E+00  0.00000000000E+00  0.35740347158E-01  0.35744000000E-01  0.51099999109E-03 0.  1.
       11   -1    0    0    0    0 -0.00000000000E+00 -0.00000000000E+00 -0.35740347158E-01  0.35744000000E-01  0.51099999109E-03 0. -1.
       22    1    1    2    0    0  0.21239610156E-02  0.93345039870E-02 -0.34430936813E-01  0.35737005818E-01  0.00000000000E+00 0. -1.
  9000001    1    1    2    0    0 -0.21239610156E-02 -0.93345039870E-02  0.34430936813E-01  0.35750994182E-01  0.10000000475E-02 0.  1.
</event>
<event>
 4   0  0.2441219E-02  0.9118800E+02  0.7818609E-02  0.1379984E+01
      -11   -1    0    0    0    0  0.00000000000E+00  0.00000000000E+00  0.35740347158E-01  0.35744000000E-01  0.51099999109E-03 0. -1.
       11   -1    0    0    0    0 -0.00000000000E+00 -0.00000000000E+00 -0.35740347158E-01  0.35744000000E-01  0.51099999109E-03 0.  1.
       22    1    1    2    0    0  0.30544249109E-02  0.48100993354E-02  0.35279838686E-01  0.35737005818E-01  0.00000000000E+00 0. -1.
  9000001    1    1    2    0    0 -0.30544249109E-02 -0.48100993354E-02 -0.35279838686E-01  0.35750994182E-01  0.10000000475E-02 0.  1.
</event>
<event>
 4   0  0.2441219E-02  0.9118800E+02  0.7818609E-02  0.1379984E+01
      -11   -1    0    0    0    0  0.00000000000E+00  0.00000000000E+00  0.35740347158E-01  0.35744000000E-01  0.51099999109E-03 0.  1.
       11   -1    0    0    0    0 -0.00000000000E+00 -0.00000000000E+00 -0.35740347158E-01  0.35744000000E-01  0.51099999109E-03 0. -1.
       22    1    1    2    0    0  0.15194864792E-01  0.48699392148E-02  0.31977075552E-01  0.35737005818E-01  0.00000000000E+00 0.  1.
  9000001    1    1    2    0    0 -0.15194864792E-01 -0.48699392148E-02 -0.31977075552E-01  0.35750994182E-01  0.10000000475E-02 0. -1.
</event>
<event>
 4   0  0.2441219E-02  0.9118800E+02  0.7818609E-02  0.1379984E+01
      -11   -1    0    0    0    0  0.00000000000E+00  0.00000000000E+00  0.35740347158E-01  0.35744000000E-01  0.51099999109E-03 0. -1.
       11   -1    0    0    0    0 -0.00000000000E+00 -0.00000000000E+00 -0.35740347158E-01  0.35744000000E-01  0.51099999109E-03 0.  1.
       22    1    1    2    0    0 -0.13388539753E-01  0.19657816676E-01  0.26673035667E-01  0.35737005818E-01  0.00000000000E+00 0. -1.
  9000001    1    1    2    0    0  0.13388539753E-01 -0.19657816676E-01 -0.26673035667E-01  0.35750994182E-01  0.10000000475E-02 0.  1.
</event>
<event>
 4   0  0.2441219E-02  0.9118800E+02  0.7818609E-02  0.1379984E+01
      -11   -1    0    0    0    0  0.00000000000E+00  0.00000000000E+00  0.35740347158E-01  0.35744000000E-01  0.51099999109E-03 0.  1.
       11   -1    0    0    0    0 -0.00000000000E+00 -0.00000000000E+00 -0.35740347158E-01  0.35744000000E-01  0.51099999109E-03 0. -1.
       22    1    1    2    0    0 -0.17247214585E-01  0.41819534452E-02  0.31019001262E-01  0.35737005818E-01  0.00000000000E+00 0.  1.
  9000001    1    1    2    0    0  0.17247214585E-01 -0.41819534452E-02 -0.31019001262E-01  0.35750994182E-01  0.10000000475E-02 0. -1.
</event>
<event>
 4   0  0.2441219E-02  0.9118800E+02  0.7818609E-02  0.1379984E+01
      -11   -1    0    0    0    0  0.00000000000E+00  0.00000000000E+00  0.35740347158E-01  0.35744000000E-01  0.51099999109E-03 0.  1.
       11   -1    0    0    0    0 -0.00000000000E+00 -0.00000000000E+00 -0.35740347158E-01  0.35744000000E-01  0.51099999109E-03 0. -1.
       22    1    1    2    0    0 -0.12277471236E-01 -0.11899250785E-01  0.31381604734E-01  0.35737005818E-01  0.00000000000E+00 0.  1.
  9000001    1    1    2    0    0  0.12277471236E-01  0.11899250785E-01 -0.31381604734E-01  0.35750994182E-01  0.10000000475E-02 0. -1.
</event>
<event>
 4   0  0.2441219E-02  0.9118800E+02  0.7818609E-02  0.1379984E+01
      -11   -1    0    0    0    0  0.00000000000E+00  0.00000000000E+00  0.35740347158E-01  0.35744000000E-01  0.51099999109E-03 0.  1.
       11   -1    0    0    0    0 -0.00000000000E+00 -0.00000000000E+00 -0.35740347158E-01  0.35744000000E-01  0.51099999109E-03 0. -1.
       22    1    1    2    0    0 -0.14333553042E-02  0.54453934401E-02 -0.35290604525E-01  0.35737005818E-01  0.00000000000E+00 0. -1.
  9000001    1    1    2    0    0  0.14333553042E-02 -0.54453934401E-02  0.35290604525E-01  0.35750994182E-01  0.10000000475E-02 0.  1.
</event>
<event>
 4   0  0.2441219E-02  0.9118800E+02  0.7818609E-02  0.1379984E+01
      -11   -1    0    0    0    0  0.00000000000E+00  0.00000000000E+00  0.35740347158E-01  0.35744000000E-01  0.51099999109E-03 0. -1.
       11   -1    0    0    0    0 -0.00000000000E+00 -0.00000000000E+00 -0.35740347158E-01  0.35744000000E-01  0.51099999109E-03 0.  1.
       22    1    1    2    0    0 -0.49839239746E-02 -0.20719692815E-02 -0.35327058043E-01  0.35737005818E-01  0.00000000000E+00 0.  1.
  9000001    1    1    2    0    0  0.49839239746E-02  0.20719692815E-02  0.35327058043E-01  0.35750994182E-01  0.10000000475E-02 0. -1.
</event>
<event>
 4   0  0.2441219E-02  0.9118800E+02  0.7818609E-02  0.1379984E+01
      -11   -1    0    0    0    0  0.00000000000E+00  0.00000000000E+00  0.35740347158E-01  0.35744000000E-01  0.51099999109E-03 0. -1.
       11   -1    0    0    0    0 -0.00000000000E+00 -0.00000000000E+00 -0.35740347158E-01  0.35744000000E-01  0.51099999109E-03 0.  1.
       22    1    1    2    0    0 -0.17092147059E-01 -0.54603262327E-02  0.30905936828E-01  0.35737005818E-01  0.00000000000E+00 0. -1.
  9000001    1    1    2    0    0  0.17092147059E-01  0.54603262327E-02 -0.30905936828E-01  0.35750994182E-01  0.10000000475E-02 0.  1.
</event>
<event>
 4   0  0.2441219E-02  0.9118800E+02  0.7818609E-02  0.1379984E+01
      -11   -1    0    0    0    0  0.00000000000E+00  0.00000000000E+00  0.35740347158E-01  0.35744000000E-01  0.51099999109E-03 0. -1.
       11   -1    0    0    0    0 -0.00000000000E+00 -0.00000000000E+00 -0.35740347158E-01  0.35744000000E-01  0.51099999109E-03 0.  1.
       22    1    1    2    0    0  0.29757842258E-02 -0.10347840977E-02  0.35597858292E-01  0.35737005818E-01  0.00000000000E+00 0. -1.
  9000001    1    1    2    0    0 -0.29757842258E-02  0.10347840977E-02 -0.35597858292E-01  0.35750994182E-01  0.10000000475E-02 0.  1.
</event>
<event>
 4   0  0.2441219E-02  0.9118800E+02  0.7818609E-02  0.1379984E+01
      -11   -1    0    0    0    0  0.00000000000E+00  0.00000000000E+00  0.35740347158E-01  0.35744000000E-01  0.51099999109E-03 0. -1.
       11   -1    0    0    0    0 -0.00000000000E+00 -0.00000000000E+00 -0.35740347158E-01  0.35744000000E-01  0.51099999109E-03 0.  1.
       22    1    1    2    0    0 -0.15949431543E-02 -0.11638577713E-01  0.33751048132E-01  0.35737005818E-01  0.00000000000E+00 0. -1.
  9000001    1    1    2    0    0  0.15949431543E-02  0.11638577713E-01 -0.33751048132E-01  0.35750994182E-01  0.10000000475E-02 0.  1.
</event>
<event>
 4   0  0.2441219E-02  0.9118800E+02  0.7818609E-02  0.1379984E+01
      -11   -1    0    0    0    0  0.00000000000E+00  0.00000000000E+00  0.35740347158E-01  0.35744000000E-01  0.51099999109E-03 0.  1.
       11   -1    0    0    0    0 -0.00000000000E+00 -0.00000000000E+00 -0.35740347158E-01  0.35744000000E-01  0.51099999109E-03 0. -1.
       22    1    1    2    0    0 -0.25793554582E-02  0.47164792082E-02  0.35330374102E-01  0.35737005818E-01  0.00000000000E+00 0.  1.
  9000001    1    1    2    0    0  0.25793554582E-02 -0.47164792082E-02 -0.35330374102E-01  0.35750994182E-01  0.10000000475E-02 0. -1.
</event>
<event>
 4   0  0.2441219E-02  0.9118800E+02  0.7818609E-02  0.1379984E+01
      -11   -1    0    0    0    0  0.00000000000E+00  0.00000000000E+00  0.35740347158E-01  0.35744000000E-01  0.51099999109E-03 0.  1.
       11   -1    0    0    0    0 -0.00000000000E+00 -0.00000000000E+00 -0.35740347158E-01  0.35744000000E-01  0.51099999109E-03 0. -1.
       22    1    1    2    0    0  0.20994193557E-03 -0.32466824043E-02  0.35588601583E-01  0.35737005818E-01  0.00000000000E+00 0.  1.
  9000001    1    1    2    0    0 -0.20994193557E-03  0.32466824043E-02 -0.35588601583E-01  0.35750994182E-01  0.10000000475E-02 0. -1.
</event>
<event>
 4   0  0.2441219E-02  0.9118800E+02  0.7818609E-02  0.1379984E+01
      -11   -1    0    0    0    0  0.00000000000E+00  0.00000000000E+00  0.35740347158E-01  0.35744000000E-01  0.51099999109E-03 0. -1.
       11   -1    0    0    0    0 -0.00000000000E+00 -0.00000000000E+00 -0.35740347158E-01  0.35744000000E-01  0.51099999109E-03 0.  1.
       22    1    1    2    0    0  0.26523069281E-02  0.13719676737E-01 -0.32891781999E-01  0.35737005818E-01  0.00000000000E+00 0.  1.
  9000001    1    1    2    0    0 -0.26523069281E-02 -0.13719676737E-01  0.32891781999E-01  0.35750994182E-01  0.10000000475E-02 0. -1.
</event>
<event>
 4   0  0.2441219E-02  0.9118800E+02  0.7818609E-02  0.1379984E+01
      -11   -1    0    0    0    0  0.00000000000E+00  0.00000000000E+00  0.35740347158E-01  0.35744000000E-01  0.51099999109E-03 0. -1.
       11   -1    0    0    0    0 -0.00000000000E+00 -0.00000000000E+00 -0.35740347158E-01  0.35744000000E-01  0.51099999109E-03 0.  1.
       22    1    1    2    0    0  0.20390477168E-02  0.36082220934E-02 -0.35495867402E-01  0.35737005818E-01  0.00000000000E+00 0.  1.
  9000001    1    1    2    0    0 -0.20390477168E-02 -0.36082220934E-02  0.35495867402E-01  0.35750994182E-01  0.10000000475E-02 0. -1.
</event>
<event>
 4   0  0.2441219E-02  0.9118800E+02  0.7818609E-02  0.1379984E+01
      -11   -1    0    0    0    0  0.00000000000E+00  0.00000000000E+00  0.35740347158E-01  0.35744000000E-01  0.51099999109E-03 0.  1.
       11   -1    0    0    0    0 -0.00000000000E+00 -0.00000000000E+00 -0.35740347158E-01  0.35744000000E-01  0.51099999109E-03 0. -1.
       22    1    1    2    0    0 -0.20784042139E-01  0.64079378524E-02 -0.28356577892E-01  0.35737005818E-01  0.00000000000E+00 0. -1.
  9000001    1    1    2    0    0  0.20784042139E-01 -0.64079378524E-02  0.28356577892E-01  0.35750994182E-01  0.10000000475E-02 0.  1.
</event>
<event>
 4   0  0.2441219E-02  0.9118800E+02  0.7818609E-02  0.1379984E+01
      -11   -1    0    0    0    0  0.00000000000E+00  0.00000000000E+00  0.35740347158E-01  0.35744000000E-01  0.51099999109E-03 0.  1.
       11   -1    0    0    0    0 -0.00000000000E+00 -0.00000000000E+00 -0.35740347158E-01  0.35744000000E-01  0.51099999109E-03 0. -1.
       22    1    1    2    0    0  0.19706026917E-01 -0.94081107408E-02 -0.28289459880E-01  0.35737005818E-01  0.00000000000E+00 0. -1.
  9000001    1    1    2    0    0 -0.19706026917E-01  0.94081107408E-02  0.28289459880E-01  0.35750994182E-01  0.10000000475E-02 0.  1.
</event>
<event>
 4   0  0.2441219E-02  0.9118800E+02  0.7818609E-02  0.1379984E+01
      -11   -1    0    0    0    0  0.00000000000E+00  0.00000000000E+00  0.35740347158E-01  0.35744000000E-01  0.51099999109E-03 0. -1.
       11   -1    0    0    0    0 -0.00000000000E+00 -0.00000000000E+00 -0.35740347158E-01  0.35744000000E-01  0.51099999109E-03 0.  1.
       22    1    1    2    0    0 -0.64657713578E-02  0.76152193836E-02  0.34312327513E-01  0.35737005818E-01  0.00000000000E+00 0. -1.
  9000001    1    1    2    0    0  0.64657713578E-02 -0.76152193836E-02 -0.34312327513E-01  0.35750994182E-01  0.10000000475E-02 0.  1.
</event>
<event>
 4   0  0.2441219E-02  0.9118800E+02  0.7818609E-02  0.1379984E+01
      -11   -1    0    0    0    0  0.00000000000E+00  0.00000000000E+00  0.35740347158E-01  0.35744000000E-01  0.51099999109E-03 0.  1.
       11   -1    0    0    0    0 -0.00000000000E+00 -0.00000000000E+00 -0.35740347158E-01  0.35744000000E-01  0.51099999109E-03 0. -1.
       22    1    1    2    0    0 -0.76404194654E-02 -0.73385847044E-02  0.34130671687E-01  0.35737005818E-01  0.00000000000E+00 0.  1.
  9000001    1    1    2    0    0  0.76404194654E-02  0.73385847044E-02 -0.34130671687E-01  0.35750994182E-01  0.10000000475E-02 0. -1.
</event>
<event>
 4   0  0.2441219E-02  0.9118800E+02  0.7818609E-02  0.1379984E+01
      -11   -1    0    0    0    0  0.00000000000E+00  0.00000000000E+00  0.35740347158E-01  0.35744000000E-01  0.51099999109E-03 0.  1.
       11   -1    0    0    0    0 -0.00000000000E+00 -0.00000000000E+00 -0.35740347158E-01  0.35744000000E-01  0.51099999109E-03 0. -1.
       22    1    1    2    0    0  0.17810550815E-01 -0.20584044552E-01  0.23156316081E-01  0.35737005818E-01  0.00000000000E+00 0.  1.
  9000001    1    1    2    0    0 -0.17810550815E-01  0.20584044552E-01 -0.23156316081E-01  0.35750994182E-01  0.10000000475E-02 0. -1.
</event>
<event>
 4   0  0.2441219E-02  0.9118800E+02  0.7818609E-02  0.1379984E+01
      -11   -1    0    0    0    0  0.00000000000E+00  0.00000000000E+00  0.35740347158E-01  0.35744000000E-01  0.51099999109E-03 0.  1.
       11   -1    0    0    0    0 -0.00000000000E+00 -0.00000000000E+00 -0.35740347158E-01  0.35744000000E-01  0.51099999109E-03 0. -1.
       22    1    1    2    0    0 -0.35177530385E-01 -0.49175249244E-02 -0.39361007951E-02  0.35737005818E-01  0.00000000000E+00 0.  1.
  9000001    1    1    2    0    0  0.35177530385E-01  0.49175249244E-02  0.39361007951E-02  0.35750994182E-01  0.10000000475E-02 0. -1.
</event>
<event>
 4   0  0.2441219E-02  0.9118800E+02  0.7818609E-02  0.1379984E+01
      -11   -1    0    0    0    0  0.00000000000E+00  0.00000000000E+00  0.35740347158E-01  0.35744000000E-01  0.51099999109E-03 0.  1.
       11   -1    0    0    0    0 -0.00000000000E+00 -0.00000000000E+00 -0.35740347158E-01  0.35744000000E-01  0.51099999109E-03 0. -1.
       22    1    1    2    0    0 -0.64511379485E-02  0.10692210468E-01  0.33484220752E-01  0.35737005818E-01  0.00000000000E+00 0.  1.
  9000001    1    1    2    0    0  0.64511379485E-02 -0.10692210468E-01 -0.33484220752E-01  0.35750994182E-01  0.10000000475E-02 0. -1.
</event>
<event>
 4   0  0.2441219E-02  0.9118800E+02  0.7818609E-02  0.1379984E+01
      -11   -1    0    0    0    0  0.00000000000E+00  0.00000000000E+00  0.35740347158E-01  0.35744000000E-01  0.51099999109E-03 0.  1.
       11   -1    0    0    0    0 -0.00000000000E+00 -0.00000000000E+00 -0.35740347158E-01  0.35744000000E-01  0.51099999109E-03 0. -1.
       22    1    1    2    0    0 -0.69403511619E-03  0.34415481473E-02 -0.35564134271E-01  0.35737005818E-01  0.00000000000E+00 0. -1.
  9000001    1    1    2    0    0  0.69403511619E-03 -0.34415481473E-02  0.35564134271E-01  0.35750994182E-01  0.10000000475E-02 0.  1.
</event>
<event>
 4   0  0.2441219E-02  0.9118800E+02  0.7818609E-02  0.1379984E+01
      -11   -1    0    0    0    0  0.00000000000E+00  0.00000000000E+00  0.35740347158E-01  0.35744000000E-01  0.51099999109E-03 0. -1.
       11   -1    0    0    0    0 -0.00000000000E+00 -0.00000000000E+00 -0.35740347158E-01  0.35744000000E-01  0.51099999109E-03 0.  1.
       22    1    1    2    0    0 -0.11631690497E-01 -0.20627330263E-02  0.33728066851E-01  0.35737005818E-01  0.00000000000E+00 0. -1.
  9000001    1    1    2    0    0  0.11631690497E-01  0.20627330263E-02 -0.33728066851E-01  0.35750994182E-01  0.10000000475E-02 0.  1.
</event>
<event>
 4   0  0.2441219E-02  0.9118800E+02  0.7818609E-02  0.1379984E+01
      -11   -1    0    0    0    0  0.00000000000E+00  0.00000000000E+00  0.35740347158E-01  0.35744000000E-01  0.51099999109E-03 0. -1.
       11   -1    0    0    0    0 -0.00000000000E+00 -0.00000000000E+00 -0.35740347158E-01  0.35744000000E-01  0.51099999109E-03 0.  1.
       22    1    1    2    0    0  0.36224844533E-03 -0.43934439127E-02 -0.35464066483E-01  0.35737005818E-01  0.00000000000E+00 0.  1.
  9000001    1    1    2    0    0 -0.36224844533E-03  0.43934439127E-02  0.35464066483E-01  0.35750994182E-01  0.10000000475E-02 0. -1.
</event>
<event>
 4   0  0.2441219E-02  0.9118800E+02  0.7818609E-02  0.1379984E+01
      -11   -1    0    0    0    0  0.00000000000E+00  0.00000000000E+00  0.35740347158E-01  0.35744000000E-01  0.51099999109E-03 0.  1.
       11   -1    0    0    0    0 -0.00000000000E+00 -0.00000000000E+00 -0.35740347158E-01  0.35744000000E-01  0.51099999109E-03 0. -1.
       22    1    1    2    0    0  0.12602399602E-03 -0.31799304657E-02  0.35595024161E-01  0.35737005818E-01  0.00000000000E+00 0.  1.
  9000001    1    1    2    0    0 -0.12602399602E-03  0.31799304657E-02 -0.35595024161E-01  0.35750994182E-01  0.10000000475E-02 0. -1.
</event>
<event>
 4   0  0.2441219E-02  0.9118800E+02  0.7818609E-02  0.1379984E+01
      -11   -1    0    0    0    0  0.00000000000E+00  0.00000000000E+00  0.35740347158E-01  0.35744000000E-01  0.51099999109E-03 0.  1.
       11   -1    0    0    0    0 -0.00000000000E+00 -0.00000000000E+00 -0.35740347158E-01  0.35744000000E-01  0.51099999109E-03 0. -1.
       22    1    1    2    0    0  0.91227576594E-02 -0.31190220315E-01 -0.14868726719E-01  0.35737005818E-01  0.00000000000E+00 0. -1.
  9000001    1    1    2    0    0 -0.91227576594E-02  0.31190220315E-01  0.14868726719E-01  0.35750994182E-01  0.10000000475E-02 0.  1.
</event>
<event>
 4   0  0.2441219E-02  0.9118800E+02  0.7818609E-02  0.1379984E+01
      -11   -1    0    0    0    0  0.00000000000E+00  0.00000000000E+00  0.35740347158E-01  0.35744000000E-01  0.51099999109E-03 0. -1.
       11   -1    0    0    0    0 -0.00000000000E+00 -0.00000000000E+00 -0.35740347158E-01  0.35744000000E-01  0.51099999109E-03 0.  1.
       22    1    1    2    0    0  0.80395795288E-02  0.91204710200E-02 -0.33605293545E-01  0.35737005818E-01  0.00000000000E+00 0.  1.
  9000001    1    1    2    0    0 -0.80395795288E-02 -0.91204710200E-02  0.33605293545E-01  0.35750994182E-01  0.10000000475E-02 0. -1.
</event>
<event>
 4   0  0.2441219E-02  0.9118800E+02  0.7818609E-02  0.1379984E+01
      -11   -1    0    0    0    0  0.00000000000E+00  0.00000000000E+00  0.35740347158E-01  0.35744000000E-01  0.51099999109E-03 0.  1.
       11   -1    0    0    0    0 -0.00000000000E+00 -0.00000000000E+00 -0.35740347158E-01  0.35744000000E-01  0.51099999109E-03 0. -1.
       22    1    1    2    0    0 -0.10834485276E-01 -0.94660646130E-02 -0.32713011699E-01  0.35737005818E-01  0.00000000000E+00 0. -1.
  9000001    1    1    2    0    0  0.10834485276E-01  0.94660646130E-02  0.32713011699E-01  0.35750994182E-01  0.10000000475E-02 0.  1.
</event>
<event>
 4   0  0.2441219E-02  0.9118800E+02  0.7818609E-02  0.1379984E+01
      -11   -1    0    0    0    0  0.00000000000E+00  0.00000000000E+00  0.35740347158E-01  0.35744000000E-01  0.51099999109E-03 0. -1.
       11   -1    0    0    0    0 -0.00000000000E+00 -0.00000000000E+00 -0.35740347158E-01  0.35744000000E-01  0.51099999109E-03 0.  1.
       22    1    1    2    0    0 -0.45836907771E-02  0.10099199014E-01  0.33972482144E-01  0.35737005818E-01  0.00000000000E+00 0. -1.
  9000001    1    1    2    0    0  0.45836907771E-02 -0.10099199014E-01 -0.33972482144E-01  0.35750994182E-01  0.10000000475E-02 0.  1.
</event>
<event>
 4   0  0.2441219E-02  0.9118800E+02  0.7818609E-02  0.1379984E+01
      -11   -1    0    0    0    0  0.00000000000E+00  0.00000000000E+00  0.35740347158E-01  0.35744000000E-01  0.51099999109E-03 0. -1.
       11   -1    0    0    0    0 -0.00000000000E+00 -0.00000000000E+00 -0.35740347158E-01  0.35744000000E-01  0.51099999109E-03 0.  1.
       22    1    1    2    0    0  0.64374418119E-02 -0.71296931298E-02  0.34421801284E-01  0.35737005818E-01  0.00000000000E+00 0. -1.
  9000001    1    1    2    0    0 -0.64374418119E-02  0.71296931298E-02 -0.34421801284E-01  0.35750994182E-01  0.10000000475E-02 0.  1.
</event>
<event>
 4   0  0.2441219E-02  0.9118800E+02  0.7818609E-02  0.1379984E+01
      -11   -1    0    0    0    0  0.00000000000E+00  0.00000000000E+00  0.35740347158E-01  0.35744000000E-01  0.51099999109E-03 0.  1.
       11   -1    0    0    0    0 -0.00000000000E+00 -0.00000000000E+00 -0.35740347158E-01  0.35744000000E-01  0.51099999109E-03 0. -1.
       22    1    1    2    0    0  0.13063307572E-01 -0.76394641757E-02  0.32374714937E-01  0.35737005818E-01  0.00000000000E+00 0.  1.
  9000001    1    1    2    0    0 -0.13063307572E-01  0.76394641757E-02 -0.32374714937E-01  0.35750994182E-01  0.10000000475E-02 0. -1.
</event>
<event>
 4   0  0.2441219E-02  0.9118800E+02  0.7818609E-02  0.1379984E+01
      -11   -1    0    0    0    0  0.00000000000E+00  0.00000000000E+00  0.35740347158E-01  0.35744000000E-01  0.51099999109E-03 0.  1.
       11   -1    0    0    0    0 -0.00000000000E+00 -0.00000000000E+00 -0.35740347158E-01  0.35744000000E-01  0.51099999109E-03 0. -1.
       22    1    1    2    0    0  0.32383563750E-02 -0.70500589601E-02 -0.34884714439E-01  0.35737005818E-01  0.00000000000E+00 0. -1.
  9000001    1    1    2    0    0 -0.32383563750E-02  0.70500589601E-02  0.34884714439E-01  0.35750994182E-01  0.10000000475E-02 0.  1.
</event>
<event>
 4   0  0.2441219E-02  0.9118800E+02  0.7818609E-02  0.1379984E+01
      -11   -1    0    0    0    0  0.00000000000E+00  0.00000000000E+00  0.35740347158E-01  0.35744000000E-01  0.51099999109E-03 0.  1.
       11   -1    0    0    0    0 -0.00000000000E+00 -0.00000000000E+00 -0.35740347158E-01  0.35744000000E-01  0.51099999109E-03 0. -1.
       22    1    1    2    0    0 -0.74346455253E-02 -0.15676745046E-01 -0.31242587849E-01  0.35737005818E-01  0.00000000000E+00 0. -1.
  9000001    1    1    2    0    0  0.74346455253E-02  0.15676745046E-01  0.31242587849E-01  0.35750994182E-01  0.10000000475E-02 0.  1.
</event>
<event>
 4   0  0.2441219E-02  0.9118800E+02  0.7818609E-02  0.1379984E+01
      -11   -1    0    0    0    0  0.00000000000E+00  0.00000000000E+00  0.35740347158E-01  0.35744000000E-01  0.51099999109E-03 0.  1.
       11   -1    0    0    0    0 -0.00000000000E+00 -0.00000000000E+00 -0.35740347158E-01  0.35744000000E-01  0.51099999109E-03 0. -1.
       22    1    1    2    0    0 -0.20008123303E-01 -0.90215964124E-02  0.28203180404E-01  0.35737005818E-01  0.00000000000E+00 0.  1.
  9000001    1    1    2    0    0  0.20008123303E-01  0.90215964124E-02 -0.28203180404E-01  0.35750994182E-01  0.10000000475E-02 0. -1.
</event>
<event>
 4   0  0.2441219E-02  0.9118800E+02  0.7818609E-02  0.1379984E+01
      -11   -1    0    0    0    0  0.00000000000E+00  0.00000000000E+00  0.35740347158E-01  0.35744000000E-01  0.51099999109E-03 0. -1.
       11   -1    0    0    0    0 -0.00000000000E+00 -0.00000000000E+00 -0.35740347158E-01  0.35744000000E-01  0.51099999109E-03 0.  1.
       22    1    1    2    0    0 -0.90910365858E-02 -0.14240677945E-01  0.31491105575E-01  0.35737005818E-01  0.00000000000E+00 0. -1.
  9000001    1    1    2    0    0  0.90910365858E-02  0.14240677945E-01 -0.31491105575E-01  0.35750994182E-01  0.10000000475E-02 0.  1.
</event>
<event>
 4   0  0.2441219E-02  0.9118800E+02  0.7818609E-02  0.1379984E+01
      -11   -1    0    0    0    0  0.00000000000E+00  0.00000000000E+00  0.35740347158E-01  0.35744000000E-01  0.51099999109E-03 0. -1.
       11   -1    0    0    0    0 -0.00000000000E+00 -0.00000000000E+00 -0.35740347158E-01  0.35744000000E-01  0.51099999109E-03 0.  1.
       22    1    1    2    0    0  0.23193016778E-02  0.43260620379E-02 -0.35398299561E-01  0.35737005818E-01  0.00000000000E+00 0.  1.
  9000001    1    1    2    0    0 -0.23193016778E-02 -0.43260620379E-02  0.35398299561E-01  0.35750994182E-01  0.10000000475E-02 0. -1.
</event>
<event>
 4   0  0.2441219E-02  0.9118800E+02  0.7818609E-02  0.1379984E+01
      -11   -1    0    0    0    0  0.00000000000E+00  0.00000000000E+00  0.35740347158E-01  0.35744000000E-01  0.51099999109E-03 0. -1.
       11   -1    0    0    0    0 -0.00000000000E+00 -0.00000000000E+00 -0.35740347158E-01  0.35744000000E-01  0.51099999109E-03 0.  1.
       22    1    1    2    0    0  0.15425351075E-01 -0.14144367966E-01 -0.28967723140E-01  0.35737005818E-01  0.00000000000E+00 0.  1.
  9000001    1    1    2    0    0 -0.15425351075E-01  0.14144367966E-01  0.28967723140E-01  0.35750994182E-01  0.10000000475E-02 0. -1.
</event>
<event>
 4   0  0.2441219E-02  0.9118800E+02  0.7818609E-02  0.1379984E+01
      -11   -1    0    0    0    0  0.00000000000E+00  0.00000000000E+00  0.35740347158E-01  0.35744000000E-01  0.51099999109E-03 0. -1.
       11   -1    0    0    0    0 -0.00000000000E+00 -0.00000000000E+00 -0.35740347158E-01  0.35744000000E-01  0.51099999109E-03 0.  1.
       22    1    1    2    0    0 -0.39406040782E-03  0.45646429351E-02 -0.35442098360E-01  0.35737005818E-01  0.00000000000E+00 0.  1.
  9000001    1    1    2    0    0  0.39406040782E-03 -0.45646429351E-02  0.35442098360E-01  0.35750994182E-01  0.10000000475E-02 0. -1.
</event>
<event>
 4   0  0.2441219E-02  0.9118800E+02  0.7818609E-02  0.1379984E+01
      -11   -1    0    0    0    0  0.00000000000E+00  0.00000000000E+00  0.35740347158E-01  0.35744000000E-01  0.51099999109E-03 0.  1.
       11   -1    0    0    0    0 -0.00000000000E+00 -0.00000000000E+00 -0.35740347158E-01  0.35744000000E-01  0.51099999109E-03 0. -1.
       22    1    1    2    0    0 -0.71166274907E-02  0.34491400267E-04 -0.35021222257E-01  0.35737005818E-01  0.00000000000E+00 0. -1.
  9000001    1    1    2    0    0  0.71166274907E-02 -0.34491400267E-04  0.35021222257E-01  0.35750994182E-01  0.10000000475E-02 0.  1.
</event>
<event>
 4   0  0.2441219E-02  0.9118800E+02  0.7818609E-02  0.1379984E+01
      -11   -1    0    0    0    0  0.00000000000E+00  0.00000000000E+00  0.35740347158E-01  0.35744000000E-01  0.51099999109E-03 0. -1.
       11   -1    0    0    0    0 -0.00000000000E+00 -0.00000000000E+00 -0.35740347158E-01  0.35744000000E-01  0.51099999109E-03 0.  1.
       22    1    1    2    0    0 -0.83106796339E-02 -0.92764572857E-03 -0.34744865265E-01  0.35737005818E-01  0.00000000000E+00 0.  1.
  9000001    1    1    2    0    0  0.83106796339E-02  0.92764572857E-03  0.34744865265E-01  0.35750994182E-01  0.10000000475E-02 0. -1.
</event>
<event>
 4   0  0.2441219E-02  0.9118800E+02  0.7818609E-02  0.1379984E+01
      -11   -1    0    0    0    0  0.00000000000E+00  0.00000000000E+00  0.35740347158E-01  0.35744000000E-01  0.51099999109E-03 0.  1.
       11   -1    0    0    0    0 -0.00000000000E+00 -0.00000000000E+00 -0.35740347158E-01  0.35744000000E-01  0.51099999109E-03 0. -1.
       22    1    1    2    0    0  0.10460805692E-01  0.27306804513E-01 -0.20543698704E-01  0.35737005818E-01  0.00000000000E+00 0. -1.
  9000001    1    1    2    0    0 -0.10460805692E-01 -0.27306804513E-01  0.20543698704E-01  0.35750994182E-01  0.10000000475E-02 0.  1.
</event>
<event>
 4   0  0.2441219E-02  0.9118800E+02  0.7818609E-02  0.1379984E+01
      -11   -1    0    0    0    0  0.00000000000E+00  0.00000000000E+00  0.35740347158E-01  0.35744000000E-01  0.51099999109E-03 0. -1.
       11   -1    0    0    0    0 -0.00000000000E+00 -0.00000000000E+00 -0.35740347158E-01  0.35744000000E-01  0.51099999109E-03 0.  1.
       22    1    1    2    0    0  0.21553800369E-01  0.84347459205E-02 -0.27229071519E-01  0.35737005818E-01  0.00000000000E+00 0.  1.
  9000001    1    1    2    0    0 -0.21553800369E-01 -0.84347459205E-02  0.27229071519E-01  0.35750994182E-01  0.10000000475E-02 0. -1.
</event>
<event>
 4   0  0.2441219E-02  0.9118800E+02  0.7818609E-02  0.1379984E+01
      -11   -1    0    0    0    0  0.00000000000E+00  0.00000000000E+00  0.35740347158E-01  0.35744000000E-01  0.51099999109E-03 0. -1.
       11   -1    0    0    0    0 -0.00000000000E+00 -0.00000000000E+00 -0.35740347158E-01  0.35744000000E-01  0.51099999109E-03 0.  1.
       22    1    1    2    0    0 -0.68782331462E-02  0.28067835629E-02 -0.34956336474E-01  0.35737005818E-01  0.00000000000E+00 0.  1.
  9000001    1    1    2    0    0  0.68782331462E-02 -0.28067835629E-02  0.34956336474E-01  0.35750994182E-01  0.10000000475E-02 0. -1.
</event>
<event>
 4   0  0.2441219E-02  0.9118800E+02  0.7818609E-02  0.1379984E+01
      -11   -1    0    0    0    0  0.00000000000E+00  0.00000000000E+00  0.35740347158E-01  0.35744000000E-01  0.51099999109E-03 0. -1.
       11   -1    0    0    0    0 -0.00000000000E+00 -0.00000000000E+00 -0.35740347158E-01  0.35744000000E-01  0.51099999109E-03 0.  1.
       22    1    1    2    0    0  0.30462214946E-01  0.15072790232E-01 -0.11045272294E-01  0.35737005818E-01  0.00000000000E+00 0.  1.
  9000001    1    1    2    0    0 -0.30462214946E-01 -0.15072790232E-01  0.11045272294E-01  0.35750994182E-01  0.10000000475E-02 0. -1.
</event>
<event>
 4   0  0.2441219E-02  0.9118800E+02  0.7818609E-02  0.1379984E+01
      -11   -1    0    0    0    0  0.00000000000E+00  0.00000000000E+00  0.35740347158E-01  0.35744000000E-01  0.51099999109E-03 0.  1.
       11   -1    0    0    0    0 -0.00000000000E+00 -0.00000000000E+00 -0.35740347158E-01  0.35744000000E-01  0.51099999109E-03 0. -1.
       22    1    1    2    0    0  0.15311397206E-01  0.21441640454E-01 -0.24144373156E-01  0.35737005818E-01  0.00000000000E+00 0. -1.
  9000001    1    1    2    0    0 -0.15311397206E-01 -0.21441640454E-01  0.24144373156E-01  0.35750994182E-01  0.10000000475E-02 0.  1.
</event>
<event>
 4   0  0.2441219E-02  0.9118800E+02  0.7818609E-02  0.1379984E+01
      -11   -1    0    0    0    0  0.00000000000E+00  0.00000000000E+00  0.35740347158E-01  0.35744000000E-01  0.51099999109E-03 0.  1.
       11   -1    0    0    0    0 -0.00000000000E+00 -0.00000000000E+00 -0.35740347158E-01  0.35744000000E-01  0.51099999109E-03 0. -1.
       22    1    1    2    0    0  0.32422722153E-02 -0.47188141953E-02  0.35275402880E-01  0.35737005818E-01  0.00000000000E+00 0.  1.
  9000001    1    1    2    0    0 -0.32422722153E-02  0.47188141953E-02 -0.35275402880E-01  0.35750994182E-01  0.10000000475E-02 0. -1.
</event>
<event>
 4   0  0.2441219E-02  0.9118800E+02  0.7818609E-02  0.1379984E+01
      -11   -1    0    0    0    0  0.00000000000E+00  0.00000000000E+00  0.35740347158E-01  0.35744000000E-01  0.51099999109E-03 0. -1.
       11   -1    0    0    0    0 -0.00000000000E+00 -0.00000000000E+00 -0.35740347158E-01  0.35744000000E-01  0.51099999109E-03 0.  1.
       22    1    1    2    0    0  0.36089211135E-02 -0.52440643653E-03 -0.35550446849E-01  0.35737005818E-01  0.00000000000E+00 0.  1.
  9000001    1    1    2    0    0 -0.36089211135E-02  0.52440643653E-03  0.35550446849E-01  0.35750994182E-01  0.10000000475E-02 0. -1.
</event>
<event>
 4   0  0.2441219E-02  0.9118800E+02  0.7818609E-02  0.1379984E+01
      -11   -1    0    0    0    0  0.00000000000E+00  0.00000000000E+00  0.35740347158E-01  0.35744000000E-01  0.51099999109E-03 0.  1.
       11   -1    0    0    0    0 -0.00000000000E+00 -0.00000000000E+00 -0.35740347158E-01  0.35744000000E-01  0.51099999109E-03 0. -1.
       22    1    1    2    0    0 -0.42394814444E-02 -0.50184757727E-03  0.35481101039E-01  0.35737005818E-01  0.00000000000E+00 0.  1.
  9000001    1    1    2    0    0  0.42394814444E-02  0.50184757727E-03 -0.35481101039E-01  0.35750994182E-01  0.10000000475E-02 0. -1.
</event>
<event>
 4   0  0.2441219E-02  0.9118800E+02  0.7818609E-02  0.1379984E+01
      -11   -1    0    0    0    0  0.00000000000E+00  0.00000000000E+00  0.35740347158E-01  0.35744000000E-01  0.51099999109E-03 0.  1.
       11   -1    0    0    0    0 -0.00000000000E+00 -0.00000000000E+00 -0.35740347158E-01  0.35744000000E-01  0.51099999109E-03 0. -1.
       22    1    1    2    0    0  0.10754026542E-03 -0.10194558435E-01  0.34251905031E-01  0.35737005818E-01  0.00000000000E+00 0.  1.
  9000001    1    1    2    0    0 -0.10754026542E-03  0.10194558435E-01 -0.34251905031E-01  0.35750994182E-01  0.10000000475E-02 0. -1.
</event>
<event>
 4   0  0.2441219E-02  0.9118800E+02  0.7818609E-02  0.1379984E+01
      -11   -1    0    0    0    0  0.00000000000E+00  0.00000000000E+00  0.35740347158E-01  0.35744000000E-01  0.51099999109E-03 0.  1.
       11   -1    0    0    0    0 -0.00000000000E+00 -0.00000000000E+00 -0.35740347158E-01  0.35744000000E-01  0.51099999109E-03 0. -1.
       22    1    1    2    0    0  0.47003440813E-02  0.77431866946E-02  0.34569978452E-01  0.35737005818E-01  0.00000000000E+00 0.  1.
  9000001    1    1    2    0    0 -0.47003440813E-02 -0.77431866946E-02 -0.34569978452E-01  0.35750994182E-01  0.10000000475E-02 0. -1.
</event>
<event>
 4   0  0.2441219E-02  0.9118800E+02  0.7818609E-02  0.1379984E+01
      -11   -1    0    0    0    0  0.00000000000E+00  0.00000000000E+00  0.35740347158E-01  0.35744000000E-01  0.51099999109E-03 0.  1.
       11   -1    0    0    0    0 -0.00000000000E+00 -0.00000000000E+00 -0.35740347158E-01  0.35744000000E-01  0.51099999109E-03 0. -1.
       22    1    1    2    0    0 -0.24616178873E-01  0.10975239506E-01 -0.23467454919E-01  0.35737005818E-01  0.00000000000E+00 0. -1.
  9000001    1    1    2    0    0  0.24616178873E-01 -0.10975239506E-01  0.23467454919E-01  0.35750994182E-01  0.10000000475E-02 0.  1.
</event>
<event>
 4   0  0.2441219E-02  0.9118800E+02  0.7818609E-02  0.1379984E+01
      -11   -1    0    0    0    0  0.00000000000E+00  0.00000000000E+00  0.35740347158E-01  0.35744000000E-01  0.51099999109E-03 0. -1.
       11   -1    0    0    0    0 -0.00000000000E+00 -0.00000000000E+00 -0.35740347158E-01  0.35744000000E-01  0.51099999109E-03 0.  1.
       22    1    1    2    0    0 -0.19975329053E-02  0.12732497995E-01  0.33332070772E-01  0.35737005818E-01  0.00000000000E+00 0. -1.
  9000001    1    1    2    0    0  0.19975329053E-02 -0.12732497995E-01 -0.33332070772E-01  0.35750994182E-01  0.10000000475E-02 0.  1.
</event>
<event>
 4   0  0.2441219E-02  0.9118800E+02  0.7818609E-02  0.1379984E+01
      -11   -1    0    0    0    0  0.00000000000E+00  0.00000000000E+00  0.35740347158E-01  0.35744000000E-01  0.51099999109E-03 0. -1.
       11   -1    0    0    0    0 -0.00000000000E+00 -0.00000000000E+00 -0.35740347158E-01  0.35744000000E-01  0.51099999109E-03 0.  1.
       22    1    1    2    0    0  0.26240074609E-01  0.47093089388E-02  0.23799463832E-01  0.35737005818E-01  0.00000000000E+00 0. -1.
  9000001    1    1    2    0    0 -0.26240074609E-01 -0.47093089388E-02 -0.23799463832E-01  0.35750994182E-01  0.10000000475E-02 0.  1.
</event>
<event>
 4   0  0.2441219E-02  0.9118800E+02  0.7818609E-02  0.1379984E+01
      -11   -1    0    0    0    0  0.00000000000E+00  0.00000000000E+00  0.35740347158E-01  0.35744000000E-01  0.51099999109E-03 0. -1.
       11   -1    0    0    0    0 -0.00000000000E+00 -0.00000000000E+00 -0.35740347158E-01  0.35744000000E-01  0.51099999109E-03 0.  1.
       22    1    1    2    0    0 -0.10303588729E-01 -0.27211855512E-01  0.20748121934E-01  0.35737005818E-01  0.00000000000E+00 0. -1.
  9000001    1    1    2    0    0  0.10303588729E-01  0.27211855512E-01 -0.20748121934E-01  0.35750994182E-01  0.10000000475E-02 0.  1.
</event>
<event>
 4   0  0.2441219E-02  0.9118800E+02  0.7818609E-02  0.1379984E+01
      -11   -1    0    0    0    0  0.00000000000E+00  0.00000000000E+00  0.35740347158E-01  0.35744000000E-01  0.51099999109E-03 0.  1.
       11   -1    0    0    0    0 -0.00000000000E+00 -0.00000000000E+00 -0.35740347158E-01  0.35744000000E-01  0.51099999109E-03 0. -1.
       22    1    1    2    0    0  0.17375640113E-01 -0.31225825206E-01  0.41055541196E-03  0.35737005818E-01  0.00000000000E+00 0. -1.
  9000001    1    1    2    0    0 -0.17375640113E-01  0.31225825206E-01 -0.41055541196E-03  0.35750994182E-01  0.10000000475E-02 0.  1.
</event>
<event>
 4   0  0.2441219E-02  0.9118800E+02  0.7818609E-02  0.1379984E+01
      -11   -1    0    0    0    0  0.00000000000E+00  0.00000000000E+00  0.35740347158E-01  0.35744000000E-01  0.51099999109E-03 0.  1.
       11   -1    0    0    0    0 -0.00000000000E+00 -0.00000000000E+00 -0.35740347158E-01  0.35744000000E-01  0.51099999109E-03 0. -1.
       22    1    1    2    0    0 -0.10428906352E-02 -0.10534533345E-01 -0.34133115463E-01  0.35737005818E-01  0.00000000000E+00 0. -1.
  9000001    1    1    2    0    0  0.10428906352E-02  0.10534533345E-01  0.34133115463E-01  0.35750994182E-01  0.10000000475E-02 0.  1.
</event>
<event>
 4   0  0.2441219E-02  0.9118800E+02  0.7818609E-02  0.1379984E+01
      -11   -1    0    0    0    0  0.00000000000E+00  0.00000000000E+00  0.35740347158E-01  0.35744000000E-01  0.51099999109E-03 0.  1.
       11   -1    0    0    0    0 -0.00000000000E+00 -0.00000000000E+00 -0.35740347158E-01  0.35744000000E-01  0.51099999109E-03 0. -1.
       22    1    1    2    0    0 -0.34893295996E-02  0.51294273717E-02 -0.35194419141E-01  0.35737005818E-01  0.00000000000E+00 0. -1.
  9000001    1    1    2    0    0  0.34893295996E-02 -0.51294273717E-02  0.35194419141E-01  0.35750994182E-01  0.10000000475E-02 0.  1.
</event>
<event>
 4   0  0.2441219E-02  0.9118800E+02  0.7818609E-02  0.1379984E+01
      -11   -1    0    0    0    0  0.00000000000E+00  0.00000000000E+00  0.35740347158E-01  0.35744000000E-01  0.51099999109E-03 0.  1.
       11   -1    0    0    0    0 -0.00000000000E+00 -0.00000000000E+00 -0.35740347158E-01  0.35744000000E-01  0.51099999109E-03 0. -1.
       22    1    1    2    0    0  0.21276383169E-02 -0.23417359611E-02 -0.35596671372E-01  0.35737005818E-01  0.00000000000E+00 0. -1.
  9000001    1    1    2    0    0 -0.21276383169E-02  0.23417359611E-02  0.35596671372E-01  0.35750994182E-01  0.10000000475E-02 0.  1.
</event>
<event>
 4   0  0.2441219E-02  0.9118800E+02  0.7818609E-02  0.1379984E+01
      -11   -1    0    0    0    0  0.00000000000E+00  0.00000000000E+00  0.35740347158E-01  0.35744000000E-01  0.51099999109E-03 0. -1.
       11   -1    0    0    0    0 -0.00000000000E+00 -0.00000000000E+00 -0.35740347158E-01  0.35744000000E-01  0.51099999109E-03 0.  1.
       22    1    1    2    0    0 -0.17253251010E-01 -0.20012798516E-02 -0.31232255657E-01  0.35737005818E-01  0.00000000000E+00 0.  1.
  9000001    1    1    2    0    0  0.17253251010E-01  0.20012798516E-02  0.31232255657E-01  0.35750994182E-01  0.10000000475E-02 0. -1.
</event>
<event>
 4   0  0.2441219E-02  0.9118800E+02  0.7818609E-02  0.1379984E+01
      -11   -1    0    0    0    0  0.00000000000E+00  0.00000000000E+00  0.35740347158E-01  0.35744000000E-01  0.51099999109E-03 0. -1.
       11   -1    0    0    0    0 -0.00000000000E+00 -0.00000000000E+00 -0.35740347158E-01  0.35744000000E-01  0.51099999109E-03 0.  1.
       22    1    1    2    0    0 -0.57055677705E-02 -0.39580641468E-03 -0.35276386132E-01  0.35737005818E-01  0.00000000000E+00 0.  1.
  9000001    1    1    2    0    0  0.57055677705E-02  0.39580641468E-03  0.35276386132E-01  0.35750994182E-01  0.10000000475E-02 0. -1.
</event>
<event>
 4   0  0.2441219E-02  0.9118800E+02  0.7818609E-02  0.1379984E+01
      -11   -1    0    0    0    0  0.00000000000E+00  0.00000000000E+00  0.35740347158E-01  0.35744000000E-01  0.51099999109E-03 0.  1.
       11   -1    0    0    0    0 -0.00000000000E+00 -0.00000000000E+00 -0.35740347158E-01  0.35744000000E-01  0.51099999109E-03 0. -1.
       22    1    1    2    0    0 -0.12870729868E-01 -0.68649858555E-02  0.32624375346E-01  0.35737005818E-01  0.00000000000E+00 0.  1.
  9000001    1    1    2    0    0  0.12870729868E-01  0.68649858555E-02 -0.32624375346E-01  0.35750994182E-01  0.10000000475E-02 0. -1.
</event>
<event>
 4   0  0.2441219E-02  0.9118800E+02  0.7818609E-02  0.1379984E+01
      -11   -1    0    0    0    0  0.00000000000E+00  0.00000000000E+00  0.35740347158E-01  0.35744000000E-01  0.51099999109E-03 0.  1.
       11   -1    0    0    0    0 -0.00000000000E+00 -0.00000000000E+00 -0.35740347158E-01  0.35744000000E-01  0.51099999109E-03 0. -1.
       22    1    1    2    0    0 -0.29815039826E-02  0.11114604593E-02  0.35595068121E-01  0.35737005818E-01  0.00000000000E+00 0.  1.
  9000001    1    1    2    0    0  0.29815039826E-02 -0.11114604593E-02 -0.35595068121E-01  0.35750994182E-01  0.10000000475E-02 0. -1.
</event>
<event>
 4   0  0.2441219E-02  0.9118800E+02  0.7818609E-02  0.1379984E+01
      -11   -1    0    0    0    0  0.00000000000E+00  0.00000000000E+00  0.35740347158E-01  0.35744000000E-01  0.51099999109E-03 0.  1.
       11   -1    0    0    0    0 -0.00000000000E+00 -0.00000000000E+00 -0.35740347158E-01  0.35744000000E-01  0.51099999109E-03 0. -1.
       22    1    1    2    0    0  0.10316430102E-02 -0.28456236722E-02  0.35608590586E-01  0.35737005818E-01  0.00000000000E+00 0.  1.
  9000001    1    1    2    0    0 -0.10316430102E-02  0.28456236722E-02 -0.35608590586E-01  0.35750994182E-01  0.10000000475E-02 0. -1.
</event>
<event>
 4   0  0.2441219E-02  0.9118800E+02  0.7818609E-02  0.1379984E+01
      -11   -1    0    0    0    0  0.00000000000E+00  0.00000000000E+00  0.35740347158E-01  0.35744000000E-01  0.51099999109E-03 0.  1.
       11   -1    0    0    0    0 -0.00000000000E+00 -0.00000000000E+00 -0.35740347158E-01  0.35744000000E-01  0.51099999109E-03 0. -1.
       22    1    1    2    0    0  0.59850208280E-02  0.18880405646E-01  0.29746317305E-01  0.35737005818E-01  0.00000000000E+00 0.  1.
  9000001    1    1    2    0    0 -0.59850208280E-02 -0.18880405646E-01 -0.29746317305E-01  0.35750994182E-01  0.10000000475E-02 0. -1.
</event>
<event>
 4   0  0.2441219E-02  0.9118800E+02  0.7818609E-02  0.1379984E+01
      -11   -1    0    0    0    0  0.00000000000E+00  0.00000000000E+00  0.35740347158E-01  0.35744000000E-01  0.51099999109E-03 0.  1.
       11   -1    0    0    0    0 -0.00000000000E+00 -0.00000000000E+00 -0.35740347158E-01  0.35744000000E-01  0.51099999109E-03 0. -1.
       22    1    1    2    0    0  0.61725213561E-02 -0.68010413943E-02  0.34536638530E-01  0.35737005818E-01  0.00000000000E+00 0.  1.
  9000001    1    1    2    0    0 -0.61725213561E-02  0.68010413943E-02 -0.34536638530E-01  0.35750994182E-01  0.10000000475E-02 0. -1.
</event>
<event>
 4   0  0.2441219E-02  0.9118800E+02  0.7818609E-02  0.1379984E+01
      -11   -1    0    0    0    0  0.00000000000E+00  0.00000000000E+00  0.35740347158E-01  0.35744000000E-01  0.51099999109E-03 0.  1.
       11   -1    0    0    0    0 -0.00000000000E+00 -0.00000000000E+00 -0.35740347158E-01  0.35744000000E-01  0.51099999109E-03 0. -1.
       22    1    1    2    0    0  0.53574110069E-02 -0.54396832639E-03  0.35328965887E-01  0.35737005818E-01  0.00000000000E+00 0.  1.
  9000001    1    1    2    0    0 -0.53574110069E-02  0.54396832639E-03 -0.35328965887E-01  0.35750994182E-01  0.10000000475E-02 0. -1.
</event>
<event>
 4   0  0.2441219E-02  0.9118800E+02  0.7818609E-02  0.1379984E+01
      -11   -1    0    0    0    0  0.00000000000E+00  0.00000000000E+00  0.35740347158E-01  0.35744000000E-01  0.51099999109E-03 0.  1.
       11   -1    0    0    0    0 -0.00000000000E+00 -0.00000000000E+00 -0.35740347158E-01  0.35744000000E-01  0.51099999109E-03 0. -1.
       22    1    1    2    0    0  0.22453414874E-01  0.15726987649E-01 -0.22926831548E-01  0.35737005818E-01  0.00000000000E+00 0. -1.
  9000001    1    1    2    0    0 -0.22453414874E-01 -0.15726987649E-01  0.22926831548E-01  0.35750994182E-01  0.10000000475E-02 0.  1.
</event>
<event>
 4   0  0.2441219E-02  0.9118800E+02  0.7818609E-02  0.1379984E+01
      -11   -1    0    0    0    0  0.00000000000E+00  0.00000000000E+00  0.35740347158E-01  0.35744000000E-01  0.51099999109E-03 0. -1.
       11   -1    0    0    0    0 -0.00000000000E+00 -0.00000000000E+00 -0.35740347158E-01  0.35744000000E-01  0.51099999109E-03 0.  1.
       22    1    1    2    0    0 -0.21805874453E-01 -0.32581640600E-02  0.28125109621E-01  0.35737005818E-01  0.00000000000E+00 0. -1.
  9000001    1    1    2    0    0  0.21805874453E-01  0.32581640600E-02 -0.28125109621E-01  0.35750994182E-01  0.10000000475E-02 0.  1.
</event>
<event>
 4   0  0.2441219E-02  0.9118800E+02  0.7818609E-02  0.1379984E+01
      -11   -1    0    0    0    0  0.00000000000E+00  0.00000000000E+00  0.35740347158E-01  0.35744000000E-01  0.51099999109E-03 0. -1.
       11   -1    0    0    0    0 -0.00000000000E+00 -0.00000000000E+00 -0.35740347158E-01  0.35744000000E-01  0.51099999109E-03 0.  1.
       22    1    1    2    0    0  0.12152274089E-01 -0.98521348191E-02 -0.32130845909E-01  0.35737005818E-01  0.00000000000E+00 0.  1.
  9000001    1    1    2    0    0 -0.12152274089E-01  0.98521348191E-02  0.32130845909E-01  0.35750994182E-01  0.10000000475E-02 0. -1.
</event>
<event>
 4   0  0.2441219E-02  0.9118800E+02  0.7818609E-02  0.1379984E+01
      -11   -1    0    0    0    0  0.00000000000E+00  0.00000000000E+00  0.35740347158E-01  0.35744000000E-01  0.51099999109E-03 0. -1.
       11   -1    0    0    0    0 -0.00000000000E+00 -0.00000000000E+00 -0.35740347158E-01  0.35744000000E-01  0.51099999109E-03 0.  1.
       22    1    1    2    0    0 -0.92928247476E-02  0.49589412837E-02 -0.34149464043E-01  0.35737005818E-01  0.00000000000E+00 0.  1.
  9000001    1    1    2    0    0  0.92928247476E-02 -0.49589412837E-02  0.34149464043E-01  0.35750994182E-01  0.10000000475E-02 0. -1.
</event>
<event>
 4   0  0.2441219E-02  0.9118800E+02  0.7818609E-02  0.1379984E+01
      -11   -1    0    0    0    0  0.00000000000E+00  0.00000000000E+00  0.35740347158E-01  0.35744000000E-01  0.51099999109E-03 0.  1.
       11   -1    0    0    0    0 -0.00000000000E+00 -0.00000000000E+00 -0.35740347158E-01  0.35744000000E-01  0.51099999109E-03 0. -1.
       22    1    1    2    0    0  0.24391193087E-02 -0.76234513840E-02  0.34829115275E-01  0.35737005818E-01  0.00000000000E+00 0.  1.
  9000001    1    1    2    0    0 -0.24391193087E-02  0.76234513840E-02 -0.34829115275E-01  0.35750994182E-01  0.10000000475E-02 0. -1.
</event>
<event>
 4   0  0.2441219E-02  0.9118800E+02  0.7818609E-02  0.1379984E+01
      -11   -1    0    0    0    0  0.00000000000E+00  0.00000000000E+00  0.35740347158E-01  0.35744000000E-01  0.51099999109E-03 0. -1.
       11   -1    0    0    0    0 -0.00000000000E+00 -0.00000000000E+00 -0.35740347158E-01  0.35744000000E-01  0.51099999109E-03 0.  1.
       22    1    1    2    0    0 -0.20056776467E-02  0.43986020229E-02  0.35408517934E-01  0.35737005818E-01  0.00000000000E+00 0. -1.
  9000001    1    1    2    0    0  0.20056776467E-02 -0.43986020229E-02 -0.35408517934E-01  0.35750994182E-01  0.10000000475E-02 0.  1.
</event>
<event>
 4   0  0.2441219E-02  0.9118800E+02  0.7818609E-02  0.1379984E+01
      -11   -1    0    0    0    0  0.00000000000E+00  0.00000000000E+00  0.35740347158E-01  0.35744000000E-01  0.51099999109E-03 0.  1.
       11   -1    0    0    0    0 -0.00000000000E+00 -0.00000000000E+00 -0.35740347158E-01  0.35744000000E-01  0.51099999109E-03 0. -1.
       22    1    1    2    0    0  0.59334136186E-03  0.31027034832E-02 -0.35597117327E-01  0.35737005818E-01  0.00000000000E+00 0. -1.
  9000001    1    1    2    0    0 -0.59334136186E-03 -0.31027034832E-02  0.35597117327E-01  0.35750994182E-01  0.10000000475E-02 0.  1.
</event>
<event>
 4   0  0.2441219E-02  0.9118800E+02  0.7818609E-02  0.1379984E+01
      -11   -1    0    0    0    0  0.00000000000E+00  0.00000000000E+00  0.35740347158E-01  0.35744000000E-01  0.51099999109E-03 0.  1.
       11   -1    0    0    0    0 -0.00000000000E+00 -0.00000000000E+00 -0.35740347158E-01  0.35744000000E-01  0.51099999109E-03 0.  1.
       22    1    1    2    0    0 -0.20223308176E-02 -0.22840938548E-02 -0.35606553866E-01  0.35737005818E-01  0.00000000000E+00 0.  1.
  9000001    1    1    2    0    0  0.20223308176E-02  0.22840938548E-02  0.35606553866E-01  0.35750994182E-01  0.10000000475E-02 0.  1.
</event>
<event>
 4   0  0.2441219E-02  0.9118800E+02  0.7818609E-02  0.1379984E+01
      -11   -1    0    0    0    0  0.00000000000E+00  0.00000000000E+00  0.35740347158E-01  0.35744000000E-01  0.51099999109E-03 0. -1.
       11   -1    0    0    0    0 -0.00000000000E+00 -0.00000000000E+00 -0.35740347158E-01  0.35744000000E-01  0.51099999109E-03 0.  1.
       22    1    1    2    0    0 -0.10803360415E-01 -0.25607311679E-01  0.22465230406E-01  0.35737005818E-01  0.00000000000E+00 0. -1.
  9000001    1    1    2    0    0  0.10803360415E-01  0.25607311679E-01 -0.22465230406E-01  0.35750994182E-01  0.10000000475E-02 0.  1.
</event>
<event>
 4   0  0.2441219E-02  0.9118800E+02  0.7818609E-02  0.1379984E+01
      -11   -1    0    0    0    0  0.00000000000E+00  0.00000000000E+00  0.35740347158E-01  0.35744000000E-01  0.51099999109E-03 0.  1.
       11   -1    0    0    0    0 -0.00000000000E+00 -0.00000000000E+00 -0.35740347158E-01  0.35744000000E-01  0.51099999109E-03 0. -1.
       22    1    1    2    0    0  0.29424295254E-02  0.16347754087E-01 -0.31642165376E-01  0.35737005818E-01  0.00000000000E+00 0. -1.
  9000001    1    1    2    0    0 -0.29424295254E-02 -0.16347754087E-01  0.31642165376E-01  0.35750994182E-01  0.10000000475E-02 0.  1.
</event>
<event>
 4   0  0.2441219E-02  0.9118800E+02  0.7818609E-02  0.1379984E+01
      -11   -1    0    0    0    0  0.00000000000E+00  0.00000000000E+00  0.35740347158E-01  0.35744000000E-01  0.51099999109E-03 0. -1.
       11   -1    0    0    0    0 -0.00000000000E+00 -0.00000000000E+00 -0.35740347158E-01  0.35744000000E-01  0.51099999109E-03 0.  1.
       22    1    1    2    0    0 -0.14680127959E-02 -0.18838323341E-01  0.30333085847E-01  0.35737005818E-01  0.00000000000E+00 0. -1.
  9000001    1    1    2    0    0  0.14680127959E-02  0.18838323341E-01 -0.30333085847E-01  0.35750994182E-01  0.10000000475E-02 0.  1.
</event>
<event>
 4   0  0.2441219E-02  0.9118800E+02  0.7818609E-02  0.1379984E+01
      -11   -1    0    0    0    0  0.00000000000E+00  0.00000000000E+00  0.35740347158E-01  0.35744000000E-01  0.51099999109E-03 0. -1.
       11   -1    0    0    0    0 -0.00000000000E+00 -0.00000000000E+00 -0.35740347158E-01  0.35744000000E-01  0.51099999109E-03 0.  1.
       22    1    1    2    0    0  0.53610055740E-02  0.58798911899E-03  0.35327715365E-01  0.35737005818E-01  0.00000000000E+00 0. -1.
  9000001    1    1    2    0    0 -0.53610055740E-02 -0.58798911899E-03 -0.35327715365E-01  0.35750994182E-01  0.10000000475E-02 0.  1.
</event>
<event>
 4   0  0.2441219E-02  0.9118800E+02  0.7818609E-02  0.1379984E+01
      -11   -1    0    0    0    0  0.00000000000E+00  0.00000000000E+00  0.35740347158E-01  0.35744000000E-01  0.51099999109E-03 0. -1.
       11   -1    0    0    0    0 -0.00000000000E+00 -0.00000000000E+00 -0.35740347158E-01  0.35744000000E-01  0.51099999109E-03 0.  1.
       22    1    1    2    0    0 -0.11111085751E-01  0.50380711987E-02 -0.33590105640E-01  0.35737005818E-01  0.00000000000E+00 0.  1.
  9000001    1    1    2    0    0  0.11111085751E-01 -0.50380711987E-02  0.33590105640E-01  0.35750994182E-01  0.10000000475E-02 0. -1.
</event>
<event>
 4   0  0.2441219E-02  0.9118800E+02  0.7818609E-02  0.1379984E+01
      -11   -1    0    0    0    0  0.00000000000E+00  0.00000000000E+00  0.35740347158E-01  0.35744000000E-01  0.51099999109E-03 0. -1.
       11   -1    0    0    0    0 -0.00000000000E+00 -0.00000000000E+00 -0.35740347158E-01  0.35744000000E-01  0.51099999109E-03 0.  1.
       22    1    1    2    0    0 -0.24449614840E-01  0.79536195058E-03 -0.26052203715E-01  0.35737005818E-01  0.00000000000E+00 0.  1.
  9000001    1    1    2    0    0  0.24449614840E-01 -0.79536195058E-03  0.26052203715E-01  0.35750994182E-01  0.10000000475E-02 0. -1.
</event>
<event>
 4   0  0.2441219E-02  0.9118800E+02  0.7818609E-02  0.1379984E+01
      -11   -1    0    0    0    0  0.00000000000E+00  0.00000000000E+00  0.35740347158E-01  0.35744000000E-01  0.51099999109E-03 0. -1.
       11   -1    0    0    0    0 -0.00000000000E+00 -0.00000000000E+00 -0.35740347158E-01  0.35744000000E-01  0.51099999109E-03 0.  1.
       22    1    1    2    0    0 -0.18411944499E-01 -0.22357978388E-02 -0.30547259986E-01  0.35737005818E-01  0.00000000000E+00 0.  1.
  9000001    1    1    2    0    0  0.18411944499E-01  0.22357978388E-02  0.30547259986E-01  0.35750994182E-01  0.10000000475E-02 0. -1.
</event>
<event>
 4   0  0.2441219E-02  0.9118800E+02  0.7818609E-02  0.1379984E+01
      -11   -1    0    0    0    0  0.00000000000E+00  0.00000000000E+00  0.35740347158E-01  0.35744000000E-01  0.51099999109E-03 0.  1.
       11   -1    0    0    0    0 -0.00000000000E+00 -0.00000000000E+00 -0.35740347158E-01  0.35744000000E-01  0.51099999109E-03 0. -1.
       22    1    1    2    0    0  0.33089430380E-01 -0.13323077905E-01 -0.21722746385E-02  0.35737005818E-01  0.00000000000E+00 0. -1.
  9000001    1    1    2    0    0 -0.33089430380E-01  0.13323077905E-01  0.21722746385E-02  0.35750994182E-01  0.10000000475E-02 0.  1.
</event>
<event>
 4   0  0.2441219E-02  0.9118800E+02  0.7818609E-02  0.1379984E+01
      -11   -1    0    0    0    0  0.00000000000E+00  0.00000000000E+00  0.35740347158E-01  0.35744000000E-01  0.51099999109E-03 0. -1.
       11   -1    0    0    0    0 -0.00000000000E+00 -0.00000000000E+00 -0.35740347158E-01  0.35744000000E-01  0.51099999109E-03 0.  1.
       22    1    1    2    0    0 -0.34872715201E-01 -0.74909622824E-02 -0.22164844845E-02  0.35737005818E-01  0.00000000000E+00 0. -1.
  9000001    1    1    2    0    0  0.34872715201E-01  0.74909622824E-02  0.22164844845E-02  0.35750994182E-01  0.10000000475E-02 0.  1.
</event>
<event>
 4   0  0.2441219E-02  0.9118800E+02  0.7818609E-02  0.1379984E+01
      -11   -1    0    0    0    0  0.00000000000E+00  0.00000000000E+00  0.35740347158E-01  0.35744000000E-01  0.51099999109E-03 0. -1.
       11   -1    0    0    0    0 -0.00000000000E+00 -0.00000000000E+00 -0.35740347158E-01  0.35744000000E-01  0.51099999109E-03 0.  1.
       22    1    1    2    0    0 -0.11131540951E-02 -0.38038749770E-02  0.35516545553E-01  0.35737005818E-01  0.00000000000E+00 0. -1.
  9000001    1    1    2    0    0  0.11131540951E-02  0.38038749770E-02 -0.35516545553E-01  0.35750994182E-01  0.10000000475E-02 0.  1.
</event>
<event>
 4   0  0.2441219E-02  0.9118800E+02  0.7818609E-02  0.1379984E+01
      -11   -1    0    0    0    0  0.00000000000E+00  0.00000000000E+00  0.35740347158E-01  0.35744000000E-01  0.51099999109E-03 0. -1.
       11   -1    0    0    0    0 -0.00000000000E+00 -0.00000000000E+00 -0.35740347158E-01  0.35744000000E-01  0.51099999109E-03 0.  1.
       22    1    1    2    0    0  0.22764131550E-01  0.39308130215E-02 -0.27266767477E-01  0.35737005818E-01  0.00000000000E+00 0.  1.
  9000001    1    1    2    0    0 -0.22764131550E-01 -0.39308130215E-02  0.27266767477E-01  0.35750994182E-01  0.10000000475E-02 0. -1.
</event>
<event>
 4   0  0.2441219E-02  0.9118800E+02  0.7818609E-02  0.1379984E+01
      -11   -1    0    0    0    0  0.00000000000E+00  0.00000000000E+00  0.35740347158E-01  0.35744000000E-01  0.51099999109E-03 0.  1.
       11   -1    0    0    0    0 -0.00000000000E+00 -0.00000000000E+00 -0.35740347158E-01  0.35744000000E-01  0.51099999109E-03 0. -1.
       22    1    1    2    0    0  0.17167845292E-01 -0.82046982748E-02  0.30250315686E-01  0.35737005818E-01  0.00000000000E+00 0.  1.
  9000001    1    1    2    0    0 -0.17167845292E-01  0.82046982748E-02 -0.30250315686E-01  0.35750994182E-01  0.10000000475E-02 0. -1.
</event>
<event>
 4   0  0.2441219E-02  0.9118800E+02  0.7818609E-02  0.1379984E+01
      -11   -1    0    0    0    0  0.00000000000E+00  0.00000000000E+00  0.35740347158E-01  0.35744000000E-01  0.51099999109E-03 0.  1.
       11   -1    0    0    0    0 -0.00000000000E+00 -0.00000000000E+00 -0.35740347158E-01  0.35744000000E-01  0.51099999109E-03 0. -1.
       22    1    1    2    0    0  0.96915438958E-02  0.45687951351E-03 -0.34394749932E-01  0.35737005818E-01  0.00000000000E+00 0. -1.
  9000001    1    1    2    0    0 -0.96915438958E-02 -0.45687951351E-03  0.34394749932E-01  0.35750994182E-01  0.10000000475E-02 0.  1.
</event>
<event>
 4   0  0.2441219E-02  0.9118800E+02  0.7818609E-02  0.1379984E+01
      -11   -1    0    0    0    0  0.00000000000E+00  0.00000000000E+00  0.35740347158E-01  0.35744000000E-01  0.51099999109E-03 0.  1.
       11   -1    0    0    0    0 -0.00000000000E+00 -0.00000000000E+00 -0.35740347158E-01  0.35744000000E-01  0.51099999109E-03 0. -1.
       22    1    1    2    0    0 -0.52696847450E-02  0.70193909298E-02  0.34642346320E-01  0.35737005818E-01  0.00000000000E+00 0.  1.
  9000001    1    1    2    0    0  0.52696847450E-02 -0.70193909298E-02 -0.34642346320E-01  0.35750994182E-01  0.10000000475E-02 0. -1.
</event>
<event>
 4   0  0.2441219E-02  0.9118800E+02  0.7818609E-02  0.1379984E+01
      -11   -1    0    0    0    0  0.00000000000E+00  0.00000000000E+00  0.35740347158E-01  0.35744000000E-01  0.51099999109E-03 0. -1.
       11   -1    0    0    0    0 -0.00000000000E+00 -0.00000000000E+00 -0.35740347158E-01  0.35744000000E-01  0.51099999109E-03 0.  1.
       22    1    1    2    0    0  0.11235630172E-01  0.12002941587E-01  0.31730483652E-01  0.35737005818E-01  0.00000000000E+00 0. -1.
  9000001    1    1    2    0    0 -0.11235630172E-01 -0.12002941587E-01 -0.31730483652E-01  0.35750994182E-01  0.10000000475E-02 0.  1.
</event>
<event>
 4   0  0.2441219E-02  0.9118800E+02  0.7818609E-02  0.1379984E+01
      -11   -1    0    0    0    0  0.00000000000E+00  0.00000000000E+00  0.35740347158E-01  0.35744000000E-01  0.51099999109E-03 0. -1.
       11   -1    0    0    0    0 -0.00000000000E+00 -0.00000000000E+00 -0.35740347158E-01  0.35744000000E-01  0.51099999109E-03 0. -1.
       22    1    1    2    0    0 -0.29170182718E-03  0.45934620493E-02 -0.35439365137E-01  0.35737005818E-01  0.00000000000E+00 0. -1.
  9000001    1    1    2    0    0  0.29170182718E-03 -0.45934620493E-02  0.35439365137E-01  0.35750994182E-01  0.10000000475E-02 0. -1.
</event>
<event>
 4   0  0.2441219E-02  0.9118800E+02  0.7818609E-02  0.1379984E+01
      -11   -1    0    0    0    0  0.00000000000E+00  0.00000000000E+00  0.35740347158E-01  0.35744000000E-01  0.51099999109E-03 0. -1.
       11   -1    0    0    0    0 -0.00000000000E+00 -0.00000000000E+00 -0.35740347158E-01  0.35744000000E-01  0.51099999109E-03 0.  1.
       22    1    1    2    0    0 -0.83039647853E-03 -0.18720262221E-01 -0.30430179246E-01  0.35737005818E-01  0.00000000000E+00 0.  1.
  9000001    1    1    2    0    0  0.83039647853E-03  0.18720262221E-01  0.30430179246E-01  0.35750994182E-01  0.10000000475E-02 0. -1.
</event>
<event>
 4   0  0.2441219E-02  0.9118800E+02  0.7818609E-02  0.1379984E+01
      -11   -1    0    0    0    0  0.00000000000E+00  0.00000000000E+00  0.35740347158E-01  0.35744000000E-01  0.51099999109E-03 0. -1.
       11   -1    0    0    0    0 -0.00000000000E+00 -0.00000000000E+00 -0.35740347158E-01  0.35744000000E-01  0.51099999109E-03 0.  1.
       22    1    1    2    0    0  0.32314554798E-02  0.17128207365E-02  0.35549367441E-01  0.35737005818E-01  0.00000000000E+00 0. -1.
  9000001    1    1    2    0    0 -0.32314554798E-02 -0.17128207365E-02 -0.35549367441E-01  0.35750994182E-01  0.10000000475E-02 0.  1.
</event>
<event>
 4   0  0.2441219E-02  0.9118800E+02  0.7818609E-02  0.1379984E+01
      -11   -1    0    0    0    0  0.00000000000E+00  0.00000000000E+00  0.35740347158E-01  0.35744000000E-01  0.51099999109E-03 0.  1.
       11   -1    0    0    0    0 -0.00000000000E+00 -0.00000000000E+00 -0.35740347158E-01  0.35744000000E-01  0.51099999109E-03 0. -1.
       22    1    1    2    0    0 -0.23513249243E-01 -0.15654198104E-02  0.26866524817E-01  0.35737005818E-01  0.00000000000E+00 0.  1.
  9000001    1    1    2    0    0  0.23513249243E-01  0.15654198104E-02 -0.26866524817E-01  0.35750994182E-01  0.10000000475E-02 0. -1.
</event>
<event>
 4   0  0.2441219E-02  0.9118800E+02  0.7818609E-02  0.1379984E+01
      -11   -1    0    0    0    0  0.00000000000E+00  0.00000000000E+00  0.35740347158E-01  0.35744000000E-01  0.51099999109E-03 0. -1.
       11   -1    0    0    0    0 -0.00000000000E+00 -0.00000000000E+00 -0.35740347158E-01  0.35744000000E-01  0.51099999109E-03 0.  1.
       22    1    1    2    0    0 -0.12767498352E-01  0.41018115208E-02  0.33125514531E-01  0.35737005818E-01  0.00000000000E+00 0. -1.
  9000001    1    1    2    0    0  0.12767498352E-01 -0.41018115208E-02 -0.33125514531E-01  0.35750994182E-01  0.10000000475E-02 0.  1.
</event>
<event>
 4   0  0.2441219E-02  0.9118800E+02  0.7818609E-02  0.1379984E+01
      -11   -1    0    0    0    0  0.00000000000E+00  0.00000000000E+00  0.35740347158E-01  0.35744000000E-01  0.51099999109E-03 0. -1.
       11   -1    0    0    0    0 -0.00000000000E+00 -0.00000000000E+00 -0.35740347158E-01  0.35744000000E-01  0.51099999109E-03 0.  1.
       22    1    1    2    0    0  0.13698786758E-01  0.29598958586E-02 -0.32874242846E-01  0.35737005818E-01  0.00000000000E+00 0.  1.
  9000001    1    1    2    0    0 -0.13698786758E-01 -0.29598958586E-02  0.32874242846E-01  0.35750994182E-01  0.10000000475E-02 0. -1.
</event>
<event>
 4   0  0.2441219E-02  0.9118800E+02  0.7818609E-02  0.1379984E+01
      -11   -1    0    0    0    0  0.00000000000E+00  0.00000000000E+00  0.35740347158E-01  0.35744000000E-01  0.51099999109E-03 0. -1.
       11   -1    0    0    0    0 -0.00000000000E+00 -0.00000000000E+00 -0.35740347158E-01  0.35744000000E-01  0.51099999109E-03 0.  1.
       22    1    1    2    0    0  0.16866102417E-02  0.31956999710E-02  0.35553852568E-01  0.35737005818E-01  0.00000000000E+00 0. -1.
  9000001    1    1    2    0    0 -0.16866102417E-02 -0.31956999710E-02 -0.35553852568E-01  0.35750994182E-01  0.10000000475E-02 0.  1.
</event>
<event>
 4   0  0.2441219E-02  0.9118800E+02  0.7818609E-02  0.1379984E+01
      -11   -1    0    0    0    0  0.00000000000E+00  0.00000000000E+00  0.35740347158E-01  0.35744000000E-01  0.51099999109E-03 0. -1.
       11   -1    0    0    0    0 -0.00000000000E+00 -0.00000000000E+00 -0.35740347158E-01  0.35744000000E-01  0.51099999109E-03 0.  1.
       22    1    1    2    0    0 -0.82887057148E-02  0.87571406548E-02  0.33641394591E-01  0.35737005818E-01  0.00000000000E+00 0. -1.
  9000001    1    1    2    0    0  0.82887057148E-02 -0.87571406548E-02 -0.33641394591E-01  0.35750994182E-01  0.10000000475E-02 0.  1.
</event>
<event>
 4   0  0.2441219E-02  0.9118800E+02  0.7818609E-02  0.1379984E+01
      -11   -1    0    0    0    0  0.00000000000E+00  0.00000000000E+00  0.35740347158E-01  0.35744000000E-01  0.51099999109E-03 0. -1.
       11   -1    0    0    0    0 -0.00000000000E+00 -0.00000000000E+00 -0.35740347158E-01  0.35744000000E-01  0.51099999109E-03 0.  1.
       22    1    1    2    0    0  0.40954327958E-02  0.84626802394E-02  0.34478167849E-01  0.35737005818E-01  0.00000000000E+00 0. -1.
  9000001    1    1    2    0    0 -0.40954327958E-02 -0.84626802394E-02 -0.34478167849E-01  0.35750994182E-01  0.10000000475E-02 0.  1.
</event>
<event>
 4   0  0.2441219E-02  0.9118800E+02  0.7818609E-02  0.1379984E+01
      -11   -1    0    0    0    0  0.00000000000E+00  0.00000000000E+00  0.35740347158E-01  0.35744000000E-01  0.51099999109E-03 0.  1.
       11   -1    0    0    0    0 -0.00000000000E+00 -0.00000000000E+00 -0.35740347158E-01  0.35744000000E-01  0.51099999109E-03 0. -1.
       22    1    1    2    0    0  0.17120460252E-01  0.55214553735E-02 -0.30879393715E-01  0.35737005818E-01  0.00000000000E+00 0. -1.
  9000001    1    1    2    0    0 -0.17120460252E-01 -0.55214553735E-02  0.30879393715E-01  0.35750994182E-01  0.10000000475E-02 0.  1.
</event>
<event>
 4   0  0.2441219E-02  0.9118800E+02  0.7818609E-02  0.1379984E+01
      -11   -1    0    0    0    0  0.00000000000E+00  0.00000000000E+00  0.35740347158E-01  0.35744000000E-01  0.51099999109E-03 0. -1.
       11   -1    0    0    0    0 -0.00000000000E+00 -0.00000000000E+00 -0.35740347158E-01  0.35744000000E-01  0.51099999109E-03 0.  1.
       22    1    1    2    0    0 -0.14976651041E-01 -0.29124159868E-01  0.14304433593E-01  0.35737005818E-01  0.00000000000E+00 0. -1.
  9000001    1    1    2    0    0  0.14976651041E-01  0.29124159868E-01 -0.14304433593E-01  0.35750994182E-01  0.10000000475E-02 0.  1.
</event>
<event>
 4   0  0.2441219E-02  0.9118800E+02  0.7818609E-02  0.1379984E+01
      -11   -1    0    0    0    0  0.00000000000E+00  0.00000000000E+00  0.35740347158E-01  0.35744000000E-01  0.51099999109E-03 0. -1.
       11   -1    0    0    0    0 -0.00000000000E+00 -0.00000000000E+00 -0.35740347158E-01  0.35744000000E-01  0.51099999109E-03 0.  1.
       22    1    1    2    0    0  0.24188276653E-03 -0.37364131442E-02  0.35540319278E-01  0.35737005818E-01  0.00000000000E+00 0. -1.
  9000001    1    1    2    0    0 -0.24188276653E-03  0.37364131442E-02 -0.35540319278E-01  0.35750994182E-01  0.10000000475E-02 0.  1.
</event>
<event>
 4   0  0.2441219E-02  0.9118800E+02  0.7818609E-02  0.1379984E+01
      -11   -1    0    0    0    0  0.00000000000E+00  0.00000000000E+00  0.35740347158E-01  0.35744000000E-01  0.51099999109E-03 0.  1.
       11   -1    0    0    0    0 -0.00000000000E+00 -0.00000000000E+00 -0.35740347158E-01  0.35744000000E-01  0.51099999109E-03 0. -1.
       22    1    1    2    0    0  0.20079476344E-02  0.42201975707E-02 -0.35430095451E-01  0.35737005818E-01  0.00000000000E+00 0. -1.
  9000001    1    1    2    0    0 -0.20079476344E-02 -0.42201975707E-02  0.35430095451E-01  0.35750994182E-01  0.10000000475E-02 0.  1.
</event>
<event>
 4   0  0.2441219E-02  0.9118800E+02  0.7818609E-02  0.1379984E+01
      -11   -1    0    0    0    0  0.00000000000E+00  0.00000000000E+00  0.35740347158E-01  0.35744000000E-01  0.51099999109E-03 0.  1.
       11   -1    0    0    0    0 -0.00000000000E+00 -0.00000000000E+00 -0.35740347158E-01  0.35744000000E-01  0.51099999109E-03 0. -1.
       22    1    1    2    0    0  0.93830370887E-02 -0.23138859459E-01  0.25567271712E-01  0.35737005818E-01  0.00000000000E+00 0.  1.
  9000001    1    1    2    0    0 -0.93830370887E-02  0.23138859459E-01 -0.25567271712E-01  0.35750994182E-01  0.10000000475E-02 0. -1.
</event>
<event>
 4   0  0.2441219E-02  0.9118800E+02  0.7818609E-02  0.1379984E+01
      -11   -1    0    0    0    0  0.00000000000E+00  0.00000000000E+00  0.35740347158E-01  0.35744000000E-01  0.51099999109E-03 0. -1.
       11   -1    0    0    0    0 -0.00000000000E+00 -0.00000000000E+00 -0.35740347158E-01  0.35744000000E-01  0.51099999109E-03 0.  1.
       22    1    1    2    0    0  0.87700168172E-02  0.13723162781E-02 -0.34617006484E-01  0.35737005818E-01  0.00000000000E+00 0.  1.
  9000001    1    1    2    0    0 -0.87700168172E-02 -0.13723162781E-02  0.34617006484E-01  0.35750994182E-01  0.10000000475E-02 0. -1.
</event>
<event>
 4   0  0.2441219E-02  0.9118800E+02  0.7818609E-02  0.1379984E+01
      -11   -1    0    0    0    0  0.00000000000E+00  0.00000000000E+00  0.35740347158E-01  0.35744000000E-01  0.51099999109E-03 0.  1.
       11   -1    0    0    0    0 -0.00000000000E+00 -0.00000000000E+00 -0.35740347158E-01  0.35744000000E-01  0.51099999109E-03 0.  1.
       22    1    1    2    0    0 -0.19759052150E-02  0.46548796366E-02  0.35377414815E-01  0.35737005818E-01  0.00000000000E+00 0.  1.
  9000001    1    1    2    0    0  0.19759052150E-02 -0.46548796366E-02 -0.35377414815E-01  0.35750994182E-01  0.10000000475E-02 0.  1.
</event>
<event>
 4   0  0.2441219E-02  0.9118800E+02  0.7818609E-02  0.1379984E+01
      -11   -1    0    0    0    0  0.00000000000E+00  0.00000000000E+00  0.35740347158E-01  0.35744000000E-01  0.51099999109E-03 0.  1.
       11   -1    0    0    0    0 -0.00000000000E+00 -0.00000000000E+00 -0.35740347158E-01  0.35744000000E-01  0.51099999109E-03 0. -1.
       22    1    1    2    0    0 -0.59598043358E-02  0.55979256731E-03 -0.35232101121E-01  0.35737005818E-01  0.00000000000E+00 0. -1.
  9000001    1    1    2    0    0  0.59598043358E-02 -0.55979256731E-03  0.35232101121E-01  0.35750994182E-01  0.10000000475E-02 0.  1.
</event>
<event>
 4   0  0.2441219E-02  0.9118800E+02  0.7818609E-02  0.1379984E+01
      -11   -1    0    0    0    0  0.00000000000E+00  0.00000000000E+00  0.35740347158E-01  0.35744000000E-01  0.51099999109E-03 0. -1.
       11   -1    0    0    0    0 -0.00000000000E+00 -0.00000000000E+00 -0.35740347158E-01  0.35744000000E-01  0.51099999109E-03 0.  1.
       22    1    1    2    0    0  0.14450216234E-02  0.10234140137E-01 -0.34209762832E-01  0.35737005818E-01  0.00000000000E+00 0.  1.
  9000001    1    1    2    0    0 -0.14450216234E-02 -0.10234140137E-01  0.34209762832E-01  0.35750994182E-01  0.10000000475E-02 0. -1.
</event>
<event>
 4   0  0.2441219E-02  0.9118800E+02  0.7818609E-02  0.1379984E+01
      -11   -1    0    0    0    0  0.00000000000E+00  0.00000000000E+00  0.35740347158E-01  0.35744000000E-01  0.51099999109E-03 0.  1.
       11   -1    0    0    0    0 -0.00000000000E+00 -0.00000000000E+00 -0.35740347158E-01  0.35744000000E-01  0.51099999109E-03 0. -1.
       22    1    1    2    0    0 -0.36804154660E-02  0.55607426356E-02 -0.35109347305E-01  0.35737005818E-01  0.00000000000E+00 0. -1.
  9000001    1    1    2    0    0  0.36804154660E-02 -0.55607426356E-02  0.35109347305E-01  0.35750994182E-01  0.10000000475E-02 0.  1.
</event>
<event>
 4   0  0.2441219E-02  0.9118800E+02  0.7818609E-02  0.1379984E+01
      -11   -1    0    0    0    0  0.00000000000E+00  0.00000000000E+00  0.35740347158E-01  0.35744000000E-01  0.51099999109E-03 0. -1.
       11   -1    0    0    0    0 -0.00000000000E+00 -0.00000000000E+00 -0.35740347158E-01  0.35744000000E-01  0.51099999109E-03 0.  1.
       22    1    1    2    0    0 -0.10573076342E-02  0.51131198821E-02  0.35353524443E-01  0.35737005818E-01  0.00000000000E+00 0. -1.
  9000001    1    1    2    0    0  0.10573076342E-02 -0.51131198821E-02 -0.35353524443E-01  0.35750994182E-01  0.10000000475E-02 0.  1.
</event>
<event>
 4   0  0.2441219E-02  0.9118800E+02  0.7818609E-02  0.1379984E+01
      -11   -1    0    0    0    0  0.00000000000E+00  0.00000000000E+00  0.35740347158E-01  0.35744000000E-01  0.51099999109E-03 0.  1.
       11   -1    0    0    0    0 -0.00000000000E+00 -0.00000000000E+00 -0.35740347158E-01  0.35744000000E-01  0.51099999109E-03 0. -1.
       22    1    1    2    0    0  0.30121063277E-02 -0.81357759606E-02  0.34667996046E-01  0.35737005818E-01  0.00000000000E+00 0.  1.
  9000001    1    1    2    0    0 -0.30121063277E-02  0.81357759606E-02 -0.34667996046E-01  0.35750994182E-01  0.10000000475E-02 0. -1.
</event>
<event>
 4   0  0.2441219E-02  0.9118800E+02  0.7818609E-02  0.1379984E+01
      -11   -1    0    0    0    0  0.00000000000E+00  0.00000000000E+00  0.35740347158E-01  0.35744000000E-01  0.51099999109E-03 0.  1.
       11   -1    0    0    0    0 -0.00000000000E+00 -0.00000000000E+00 -0.35740347158E-01  0.35744000000E-01  0.51099999109E-03 0. -1.
       22    1    1    2    0    0 -0.82875593039E-02  0.91845637657E-02 -0.33527507126E-01  0.35737005818E-01  0.00000000000E+00 0. -1.
  9000001    1    1    2    0    0  0.82875593039E-02 -0.91845637657E-02  0.33527507126E-01  0.35750994182E-01  0.10000000475E-02 0.  1.
</event>
<event>
 4   0  0.2441219E-02  0.9118800E+02  0.7818609E-02  0.1379984E+01
      -11   -1    0    0    0    0  0.00000000000E+00  0.00000000000E+00  0.35740347158E-01  0.35744000000E-01  0.51099999109E-03 0. -1.
       11   -1    0    0    0    0 -0.00000000000E+00 -0.00000000000E+00 -0.35740347158E-01  0.35744000000E-01  0.51099999109E-03 0.  1.
       22    1    1    2    0    0 -0.31960104508E-02 -0.45106700978E-02 -0.35306840093E-01  0.35737005818E-01  0.00000000000E+00 0.  1.
  9000001    1    1    2    0    0  0.31960104508E-02  0.45106700978E-02  0.35306840093E-01  0.35750994182E-01  0.10000000475E-02 0. -1.
</event>
<event>
 4   0  0.2441219E-02  0.9118800E+02  0.7818609E-02  0.1379984E+01
      -11   -1    0    0    0    0  0.00000000000E+00  0.00000000000E+00  0.35740347158E-01  0.35744000000E-01  0.51099999109E-03 0.  1.
       11   -1    0    0    0    0 -0.00000000000E+00 -0.00000000000E+00 -0.35740347158E-01  0.35744000000E-01  0.51099999109E-03 0. -1.
       22    1    1    2    0    0 -0.66900984750E-03  0.35184250241E-02 -0.35557090658E-01  0.35737005818E-01  0.00000000000E+00 0. -1.
  9000001    1    1    2    0    0  0.66900984750E-03 -0.35184250241E-02  0.35557090658E-01  0.35750994182E-01  0.10000000475E-02 0.  1.
</event>
<event>
 4   0  0.2441219E-02  0.9118800E+02  0.7818609E-02  0.1379984E+01
      -11   -1    0    0    0    0  0.00000000000E+00  0.00000000000E+00  0.35740347158E-01  0.35744000000E-01  0.51099999109E-03 0. -1.
       11   -1    0    0    0    0 -0.00000000000E+00 -0.00000000000E+00 -0.35740347158E-01  0.35744000000E-01  0.51099999109E-03 0.  1.
       22    1    1    2    0    0  0.71564809921E-02 -0.10114403705E-02 -0.34998505012E-01  0.35737005818E-01  0.00000000000E+00 0.  1.
  9000001    1    1    2    0    0 -0.71564809921E-02  0.10114403705E-02  0.34998505012E-01  0.35750994182E-01  0.10000000475E-02 0. -1.
</event>
<event>
 4   0  0.2441219E-02  0.9118800E+02  0.7818609E-02  0.1379984E+01
      -11   -1    0    0    0    0  0.00000000000E+00  0.00000000000E+00  0.35740347158E-01  0.35744000000E-01  0.51099999109E-03 0. -1.
       11   -1    0    0    0    0 -0.00000000000E+00 -0.00000000000E+00 -0.35740347158E-01  0.35744000000E-01  0.51099999109E-03 0.  1.
       22    1    1    2    0    0  0.90801562677E-02  0.28543789410E-01  0.19491958166E-01  0.35737005818E-01  0.00000000000E+00 0. -1.
  9000001    1    1    2    0    0 -0.90801562677E-02 -0.28543789410E-01 -0.19491958166E-01  0.35750994182E-01  0.10000000475E-02 0.  1.
</event>
<event>
 4   0  0.2441219E-02  0.9118800E+02  0.7818609E-02  0.1379984E+01
      -11   -1    0    0    0    0  0.00000000000E+00  0.00000000000E+00  0.35740347158E-01  0.35744000000E-01  0.51099999109E-03 0.  1.
       11   -1    0    0    0    0 -0.00000000000E+00 -0.00000000000E+00 -0.35740347158E-01  0.35744000000E-01  0.51099999109E-03 0. -1.
       22    1    1    2    0    0  0.44198358097E-03  0.37849538383E-02 -0.35533257096E-01  0.35737005818E-01  0.00000000000E+00 0. -1.
  9000001    1    1    2    0    0 -0.44198358097E-03 -0.37849538383E-02  0.35533257096E-01  0.35750994182E-01  0.10000000475E-02 0.  1.
</event>
<event>
 4   0  0.2441219E-02  0.9118800E+02  0.7818609E-02  0.1379984E+01
      -11   -1    0    0    0    0  0.00000000000E+00  0.00000000000E+00  0.35740347158E-01  0.35744000000E-01  0.51099999109E-03 0.  1.
       11   -1    0    0    0    0 -0.00000000000E+00 -0.00000000000E+00 -0.35740347158E-01  0.35744000000E-01  0.51099999109E-03 0. -1.
       22    1    1    2    0    0 -0.76018466854E-02 -0.23595554589E-01  0.25740926857E-01  0.35737005818E-01  0.00000000000E+00 0.  1.
  9000001    1    1    2    0    0  0.76018466854E-02  0.23595554589E-01 -0.25740926857E-01  0.35750994182E-01  0.10000000475E-02 0. -1.
</event>
<event>
 4   0  0.2441219E-02  0.9118800E+02  0.7818609E-02  0.1379984E+01
      -11   -1    0    0    0    0  0.00000000000E+00  0.00000000000E+00  0.35740347158E-01  0.35744000000E-01  0.51099999109E-03 0.  1.
       11   -1    0    0    0    0 -0.00000000000E+00 -0.00000000000E+00 -0.35740347158E-01  0.35744000000E-01  0.51099999109E-03 0. -1.
       22    1    1    2    0    0  0.33871298018E-01 -0.52804621093E-02 -0.10098785835E-01  0.35737005818E-01  0.00000000000E+00 0. -1.
  9000001    1    1    2    0    0 -0.33871298018E-01  0.52804621093E-02  0.10098785835E-01  0.35750994182E-01  0.10000000475E-02 0.  1.
</event>
<event>
 4   0  0.2441219E-02  0.9118800E+02  0.7818609E-02  0.1379984E+01
      -11   -1    0    0    0    0  0.00000000000E+00  0.00000000000E+00  0.35740347158E-01  0.35744000000E-01  0.51099999109E-03 0. -1.
       11   -1    0    0    0    0 -0.00000000000E+00 -0.00000000000E+00 -0.35740347158E-01  0.35744000000E-01  0.51099999109E-03 0.  1.
       22    1    1    2    0    0  0.86406044709E-04 -0.85100808032E-02  0.34708855406E-01  0.35737005818E-01  0.00000000000E+00 0. -1.
  9000001    1    1    2    0    0 -0.86406044709E-04  0.85100808032E-02 -0.34708855406E-01  0.35750994182E-01  0.10000000475E-02 0.  1.
</event>
<event>
 4   0  0.2441219E-02  0.9118800E+02  0.7818609E-02  0.1379984E+01
      -11   -1    0    0    0    0  0.00000000000E+00  0.00000000000E+00  0.35740347158E-01  0.35744000000E-01  0.51099999109E-03 0.  1.
       11   -1    0    0    0    0 -0.00000000000E+00 -0.00000000000E+00 -0.35740347158E-01  0.35744000000E-01  0.51099999109E-03 0. -1.
       22    1    1    2    0    0 -0.15762293339E-01  0.18426945836E-01  0.26251311600E-01  0.35737005818E-01  0.00000000000E+00 0.  1.
  9000001    1    1    2    0    0  0.15762293339E-01 -0.18426945836E-01 -0.26251311600E-01  0.35750994182E-01  0.10000000475E-02 0. -1.
</event>
<event>
 4   0  0.2441219E-02  0.9118800E+02  0.7818609E-02  0.1379984E+01
      -11   -1    0    0    0    0  0.00000000000E+00  0.00000000000E+00  0.35740347158E-01  0.35744000000E-01  0.51099999109E-03 0. -1.
       11   -1    0    0    0    0 -0.00000000000E+00 -0.00000000000E+00 -0.35740347158E-01  0.35744000000E-01  0.51099999109E-03 0.  1.
       22    1    1    2    0    0  0.85100804180E-02  0.60458588749E-03 -0.34703697095E-01  0.35737005818E-01  0.00000000000E+00 0.  1.
  9000001    1    1    2    0    0 -0.85100804180E-02 -0.60458588749E-03  0.34703697095E-01  0.35750994182E-01  0.10000000475E-02 0. -1.
</event>
<event>
 4   0  0.2441219E-02  0.9118800E+02  0.7818609E-02  0.1379984E+01
      -11   -1    0    0    0    0  0.00000000000E+00  0.00000000000E+00  0.35740347158E-01  0.35744000000E-01  0.51099999109E-03 0.  1.
       11   -1    0    0    0    0 -0.00000000000E+00 -0.00000000000E+00 -0.35740347158E-01  0.35744000000E-01  0.51099999109E-03 0. -1.
       22    1    1    2    0    0 -0.49212223596E-02  0.70876693118E-02 -0.34679678474E-01  0.35737005818E-01  0.00000000000E+00 0. -1.
  9000001    1    1    2    0    0  0.49212223596E-02 -0.70876693118E-02  0.34679678474E-01  0.35750994182E-01  0.10000000475E-02 0.  1.
</event>
<event>
 4   0  0.2441219E-02  0.9118800E+02  0.7818609E-02  0.1379984E+01
      -11   -1    0    0    0    0  0.00000000000E+00  0.00000000000E+00  0.35740347158E-01  0.35744000000E-01  0.51099999109E-03 0. -1.
       11   -1    0    0    0    0 -0.00000000000E+00 -0.00000000000E+00 -0.35740347158E-01  0.35744000000E-01  0.51099999109E-03 0.  1.
       22    1    1    2    0    0 -0.70763506214E-02  0.82350280982E-02  0.34047660110E-01  0.35737005818E-01  0.00000000000E+00 0. -1.
  9000001    1    1    2    0    0  0.70763506214E-02 -0.82350280982E-02 -0.34047660110E-01  0.35750994182E-01  0.10000000475E-02 0.  1.
</event>
<event>
 4   0  0.2441219E-02  0.9118800E+02  0.7818609E-02  0.1379984E+01
      -11   -1    0    0    0    0  0.00000000000E+00  0.00000000000E+00  0.35740347158E-01  0.35744000000E-01  0.51099999109E-03 0.  1.
       11   -1    0    0    0    0 -0.00000000000E+00 -0.00000000000E+00 -0.35740347158E-01  0.35744000000E-01  0.51099999109E-03 0. -1.
       22    1    1    2    0    0 -0.10052084293E-01 -0.18636506271E-03 -0.34293650350E-01  0.35737005818E-01  0.00000000000E+00 0. -1.
  9000001    1    1    2    0    0  0.10052084293E-01  0.18636506271E-03  0.34293650350E-01  0.35750994182E-01  0.10000000475E-02 0.  1.
</event>
<event>
 4   0  0.2441219E-02  0.9118800E+02  0.7818609E-02  0.1379984E+01
      -11   -1    0    0    0    0  0.00000000000E+00  0.00000000000E+00  0.35740347158E-01  0.35744000000E-01  0.51099999109E-03 0.  1.
       11   -1    0    0    0    0 -0.00000000000E+00 -0.00000000000E+00 -0.35740347158E-01  0.35744000000E-01  0.51099999109E-03 0. -1.
       22    1    1    2    0    0 -0.25658354942E-01  0.13748246619E-01 -0.20730849511E-01  0.35737005818E-01  0.00000000000E+00 0. -1.
  9000001    1    1    2    0    0  0.25658354942E-01 -0.13748246619E-01  0.20730849511E-01  0.35750994182E-01  0.10000000475E-02 0.  1.
</event>
<event>
 4   0  0.2441219E-02  0.9118800E+02  0.7818609E-02  0.1379984E+01
      -11   -1    0    0    0    0  0.00000000000E+00  0.00000000000E+00  0.35740347158E-01  0.35744000000E-01  0.51099999109E-03 0.  1.
       11   -1    0    0    0    0 -0.00000000000E+00 -0.00000000000E+00 -0.35740347158E-01  0.35744000000E-01  0.51099999109E-03 0. -1.
       22    1    1    2    0    0  0.22683755483E-01  0.26309939174E-01 -0.83885590390E-02  0.35737005818E-01  0.00000000000E+00 0. -1.
  9000001    1    1    2    0    0 -0.22683755483E-01 -0.26309939174E-01  0.83885590390E-02  0.35750994182E-01  0.10000000475E-02 0.  1.
</event>
<event>
 4   0  0.2441219E-02  0.9118800E+02  0.7818609E-02  0.1379984E+01
      -11   -1    0    0    0    0  0.00000000000E+00  0.00000000000E+00  0.35740347158E-01  0.35744000000E-01  0.51099999109E-03 0. -1.
       11   -1    0    0    0    0 -0.00000000000E+00 -0.00000000000E+00 -0.35740347158E-01  0.35744000000E-01  0.51099999109E-03 0.  1.
       22    1    1    2    0    0  0.55754871943E-02 -0.87014353735E-02  0.34210123500E-01  0.35737005818E-01  0.00000000000E+00 0. -1.
  9000001    1    1    2    0    0 -0.55754871943E-02  0.87014353735E-02 -0.34210123500E-01  0.35750994182E-01  0.10000000475E-02 0.  1.
</event>
<event>
 4   0  0.2441219E-02  0.9118800E+02  0.7818609E-02  0.1379984E+01
      -11   -1    0    0    0    0  0.00000000000E+00  0.00000000000E+00  0.35740347158E-01  0.35744000000E-01  0.51099999109E-03 0. -1.
       11   -1    0    0    0    0 -0.00000000000E+00 -0.00000000000E+00 -0.35740347158E-01  0.35744000000E-01  0.51099999109E-03 0.  1.
       22    1    1    2    0    0  0.24826825014E-01 -0.40676873813E-02 -0.25381415720E-01  0.35737005818E-01  0.00000000000E+00 0.  1.
  9000001    1    1    2    0    0 -0.24826825014E-01  0.40676873813E-02  0.25381415720E-01  0.35750994182E-01  0.10000000475E-02 0. -1.
</event>
<event>
 4   0  0.2441219E-02  0.9118800E+02  0.7818609E-02  0.1379984E+01
      -11   -1    0    0    0    0  0.00000000000E+00  0.00000000000E+00  0.35740347158E-01  0.35744000000E-01  0.51099999109E-03 0.  1.
       11   -1    0    0    0    0 -0.00000000000E+00 -0.00000000000E+00 -0.35740347158E-01  0.35744000000E-01  0.51099999109E-03 0. -1.
       22    1    1    2    0    0 -0.33123829536E-02  0.46285354081E-02  0.35280849820E-01  0.35737005818E-01  0.00000000000E+00 0.  1.
  9000001    1    1    2    0    0  0.33123829536E-02 -0.46285354081E-02 -0.35280849820E-01  0.35750994182E-01  0.10000000475E-02 0. -1.
</event>
<event>
 4   0  0.2441219E-02  0.9118800E+02  0.7818609E-02  0.1379984E+01
      -11   -1    0    0    0    0  0.00000000000E+00  0.00000000000E+00  0.35740347158E-01  0.35744000000E-01  0.51099999109E-03 0.  1.
       11   -1    0    0    0    0 -0.00000000000E+00 -0.00000000000E+00 -0.35740347158E-01  0.35744000000E-01  0.51099999109E-03 0. -1.
       22    1    1    2    0    0 -0.24651843863E-02 -0.31469639745E-02  0.35512716998E-01  0.35737005818E-01  0.00000000000E+00 0.  1.
  9000001    1    1    2    0    0  0.24651843863E-02  0.31469639745E-02 -0.35512716998E-01  0.35750994182E-01  0.10000000475E-02 0. -1.
</event>
<event>
 4   0  0.2441219E-02  0.9118800E+02  0.7818609E-02  0.1379984E+01
      -11   -1    0    0    0    0  0.00000000000E+00  0.00000000000E+00  0.35740347158E-01  0.35744000000E-01  0.51099999109E-03 0.  1.
       11   -1    0    0    0    0 -0.00000000000E+00 -0.00000000000E+00 -0.35740347158E-01  0.35744000000E-01  0.51099999109E-03 0. -1.
       22    1    1    2    0    0  0.58304444052E-04  0.48544032331E-02 -0.35405719237E-01  0.35737005818E-01  0.00000000000E+00 0. -1.
  9000001    1    1    2    0    0 -0.58304444052E-04 -0.48544032331E-02  0.35405719237E-01  0.35750994182E-01  0.10000000475E-02 0.  1.
</event>
<event>
 4   0  0.2441219E-02  0.9118800E+02  0.7818609E-02  0.1379984E+01
      -11   -1    0    0    0    0  0.00000000000E+00  0.00000000000E+00  0.35740347158E-01  0.35744000000E-01  0.51099999109E-03 0. -1.
       11   -1    0    0    0    0 -0.00000000000E+00 -0.00000000000E+00 -0.35740347158E-01  0.35744000000E-01  0.51099999109E-03 0.  1.
       22    1    1    2    0    0 -0.53978488041E-02 -0.19534868239E-01 -0.29434431132E-01  0.35737005818E-01  0.00000000000E+00 0.  1.
  9000001    1    1    2    0    0  0.53978488041E-02  0.19534868239E-01  0.29434431132E-01  0.35750994182E-01  0.10000000475E-02 0. -1.
</event>
<event>
 4   0  0.2441219E-02  0.9118800E+02  0.7818609E-02  0.1379984E+01
      -11   -1    0    0    0    0  0.00000000000E+00  0.00000000000E+00  0.35740347158E-01  0.35744000000E-01  0.51099999109E-03 0. -1.
       11   -1    0    0    0    0 -0.00000000000E+00 -0.00000000000E+00 -0.35740347158E-01  0.35744000000E-01  0.51099999109E-03 0.  1.
       22    1    1    2    0    0 -0.72648427273E-02 -0.27004659522E-01 -0.22250932769E-01  0.35737005818E-01  0.00000000000E+00 0.  1.
  9000001    1    1    2    0    0  0.72648427273E-02  0.27004659522E-01  0.22250932769E-01  0.35750994182E-01  0.10000000475E-02 0. -1.
</event>
<event>
 4   0  0.2441219E-02  0.9118800E+02  0.7818609E-02  0.1379984E+01
      -11   -1    0    0    0    0  0.00000000000E+00  0.00000000000E+00  0.35740347158E-01  0.35744000000E-01  0.51099999109E-03 0.  1.
       11   -1    0    0    0    0 -0.00000000000E+00 -0.00000000000E+00 -0.35740347158E-01  0.35744000000E-01  0.51099999109E-03 0. -1.
       22    1    1    2    0    0 -0.95853881498E-02  0.27477006256E-01 -0.20742903511E-01  0.35737005818E-01  0.00000000000E+00 0. -1.
  9000001    1    1    2    0    0  0.95853881498E-02 -0.27477006256E-01  0.20742903511E-01  0.35750994182E-01  0.10000000475E-02 0.  1.
</event>
<event>
 4   0  0.2441219E-02  0.9118800E+02  0.7818609E-02  0.1379984E+01
      -11   -1    0    0    0    0  0.00000000000E+00  0.00000000000E+00  0.35740347158E-01  0.35744000000E-01  0.51099999109E-03 0.  1.
       11   -1    0    0    0    0 -0.00000000000E+00 -0.00000000000E+00 -0.35740347158E-01  0.35744000000E-01  0.51099999109E-03 0. -1.
       22    1    1    2    0    0 -0.15095524683E-01  0.28554385381E-01 -0.15293979042E-01  0.35737005818E-01  0.00000000000E+00 0. -1.
  9000001    1    1    2    0    0  0.15095524683E-01 -0.28554385381E-01  0.15293979042E-01  0.35750994182E-01  0.10000000475E-02 0.  1.
</event>
<event>
 4   0  0.2441219E-02  0.9118800E+02  0.7818609E-02  0.1379984E+01
      -11   -1    0    0    0    0  0.00000000000E+00  0.00000000000E+00  0.35740347158E-01  0.35744000000E-01  0.51099999109E-03 0. -1.
       11   -1    0    0    0    0 -0.00000000000E+00 -0.00000000000E+00 -0.35740347158E-01  0.35744000000E-01  0.51099999109E-03 0.  1.
       22    1    1    2    0    0 -0.32319561123E-02 -0.92015939208E-02  0.34380499035E-01  0.35737005818E-01  0.00000000000E+00 0. -1.
  9000001    1    1    2    0    0  0.32319561123E-02  0.92015939208E-02 -0.34380499035E-01  0.35750994182E-01  0.10000000475E-02 0.  1.
</event>
<event>
 4   0  0.2441219E-02  0.9118800E+02  0.7818609E-02  0.1379984E+01
      -11   -1    0    0    0    0  0.00000000000E+00  0.00000000000E+00  0.35740347158E-01  0.35744000000E-01  0.51099999109E-03 0.  1.
       11   -1    0    0    0    0 -0.00000000000E+00 -0.00000000000E+00 -0.35740347158E-01  0.35744000000E-01  0.51099999109E-03 0. -1.
       22    1    1    2    0    0 -0.32225180430E-02 -0.48326982223E-02 -0.35261792215E-01  0.35737005818E-01  0.00000000000E+00 0. -1.
  9000001    1    1    2    0    0  0.32225180430E-02  0.48326982223E-02  0.35261792215E-01  0.35750994182E-01  0.10000000475E-02 0.  1.
</event>
<event>
 4   0  0.2441219E-02  0.9118800E+02  0.7818609E-02  0.1379984E+01
      -11   -1    0    0    0    0  0.00000000000E+00  0.00000000000E+00  0.35740347158E-01  0.35744000000E-01  0.51099999109E-03 0. -1.
       11   -1    0    0    0    0 -0.00000000000E+00 -0.00000000000E+00 -0.35740347158E-01  0.35744000000E-01  0.51099999109E-03 0.  1.
       22    1    1    2    0    0  0.96380879823E-03 -0.36232460178E-02  0.35539791020E-01  0.35737005818E-01  0.00000000000E+00 0. -1.
  9000001    1    1    2    0    0 -0.96380879823E-03  0.36232460178E-02 -0.35539791020E-01  0.35750994182E-01  0.10000000475E-02 0.  1.
</event>
<event>
 4   0  0.2441219E-02  0.9118800E+02  0.7818609E-02  0.1379984E+01
      -11   -1    0    0    0    0  0.00000000000E+00  0.00000000000E+00  0.35740347158E-01  0.35744000000E-01  0.51099999109E-03 0. -1.
       11   -1    0    0    0    0 -0.00000000000E+00 -0.00000000000E+00 -0.35740347158E-01  0.35744000000E-01  0.51099999109E-03 0.  1.
       22    1    1    2    0    0  0.83122025706E-03  0.12100874526E-01 -0.33615643582E-01  0.35737005818E-01  0.00000000000E+00 0.  1.
  9000001    1    1    2    0    0 -0.83122025706E-03 -0.12100874526E-01  0.33615643582E-01  0.35750994182E-01  0.10000000475E-02 0. -1.
</event>
<event>
 4   0  0.2441219E-02  0.9118800E+02  0.7818609E-02  0.1379984E+01
      -11   -1    0    0    0    0  0.00000000000E+00  0.00000000000E+00  0.35740347158E-01  0.35744000000E-01  0.51099999109E-03 0. -1.
       11   -1    0    0    0    0 -0.00000000000E+00 -0.00000000000E+00 -0.35740347158E-01  0.35744000000E-01  0.51099999109E-03 0.  1.
       22    1    1    2    0    0  0.23230271889E-02  0.21232315021E-02  0.35598160311E-01  0.35737005818E-01  0.00000000000E+00 0. -1.
  9000001    1    1    2    0    0 -0.23230271889E-02 -0.21232315021E-02 -0.35598160311E-01  0.35750994182E-01  0.10000000475E-02 0.  1.
</event>
<event>
 4   0  0.2441219E-02  0.9118800E+02  0.7818609E-02  0.1379984E+01
      -11   -1    0    0    0    0  0.00000000000E+00  0.00000000000E+00  0.35740347158E-01  0.35744000000E-01  0.51099999109E-03 0. -1.
       11   -1    0    0    0    0 -0.00000000000E+00 -0.00000000000E+00 -0.35740347158E-01  0.35744000000E-01  0.51099999109E-03 0.  1.
       22    1    1    2    0    0 -0.21455144718E-01  0.19570093473E-01 -0.20828389075E-01  0.35737005818E-01  0.00000000000E+00 0.  1.
  9000001    1    1    2    0    0  0.21455144718E-01 -0.19570093473E-01  0.20828389075E-01  0.35750994182E-01  0.10000000475E-02 0. -1.
</event>
<event>
 4   0  0.2441219E-02  0.9118800E+02  0.7818609E-02  0.1379984E+01
      -11   -1    0    0    0    0  0.00000000000E+00  0.00000000000E+00  0.35740347158E-01  0.35744000000E-01  0.51099999109E-03 0.  1.
       11   -1    0    0    0    0 -0.00000000000E+00 -0.00000000000E+00 -0.35740347158E-01  0.35744000000E-01  0.51099999109E-03 0. -1.
       22    1    1    2    0    0 -0.30179578162E-01  0.50137057872E-02  0.18471312924E-01  0.35737005818E-01  0.00000000000E+00 0.  1.
  9000001    1    1    2    0    0  0.30179578162E-01 -0.50137057872E-02 -0.18471312924E-01  0.35750994182E-01  0.10000000475E-02 0. -1.
</event>
<event>
 4   0  0.2441219E-02  0.9118800E+02  0.7818609E-02  0.1379984E+01
      -11   -1    0    0    0    0  0.00000000000E+00  0.00000000000E+00  0.35740347158E-01  0.35744000000E-01  0.51099999109E-03 0.  1.
       11   -1    0    0    0    0 -0.00000000000E+00 -0.00000000000E+00 -0.35740347158E-01  0.35744000000E-01  0.51099999109E-03 0. -1.
       22    1    1    2    0    0 -0.39637346848E-02  0.97010935311E-02 -0.34165935909E-01  0.35737005818E-01  0.00000000000E+00 0. -1.
  9000001    1    1    2    0    0  0.39637346848E-02 -0.97010935311E-02  0.34165935909E-01  0.35750994182E-01  0.10000000475E-02 0.  1.
</event>
<event>
 4   0  0.2441219E-02  0.9118800E+02  0.7818609E-02  0.1379984E+01
      -11   -1    0    0    0    0  0.00000000000E+00  0.00000000000E+00  0.35740347158E-01  0.35744000000E-01  0.51099999109E-03 0.  1.
       11   -1    0    0    0    0 -0.00000000000E+00 -0.00000000000E+00 -0.35740347158E-01  0.35744000000E-01  0.51099999109E-03 0. -1.
       22    1    1    2    0    0  0.12562231596E-01  0.33378465004E-01 -0.22807884978E-02  0.35737005818E-01  0.00000000000E+00 0. -1.
  9000001    1    1    2    0    0 -0.12562231596E-01 -0.33378465004E-01  0.22807884978E-02  0.35750994182E-01  0.10000000475E-02 0.  1.
</event>
<event>
 4   0  0.2441219E-02  0.9118800E+02  0.7818609E-02  0.1379984E+01
      -11   -1    0    0    0    0  0.00000000000E+00  0.00000000000E+00  0.35740347158E-01  0.35744000000E-01  0.51099999109E-03 0.  1.
       11   -1    0    0    0    0 -0.00000000000E+00 -0.00000000000E+00 -0.35740347158E-01  0.35744000000E-01  0.51099999109E-03 0. -1.
       22    1    1    2    0    0 -0.23548084730E-01  0.26209154170E-01 -0.59750755758E-02  0.35737005818E-01  0.00000000000E+00 0. -1.
  9000001    1    1    2    0    0  0.23548084730E-01 -0.26209154170E-01  0.59750755758E-02  0.35750994182E-01  0.10000000475E-02 0.  1.
</event>
<event>
 4   0  0.2441219E-02  0.9118800E+02  0.7818609E-02  0.1379984E+01
      -11   -1    0    0    0    0  0.00000000000E+00  0.00000000000E+00  0.35740347158E-01  0.35744000000E-01  0.51099999109E-03 0. -1.
       11   -1    0    0    0    0 -0.00000000000E+00 -0.00000000000E+00 -0.35740347158E-01  0.35744000000E-01  0.51099999109E-03 0.  1.
       22    1    1    2    0    0  0.13884633120E-02 -0.15621063240E-01  0.32112118238E-01  0.35737005818E-01  0.00000000000E+00 0. -1.
  9000001    1    1    2    0    0 -0.13884633120E-02  0.15621063240E-01 -0.32112118238E-01  0.35750994182E-01  0.10000000475E-02 0.  1.
</event>
<event>
 4   0  0.2441219E-02  0.9118800E+02  0.7818609E-02  0.1379984E+01
      -11   -1    0    0    0    0  0.00000000000E+00  0.00000000000E+00  0.35740347158E-01  0.35744000000E-01  0.51099999109E-03 0.  1.
       11   -1    0    0    0    0 -0.00000000000E+00 -0.00000000000E+00 -0.35740347158E-01  0.35744000000E-01  0.51099999109E-03 0. -1.
       22    1    1    2    0    0 -0.45440343416E-02  0.28876618399E-01 -0.20557875537E-01  0.35737005818E-01  0.00000000000E+00 0. -1.
  9000001    1    1    2    0    0  0.45440343416E-02 -0.28876618399E-01  0.20557875537E-01  0.35750994182E-01  0.10000000475E-02 0.  1.
</event>
<event>
 4   0  0.2441219E-02  0.9118800E+02  0.7818609E-02  0.1379984E+01
      -11   -1    0    0    0    0  0.00000000000E+00  0.00000000000E+00  0.35740347158E-01  0.35744000000E-01  0.51099999109E-03 0. -1.
       11   -1    0    0    0    0 -0.00000000000E+00 -0.00000000000E+00 -0.35740347158E-01  0.35744000000E-01  0.51099999109E-03 0.  1.
       22    1    1    2    0    0 -0.12207847359E-01  0.23070063819E-04 -0.33587222504E-01  0.35737005818E-01  0.00000000000E+00 0.  1.
  9000001    1    1    2    0    0  0.12207847359E-01 -0.23070063819E-04  0.33587222504E-01  0.35750994182E-01  0.10000000475E-02 0. -1.
</event>
<event>
 4   0  0.2441219E-02  0.9118800E+02  0.7818609E-02  0.1379984E+01
      -11   -1    0    0    0    0  0.00000000000E+00  0.00000000000E+00  0.35740347158E-01  0.35744000000E-01  0.51099999109E-03 0. -1.
       11   -1    0    0    0    0 -0.00000000000E+00 -0.00000000000E+00 -0.35740347158E-01  0.35744000000E-01  0.51099999109E-03 0.  1.
       22    1    1    2    0    0  0.14039397028E-01  0.12313850164E-01  0.30469624384E-01  0.35737005818E-01  0.00000000000E+00 0. -1.
  9000001    1    1    2    0    0 -0.14039397028E-01 -0.12313850164E-01 -0.30469624384E-01  0.35750994182E-01  0.10000000475E-02 0.  1.
</event>
<event>
 4   0  0.2441219E-02  0.9118800E+02  0.7818609E-02  0.1379984E+01
      -11   -1    0    0    0    0  0.00000000000E+00  0.00000000000E+00  0.35740347158E-01  0.35744000000E-01  0.51099999109E-03 0. -1.
       11   -1    0    0    0    0 -0.00000000000E+00 -0.00000000000E+00 -0.35740347158E-01  0.35744000000E-01  0.51099999109E-03 0.  1.
       22    1    1    2    0    0  0.87860503030E-03  0.31670151066E-02 -0.35585553999E-01  0.35737005818E-01  0.00000000000E+00 0.  1.
  9000001    1    1    2    0    0 -0.87860503030E-03 -0.31670151066E-02  0.35585553999E-01  0.35750994182E-01  0.10000000475E-02 0. -1.
</event>
<event>
 4   0  0.2441219E-02  0.9118800E+02  0.7818609E-02  0.1379984E+01
      -11   -1    0    0    0    0  0.00000000000E+00  0.00000000000E+00  0.35740347158E-01  0.35744000000E-01  0.51099999109E-03 0.  1.
       11   -1    0    0    0    0 -0.00000000000E+00 -0.00000000000E+00 -0.35740347158E-01  0.35744000000E-01  0.51099999109E-03 0. -1.
       22    1    1    2    0    0 -0.71185652321E-02  0.12234797543E-01  0.32814163756E-01  0.35737005818E-01  0.00000000000E+00 0.  1.
  9000001    1    1    2    0    0  0.71185652321E-02 -0.12234797543E-01 -0.32814163756E-01  0.35750994182E-01  0.10000000475E-02 0. -1.
</event>
<event>
 4   0  0.2441219E-02  0.9118800E+02  0.7818609E-02  0.1379984E+01
      -11   -1    0    0    0    0  0.00000000000E+00  0.00000000000E+00  0.35740347158E-01  0.35744000000E-01  0.51099999109E-03 0.  1.
       11   -1    0    0    0    0 -0.00000000000E+00 -0.00000000000E+00 -0.35740347158E-01  0.35744000000E-01  0.51099999109E-03 0. -1.
       22    1    1    2    0    0 -0.11920744921E-01 -0.17012919583E-01 -0.29079030119E-01  0.35737005818E-01  0.00000000000E+00 0. -1.
  9000001    1    1    2    0    0  0.11920744921E-01  0.17012919583E-01  0.29079030119E-01  0.35750994182E-01  0.10000000475E-02 0.  1.
</event>
<event>
 4   0  0.2441219E-02  0.9118800E+02  0.7818609E-02  0.1379984E+01
      -11   -1    0    0    0    0  0.00000000000E+00  0.00000000000E+00  0.35740347158E-01  0.35744000000E-01  0.51099999109E-03 0. -1.
       11   -1    0    0    0    0 -0.00000000000E+00 -0.00000000000E+00 -0.35740347158E-01  0.35744000000E-01  0.51099999109E-03 0.  1.
       22    1    1    2    0    0 -0.16080971384E-01 -0.30306359468E-01  0.10003025544E-01  0.35737005818E-01  0.00000000000E+00 0.  1.
  9000001    1    1    2    0    0  0.16080971384E-01  0.30306359468E-01 -0.10003025544E-01  0.35750994182E-01  0.10000000475E-02 0. -1.
</event>
<event>
 4   0  0.2441219E-02  0.9118800E+02  0.7818609E-02  0.1379984E+01
      -11   -1    0    0    0    0  0.00000000000E+00  0.00000000000E+00  0.35740347158E-01  0.35744000000E-01  0.51099999109E-03 0. -1.
       11   -1    0    0    0    0 -0.00000000000E+00 -0.00000000000E+00 -0.35740347158E-01  0.35744000000E-01  0.51099999109E-03 0.  1.
       22    1    1    2    0    0  0.17509857924E-01  0.16928449890E-01  0.26152744497E-01  0.35737005818E-01  0.00000000000E+00 0. -1.
  9000001    1    1    2    0    0 -0.17509857924E-01 -0.16928449890E-01 -0.26152744497E-01  0.35750994182E-01  0.10000000475E-02 0.  1.
</event>
<event>
 4   0  0.2441219E-02  0.9118800E+02  0.7818609E-02  0.1379984E+01
      -11   -1    0    0    0    0  0.00000000000E+00  0.00000000000E+00  0.35740347158E-01  0.35744000000E-01  0.51099999109E-03 0.  1.
       11   -1    0    0    0    0 -0.00000000000E+00 -0.00000000000E+00 -0.35740347158E-01  0.35744000000E-01  0.51099999109E-03 0. -1.
       22    1    1    2    0    0 -0.40786530572E-02  0.56807302036E-02  0.35046076506E-01  0.35737005818E-01  0.00000000000E+00 0.  1.
  9000001    1    1    2    0    0  0.40786530572E-02 -0.56807302036E-02 -0.35046076506E-01  0.35750994182E-01  0.10000000475E-02 0. -1.
</event>
<event>
 4   0  0.2441219E-02  0.9118800E+02  0.7818609E-02  0.1379984E+01
      -11   -1    0    0    0    0  0.00000000000E+00  0.00000000000E+00  0.35740347158E-01  0.35744000000E-01  0.51099999109E-03 0. -1.
       11   -1    0    0    0    0 -0.00000000000E+00 -0.00000000000E+00 -0.35740347158E-01  0.35744000000E-01  0.51099999109E-03 0.  1.
       22    1    1    2    0    0 -0.24267594434E-01  0.10900813532E-01 -0.23861888224E-01  0.35737005818E-01  0.00000000000E+00 0.  1.
  9000001    1    1    2    0    0  0.24267594434E-01 -0.10900813532E-01  0.23861888224E-01  0.35750994182E-01  0.10000000475E-02 0. -1.
</event>
<event>
 4   0  0.2441219E-02  0.9118800E+02  0.7818609E-02  0.1379984E+01
      -11   -1    0    0    0    0  0.00000000000E+00  0.00000000000E+00  0.35740347158E-01  0.35744000000E-01  0.51099999109E-03 0.  1.
       11   -1    0    0    0    0 -0.00000000000E+00 -0.00000000000E+00 -0.35740347158E-01  0.35744000000E-01  0.51099999109E-03 0. -1.
       22    1    1    2    0    0 -0.33770671709E-01 -0.10784731209E-01  0.45127474975E-02  0.35737005818E-01  0.00000000000E+00 0. -1.
  9000001    1    1    2    0    0  0.33770671709E-01  0.10784731209E-01 -0.45127474975E-02  0.35750994182E-01  0.10000000475E-02 0.  1.
</event>
<event>
 4   0  0.2441219E-02  0.9118800E+02  0.7818609E-02  0.1379984E+01
      -11   -1    0    0    0    0  0.00000000000E+00  0.00000000000E+00  0.35740347158E-01  0.35744000000E-01  0.51099999109E-03 0.  1.
       11   -1    0    0    0    0 -0.00000000000E+00 -0.00000000000E+00 -0.35740347158E-01  0.35744000000E-01  0.51099999109E-03 0. -1.
       22    1    1    2    0    0  0.17456040317E-01 -0.19338118707E-01 -0.24463389099E-01  0.35737005818E-01  0.00000000000E+00 0. -1.
  9000001    1    1    2    0    0 -0.17456040317E-01  0.19338118707E-01  0.24463389099E-01  0.35750994182E-01  0.10000000475E-02 0.  1.
</event>
<event>
 4   0  0.2441219E-02  0.9118800E+02  0.7818609E-02  0.1379984E+01
      -11   -1    0    0    0    0  0.00000000000E+00  0.00000000000E+00  0.35740347158E-01  0.35744000000E-01  0.51099999109E-03 0.  1.
       11   -1    0    0    0    0 -0.00000000000E+00 -0.00000000000E+00 -0.35740347158E-01  0.35744000000E-01  0.51099999109E-03 0. -1.
       22    1    1    2    0    0  0.10456425753E-01 -0.35883945972E-02 -0.33984116430E-01  0.35737005818E-01  0.00000000000E+00 0. -1.
  9000001    1    1    2    0    0 -0.10456425753E-01  0.35883945972E-02  0.33984116430E-01  0.35750994182E-01  0.10000000475E-02 0.  1.
</event>
<event>
 4   0  0.2441219E-02  0.9118800E+02  0.7818609E-02  0.1379984E+01
      -11   -1    0    0    0    0  0.00000000000E+00  0.00000000000E+00  0.35740347158E-01  0.35744000000E-01  0.51099999109E-03 0.  1.
       11   -1    0    0    0    0 -0.00000000000E+00 -0.00000000000E+00 -0.35740347158E-01  0.35744000000E-01  0.51099999109E-03 0. -1.
       22    1    1    2    0    0  0.93556761732E-02 -0.26461647270E-01  0.22122073410E-01  0.35737005818E-01  0.00000000000E+00 0.  1.
  9000001    1    1    2    0    0 -0.93556761732E-02  0.26461647270E-01 -0.22122073410E-01  0.35750994182E-01  0.10000000475E-02 0. -1.
</event>
<event>
 4   0  0.2441219E-02  0.9118800E+02  0.7818609E-02  0.1379984E+01
      -11   -1    0    0    0    0  0.00000000000E+00  0.00000000000E+00  0.35740347158E-01  0.35744000000E-01  0.51099999109E-03 0. -1.
       11   -1    0    0    0    0 -0.00000000000E+00 -0.00000000000E+00 -0.35740347158E-01  0.35744000000E-01  0.51099999109E-03 0.  1.
       22    1    1    2    0    0  0.15671696293E-01  0.59955422750E-02  0.31552891991E-01  0.35737005818E-01  0.00000000000E+00 0. -1.
  9000001    1    1    2    0    0 -0.15671696293E-01 -0.59955422750E-02 -0.31552891991E-01  0.35750994182E-01  0.10000000475E-02 0.  1.
</event>
<event>
 4   0  0.2441219E-02  0.9118800E+02  0.7818609E-02  0.1379984E+01
      -11   -1    0    0    0    0  0.00000000000E+00  0.00000000000E+00  0.35740347158E-01  0.35744000000E-01  0.51099999109E-03 0.  1.
       11   -1    0    0    0    0 -0.00000000000E+00 -0.00000000000E+00 -0.35740347158E-01  0.35744000000E-01  0.51099999109E-03 0. -1.
       22    1    1    2    0    0  0.14535336808E-02 -0.13172556383E-01  0.33188922596E-01  0.35737005818E-01  0.00000000000E+00 0.  1.
  9000001    1    1    2    0    0 -0.14535336808E-02  0.13172556383E-01 -0.33188922596E-01  0.35750994182E-01  0.10000000475E-02 0. -1.
</event>
<event>
 4   0  0.2441219E-02  0.9118800E+02  0.7818609E-02  0.1379984E+01
      -11   -1    0    0    0    0  0.00000000000E+00  0.00000000000E+00  0.35740347158E-01  0.35744000000E-01  0.51099999109E-03 0. -1.
       11   -1    0    0    0    0 -0.00000000000E+00 -0.00000000000E+00 -0.35740347158E-01  0.35744000000E-01  0.51099999109E-03 0.  1.
       22    1    1    2    0    0  0.13807352303E-01 -0.29656087142E-01  0.14387741403E-01  0.35737005818E-01  0.00000000000E+00 0.  1.
  9000001    1    1    2    0    0 -0.13807352303E-01  0.29656087142E-01 -0.14387741403E-01  0.35750994182E-01  0.10000000475E-02 0. -1.
</event>
<event>
 4   0  0.2441219E-02  0.9118800E+02  0.7818609E-02  0.1379984E+01
      -11   -1    0    0    0    0  0.00000000000E+00  0.00000000000E+00  0.35740347158E-01  0.35744000000E-01  0.51099999109E-03 0. -1.
       11   -1    0    0    0    0 -0.00000000000E+00 -0.00000000000E+00 -0.35740347158E-01  0.35744000000E-01  0.51099999109E-03 0.  1.
       22    1    1    2    0    0 -0.88882215452E-02 -0.46666406898E-03  0.34610913413E-01  0.35737005818E-01  0.00000000000E+00 0. -1.
  9000001    1    1    2    0    0  0.88882215452E-02  0.46666406898E-03 -0.34610913413E-01  0.35750994182E-01  0.10000000475E-02 0.  1.
</event>
<event>
 4   0  0.2441219E-02  0.9118800E+02  0.7818609E-02  0.1379984E+01
      -11   -1    0    0    0    0  0.00000000000E+00  0.00000000000E+00  0.35740347158E-01  0.35744000000E-01  0.51099999109E-03 0.  1.
       11   -1    0    0    0    0 -0.00000000000E+00 -0.00000000000E+00 -0.35740347158E-01  0.35744000000E-01  0.51099999109E-03 0. -1.
       22    1    1    2    0    0  0.38825619051E-02  0.45324575390E-02 -0.35235154698E-01  0.35737005818E-01  0.00000000000E+00 0. -1.
  9000001    1    1    2    0    0 -0.38825619051E-02 -0.45324575390E-02  0.35235154698E-01  0.35750994182E-01  0.10000000475E-02 0.  1.
</event>
<event>
 4   0  0.2441219E-02  0.9118800E+02  0.7818609E-02  0.1379984E+01
      -11   -1    0    0    0    0  0.00000000000E+00  0.00000000000E+00  0.35740347158E-01  0.35744000000E-01  0.51099999109E-03 0.  1.
       11   -1    0    0    0    0 -0.00000000000E+00 -0.00000000000E+00 -0.35740347158E-01  0.35744000000E-01  0.51099999109E-03 0. -1.
       22    1    1    2    0    0 -0.21538659112E-01  0.28145160202E-01  0.45901749152E-02  0.35737005818E-01  0.00000000000E+00 0. -1.
  9000001    1    1    2    0    0  0.21538659112E-01 -0.28145160202E-01 -0.45901749152E-02  0.35750994182E-01  0.10000000475E-02 0.  1.
</event>
<event>
 4   0  0.2441219E-02  0.9118800E+02  0.7818609E-02  0.1379984E+01
      -11   -1    0    0    0    0  0.00000000000E+00  0.00000000000E+00  0.35740347158E-01  0.35744000000E-01  0.51099999109E-03 0.  1.
       11   -1    0    0    0    0 -0.00000000000E+00 -0.00000000000E+00 -0.35740347158E-01  0.35744000000E-01  0.51099999109E-03 0. -1.
       22    1    1    2    0    0  0.81563057060E-02 -0.44594052983E-02  0.34506839416E-01  0.35737005818E-01  0.00000000000E+00 0.  1.
  9000001    1    1    2    0    0 -0.81563057060E-02  0.44594052983E-02 -0.34506839416E-01  0.35750994182E-01  0.10000000475E-02 0. -1.
</event>
<event>
 4   0  0.2441219E-02  0.9118800E+02  0.7818609E-02  0.1379984E+01
      -11   -1    0    0    0    0  0.00000000000E+00  0.00000000000E+00  0.35740347158E-01  0.35744000000E-01  0.51099999109E-03 0.  1.
       11   -1    0    0    0    0 -0.00000000000E+00 -0.00000000000E+00 -0.35740347158E-01  0.35744000000E-01  0.51099999109E-03 0. -1.
       22    1    1    2    0    0  0.21916735074E-01  0.14452889032E-01  0.24246738074E-01  0.35737005818E-01  0.00000000000E+00 0.  1.
  9000001    1    1    2    0    0 -0.21916735074E-01 -0.14452889032E-01 -0.24246738074E-01  0.35750994182E-01  0.10000000475E-02 0. -1.
</event>
<event>
 4   0  0.2441219E-02  0.9118800E+02  0.7818609E-02  0.1379984E+01
      -11   -1    0    0    0    0  0.00000000000E+00  0.00000000000E+00  0.35740347158E-01  0.35744000000E-01  0.51099999109E-03 0. -1.
       11   -1    0    0    0    0 -0.00000000000E+00 -0.00000000000E+00 -0.35740347158E-01  0.35744000000E-01  0.51099999109E-03 0.  1.
       22    1    1    2    0    0  0.24983047432E-02 -0.38297808478E-02 -0.35443262222E-01  0.35737005818E-01  0.00000000000E+00 0.  1.
  9000001    1    1    2    0    0 -0.24983047432E-02  0.38297808478E-02  0.35443262222E-01  0.35750994182E-01  0.10000000475E-02 0. -1.
</event>
<event>
 4   0  0.2441219E-02  0.9118800E+02  0.7818609E-02  0.1379984E+01
      -11   -1    0    0    0    0  0.00000000000E+00  0.00000000000E+00  0.35740347158E-01  0.35744000000E-01  0.51099999109E-03 0. -1.
       11   -1    0    0    0    0 -0.00000000000E+00 -0.00000000000E+00 -0.35740347158E-01  0.35744000000E-01  0.51099999109E-03 0.  1.
       22    1    1    2    0    0 -0.22387883462E-01 -0.20317842078E-01  0.19055223752E-01  0.35737005818E-01  0.00000000000E+00 0. -1.
  9000001    1    1    2    0    0  0.22387883462E-01  0.20317842078E-01 -0.19055223752E-01  0.35750994182E-01  0.10000000475E-02 0.  1.
</event>
<event>
 4   0  0.2441219E-02  0.9118800E+02  0.7818609E-02  0.1379984E+01
      -11   -1    0    0    0    0  0.00000000000E+00  0.00000000000E+00  0.35740347158E-01  0.35744000000E-01  0.51099999109E-03 0.  1.
       11   -1    0    0    0    0 -0.00000000000E+00 -0.00000000000E+00 -0.35740347158E-01  0.35744000000E-01  0.51099999109E-03 0. -1.
       22    1    1    2    0    0  0.28520001348E-02 -0.27143002883E-02 -0.35519463032E-01  0.35737005818E-01  0.00000000000E+00 0. -1.
  9000001    1    1    2    0    0 -0.28520001348E-02  0.27143002883E-02  0.35519463032E-01  0.35750994182E-01  0.10000000475E-02 0.  1.
</event>
<event>
 4   0  0.2441219E-02  0.9118800E+02  0.7818609E-02  0.1379984E+01
      -11   -1    0    0    0    0  0.00000000000E+00  0.00000000000E+00  0.35740347158E-01  0.35744000000E-01  0.51099999109E-03 0. -1.
       11   -1    0    0    0    0 -0.00000000000E+00 -0.00000000000E+00 -0.35740347158E-01  0.35744000000E-01  0.51099999109E-03 0.  1.
       22    1    1    2    0    0 -0.85787698953E-03  0.45707708433E-02 -0.35433115667E-01  0.35737005818E-01  0.00000000000E+00 0.  1.
  9000001    1    1    2    0    0  0.85787698953E-03 -0.45707708433E-02  0.35433115667E-01  0.35750994182E-01  0.10000000475E-02 0. -1.
</event>
<event>
 4   0  0.2441219E-02  0.9118800E+02  0.7818609E-02  0.1379984E+01
      -11   -1    0    0    0    0  0.00000000000E+00  0.00000000000E+00  0.35740347158E-01  0.35744000000E-01  0.51099999109E-03 0. -1.
       11   -1    0    0    0    0 -0.00000000000E+00 -0.00000000000E+00 -0.35740347158E-01  0.35744000000E-01  0.51099999109E-03 0.  1.
       22    1    1    2    0    0  0.17138300468E-01 -0.31192733872E-01  0.32288690785E-02  0.35737005818E-01  0.00000000000E+00 0.  1.
  9000001    1    1    2    0    0 -0.17138300468E-01  0.31192733872E-01 -0.32288690785E-02  0.35750994182E-01  0.10000000475E-02 0. -1.
</event>
<event>
 4   0  0.2441219E-02  0.9118800E+02  0.7818609E-02  0.1379984E+01
      -11   -1    0    0    0    0  0.00000000000E+00  0.00000000000E+00  0.35740347158E-01  0.35744000000E-01  0.51099999109E-03 0.  1.
       11   -1    0    0    0    0 -0.00000000000E+00 -0.00000000000E+00 -0.35740347158E-01  0.35744000000E-01  0.51099999109E-03 0. -1.
       22    1    1    2    0    0  0.71200477121E-03 -0.35236975993E-02  0.35555733564E-01  0.35737005818E-01  0.00000000000E+00 0.  1.
  9000001    1    1    2    0    0 -0.71200477121E-03  0.35236975993E-02 -0.35555733564E-01  0.35750994182E-01  0.10000000475E-02 0. -1.
</event>
<event>
 4   0  0.2441219E-02  0.9118800E+02  0.7818609E-02  0.1379984E+01
      -11   -1    0    0    0    0  0.00000000000E+00  0.00000000000E+00  0.35740347158E-01  0.35744000000E-01  0.51099999109E-03 0. -1.
       11   -1    0    0    0    0 -0.00000000000E+00 -0.00000000000E+00 -0.35740347158E-01  0.35744000000E-01  0.51099999109E-03 0.  1.
       22    1    1    2    0    0 -0.29563535151E-02 -0.42162903033E-02 -0.35364055973E-01  0.35737005818E-01  0.00000000000E+00 0.  1.
  9000001    1    1    2    0    0  0.29563535151E-02  0.42162903033E-02  0.35364055973E-01  0.35750994182E-01  0.10000000475E-02 0. -1.
</event>
<event>
 4   0  0.2441219E-02  0.9118800E+02  0.7818609E-02  0.1379984E+01
      -11   -1    0    0    0    0  0.00000000000E+00  0.00000000000E+00  0.35740347158E-01  0.35744000000E-01  0.51099999109E-03 0.  1.
       11   -1    0    0    0    0 -0.00000000000E+00 -0.00000000000E+00 -0.35740347158E-01  0.35744000000E-01  0.51099999109E-03 0. -1.
       22    1    1    2    0    0  0.88629631187E-02 -0.25508861499E-01  0.23406824959E-01  0.35737005818E-01  0.00000000000E+00 0.  1.
  9000001    1    1    2    0    0 -0.88629631187E-02  0.25508861499E-01 -0.23406824959E-01  0.35750994182E-01  0.10000000475E-02 0. -1.
</event>
<event>
 4   0  0.2441219E-02  0.9118800E+02  0.7818609E-02  0.1379984E+01
      -11   -1    0    0    0    0  0.00000000000E+00  0.00000000000E+00  0.35740347158E-01  0.35744000000E-01  0.51099999109E-03 0. -1.
       11   -1    0    0    0    0 -0.00000000000E+00 -0.00000000000E+00 -0.35740347158E-01  0.35744000000E-01  0.51099999109E-03 0.  1.
       22    1    1    2    0    0 -0.13759536933E-01  0.93802382596E-03  0.32968603846E-01  0.35737005818E-01  0.00000000000E+00 0. -1.
  9000001    1    1    2    0    0  0.13759536933E-01 -0.93802382596E-03 -0.32968603846E-01  0.35750994182E-01  0.10000000475E-02 0.  1.
</event>
<event>
 4   0  0.2441219E-02  0.9118800E+02  0.7818609E-02  0.1379984E+01
      -11   -1    0    0    0    0  0.00000000000E+00  0.00000000000E+00  0.35740347158E-01  0.35744000000E-01  0.51099999109E-03 0.  1.
       11   -1    0    0    0    0 -0.00000000000E+00 -0.00000000000E+00 -0.35740347158E-01  0.35744000000E-01  0.51099999109E-03 0. -1.
       22    1    1    2    0    0 -0.43245306573E-02 -0.79695627806E-04 -0.35474295878E-01  0.35737005818E-01  0.00000000000E+00 0. -1.
  9000001    1    1    2    0    0  0.43245306573E-02  0.79695627806E-04  0.35474295878E-01  0.35750994182E-01  0.10000000475E-02 0.  1.
</event>
<event>
 4   0  0.2441219E-02  0.9118800E+02  0.7818609E-02  0.1379984E+01
      -11   -1    0    0    0    0  0.00000000000E+00  0.00000000000E+00  0.35740347158E-01  0.35744000000E-01  0.51099999109E-03 0.  1.
       11   -1    0    0    0    0 -0.00000000000E+00 -0.00000000000E+00 -0.35740347158E-01  0.35744000000E-01  0.51099999109E-03 0. -1.
       22    1    1    2    0    0  0.88571430234E-02  0.34952866243E-02 -0.34445138608E-01  0.35737005818E-01  0.00000000000E+00 0. -1.
  9000001    1    1    2    0    0 -0.88571430234E-02 -0.34952866243E-02  0.34445138608E-01  0.35750994182E-01  0.10000000475E-02 0.  1.
</event>
<event>
 4   0  0.2441219E-02  0.9118800E+02  0.7818609E-02  0.1379984E+01
      -11   -1    0    0    0    0  0.00000000000E+00  0.00000000000E+00  0.35740347158E-01  0.35744000000E-01  0.51099999109E-03 0. -1.
       11   -1    0    0    0    0 -0.00000000000E+00 -0.00000000000E+00 -0.35740347158E-01  0.35744000000E-01  0.51099999109E-03 0.  1.
       22    1    1    2    0    0  0.60575790309E-02 -0.57675203067E-03 -0.35215148420E-01  0.35737005818E-01  0.00000000000E+00 0.  1.
  9000001    1    1    2    0    0 -0.60575790309E-02  0.57675203067E-03  0.35215148420E-01  0.35750994182E-01  0.10000000475E-02 0. -1.
</event>
<event>
 4   0  0.2441219E-02  0.9118800E+02  0.7818609E-02  0.1379984E+01
      -11   -1    0    0    0    0  0.00000000000E+00  0.00000000000E+00  0.35740347158E-01  0.35744000000E-01  0.51099999109E-03 0. -1.
       11   -1    0    0    0    0 -0.00000000000E+00 -0.00000000000E+00 -0.35740347158E-01  0.35744000000E-01  0.51099999109E-03 0.  1.
       22    1    1    2    0    0 -0.36599349244E-02 -0.55552096189E-02 -0.35112364023E-01  0.35737005818E-01  0.00000000000E+00 0.  1.
  9000001    1    1    2    0    0  0.36599349244E-02  0.55552096189E-02  0.35112364023E-01  0.35750994182E-01  0.10000000475E-02 0. -1.
</event>
<event>
 4   0  0.2441219E-02  0.9118800E+02  0.7818609E-02  0.1379984E+01
      -11   -1    0    0    0    0  0.00000000000E+00  0.00000000000E+00  0.35740347158E-01  0.35744000000E-01  0.51099999109E-03 0. -1.
       11   -1    0    0    0    0 -0.00000000000E+00 -0.00000000000E+00 -0.35740347158E-01  0.35744000000E-01  0.51099999109E-03 0.  1.
       22    1    1    2    0    0  0.11251896918E-02 -0.10584765039E-01 -0.34114956868E-01  0.35737005818E-01  0.00000000000E+00 0.  1.
  9000001    1    1    2    0    0 -0.11251896918E-02  0.10584765039E-01  0.34114956868E-01  0.35750994182E-01  0.10000000475E-02 0. -1.
</event>
<event>
 4   0  0.2441219E-02  0.9118800E+02  0.7818609E-02  0.1379984E+01
      -11   -1    0    0    0    0  0.00000000000E+00  0.00000000000E+00  0.35740347158E-01  0.35744000000E-01  0.51099999109E-03 0.  1.
       11   -1    0    0    0    0 -0.00000000000E+00 -0.00000000000E+00 -0.35740347158E-01  0.35744000000E-01  0.51099999109E-03 0. -1.
       22    1    1    2    0    0  0.12042142860E-02  0.30946163872E-02 -0.35582394555E-01  0.35737005818E-01  0.00000000000E+00 0. -1.
  9000001    1    1    2    0    0 -0.12042142860E-02 -0.30946163872E-02  0.35582394555E-01  0.35750994182E-01  0.10000000475E-02 0.  1.
</event>
<event>
 4   0  0.2441219E-02  0.9118800E+02  0.7818609E-02  0.1379984E+01
      -11   -1    0    0    0    0  0.00000000000E+00  0.00000000000E+00  0.35740347158E-01  0.35744000000E-01  0.51099999109E-03 0.  1.
       11   -1    0    0    0    0 -0.00000000000E+00 -0.00000000000E+00 -0.35740347158E-01  0.35744000000E-01  0.51099999109E-03 0. -1.
       22    1    1    2    0    0 -0.18615584443E-03 -0.14086123955E-01 -0.32843264801E-01  0.35737005818E-01  0.00000000000E+00 0. -1.
  9000001    1    1    2    0    0  0.18615584443E-03  0.14086123955E-01  0.32843264801E-01  0.35750994182E-01  0.10000000475E-02 0.  1.
</event>
<event>
 4   0  0.2441219E-02  0.9118800E+02  0.7818609E-02  0.1379984E+01
      -11   -1    0    0    0    0  0.00000000000E+00  0.00000000000E+00  0.35740347158E-01  0.35744000000E-01  0.51099999109E-03 0. -1.
       11   -1    0    0    0    0 -0.00000000000E+00 -0.00000000000E+00 -0.35740347158E-01  0.35744000000E-01  0.51099999109E-03 0.  1.
       22    1    1    2    0    0 -0.21252043991E-02 -0.23801393540E-02 -0.35594269592E-01  0.35737005818E-01  0.00000000000E+00 0.  1.
  9000001    1    1    2    0    0  0.21252043991E-02  0.23801393540E-02  0.35594269592E-01  0.35750994182E-01  0.10000000475E-02 0. -1.
</event>
<event>
 4   0  0.2441219E-02  0.9118800E+02  0.7818609E-02  0.1379984E+01
      -11   -1    0    0    0    0  0.00000000000E+00  0.00000000000E+00  0.35740347158E-01  0.35744000000E-01  0.51099999109E-03 0. -1.
       11   -1    0    0    0    0 -0.00000000000E+00 -0.00000000000E+00 -0.35740347158E-01  0.35744000000E-01  0.51099999109E-03 0.  1.
       22    1    1    2    0    0 -0.30268108674E-01 -0.14134006220E-01 -0.12696655085E-01  0.35737005818E-01  0.00000000000E+00 0. -1.
  9000001    1    1    2    0    0  0.30268108674E-01  0.14134006220E-01  0.12696655085E-01  0.35750994182E-01  0.10000000475E-02 0.  1.
</event>
<event>
 4   0  0.2441219E-02  0.9118800E+02  0.7818609E-02  0.1379984E+01
      -11   -1    0    0    0    0  0.00000000000E+00  0.00000000000E+00  0.35740347158E-01  0.35744000000E-01  0.51099999109E-03 0.  1.
       11   -1    0    0    0    0 -0.00000000000E+00 -0.00000000000E+00 -0.35740347158E-01  0.35744000000E-01  0.51099999109E-03 0. -1.
       22    1    1    2    0    0  0.53680523367E-02 -0.83237736408E-03  0.35321731935E-01  0.35737005818E-01  0.00000000000E+00 0.  1.
  9000001    1    1    2    0    0 -0.53680523367E-02  0.83237736408E-03 -0.35321731935E-01  0.35750994182E-01  0.10000000475E-02 0. -1.
</event>
<event>
 4   0  0.2441219E-02  0.9118800E+02  0.7818609E-02  0.1379984E+01
      -11   -1    0    0    0    0  0.00000000000E+00  0.00000000000E+00  0.35740347158E-01  0.35744000000E-01  0.51099999109E-03 0.  1.
       11   -1    0    0    0    0 -0.00000000000E+00 -0.00000000000E+00 -0.35740347158E-01  0.35744000000E-01  0.51099999109E-03 0. -1.
       22    1    1    2    0    0  0.10758502708E-01 -0.16912064623E-01  0.29586657036E-01  0.35737005818E-01  0.00000000000E+00 0.  1.
  9000001    1    1    2    0    0 -0.10758502708E-01  0.16912064623E-01 -0.29586657036E-01  0.35750994182E-01  0.10000000475E-02 0. -1.
</event>
<event>
 4   0  0.2441219E-02  0.9118800E+02  0.7818609E-02  0.1379984E+01
      -11   -1    0    0    0    0  0.00000000000E+00  0.00000000000E+00  0.35740347158E-01  0.35744000000E-01  0.51099999109E-03 0.  1.
       11   -1    0    0    0    0 -0.00000000000E+00 -0.00000000000E+00 -0.35740347158E-01  0.35744000000E-01  0.51099999109E-03 0. -1.
       22    1    1    2    0    0 -0.17400316836E-01 -0.13814524505E-01  0.27991453545E-01  0.35737005818E-01  0.00000000000E+00 0.  1.
  9000001    1    1    2    0    0  0.17400316836E-01  0.13814524505E-01 -0.27991453545E-01  0.35750994182E-01  0.10000000475E-02 0. -1.
</event>
<event>
 4   0  0.2441219E-02  0.9118800E+02  0.7818609E-02  0.1379984E+01
      -11   -1    0    0    0    0  0.00000000000E+00  0.00000000000E+00  0.35740347158E-01  0.35744000000E-01  0.51099999109E-03 0. -1.
       11   -1    0    0    0    0 -0.00000000000E+00 -0.00000000000E+00 -0.35740347158E-01  0.35744000000E-01  0.51099999109E-03 0.  1.
       22    1    1    2    0    0 -0.22157029699E-02  0.32436354312E-02 -0.35520459941E-01  0.35737005818E-01  0.00000000000E+00 0.  1.
  9000001    1    1    2    0    0  0.22157029699E-02 -0.32436354312E-02  0.35520459941E-01  0.35750994182E-01  0.10000000475E-02 0. -1.
</event>
<event>
 4   0  0.2441219E-02  0.9118800E+02  0.7818609E-02  0.1379984E+01
      -11   -1    0    0    0    0  0.00000000000E+00  0.00000000000E+00  0.35740347158E-01  0.35744000000E-01  0.51099999109E-03 0.  1.
       11   -1    0    0    0    0 -0.00000000000E+00 -0.00000000000E+00 -0.35740347158E-01  0.35744000000E-01  0.51099999109E-03 0. -1.
       22    1    1    2    0    0  0.73900448767E-02 -0.52738097413E-02 -0.34564544730E-01  0.35737005818E-01  0.00000000000E+00 0. -1.
  9000001    1    1    2    0    0 -0.73900448767E-02  0.52738097413E-02  0.34564544730E-01  0.35750994182E-01  0.10000000475E-02 0.  1.
</event>
<event>
 4   0  0.2441219E-02  0.9118800E+02  0.7818609E-02  0.1379984E+01
      -11   -1    0    0    0    0  0.00000000000E+00  0.00000000000E+00  0.35740347158E-01  0.35744000000E-01  0.51099999109E-03 0.  1.
       11   -1    0    0    0    0 -0.00000000000E+00 -0.00000000000E+00 -0.35740347158E-01  0.35744000000E-01  0.51099999109E-03 0. -1.
       22    1    1    2    0    0 -0.29439577662E-02 -0.14458486300E-02  0.35586180173E-01  0.35737005818E-01  0.00000000000E+00 0.  1.
  9000001    1    1    2    0    0  0.29439577662E-02  0.14458486300E-02 -0.35586180173E-01  0.35750994182E-01  0.10000000475E-02 0. -1.
</event>
<event>
 4   0  0.2441219E-02  0.9118800E+02  0.7818609E-02  0.1379984E+01
      -11   -1    0    0    0    0  0.00000000000E+00  0.00000000000E+00  0.35740347158E-01  0.35744000000E-01  0.51099999109E-03 0. -1.
       11   -1    0    0    0    0 -0.00000000000E+00 -0.00000000000E+00 -0.35740347158E-01  0.35744000000E-01  0.51099999109E-03 0.  1.
       22    1    1    2    0    0 -0.29128208696E-02 -0.28611756121E-02  0.35502996121E-01  0.35737005818E-01  0.00000000000E+00 0. -1.
  9000001    1    1    2    0    0  0.29128208696E-02  0.28611756121E-02 -0.35502996121E-01  0.35750994182E-01  0.10000000475E-02 0.  1.
</event>
<event>
 4   0  0.2441219E-02  0.9118800E+02  0.7818609E-02  0.1379984E+01
      -11   -1    0    0    0    0  0.00000000000E+00  0.00000000000E+00  0.35740347158E-01  0.35744000000E-01  0.51099999109E-03 0.  1.
       11   -1    0    0    0    0 -0.00000000000E+00 -0.00000000000E+00 -0.35740347158E-01  0.35744000000E-01  0.51099999109E-03 0. -1.
       22    1    1    2    0    0 -0.16660293064E-01  0.10942128191E-02 -0.31597008058E-01  0.35737005818E-01  0.00000000000E+00 0. -1.
  9000001    1    1    2    0    0  0.16660293064E-01 -0.10942128191E-02  0.31597008058E-01  0.35750994182E-01  0.10000000475E-02 0.  1.
</event>
<event>
 4   0  0.2441219E-02  0.9118800E+02  0.7818609E-02  0.1379984E+01
      -11   -1    0    0    0    0  0.00000000000E+00  0.00000000000E+00  0.35740347158E-01  0.35744000000E-01  0.51099999109E-03 0.  1.
       11   -1    0    0    0    0 -0.00000000000E+00 -0.00000000000E+00 -0.35740347158E-01  0.35744000000E-01  0.51099999109E-03 0. -1.
       22    1    1    2    0    0  0.38172300495E-02 -0.52125919986E-02  0.35148132586E-01  0.35737005818E-01  0.00000000000E+00 0.  1.
  9000001    1    1    2    0    0 -0.38172300495E-02  0.52125919986E-02 -0.35148132586E-01  0.35750994182E-01  0.10000000475E-02 0. -1.
</event>
<event>
 4   0  0.2441219E-02  0.9118800E+02  0.7818609E-02  0.1379984E+01
      -11   -1    0    0    0    0  0.00000000000E+00  0.00000000000E+00  0.35740347158E-01  0.35744000000E-01  0.51099999109E-03 0.  1.
       11   -1    0    0    0    0 -0.00000000000E+00 -0.00000000000E+00 -0.35740347158E-01  0.35744000000E-01  0.51099999109E-03 0. -1.
       22    1    1    2    0    0  0.52328662782E-02  0.13366079660E-01 -0.32727642902E-01  0.35737005818E-01  0.00000000000E+00 0. -1.
  9000001    1    1    2    0    0 -0.52328662782E-02 -0.13366079660E-01  0.32727642902E-01  0.35750994182E-01  0.10000000475E-02 0.  1.
</event>
<event>
 4   0  0.2441219E-02  0.9118800E+02  0.7818609E-02  0.1379984E+01
      -11   -1    0    0    0    0  0.00000000000E+00  0.00000000000E+00  0.35740347158E-01  0.35744000000E-01  0.51099999109E-03 0. -1.
       11   -1    0    0    0    0 -0.00000000000E+00 -0.00000000000E+00 -0.35740347158E-01  0.35744000000E-01  0.51099999109E-03 0.  1.
       22    1    1    2    0    0 -0.32069576850E-03  0.90535104864E-02  0.34569707649E-01  0.35737005818E-01  0.00000000000E+00 0. -1.
  9000001    1    1    2    0    0  0.32069576850E-03 -0.90535104864E-02 -0.34569707649E-01  0.35750994182E-01  0.10000000475E-02 0.  1.
</event>
<event>
 4   0  0.2441219E-02  0.9118800E+02  0.7818609E-02  0.1379984E+01
      -11   -1    0    0    0    0  0.00000000000E+00  0.00000000000E+00  0.35740347158E-01  0.35744000000E-01  0.51099999109E-03 0.  1.
       11   -1    0    0    0    0 -0.00000000000E+00 -0.00000000000E+00 -0.35740347158E-01  0.35744000000E-01  0.51099999109E-03 0. -1.
       22    1    1    2    0    0 -0.38290804696E-02  0.35491638135E-01  0.16779005024E-02  0.35737005818E-01  0.00000000000E+00 0.  1.
  9000001    1    1    2    0    0  0.38290804696E-02 -0.35491638135E-01 -0.16779005024E-02  0.35750994182E-01  0.10000000475E-02 0. -1.
</event>
<event>
 4   0  0.2441219E-02  0.9118800E+02  0.7818609E-02  0.1379984E+01
      -11   -1    0    0    0    0  0.00000000000E+00  0.00000000000E+00  0.35740347158E-01  0.35744000000E-01  0.51099999109E-03 0. -1.
       11   -1    0    0    0    0 -0.00000000000E+00 -0.00000000000E+00 -0.35740347158E-01  0.35744000000E-01  0.51099999109E-03 0.  1.
       22    1    1    2    0    0 -0.28095157980E-01  0.89245992015E-02 -0.20202653589E-01  0.35737005818E-01  0.00000000000E+00 0.  1.
  9000001    1    1    2    0    0  0.28095157980E-01 -0.89245992015E-02  0.20202653589E-01  0.35750994182E-01  0.10000000475E-02 0. -1.
</event>
<event>
 4   0  0.2441219E-02  0.9118800E+02  0.7818609E-02  0.1379984E+01
      -11   -1    0    0    0    0  0.00000000000E+00  0.00000000000E+00  0.35740347158E-01  0.35744000000E-01  0.51099999109E-03 0. -1.
       11   -1    0    0    0    0 -0.00000000000E+00 -0.00000000000E+00 -0.35740347158E-01  0.35744000000E-01  0.51099999109E-03 0.  1.
       22    1    1    2    0    0 -0.22045489220E-02 -0.30585144909E-02 -0.35537572202E-01  0.35737005818E-01  0.00000000000E+00 0.  1.
  9000001    1    1    2    0    0  0.22045489220E-02  0.30585144909E-02  0.35537572202E-01  0.35750994182E-01  0.10000000475E-02 0. -1.
</event>
<event>
 4   0  0.2441219E-02  0.9118800E+02  0.7818609E-02  0.1379984E+01
      -11   -1    0    0    0    0  0.00000000000E+00  0.00000000000E+00  0.35740347158E-01  0.35744000000E-01  0.51099999109E-03 0. -1.
       11   -1    0    0    0    0 -0.00000000000E+00 -0.00000000000E+00 -0.35740347158E-01  0.35744000000E-01  0.51099999109E-03 0.  1.
       22    1    1    2    0    0  0.33336432309E-01  0.36493347612E-02 -0.12349017028E-01  0.35737005818E-01  0.00000000000E+00 0.  1.
  9000001    1    1    2    0    0 -0.33336432309E-01 -0.36493347612E-02  0.12349017028E-01  0.35750994182E-01  0.10000000475E-02 0. -1.
</event>
<event>
 4   0  0.2441219E-02  0.9118800E+02  0.7818609E-02  0.1379984E+01
      -11   -1    0    0    0    0  0.00000000000E+00  0.00000000000E+00  0.35740347158E-01  0.35744000000E-01  0.51099999109E-03 0.  1.
       11   -1    0    0    0    0 -0.00000000000E+00 -0.00000000000E+00 -0.35740347158E-01  0.35744000000E-01  0.51099999109E-03 0. -1.
       22    1    1    2    0    0  0.68777152335E-02 -0.58522236747E-03 -0.35064057564E-01  0.35737005818E-01  0.00000000000E+00 0. -1.
  9000001    1    1    2    0    0 -0.68777152335E-02  0.58522236747E-03  0.35064057564E-01  0.35750994182E-01  0.10000000475E-02 0.  1.
</event>
<event>
 4   0  0.2441219E-02  0.9118800E+02  0.7818609E-02  0.1379984E+01
      -11   -1    0    0    0    0  0.00000000000E+00  0.00000000000E+00  0.35740347158E-01  0.35744000000E-01  0.51099999109E-03 0.  1.
       11   -1    0    0    0    0 -0.00000000000E+00 -0.00000000000E+00 -0.35740347158E-01  0.35744000000E-01  0.51099999109E-03 0. -1.
       22    1    1    2    0    0 -0.12555300543E-01  0.12796781522E-02  0.33434419944E-01  0.35737005818E-01  0.00000000000E+00 0.  1.
  9000001    1    1    2    0    0  0.12555300543E-01 -0.12796781522E-02 -0.33434419944E-01  0.35750994182E-01  0.10000000475E-02 0. -1.
</event>
<event>
 4   0  0.2441219E-02  0.9118800E+02  0.7818609E-02  0.1379984E+01
      -11   -1    0    0    0    0  0.00000000000E+00  0.00000000000E+00  0.35740347158E-01  0.35744000000E-01  0.51099999109E-03 0. -1.
       11   -1    0    0    0    0 -0.00000000000E+00 -0.00000000000E+00 -0.35740347158E-01  0.35744000000E-01  0.51099999109E-03 0.  1.
       22    1    1    2    0    0  0.12296653449E-01  0.12360009154E-01  0.31195449549E-01  0.35737005818E-01  0.00000000000E+00 0. -1.
  9000001    1    1    2    0    0 -0.12296653449E-01 -0.12360009154E-01 -0.31195449549E-01  0.35750994182E-01  0.10000000475E-02 0.  1.
</event>
<event>
 4   0  0.2441219E-02  0.9118800E+02  0.7818609E-02  0.1379984E+01
      -11   -1    0    0    0    0  0.00000000000E+00  0.00000000000E+00  0.35740347158E-01  0.35744000000E-01  0.51099999109E-03 0.  1.
       11   -1    0    0    0    0 -0.00000000000E+00 -0.00000000000E+00 -0.35740347158E-01  0.35744000000E-01  0.51099999109E-03 0. -1.
       22    1    1    2    0    0 -0.42932290720E-02 -0.59119199901E-02 -0.34982152178E-01  0.35737005818E-01  0.00000000000E+00 0. -1.
  9000001    1    1    2    0    0  0.42932290720E-02  0.59119199901E-02  0.34982152178E-01  0.35750994182E-01  0.10000000475E-02 0.  1.
</event>
<event>
 4   0  0.2441219E-02  0.9118800E+02  0.7818609E-02  0.1379984E+01
      -11   -1    0    0    0    0  0.00000000000E+00  0.00000000000E+00  0.35740347158E-01  0.35744000000E-01  0.51099999109E-03 0.  1.
       11   -1    0    0    0    0 -0.00000000000E+00 -0.00000000000E+00 -0.35740347158E-01  0.35744000000E-01  0.51099999109E-03 0. -1.
       22    1    1    2    0    0 -0.17446403838E-02 -0.37744242358E-02 -0.35494274700E-01  0.35737005818E-01  0.00000000000E+00 0. -1.
  9000001    1    1    2    0    0  0.17446403838E-02  0.37744242358E-02  0.35494274700E-01  0.35750994182E-01  0.10000000475E-02 0.  1.
</event>
<event>
 4   0  0.2441219E-02  0.9118800E+02  0.7818609E-02  0.1379984E+01
      -11   -1    0    0    0    0  0.00000000000E+00  0.00000000000E+00  0.35740347158E-01  0.35744000000E-01  0.51099999109E-03 0.  1.
       11   -1    0    0    0    0 -0.00000000000E+00 -0.00000000000E+00 -0.35740347158E-01  0.35744000000E-01  0.51099999109E-03 0. -1.
       22    1    1    2    0    0  0.29808037820E-02  0.40490527977E-02  0.35381542718E-01  0.35737005818E-01  0.00000000000E+00 0.  1.
  9000001    1    1    2    0    0 -0.29808037820E-02 -0.40490527977E-02 -0.35381542718E-01  0.35750994182E-01  0.10000000475E-02 0. -1.
</event>
<event>
 4   0  0.2441219E-02  0.9118800E+02  0.7818609E-02  0.1379984E+01
      -11   -1    0    0    0    0  0.00000000000E+00  0.00000000000E+00  0.35740347158E-01  0.35744000000E-01  0.51099999109E-03 0. -1.
       11   -1    0    0    0    0 -0.00000000000E+00 -0.00000000000E+00 -0.35740347158E-01  0.35744000000E-01  0.51099999109E-03 0.  1.
       22    1    1    2    0    0 -0.13508222658E-01 -0.10549628430E-01 -0.31358680545E-01  0.35737005818E-01  0.00000000000E+00 0.  1.
  9000001    1    1    2    0    0  0.13508222658E-01  0.10549628430E-01  0.31358680545E-01  0.35750994182E-01  0.10000000475E-02 0. -1.
</event>
<event>
 4   0  0.2441219E-02  0.9118800E+02  0.7818609E-02  0.1379984E+01
      -11   -1    0    0    0    0  0.00000000000E+00  0.00000000000E+00  0.35740347158E-01  0.35744000000E-01  0.51099999109E-03 0. -1.
       11   -1    0    0    0    0 -0.00000000000E+00 -0.00000000000E+00 -0.35740347158E-01  0.35744000000E-01  0.51099999109E-03 0.  1.
       22    1    1    2    0    0  0.44709849338E-02  0.14609408003E-01 -0.32306486600E-01  0.35737005818E-01  0.00000000000E+00 0.  1.
  9000001    1    1    2    0    0 -0.44709849338E-02 -0.14609408003E-01  0.32306486600E-01  0.35750994182E-01  0.10000000475E-02 0. -1.
</event>
<event>
 4   0  0.2441219E-02  0.9118800E+02  0.7818609E-02  0.1379984E+01
      -11   -1    0    0    0    0  0.00000000000E+00  0.00000000000E+00  0.35740347158E-01  0.35744000000E-01  0.51099999109E-03 0. -1.
       11   -1    0    0    0    0 -0.00000000000E+00 -0.00000000000E+00 -0.35740347158E-01  0.35744000000E-01  0.51099999109E-03 0.  1.
       22    1    1    2    0    0  0.76187086885E-02  0.12178427207E-02 -0.34894207569E-01  0.35737005818E-01  0.00000000000E+00 0.  1.
  9000001    1    1    2    0    0 -0.76187086885E-02 -0.12178427207E-02  0.34894207569E-01  0.35750994182E-01  0.10000000475E-02 0. -1.
</event>
<event>
 4   0  0.2441219E-02  0.9118800E+02  0.7818609E-02  0.1379984E+01
      -11   -1    0    0    0    0  0.00000000000E+00  0.00000000000E+00  0.35740347158E-01  0.35744000000E-01  0.51099999109E-03 0. -1.
       11   -1    0    0    0    0 -0.00000000000E+00 -0.00000000000E+00 -0.35740347158E-01  0.35744000000E-01  0.51099999109E-03 0.  1.
       22    1    1    2    0    0 -0.46212998269E-02  0.23530840825E-01  0.26496730041E-01  0.35737005818E-01  0.00000000000E+00 0. -1.
  9000001    1    1    2    0    0  0.46212998269E-02 -0.23530840825E-01 -0.26496730041E-01  0.35750994182E-01  0.10000000475E-02 0.  1.
</event>
<event>
 4   0  0.2441219E-02  0.9118800E+02  0.7818609E-02  0.1379984E+01
      -11   -1    0    0    0    0  0.00000000000E+00  0.00000000000E+00  0.35740347158E-01  0.35744000000E-01  0.51099999109E-03 0. -1.
       11   -1    0    0    0    0 -0.00000000000E+00 -0.00000000000E+00 -0.35740347158E-01  0.35744000000E-01  0.51099999109E-03 0.  1.
       22    1    1    2    0    0  0.79912292123E-02  0.30520427311E-02 -0.34698110550E-01  0.35737005818E-01  0.00000000000E+00 0.  1.
  9000001    1    1    2    0    0 -0.79912292123E-02 -0.30520427311E-02  0.34698110550E-01  0.35750994182E-01  0.10000000475E-02 0. -1.
</event>
<event>
 4   0  0.2441219E-02  0.9118800E+02  0.7818609E-02  0.1379984E+01
      -11   -1    0    0    0    0  0.00000000000E+00  0.00000000000E+00  0.35740347158E-01  0.35744000000E-01  0.51099999109E-03 0. -1.
       11   -1    0    0    0    0 -0.00000000000E+00 -0.00000000000E+00 -0.35740347158E-01  0.35744000000E-01  0.51099999109E-03 0.  1.
       22    1    1    2    0    0 -0.11184567852E-01 -0.40882003805E-02 -0.33694593698E-01  0.35737005818E-01  0.00000000000E+00 0.  1.
  9000001    1    1    2    0    0  0.11184567852E-01  0.40882003805E-02  0.33694593698E-01  0.35750994182E-01  0.10000000475E-02 0. -1.
</event>
<event>
 4   0  0.2441219E-02  0.9118800E+02  0.7818609E-02  0.1379984E+01
      -11   -1    0    0    0    0  0.00000000000E+00  0.00000000000E+00  0.35740347158E-01  0.35744000000E-01  0.51099999109E-03 0. -1.
       11   -1    0    0    0    0 -0.00000000000E+00 -0.00000000000E+00 -0.35740347158E-01  0.35744000000E-01  0.51099999109E-03 0.  1.
       22    1    1    2    0    0 -0.39116774373E-02  0.53663336756E-02  0.35114595646E-01  0.35737005818E-01  0.00000000000E+00 0. -1.
  9000001    1    1    2    0    0  0.39116774373E-02 -0.53663336756E-02 -0.35114595646E-01  0.35750994182E-01  0.10000000475E-02 0.  1.
</event>
<event>
 4   0  0.2441219E-02  0.9118800E+02  0.7818609E-02  0.1379984E+01
      -11   -1    0    0    0    0  0.00000000000E+00  0.00000000000E+00  0.35740347158E-01  0.35744000000E-01  0.51099999109E-03 0.  1.
       11   -1    0    0    0    0 -0.00000000000E+00 -0.00000000000E+00 -0.35740347158E-01  0.35744000000E-01  0.51099999109E-03 0. -1.
       22    1    1    2    0    0  0.11923012409E-02 -0.54207148057E-02 -0.35303368871E-01  0.35737005818E-01  0.00000000000E+00 0. -1.
  9000001    1    1    2    0    0 -0.11923012409E-02  0.54207148057E-02  0.35303368871E-01  0.35750994182E-01  0.10000000475E-02 0.  1.
</event>
<event>
 4   0  0.2441219E-02  0.9118800E+02  0.7818609E-02  0.1379984E+01
      -11   -1    0    0    0    0  0.00000000000E+00  0.00000000000E+00  0.35740347158E-01  0.35744000000E-01  0.51099999109E-03 0.  1.
       11   -1    0    0    0    0 -0.00000000000E+00 -0.00000000000E+00 -0.35740347158E-01  0.35744000000E-01  0.51099999109E-03 0. -1.
       22    1    1    2    0    0 -0.19448108904E-02  0.24160569225E-02  0.35602162356E-01  0.35737005818E-01  0.00000000000E+00 0.  1.
  9000001    1    1    2    0    0  0.19448108904E-02 -0.24160569225E-02 -0.35602162356E-01  0.35750994182E-01  0.10000000475E-02 0. -1.
</event>
<event>
 4   0  0.2441219E-02  0.9118800E+02  0.7818609E-02  0.1379984E+01
      -11   -1    0    0    0    0  0.00000000000E+00  0.00000000000E+00  0.35740347158E-01  0.35744000000E-01  0.51099999109E-03 0. -1.
       11   -1    0    0    0    0 -0.00000000000E+00 -0.00000000000E+00 -0.35740347158E-01  0.35744000000E-01  0.51099999109E-03 0.  1.
       22    1    1    2    0    0  0.14655284701E-01 -0.27359939215E-02 -0.32478770797E-01  0.35737005818E-01  0.00000000000E+00 0.  1.
  9000001    1    1    2    0    0 -0.14655284701E-01  0.27359939215E-02  0.32478770797E-01  0.35750994182E-01  0.10000000475E-02 0. -1.
</event>
<event>
 4   0  0.2441219E-02  0.9118800E+02  0.7818609E-02  0.1379984E+01
      -11   -1    0    0    0    0  0.00000000000E+00  0.00000000000E+00  0.35740347158E-01  0.35744000000E-01  0.51099999109E-03 0.  1.
       11   -1    0    0    0    0 -0.00000000000E+00 -0.00000000000E+00 -0.35740347158E-01  0.35744000000E-01  0.51099999109E-03 0. -1.
       22    1    1    2    0    0 -0.38979070487E-02 -0.96257980115E-03  0.35510749719E-01  0.35737005818E-01  0.00000000000E+00 0.  1.
  9000001    1    1    2    0    0  0.38979070487E-02  0.96257980115E-03 -0.35510749719E-01  0.35750994182E-01  0.10000000475E-02 0. -1.
</event>
<event>
 4   0  0.2441219E-02  0.9118800E+02  0.7818609E-02  0.1379984E+01
      -11   -1    0    0    0    0  0.00000000000E+00  0.00000000000E+00  0.35740347158E-01  0.35744000000E-01  0.51099999109E-03 0.  1.
       11   -1    0    0    0    0 -0.00000000000E+00 -0.00000000000E+00 -0.35740347158E-01  0.35744000000E-01  0.51099999109E-03 0. -1.
       22    1    1    2    0    0  0.28938787833E-03  0.22682066824E-01  0.27614736720E-01  0.35737005818E-01  0.00000000000E+00 0.  1.
  9000001    1    1    2    0    0 -0.28938787833E-03 -0.22682066824E-01 -0.27614736720E-01  0.35750994182E-01  0.10000000475E-02 0. -1.
</event>
<event>
 4   0  0.2441219E-02  0.9118800E+02  0.7818609E-02  0.1379984E+01
      -11   -1    0    0    0    0  0.00000000000E+00  0.00000000000E+00  0.35740347158E-01  0.35744000000E-01  0.51099999109E-03 0.  1.
       11   -1    0    0    0    0 -0.00000000000E+00 -0.00000000000E+00 -0.35740347158E-01  0.35744000000E-01  0.51099999109E-03 0. -1.
       22    1    1    2    0    0 -0.15320296210E-01  0.15674739839E-02 -0.32248490418E-01  0.35737005818E-01  0.00000000000E+00 0. -1.
  9000001    1    1    2    0    0  0.15320296210E-01 -0.15674739839E-02  0.32248490418E-01  0.35750994182E-01  0.10000000475E-02 0.  1.
</event>
<event>
 4   0  0.2441219E-02  0.9118800E+02  0.7818609E-02  0.1379984E+01
      -11   -1    0    0    0    0  0.00000000000E+00  0.00000000000E+00  0.35740347158E-01  0.35744000000E-01  0.51099999109E-03 0.  1.
       11   -1    0    0    0    0 -0.00000000000E+00 -0.00000000000E+00 -0.35740347158E-01  0.35744000000E-01  0.51099999109E-03 0. -1.
       22    1    1    2    0    0 -0.19228127922E-01  0.28902420307E-01  0.84889800252E-02  0.35737005818E-01  0.00000000000E+00 0.  1.
  9000001    1    1    2    0    0  0.19228127922E-01 -0.28902420307E-01 -0.84889800252E-02  0.35750994182E-01  0.10000000475E-02 0. -1.
</event>
<event>
 4   0  0.2441219E-02  0.9118800E+02  0.7818609E-02  0.1379984E+01
      -11   -1    0    0    0    0  0.00000000000E+00  0.00000000000E+00  0.35740347158E-01  0.35744000000E-01  0.51099999109E-03 0. -1.
       11   -1    0    0    0    0 -0.00000000000E+00 -0.00000000000E+00 -0.35740347158E-01  0.35744000000E-01  0.51099999109E-03 0.  1.
       22    1    1    2    0    0 -0.23528306019E-02 -0.74775788748E-02 -0.34866654374E-01  0.35737005818E-01  0.00000000000E+00 0.  1.
  9000001    1    1    2    0    0  0.23528306019E-02  0.74775788748E-02  0.34866654374E-01  0.35750994182E-01  0.10000000475E-02 0. -1.
</event>
<event>
 4   0  0.2441219E-02  0.9118800E+02  0.7818609E-02  0.1379984E+01
      -11   -1    0    0    0    0  0.00000000000E+00  0.00000000000E+00  0.35740347158E-01  0.35744000000E-01  0.51099999109E-03 0.  1.
       11   -1    0    0    0    0 -0.00000000000E+00 -0.00000000000E+00 -0.35740347158E-01  0.35744000000E-01  0.51099999109E-03 0. -1.
       22    1    1    2    0    0 -0.14585704208E-01 -0.16959929142E-02  0.32580890498E-01  0.35737005818E-01  0.00000000000E+00 0.  1.
  9000001    1    1    2    0    0  0.14585704208E-01  0.16959929142E-02 -0.32580890498E-01  0.35750994182E-01  0.10000000475E-02 0. -1.
</event>
<event>
 4   0  0.2441219E-02  0.9118800E+02  0.7818609E-02  0.1379984E+01
      -11   -1    0    0    0    0  0.00000000000E+00  0.00000000000E+00  0.35740347158E-01  0.35744000000E-01  0.51099999109E-03 0.  1.
       11   -1    0    0    0    0 -0.00000000000E+00 -0.00000000000E+00 -0.35740347158E-01  0.35744000000E-01  0.51099999109E-03 0. -1.
       22    1    1    2    0    0  0.11751125239E-01  0.61022089095E-02  0.33193488622E-01  0.35737005818E-01  0.00000000000E+00 0.  1.
  9000001    1    1    2    0    0 -0.11751125239E-01 -0.61022089095E-02 -0.33193488622E-01  0.35750994182E-01  0.10000000475E-02 0. -1.
</event>
<event>
 4   0  0.2441219E-02  0.9118800E+02  0.7818609E-02  0.1379984E+01
      -11   -1    0    0    0    0  0.00000000000E+00  0.00000000000E+00  0.35740347158E-01  0.35744000000E-01  0.51099999109E-03 0.  1.
       11   -1    0    0    0    0 -0.00000000000E+00 -0.00000000000E+00 -0.35740347158E-01  0.35744000000E-01  0.51099999109E-03 0. -1.
       22    1    1    2    0    0  0.17905844461E-01  0.65059596863E-02  0.30235522280E-01  0.35737005818E-01  0.00000000000E+00 0.  1.
  9000001    1    1    2    0    0 -0.17905844461E-01 -0.65059596863E-02 -0.30235522280E-01  0.35750994182E-01  0.10000000475E-02 0. -1.
</event>
<event>
 4   0  0.2441219E-02  0.9118800E+02  0.7818609E-02  0.1379984E+01
      -11   -1    0    0    0    0  0.00000000000E+00  0.00000000000E+00  0.35740347158E-01  0.35744000000E-01  0.51099999109E-03 0.  1.
       11   -1    0    0    0    0 -0.00000000000E+00 -0.00000000000E+00 -0.35740347158E-01  0.35744000000E-01  0.51099999109E-03 0. -1.
       22    1    1    2    0    0 -0.13003630312E-01 -0.24109906959E-02 -0.33199793786E-01  0.35737005818E-01  0.00000000000E+00 0. -1.
  9000001    1    1    2    0    0  0.13003630312E-01  0.24109906959E-02  0.33199793786E-01  0.35750994182E-01  0.10000000475E-02 0.  1.
</event>
<event>
 4   0  0.2441219E-02  0.9118800E+02  0.7818609E-02  0.1379984E+01
      -11   -1    0    0    0    0  0.00000000000E+00  0.00000000000E+00  0.35740347158E-01  0.35744000000E-01  0.51099999109E-03 0.  1.
       11   -1    0    0    0    0 -0.00000000000E+00 -0.00000000000E+00 -0.35740347158E-01  0.35744000000E-01  0.51099999109E-03 0. -1.
       22    1    1    2    0    0 -0.18613619895E-02 -0.35280096697E-02  0.35513688406E-01  0.35737005818E-01  0.00000000000E+00 0.  1.
  9000001    1    1    2    0    0  0.18613619895E-02  0.35280096697E-02 -0.35513688406E-01  0.35750994182E-01  0.10000000475E-02 0. -1.
</event>
<event>
 4   0  0.2441219E-02  0.9118800E+02  0.7818609E-02  0.1379984E+01
      -11   -1    0    0    0    0  0.00000000000E+00  0.00000000000E+00  0.35740347158E-01  0.35744000000E-01  0.51099999109E-03 0. -1.
       11   -1    0    0    0    0 -0.00000000000E+00 -0.00000000000E+00 -0.35740347158E-01  0.35744000000E-01  0.51099999109E-03 0.  1.
       22    1    1    2    0    0 -0.24063432075E-02  0.21726399384E-02 -0.35589643619E-01  0.35737005818E-01  0.00000000000E+00 0.  1.
  9000001    1    1    2    0    0  0.24063432075E-02 -0.21726399384E-02  0.35589643619E-01  0.35750994182E-01  0.10000000475E-02 0. -1.
</event>
<event>
 4   0  0.2441219E-02  0.9118800E+02  0.7818609E-02  0.1379984E+01
      -11   -1    0    0    0    0  0.00000000000E+00  0.00000000000E+00  0.35740347158E-01  0.35744000000E-01  0.51099999109E-03 0.  1.
       11   -1    0    0    0    0 -0.00000000000E+00 -0.00000000000E+00 -0.35740347158E-01  0.35744000000E-01  0.51099999109E-03 0. -1.
       22    1    1    2    0    0  0.29447751425E-01 -0.61123198021E-06 -0.20247555914E-01  0.35737005818E-01  0.00000000000E+00 0. -1.
  9000001    1    1    2    0    0 -0.29447751425E-01  0.61123198021E-06  0.20247555914E-01  0.35750994182E-01  0.10000000475E-02 0.  1.
</event>
<event>
 4   0  0.2441219E-02  0.9118800E+02  0.7818609E-02  0.1379984E+01
      -11   -1    0    0    0    0  0.00000000000E+00  0.00000000000E+00  0.35740347158E-01  0.35744000000E-01  0.51099999109E-03 0.  1.
       11   -1    0    0    0    0 -0.00000000000E+00 -0.00000000000E+00 -0.35740347158E-01  0.35744000000E-01  0.51099999109E-03 0. -1.
       22    1    1    2    0    0  0.26350921231E-01 -0.67039489034E-02 -0.23190937977E-01  0.35737005818E-01  0.00000000000E+00 0. -1.
  9000001    1    1    2    0    0 -0.26350921231E-01  0.67039489034E-02  0.23190937977E-01  0.35750994182E-01  0.10000000475E-02 0.  1.
</event>
<event>
 4   0  0.2441219E-02  0.9118800E+02  0.7818609E-02  0.1379984E+01
      -11   -1    0    0    0    0  0.00000000000E+00  0.00000000000E+00  0.35740347158E-01  0.35744000000E-01  0.51099999109E-03 0. -1.
       11   -1    0    0    0    0 -0.00000000000E+00 -0.00000000000E+00 -0.35740347158E-01  0.35744000000E-01  0.51099999109E-03 0.  1.
       22    1    1    2    0    0 -0.20884803317E-01  0.78147279348E-02  0.27926485683E-01  0.35737005818E-01  0.00000000000E+00 0. -1.
  9000001    1    1    2    0    0  0.20884803317E-01 -0.78147279348E-02 -0.27926485683E-01  0.35750994182E-01  0.10000000475E-02 0.  1.
</event>
<event>
 4   0  0.2441219E-02  0.9118800E+02  0.7818609E-02  0.1379984E+01
      -11   -1    0    0    0    0  0.00000000000E+00  0.00000000000E+00  0.35740347158E-01  0.35744000000E-01  0.51099999109E-03 0.  1.
       11   -1    0    0    0    0 -0.00000000000E+00 -0.00000000000E+00 -0.35740347158E-01  0.35744000000E-01  0.51099999109E-03 0. -1.
       22    1    1    2    0    0 -0.58367355978E-02  0.14046287595E-02  0.35229151572E-01  0.35737005818E-01  0.00000000000E+00 0.  1.
  9000001    1    1    2    0    0  0.58367355978E-02 -0.14046287595E-02 -0.35229151572E-01  0.35750994182E-01  0.10000000475E-02 0. -1.
</event>
<event>
 4   0  0.2441219E-02  0.9118800E+02  0.7818609E-02  0.1379984E+01
      -11   -1    0    0    0    0  0.00000000000E+00  0.00000000000E+00  0.35740347158E-01  0.35744000000E-01  0.51099999109E-03 0. -1.
       11   -1    0    0    0    0 -0.00000000000E+00 -0.00000000000E+00 -0.35740347158E-01  0.35744000000E-01  0.51099999109E-03 0.  1.
       22    1    1    2    0    0  0.21360725681E-01  0.69843498765E-02  0.27786180739E-01  0.35737005818E-01  0.00000000000E+00 0. -1.
  9000001    1    1    2    0    0 -0.21360725681E-01 -0.69843498765E-02 -0.27786180739E-01  0.35750994182E-01  0.10000000475E-02 0.  1.
</event>
<event>
 4   0  0.2441219E-02  0.9118800E+02  0.7818609E-02  0.1379984E+01
      -11   -1    0    0    0    0  0.00000000000E+00  0.00000000000E+00  0.35740347158E-01  0.35744000000E-01  0.51099999109E-03 0. -1.
       11   -1    0    0    0    0 -0.00000000000E+00 -0.00000000000E+00 -0.35740347158E-01  0.35744000000E-01  0.51099999109E-03 0.  1.
       22    1    1    2    0    0  0.38948367261E-03  0.30166322473E-02  0.35607328139E-01  0.35737005818E-01  0.00000000000E+00 0. -1.
  9000001    1    1    2    0    0 -0.38948367261E-03 -0.30166322473E-02 -0.35607328139E-01  0.35750994182E-01  0.10000000475E-02 0.  1.
</event>
<event>
 4   0  0.2441219E-02  0.9118800E+02  0.7818609E-02  0.1379984E+01
      -11   -1    0    0    0    0  0.00000000000E+00  0.00000000000E+00  0.35740347158E-01  0.35744000000E-01  0.51099999109E-03 0.  1.
       11   -1    0    0    0    0 -0.00000000000E+00 -0.00000000000E+00 -0.35740347158E-01  0.35744000000E-01  0.51099999109E-03 0. -1.
       22    1    1    2    0    0 -0.21077419638E-01 -0.44431741621E-02  0.28515507529E-01  0.35737005818E-01  0.00000000000E+00 0.  1.
  9000001    1    1    2    0    0  0.21077419638E-01  0.44431741621E-02 -0.28515507529E-01  0.35750994182E-01  0.10000000475E-02 0. -1.
</event>
<event>
 4   0  0.2441219E-02  0.9118800E+02  0.7818609E-02  0.1379984E+01
      -11   -1    0    0    0    0  0.00000000000E+00  0.00000000000E+00  0.35740347158E-01  0.35744000000E-01  0.51099999109E-03 0. -1.
       11   -1    0    0    0    0 -0.00000000000E+00 -0.00000000000E+00 -0.35740347158E-01  0.35744000000E-01  0.51099999109E-03 0.  1.
       22    1    1    2    0    0  0.13027396731E-01  0.28592830246E-01  0.17025585975E-01  0.35737005818E-01  0.00000000000E+00 0. -1.
  9000001    1    1    2    0    0 -0.13027396731E-01 -0.28592830246E-01 -0.17025585975E-01  0.35750994182E-01  0.10000000475E-02 0.  1.
</event>
<event>
 4   0  0.2441219E-02  0.9118800E+02  0.7818609E-02  0.1379984E+01
      -11   -1    0    0    0    0  0.00000000000E+00  0.00000000000E+00  0.35740347158E-01  0.35744000000E-01  0.51099999109E-03 0.  1.
       11   -1    0    0    0    0 -0.00000000000E+00 -0.00000000000E+00 -0.35740347158E-01  0.35744000000E-01  0.51099999109E-03 0. -1.
       22    1    1    2    0    0 -0.33558938348E-02  0.84118756455E-02  0.34570390648E-01  0.35737005818E-01  0.00000000000E+00 0.  1.
  9000001    1    1    2    0    0  0.33558938348E-02 -0.84118756455E-02 -0.34570390648E-01  0.35750994182E-01  0.10000000475E-02 0. -1.
</event>
<event>
 4   0  0.2441219E-02  0.9118800E+02  0.7818609E-02  0.1379984E+01
      -11   -1    0    0    0    0  0.00000000000E+00  0.00000000000E+00  0.35740347158E-01  0.35744000000E-01  0.51099999109E-03 0.  1.
       11   -1    0    0    0    0 -0.00000000000E+00 -0.00000000000E+00 -0.35740347158E-01  0.35744000000E-01  0.51099999109E-03 0. -1.
       22    1    1    2    0    0 -0.28816562041E-02 -0.37447935335E-02  0.35423243270E-01  0.35737005818E-01  0.00000000000E+00 0.  1.
  9000001    1    1    2    0    0  0.28816562041E-02  0.37447935335E-02 -0.35423243270E-01  0.35750994182E-01  0.10000000475E-02 0. -1.
</event>
<event>
 4   0  0.2441219E-02  0.9118800E+02  0.7818609E-02  0.1379984E+01
      -11   -1    0    0    0    0  0.00000000000E+00  0.00000000000E+00  0.35740347158E-01  0.35744000000E-01  0.51099999109E-03 0.  1.
       11   -1    0    0    0    0 -0.00000000000E+00 -0.00000000000E+00 -0.35740347158E-01  0.35744000000E-01  0.51099999109E-03 0. -1.
       22    1    1    2    0    0  0.11486607644E-01  0.10373806843E-01  0.32211419734E-01  0.35737005818E-01  0.00000000000E+00 0.  1.
  9000001    1    1    2    0    0 -0.11486607644E-01 -0.10373806843E-01 -0.32211419734E-01  0.35750994182E-01  0.10000000475E-02 0. -1.
</event>
<event>
 4   0  0.2441219E-02  0.9118800E+02  0.7818609E-02  0.1379984E+01
      -11   -1    0    0    0    0  0.00000000000E+00  0.00000000000E+00  0.35740347158E-01  0.35744000000E-01  0.51099999109E-03 0.  1.
       11   -1    0    0    0    0 -0.00000000000E+00 -0.00000000000E+00 -0.35740347158E-01  0.35744000000E-01  0.51099999109E-03 0. -1.
       22    1    1    2    0    0 -0.11329503927E-01  0.14321837095E-01 -0.30719064241E-01  0.35737005818E-01  0.00000000000E+00 0. -1.
  9000001    1    1    2    0    0  0.11329503927E-01 -0.14321837095E-01  0.30719064241E-01  0.35750994182E-01  0.10000000475E-02 0.  1.
</event>
<event>
 4   0  0.2441219E-02  0.9118800E+02  0.7818609E-02  0.1379984E+01
      -11   -1    0    0    0    0  0.00000000000E+00  0.00000000000E+00  0.35740347158E-01  0.35744000000E-01  0.51099999109E-03 0. -1.
       11   -1    0    0    0    0 -0.00000000000E+00 -0.00000000000E+00 -0.35740347158E-01  0.35744000000E-01  0.51099999109E-03 0.  1.
       22    1    1    2    0    0 -0.14028286966E-01  0.89087873577E-02 -0.31638177215E-01  0.35737005818E-01  0.00000000000E+00 0.  1.
  9000001    1    1    2    0    0  0.14028286966E-01 -0.89087873577E-02  0.31638177215E-01  0.35750994182E-01  0.10000000475E-02 0. -1.
</event>
<event>
 4   0  0.2441219E-02  0.9118800E+02  0.7818609E-02  0.1379984E+01
      -11   -1    0    0    0    0  0.00000000000E+00  0.00000000000E+00  0.35740347158E-01  0.35744000000E-01  0.51099999109E-03 0. -1.
       11   -1    0    0    0    0 -0.00000000000E+00 -0.00000000000E+00 -0.35740347158E-01  0.35744000000E-01  0.51099999109E-03 0.  1.
       22    1    1    2    0    0 -0.65110321256E-03  0.45045687139E-02 -0.35445994276E-01  0.35737005818E-01  0.00000000000E+00 0.  1.
  9000001    1    1    2    0    0  0.65110321256E-03 -0.45045687139E-02  0.35445994276E-01  0.35750994182E-01  0.10000000475E-02 0. -1.
</event>
<event>
 4   0  0.2441219E-02  0.9118800E+02  0.7818609E-02  0.1379984E+01
      -11   -1    0    0    0    0  0.00000000000E+00  0.00000000000E+00  0.35740347158E-01  0.35744000000E-01  0.51099999109E-03 0. -1.
       11   -1    0    0    0    0 -0.00000000000E+00 -0.00000000000E+00 -0.35740347158E-01  0.35744000000E-01  0.51099999109E-03 0.  1.
       22    1    1    2    0    0  0.74146249136E-02  0.28827286464E-01 -0.19777372864E-01  0.35737005818E-01  0.00000000000E+00 0.  1.
  9000001    1    1    2    0    0 -0.74146249136E-02 -0.28827286464E-01  0.19777372864E-01  0.35750994182E-01  0.10000000475E-02 0. -1.
</event>
<event>
 4   0  0.2441219E-02  0.9118800E+02  0.7818609E-02  0.1379984E+01
      -11   -1    0    0    0    0  0.00000000000E+00  0.00000000000E+00  0.35740347158E-01  0.35744000000E-01  0.51099999109E-03 0. -1.
       11   -1    0    0    0    0 -0.00000000000E+00 -0.00000000000E+00 -0.35740347158E-01  0.35744000000E-01  0.51099999109E-03 0.  1.
       22    1    1    2    0    0 -0.34950738223E-01 -0.71700028517E-02 -0.20421903972E-02  0.35737005818E-01  0.00000000000E+00 0. -1.
  9000001    1    1    2    0    0  0.34950738223E-01  0.71700028517E-02  0.20421903972E-02  0.35750994182E-01  0.10000000475E-02 0.  1.
</event>
<event>
 4   0  0.2441219E-02  0.9118800E+02  0.7818609E-02  0.1379984E+01
      -11   -1    0    0    0    0  0.00000000000E+00  0.00000000000E+00  0.35740347158E-01  0.35744000000E-01  0.51099999109E-03 0. -1.
       11   -1    0    0    0    0 -0.00000000000E+00 -0.00000000000E+00 -0.35740347158E-01  0.35744000000E-01  0.51099999109E-03 0.  1.
       22    1    1    2    0    0 -0.49171183929E-02  0.38737105908E-02 -0.35184512187E-01  0.35737005818E-01  0.00000000000E+00 0.  1.
  9000001    1    1    2    0    0  0.49171183929E-02 -0.38737105908E-02  0.35184512187E-01  0.35750994182E-01  0.10000000475E-02 0. -1.
</event>
<event>
 4   0  0.2441219E-02  0.9118800E+02  0.7818609E-02  0.1379984E+01
      -11   -1    0    0    0    0  0.00000000000E+00  0.00000000000E+00  0.35740347158E-01  0.35744000000E-01  0.51099999109E-03 0. -1.
       11   -1    0    0    0    0 -0.00000000000E+00 -0.00000000000E+00 -0.35740347158E-01  0.35744000000E-01  0.51099999109E-03 0.  1.
       22    1    1    2    0    0 -0.71259412452E-04 -0.42835038130E-02  0.35479291172E-01  0.35737005818E-01  0.00000000000E+00 0. -1.
  9000001    1    1    2    0    0  0.71259412452E-04  0.42835038130E-02 -0.35479291172E-01  0.35750994182E-01  0.10000000475E-02 0.  1.
</event>
<event>
 4   0  0.2441219E-02  0.9118800E+02  0.7818609E-02  0.1379984E+01
      -11   -1    0    0    0    0  0.00000000000E+00  0.00000000000E+00  0.35740347158E-01  0.35744000000E-01  0.51099999109E-03 0. -1.
       11   -1    0    0    0    0 -0.00000000000E+00 -0.00000000000E+00 -0.35740347158E-01  0.35744000000E-01  0.51099999109E-03 0.  1.
       22    1    1    2    0    0  0.29675743942E-02 -0.50243793821E-03  0.35610035709E-01  0.35737005818E-01  0.00000000000E+00 0. -1.
  9000001    1    1    2    0    0 -0.29675743942E-02  0.50243793821E-03 -0.35610035709E-01  0.35750994182E-01  0.10000000475E-02 0.  1.
</event>
<event>
 4   0  0.2441219E-02  0.9118800E+02  0.7818609E-02  0.1379984E+01
      -11   -1    0    0    0    0  0.00000000000E+00  0.00000000000E+00  0.35740347158E-01  0.35744000000E-01  0.51099999109E-03 0. -1.
       11   -1    0    0    0    0 -0.00000000000E+00 -0.00000000000E+00 -0.35740347158E-01  0.35744000000E-01  0.51099999109E-03 0.  1.
       22    1    1    2    0    0 -0.26021888406E-01 -0.23191533702E-01  0.78833795561E-02  0.35737005818E-01  0.00000000000E+00 0. -1.
  9000001    1    1    2    0    0  0.26021888406E-01  0.23191533702E-01 -0.78833795561E-02  0.35750994182E-01  0.10000000475E-02 0.  1.
</event>
<event>
 4   0  0.2441219E-02  0.9118800E+02  0.7818609E-02  0.1379984E+01
      -11   -1    0    0    0    0  0.00000000000E+00  0.00000000000E+00  0.35740347158E-01  0.35744000000E-01  0.51099999109E-03 0. -1.
       11   -1    0    0    0    0 -0.00000000000E+00 -0.00000000000E+00 -0.35740347158E-01  0.35744000000E-01  0.51099999109E-03 0.  1.
       22    1    1    2    0    0  0.48975743041E-02  0.55965744932E-03 -0.35395397079E-01  0.35737005818E-01  0.00000000000E+00 0.  1.
  9000001    1    1    2    0    0 -0.48975743041E-02 -0.55965744932E-03  0.35395397079E-01  0.35750994182E-01  0.10000000475E-02 0. -1.
</event>
<event>
 4   0  0.2441219E-02  0.9118800E+02  0.7818609E-02  0.1379984E+01
      -11   -1    0    0    0    0  0.00000000000E+00  0.00000000000E+00  0.35740347158E-01  0.35744000000E-01  0.51099999109E-03 0. -1.
       11   -1    0    0    0    0 -0.00000000000E+00 -0.00000000000E+00 -0.35740347158E-01  0.35744000000E-01  0.51099999109E-03 0.  1.
       22    1    1    2    0    0  0.74247861049E-02 -0.40518187978E-02  0.34721591274E-01  0.35737005818E-01  0.00000000000E+00 0. -1.
  9000001    1    1    2    0    0 -0.74247861049E-02  0.40518187978E-02 -0.34721591274E-01  0.35750994182E-01  0.10000000475E-02 0.  1.
</event>
<event>
 4   0  0.2441219E-02  0.9118800E+02  0.7818609E-02  0.1379984E+01
      -11   -1    0    0    0    0  0.00000000000E+00  0.00000000000E+00  0.35740347158E-01  0.35744000000E-01  0.51099999109E-03 0. -1.
       11   -1    0    0    0    0 -0.00000000000E+00 -0.00000000000E+00 -0.35740347158E-01  0.35744000000E-01  0.51099999109E-03 0.  1.
       22    1    1    2    0    0  0.31107207808E-01  0.63067076825E-03  0.17580599013E-01  0.35737005818E-01  0.00000000000E+00 0. -1.
  9000001    1    1    2    0    0 -0.31107207808E-01 -0.63067076825E-03 -0.17580599013E-01  0.35750994182E-01  0.10000000475E-02 0.  1.
</event>
<event>
 4   0  0.2441219E-02  0.9118800E+02  0.7818609E-02  0.1379984E+01
      -11   -1    0    0    0    0  0.00000000000E+00  0.00000000000E+00  0.35740347158E-01  0.35744000000E-01  0.51099999109E-03 0. -1.
       11   -1    0    0    0    0 -0.00000000000E+00 -0.00000000000E+00 -0.35740347158E-01  0.35744000000E-01  0.51099999109E-03 0.  1.
       22    1    1    2    0    0  0.10902151978E-01 -0.10572448642E-01 -0.32349652191E-01  0.35737005818E-01  0.00000000000E+00 0.  1.
  9000001    1    1    2    0    0 -0.10902151978E-01  0.10572448642E-01  0.32349652191E-01  0.35750994182E-01  0.10000000475E-02 0. -1.
</event>
<event>
 4   0  0.2441219E-02  0.9118800E+02  0.7818609E-02  0.1379984E+01
      -11   -1    0    0    0    0  0.00000000000E+00  0.00000000000E+00  0.35740347158E-01  0.35744000000E-01  0.51099999109E-03 0. -1.
       11   -1    0    0    0    0 -0.00000000000E+00 -0.00000000000E+00 -0.35740347158E-01  0.35744000000E-01  0.51099999109E-03 0.  1.
       22    1    1    2    0    0 -0.22559909901E-01  0.10346092080E-03  0.27715940286E-01  0.35737005818E-01  0.00000000000E+00 0. -1.
  9000001    1    1    2    0    0  0.22559909901E-01 -0.10346092080E-03 -0.27715940286E-01  0.35750994182E-01  0.10000000475E-02 0.  1.
</event>
<event>
 4   0  0.2441219E-02  0.9118800E+02  0.7818609E-02  0.1379984E+01
      -11   -1    0    0    0    0  0.00000000000E+00  0.00000000000E+00  0.35740347158E-01  0.35744000000E-01  0.51099999109E-03 0.  1.
       11   -1    0    0    0    0 -0.00000000000E+00 -0.00000000000E+00 -0.35740347158E-01  0.35744000000E-01  0.51099999109E-03 0. -1.
       22    1    1    2    0    0 -0.53008819349E-02  0.29553610497E-01 -0.19380875681E-01  0.35737005818E-01  0.00000000000E+00 0. -1.
  9000001    1    1    2    0    0  0.53008819349E-02 -0.29553610497E-01  0.19380875681E-01  0.35750994182E-01  0.10000000475E-02 0.  1.
</event>
<event>
 4   0  0.2441219E-02  0.9118800E+02  0.7818609E-02  0.1379984E+01
      -11   -1    0    0    0    0  0.00000000000E+00  0.00000000000E+00  0.35740347158E-01  0.35744000000E-01  0.51099999109E-03 0. -1.
       11   -1    0    0    0    0 -0.00000000000E+00 -0.00000000000E+00 -0.35740347158E-01  0.35744000000E-01  0.51099999109E-03 0.  1.
       22    1    1    2    0    0 -0.73034662866E-02 -0.21784243729E-02  0.34914859764E-01  0.35737005818E-01  0.00000000000E+00 0. -1.
  9000001    1    1    2    0    0  0.73034662866E-02  0.21784243729E-02 -0.34914859764E-01  0.35750994182E-01  0.10000000475E-02 0.  1.
</event>
<event>
 4   0  0.2441219E-02  0.9118800E+02  0.7818609E-02  0.1379984E+01
      -11   -1    0    0    0    0  0.00000000000E+00  0.00000000000E+00  0.35740347158E-01  0.35744000000E-01  0.51099999109E-03 0. -1.
       11   -1    0    0    0    0 -0.00000000000E+00 -0.00000000000E+00 -0.35740347158E-01  0.35744000000E-01  0.51099999109E-03 0.  1.
       22    1    1    2    0    0  0.72076132815E-02 -0.80493465700E-02 -0.34064525763E-01  0.35737005818E-01  0.00000000000E+00 0.  1.
  9000001    1    1    2    0    0 -0.72076132815E-02  0.80493465700E-02  0.34064525763E-01  0.35750994182E-01  0.10000000475E-02 0. -1.
</event>
<event>
 4   0  0.2441219E-02  0.9118800E+02  0.7818609E-02  0.1379984E+01
      -11   -1    0    0    0    0  0.00000000000E+00  0.00000000000E+00  0.35740347158E-01  0.35744000000E-01  0.51099999109E-03 0. -1.
       11   -1    0    0    0    0 -0.00000000000E+00 -0.00000000000E+00 -0.35740347158E-01  0.35744000000E-01  0.51099999109E-03 0.  1.
       22    1    1    2    0    0  0.27685046177E-01 -0.62419205197E-02  0.21718891115E-01  0.35737005818E-01  0.00000000000E+00 0. -1.
  9000001    1    1    2    0    0 -0.27685046177E-01  0.62419205197E-02 -0.21718891115E-01  0.35750994182E-01  0.10000000475E-02 0.  1.
</event>
<event>
 4   0  0.2441219E-02  0.9118800E+02  0.7818609E-02  0.1379984E+01
      -11   -1    0    0    0    0  0.00000000000E+00  0.00000000000E+00  0.35740347158E-01  0.35744000000E-01  0.51099999109E-03 0.  1.
       11   -1    0    0    0    0 -0.00000000000E+00 -0.00000000000E+00 -0.35740347158E-01  0.35744000000E-01  0.51099999109E-03 0. -1.
       22    1    1    2    0    0 -0.72300400449E-02 -0.26661102917E-02 -0.34896302981E-01  0.35737005818E-01  0.00000000000E+00 0. -1.
  9000001    1    1    2    0    0  0.72300400449E-02  0.26661102917E-02  0.34896302981E-01  0.35750994182E-01  0.10000000475E-02 0.  1.
</event>
<event>
 4   0  0.2441219E-02  0.9118800E+02  0.7818609E-02  0.1379984E+01
      -11   -1    0    0    0    0  0.00000000000E+00  0.00000000000E+00  0.35740347158E-01  0.35744000000E-01  0.51099999109E-03 0.  1.
       11   -1    0    0    0    0 -0.00000000000E+00 -0.00000000000E+00 -0.35740347158E-01  0.35744000000E-01  0.51099999109E-03 0. -1.
       22    1    1    2    0    0  0.47166859231E-02 -0.63220600786E-02  0.34855674074E-01  0.35737005818E-01  0.00000000000E+00 0.  1.
  9000001    1    1    2    0    0 -0.47166859231E-02  0.63220600786E-02 -0.34855674074E-01  0.35750994182E-01  0.10000000475E-02 0. -1.
</event>
<event>
 4   0  0.2441219E-02  0.9118800E+02  0.7818609E-02  0.1379984E+01
      -11   -1    0    0    0    0  0.00000000000E+00  0.00000000000E+00  0.35740347158E-01  0.35744000000E-01  0.51099999109E-03 0. -1.
       11   -1    0    0    0    0 -0.00000000000E+00 -0.00000000000E+00 -0.35740347158E-01  0.35744000000E-01  0.51099999109E-03 0.  1.
       22    1    1    2    0    0 -0.29234169661E-02  0.23093040883E-01  0.27116391370E-01  0.35737005818E-01  0.00000000000E+00 0. -1.
  9000001    1    1    2    0    0  0.29234169661E-02 -0.23093040883E-01 -0.27116391370E-01  0.35750994182E-01  0.10000000475E-02 0.  1.
</event>
<event>
 4   0  0.2441219E-02  0.9118800E+02  0.7818609E-02  0.1379984E+01
      -11   -1    0    0    0    0  0.00000000000E+00  0.00000000000E+00  0.35740347158E-01  0.35744000000E-01  0.51099999109E-03 0.  1.
       11   -1    0    0    0    0 -0.00000000000E+00 -0.00000000000E+00 -0.35740347158E-01  0.35744000000E-01  0.51099999109E-03 0. -1.
       22    1    1    2    0    0 -0.62774488754E-02 -0.90008785848E-02  0.34010460232E-01  0.35737005818E-01  0.00000000000E+00 0.  1.
  9000001    1    1    2    0    0  0.62774488754E-02  0.90008785848E-02 -0.34010460232E-01  0.35750994182E-01  0.10000000475E-02 0. -1.
</event>
<event>
 4   0  0.2441219E-02  0.9118800E+02  0.7818609E-02  0.1379984E+01
      -11   -1    0    0    0    0  0.00000000000E+00  0.00000000000E+00  0.35740347158E-01  0.35744000000E-01  0.51099999109E-03 0. -1.
       11   -1    0    0    0    0 -0.00000000000E+00 -0.00000000000E+00 -0.35740347158E-01  0.35744000000E-01  0.51099999109E-03 0.  1.
       22    1    1    2    0    0  0.98223583646E-03 -0.16407917183E-01  0.31732460531E-01  0.35737005818E-01  0.00000000000E+00 0. -1.
  9000001    1    1    2    0    0 -0.98223583646E-03  0.16407917183E-01 -0.31732460531E-01  0.35750994182E-01  0.10000000475E-02 0.  1.
</event>
<event>
 4   0  0.2441219E-02  0.9118800E+02  0.7818609E-02  0.1379984E+01
      -11   -1    0    0    0    0  0.00000000000E+00  0.00000000000E+00  0.35740347158E-01  0.35744000000E-01  0.51099999109E-03 0.  1.
       11   -1    0    0    0    0 -0.00000000000E+00 -0.00000000000E+00 -0.35740347158E-01  0.35744000000E-01  0.51099999109E-03 0. -1.
       22    1    1    2    0    0 -0.87762997613E-02 -0.11582986787E-01 -0.32648806478E-01  0.35737005818E-01  0.00000000000E+00 0. -1.
  9000001    1    1    2    0    0  0.87762997613E-02  0.11582986787E-01  0.32648806478E-01  0.35750994182E-01  0.10000000475E-02 0.  1.
</event>
<event>
 4   0  0.2441219E-02  0.9118800E+02  0.7818609E-02  0.1379984E+01
      -11   -1    0    0    0    0  0.00000000000E+00  0.00000000000E+00  0.35740347158E-01  0.35744000000E-01  0.51099999109E-03 0.  1.
       11   -1    0    0    0    0 -0.00000000000E+00 -0.00000000000E+00 -0.35740347158E-01  0.35744000000E-01  0.51099999109E-03 0. -1.
       22    1    1    2    0    0 -0.28957310247E-02 -0.11198804026E-01 -0.33813238755E-01  0.35737005818E-01  0.00000000000E+00 0. -1.
  9000001    1    1    2    0    0  0.28957310247E-02  0.11198804026E-01  0.33813238755E-01  0.35750994182E-01  0.10000000475E-02 0.  1.
</event>
<event>
 4   0  0.2441219E-02  0.9118800E+02  0.7818609E-02  0.1379984E+01
      -11   -1    0    0    0    0  0.00000000000E+00  0.00000000000E+00  0.35740347158E-01  0.35744000000E-01  0.51099999109E-03 0. -1.
       11   -1    0    0    0    0 -0.00000000000E+00 -0.00000000000E+00 -0.35740347158E-01  0.35744000000E-01  0.51099999109E-03 0.  1.
       22    1    1    2    0    0 -0.11343540506E-01  0.12049295009E-02  0.33867474346E-01  0.35737005818E-01  0.00000000000E+00 0. -1.
  9000001    1    1    2    0    0  0.11343540506E-01 -0.12049295009E-02 -0.33867474346E-01  0.35750994182E-01  0.10000000475E-02 0.  1.
</event>
<event>
 4   0  0.2441219E-02  0.9118800E+02  0.7818609E-02  0.1379984E+01
      -11   -1    0    0    0    0  0.00000000000E+00  0.00000000000E+00  0.35740347158E-01  0.35744000000E-01  0.51099999109E-03 0. -1.
       11   -1    0    0    0    0 -0.00000000000E+00 -0.00000000000E+00 -0.35740347158E-01  0.35744000000E-01  0.51099999109E-03 0.  1.
       22    1    1    2    0    0  0.97920298353E-02  0.71725103135E-02 -0.33612569559E-01  0.35737005818E-01  0.00000000000E+00 0.  1.
  9000001    1    1    2    0    0 -0.97920298353E-02 -0.71725103135E-02  0.33612569559E-01  0.35750994182E-01  0.10000000475E-02 0. -1.
</event>
<event>
 4   0  0.2441219E-02  0.9118800E+02  0.7818609E-02  0.1379984E+01
      -11   -1    0    0    0    0  0.00000000000E+00  0.00000000000E+00  0.35740347158E-01  0.35744000000E-01  0.51099999109E-03 0.  1.
       11   -1    0    0    0    0 -0.00000000000E+00 -0.00000000000E+00 -0.35740347158E-01  0.35744000000E-01  0.51099999109E-03 0. -1.
       22    1    1    2    0    0  0.19573865632E-04 -0.60642254502E-02  0.35218721888E-01  0.35737005818E-01  0.00000000000E+00 0.  1.
  9000001    1    1    2    0    0 -0.19573865632E-04  0.60642254502E-02 -0.35218721888E-01  0.35750994182E-01  0.10000000475E-02 0. -1.
</event>
<event>
 4   0  0.2441219E-02  0.9118800E+02  0.7818609E-02  0.1379984E+01
      -11   -1    0    0    0    0  0.00000000000E+00  0.00000000000E+00  0.35740347158E-01  0.35744000000E-01  0.51099999109E-03 0. -1.
       11   -1    0    0    0    0 -0.00000000000E+00 -0.00000000000E+00 -0.35740347158E-01  0.35744000000E-01  0.51099999109E-03 0.  1.
       22    1    1    2    0    0 -0.25283001097E-01  0.83325575834E-02 -0.23842649277E-01  0.35737005818E-01  0.00000000000E+00 0.  1.
  9000001    1    1    2    0    0  0.25283001097E-01 -0.83325575834E-02  0.23842649277E-01  0.35750994182E-01  0.10000000475E-02 0. -1.
</event>
<event>
 4   0  0.2441219E-02  0.9118800E+02  0.7818609E-02  0.1379984E+01
      -11   -1    0    0    0    0  0.00000000000E+00  0.00000000000E+00  0.35740347158E-01  0.35744000000E-01  0.51099999109E-03 0. -1.
       11   -1    0    0    0    0 -0.00000000000E+00 -0.00000000000E+00 -0.35740347158E-01  0.35744000000E-01  0.51099999109E-03 0.  1.
       22    1    1    2    0    0  0.11157572388E-01  0.85090385105E-03 -0.33939919356E-01  0.35737005818E-01  0.00000000000E+00 0.  1.
  9000001    1    1    2    0    0 -0.11157572388E-01 -0.85090385105E-03  0.33939919356E-01  0.35750994182E-01  0.10000000475E-02 0. -1.
</event>
<event>
 4   0  0.2441219E-02  0.9118800E+02  0.7818609E-02  0.1379984E+01
      -11   -1    0    0    0    0  0.00000000000E+00  0.00000000000E+00  0.35740347158E-01  0.35744000000E-01  0.51099999109E-03 0. -1.
       11   -1    0    0    0    0 -0.00000000000E+00 -0.00000000000E+00 -0.35740347158E-01  0.35744000000E-01  0.51099999109E-03 0.  1.
       22    1    1    2    0    0 -0.42297114632E-02 -0.22328474932E-01 -0.27580470138E-01  0.35737005818E-01  0.00000000000E+00 0.  1.
  9000001    1    1    2    0    0  0.42297114632E-02  0.22328474932E-01  0.27580470138E-01  0.35750994182E-01  0.10000000475E-02 0. -1.
</event>
<event>
 4   0  0.2441219E-02  0.9118800E+02  0.7818609E-02  0.1379984E+01
      -11   -1    0    0    0    0  0.00000000000E+00  0.00000000000E+00  0.35740347158E-01  0.35744000000E-01  0.51099999109E-03 0. -1.
       11   -1    0    0    0    0 -0.00000000000E+00 -0.00000000000E+00 -0.35740347158E-01  0.35744000000E-01  0.51099999109E-03 0.  1.
       22    1    1    2    0    0  0.26304920700E-01  0.17850934032E-01 -0.16325712421E-01  0.35737005818E-01  0.00000000000E+00 0. -1.
  9000001    1    1    2    0    0 -0.26304920700E-01 -0.17850934032E-01  0.16325712421E-01  0.35750994182E-01  0.10000000475E-02 0.  1.
</event>
<event>
 4   0  0.2441219E-02  0.9118800E+02  0.7818609E-02  0.1379984E+01
      -11   -1    0    0    0    0  0.00000000000E+00  0.00000000000E+00  0.35740347158E-01  0.35744000000E-01  0.51099999109E-03 0. -1.
       11   -1    0    0    0    0 -0.00000000000E+00 -0.00000000000E+00 -0.35740347158E-01  0.35744000000E-01  0.51099999109E-03 0.  1.
       22    1    1    2    0    0 -0.16912909864E-01  0.11028403421E-02 -0.31462212382E-01  0.35737005818E-01  0.00000000000E+00 0.  1.
  9000001    1    1    2    0    0  0.16912909864E-01 -0.11028403421E-02  0.31462212382E-01  0.35750994182E-01  0.10000000475E-02 0. -1.
</event>
<event>
 4   0  0.2441219E-02  0.9118800E+02  0.7818609E-02  0.1379984E+01
      -11   -1    0    0    0    0  0.00000000000E+00  0.00000000000E+00  0.35740347158E-01  0.35744000000E-01  0.51099999109E-03 0. -1.
       11   -1    0    0    0    0 -0.00000000000E+00 -0.00000000000E+00 -0.35740347158E-01  0.35744000000E-01  0.51099999109E-03 0.  1.
       22    1    1    2    0    0  0.85819477525E-02  0.42450942242E-02 -0.34430552314E-01  0.35737005818E-01  0.00000000000E+00 0.  1.
  9000001    1    1    2    0    0 -0.85819477525E-02 -0.42450942242E-02  0.34430552314E-01  0.35750994182E-01  0.10000000475E-02 0. -1.
</event>
<event>
 4   0  0.2441219E-02  0.9118800E+02  0.7818609E-02  0.1379984E+01
      -11   -1    0    0    0    0  0.00000000000E+00  0.00000000000E+00  0.35740347158E-01  0.35744000000E-01  0.51099999109E-03 0.  1.
       11   -1    0    0    0    0 -0.00000000000E+00 -0.00000000000E+00 -0.35740347158E-01  0.35744000000E-01  0.51099999109E-03 0. -1.
       22    1    1    2    0    0  0.23702486247E-03  0.32757055877E-02  0.35585771834E-01  0.35737005818E-01  0.00000000000E+00 0.  1.
  9000001    1    1    2    0    0 -0.23702486247E-03 -0.32757055877E-02 -0.35585771834E-01  0.35750994182E-01  0.10000000475E-02 0. -1.
</event>
<event>
 4   0  0.2441219E-02  0.9118800E+02  0.7818609E-02  0.1379984E+01
      -11   -1    0    0    0    0  0.00000000000E+00  0.00000000000E+00  0.35740347158E-01  0.35744000000E-01  0.51099999109E-03 0. -1.
       11   -1    0    0    0    0 -0.00000000000E+00 -0.00000000000E+00 -0.35740347158E-01  0.35744000000E-01  0.51099999109E-03 0.  1.
       22    1    1    2    0    0  0.17457063681E-01  0.51044164951E-02  0.30762468119E-01  0.35737005818E-01  0.00000000000E+00 0. -1.
  9000001    1    1    2    0    0 -0.17457063681E-01 -0.51044164951E-02 -0.30762468119E-01  0.35750994182E-01  0.10000000475E-02 0.  1.
</event>
<event>
 4   0  0.2441219E-02  0.9118800E+02  0.7818609E-02  0.1379984E+01
      -11   -1    0    0    0    0  0.00000000000E+00  0.00000000000E+00  0.35740347158E-01  0.35744000000E-01  0.51099999109E-03 0.  1.
       11   -1    0    0    0    0 -0.00000000000E+00 -0.00000000000E+00 -0.35740347158E-01  0.35744000000E-01  0.51099999109E-03 0. -1.
       22    1    1    2    0    0 -0.54532891585E-03 -0.30863597703E-02 -0.35599305957E-01  0.35737005818E-01  0.00000000000E+00 0. -1.
  9000001    1    1    2    0    0  0.54532891585E-03  0.30863597703E-02  0.35599305957E-01  0.35750994182E-01  0.10000000475E-02 0.  1.
</event>
<event>
 4   0  0.2441219E-02  0.9118800E+02  0.7818609E-02  0.1379984E+01
      -11   -1    0    0    0    0  0.00000000000E+00  0.00000000000E+00  0.35740347158E-01  0.35744000000E-01  0.51099999109E-03 0. -1.
       11   -1    0    0    0    0 -0.00000000000E+00 -0.00000000000E+00 -0.35740347158E-01  0.35744000000E-01  0.51099999109E-03 0.  1.
       22    1    1    2    0    0 -0.29077700153E-01 -0.18691355489E-01 -0.90694083959E-02  0.35737005818E-01  0.00000000000E+00 0. -1.
  9000001    1    1    2    0    0  0.29077700153E-01  0.18691355489E-01  0.90694083959E-02  0.35750994182E-01  0.10000000475E-02 0.  1.
</event>
<event>
 4   0  0.2441219E-02  0.9118800E+02  0.7818609E-02  0.1379984E+01
      -11   -1    0    0    0    0  0.00000000000E+00  0.00000000000E+00  0.35740347158E-01  0.35744000000E-01  0.51099999109E-03 0.  1.
       11   -1    0    0    0    0 -0.00000000000E+00 -0.00000000000E+00 -0.35740347158E-01  0.35744000000E-01  0.51099999109E-03 0. -1.
       22    1    1    2    0    0  0.83070060430E-02  0.11596957611E-02  0.34738772880E-01  0.35737005818E-01  0.00000000000E+00 0.  1.
  9000001    1    1    2    0    0 -0.83070060430E-02 -0.11596957611E-02 -0.34738772880E-01  0.35750994182E-01  0.10000000475E-02 0. -1.
</event>
<event>
 4   0  0.2441219E-02  0.9118800E+02  0.7818609E-02  0.1379984E+01
      -11   -1    0    0    0    0  0.00000000000E+00  0.00000000000E+00  0.35740347158E-01  0.35744000000E-01  0.51099999109E-03 0.  1.
       11   -1    0    0    0    0 -0.00000000000E+00 -0.00000000000E+00 -0.35740347158E-01  0.35744000000E-01  0.51099999109E-03 0. -1.
       22    1    1    2    0    0 -0.21158365923E-01 -0.13322157595E-01  0.25533845252E-01  0.35737005818E-01  0.00000000000E+00 0.  1.
  9000001    1    1    2    0    0  0.21158365923E-01  0.13322157595E-01 -0.25533845252E-01  0.35750994182E-01  0.10000000475E-02 0. -1.
</event>
<event>
 4   0  0.2441219E-02  0.9118800E+02  0.7818609E-02  0.1379984E+01
      -11   -1    0    0    0    0  0.00000000000E+00  0.00000000000E+00  0.35740347158E-01  0.35744000000E-01  0.51099999109E-03 0.  1.
       11   -1    0    0    0    0 -0.00000000000E+00 -0.00000000000E+00 -0.35740347158E-01  0.35744000000E-01  0.51099999109E-03 0. -1.
       22    1    1    2    0    0  0.29634950988E-02  0.15193431409E-02 -0.35581496288E-01  0.35737005818E-01  0.00000000000E+00 0. -1.
  9000001    1    1    2    0    0 -0.29634950988E-02 -0.15193431409E-02  0.35581496288E-01  0.35750994182E-01  0.10000000475E-02 0.  1.
</event>
<event>
 4   0  0.2441219E-02  0.9118800E+02  0.7818609E-02  0.1379984E+01
      -11   -1    0    0    0    0  0.00000000000E+00  0.00000000000E+00  0.35740347158E-01  0.35744000000E-01  0.51099999109E-03 0.  1.
       11   -1    0    0    0    0 -0.00000000000E+00 -0.00000000000E+00 -0.35740347158E-01  0.35744000000E-01  0.51099999109E-03 0. -1.
       22    1    1    2    0    0 -0.86206110244E-02 -0.96371175062E-02 -0.33315831321E-01  0.35737005818E-01  0.00000000000E+00 0. -1.
  9000001    1    1    2    0    0  0.86206110244E-02  0.96371175062E-02  0.33315831321E-01  0.35750994182E-01  0.10000000475E-02 0.  1.
</event>
<event>
 4   0  0.2441219E-02  0.9118800E+02  0.7818609E-02  0.1379984E+01
      -11   -1    0    0    0    0  0.00000000000E+00  0.00000000000E+00  0.35740347158E-01  0.35744000000E-01  0.51099999109E-03 0. -1.
       11   -1    0    0    0    0 -0.00000000000E+00 -0.00000000000E+00 -0.35740347158E-01  0.35744000000E-01  0.51099999109E-03 0.  1.
       22    1    1    2    0    0 -0.59172669703E-02  0.80767815016E-02 -0.34305759532E-01  0.35737005818E-01  0.00000000000E+00 0.  1.
  9000001    1    1    2    0    0  0.59172669703E-02 -0.80767815016E-02  0.34305759532E-01  0.35750994182E-01  0.10000000475E-02 0. -1.
</event>
<event>
 4   0  0.2441219E-02  0.9118800E+02  0.7818609E-02  0.1379984E+01
      -11   -1    0    0    0    0  0.00000000000E+00  0.00000000000E+00  0.35740347158E-01  0.35744000000E-01  0.51099999109E-03 0. -1.
       11   -1    0    0    0    0 -0.00000000000E+00 -0.00000000000E+00 -0.35740347158E-01  0.35744000000E-01  0.51099999109E-03 0.  1.
       22    1    1    2    0    0  0.11240717575E-01  0.40275763943E-02  0.33683207710E-01  0.35737005818E-01  0.00000000000E+00 0. -1.
  9000001    1    1    2    0    0 -0.11240717575E-01 -0.40275763943E-02 -0.33683207710E-01  0.35750994182E-01  0.10000000475E-02 0.  1.
</event>
<event>
 4   0  0.2441219E-02  0.9118800E+02  0.7818609E-02  0.1379984E+01
      -11   -1    0    0    0    0  0.00000000000E+00  0.00000000000E+00  0.35740347158E-01  0.35744000000E-01  0.51099999109E-03 0. -1.
       11   -1    0    0    0    0 -0.00000000000E+00 -0.00000000000E+00 -0.35740347158E-01  0.35744000000E-01  0.51099999109E-03 0.  1.
       22    1    1    2    0    0 -0.57315201259E-02  0.35040029670E-01 -0.40595052197E-02  0.35737005818E-01  0.00000000000E+00 0.  1.
  9000001    1    1    2    0    0  0.57315201259E-02 -0.35040029670E-01  0.40595052197E-02  0.35750994182E-01  0.10000000475E-02 0. -1.
</event>
<event>
 4   0  0.2441219E-02  0.9118800E+02  0.7818609E-02  0.1379984E+01
      -11   -1    0    0    0    0  0.00000000000E+00  0.00000000000E+00  0.35740347158E-01  0.35744000000E-01  0.51099999109E-03 0.  1.
       11   -1    0    0    0    0 -0.00000000000E+00 -0.00000000000E+00 -0.35740347158E-01  0.35744000000E-01  0.51099999109E-03 0. -1.
       22    1    1    2    0    0 -0.64045012475E-02 -0.44413575714E-02  0.34876787288E-01  0.35737005818E-01  0.00000000000E+00 0.  1.
  9000001    1    1    2    0    0  0.64045012475E-02  0.44413575714E-02 -0.34876787288E-01  0.35750994182E-01  0.10000000475E-02 0. -1.
</event>
<event>
 4   0  0.2441219E-02  0.9118800E+02  0.7818609E-02  0.1379984E+01
      -11   -1    0    0    0    0  0.00000000000E+00  0.00000000000E+00  0.35740347158E-01  0.35744000000E-01  0.51099999109E-03 0. -1.
       11   -1    0    0    0    0 -0.00000000000E+00 -0.00000000000E+00 -0.35740347158E-01  0.35744000000E-01  0.51099999109E-03 0.  1.
       22    1    1    2    0    0  0.16158297595E-01  0.35553036814E-02 -0.31676534208E-01  0.35737005818E-01  0.00000000000E+00 0.  1.
  9000001    1    1    2    0    0 -0.16158297595E-01 -0.35553036814E-02  0.31676534208E-01  0.35750994182E-01  0.10000000475E-02 0. -1.
</event>
<event>
 4   0  0.2441219E-02  0.9118800E+02  0.7818609E-02  0.1379984E+01
      -11   -1    0    0    0    0  0.00000000000E+00  0.00000000000E+00  0.35740347158E-01  0.35744000000E-01  0.51099999109E-03 0. -1.
       11   -1    0    0    0    0 -0.00000000000E+00 -0.00000000000E+00 -0.35740347158E-01  0.35744000000E-01  0.51099999109E-03 0.  1.
       22    1    1    2    0    0  0.22706163310E-02  0.33016748067E-01  0.13486001388E-01  0.35737005818E-01  0.00000000000E+00 0. -1.
  9000001    1    1    2    0    0 -0.22706163310E-02 -0.33016748067E-01 -0.13486001388E-01  0.35750994182E-01  0.10000000475E-02 0.  1.
</event>
<event>
 4   0  0.2441219E-02  0.9118800E+02  0.7818609E-02  0.1379984E+01
      -11   -1    0    0    0    0  0.00000000000E+00  0.00000000000E+00  0.35740347158E-01  0.35744000000E-01  0.51099999109E-03 0. -1.
       11   -1    0    0    0    0 -0.00000000000E+00 -0.00000000000E+00 -0.35740347158E-01  0.35744000000E-01  0.51099999109E-03 0.  1.
       22    1    1    2    0    0 -0.52374401814E-03 -0.77279810305E-02 -0.34887498997E-01  0.35737005818E-01  0.00000000000E+00 0.  1.
  9000001    1    1    2    0    0  0.52374401814E-03  0.77279810305E-02  0.34887498997E-01  0.35750994182E-01  0.10000000475E-02 0. -1.
</event>
<event>
 4   0  0.2441219E-02  0.9118800E+02  0.7818609E-02  0.1379984E+01
      -11   -1    0    0    0    0  0.00000000000E+00  0.00000000000E+00  0.35740347158E-01  0.35744000000E-01  0.51099999109E-03 0.  1.
       11   -1    0    0    0    0 -0.00000000000E+00 -0.00000000000E+00 -0.35740347158E-01  0.35744000000E-01  0.51099999109E-03 0. -1.
       22    1    1    2    0    0 -0.15900520751E-01  0.21560480411E-01 -0.23652752676E-01  0.35737005818E-01  0.00000000000E+00 0. -1.
  9000001    1    1    2    0    0  0.15900520751E-01 -0.21560480411E-01  0.23652752676E-01  0.35750994182E-01  0.10000000475E-02 0.  1.
</event>
<event>
 4   0  0.2441219E-02  0.9118800E+02  0.7818609E-02  0.1379984E+01
      -11   -1    0    0    0    0  0.00000000000E+00  0.00000000000E+00  0.35740347158E-01  0.35744000000E-01  0.51099999109E-03 0. -1.
       11   -1    0    0    0    0 -0.00000000000E+00 -0.00000000000E+00 -0.35740347158E-01  0.35744000000E-01  0.51099999109E-03 0.  1.
       22    1    1    2    0    0 -0.28994276792E-02  0.41813550752E-02 -0.35372915822E-01  0.35737005818E-01  0.00000000000E+00 0.  1.
  9000001    1    1    2    0    0  0.28994276792E-02 -0.41813550752E-02  0.35372915822E-01  0.35750994182E-01  0.10000000475E-02 0. -1.
</event>
<event>
 4   0  0.2441219E-02  0.9118800E+02  0.7818609E-02  0.1379984E+01
      -11   -1    0    0    0    0  0.00000000000E+00  0.00000000000E+00  0.35740347158E-01  0.35744000000E-01  0.51099999109E-03 0. -1.
       11   -1    0    0    0    0 -0.00000000000E+00 -0.00000000000E+00 -0.35740347158E-01  0.35744000000E-01  0.51099999109E-03 0.  1.
       22    1    1    2    0    0  0.59554784388E-02  0.41115698577E-02 -0.34996583472E-01  0.35737005818E-01  0.00000000000E+00 0.  1.
  9000001    1    1    2    0    0 -0.59554784388E-02 -0.41115698577E-02  0.34996583472E-01  0.35750994182E-01  0.10000000475E-02 0. -1.
</event>
<event>
 4   0  0.2441219E-02  0.9118800E+02  0.7818609E-02  0.1379984E+01
      -11   -1    0    0    0    0  0.00000000000E+00  0.00000000000E+00  0.35740347158E-01  0.35744000000E-01  0.51099999109E-03 0. -1.
       11   -1    0    0    0    0 -0.00000000000E+00 -0.00000000000E+00 -0.35740347158E-01  0.35744000000E-01  0.51099999109E-03 0.  1.
       22    1    1    2    0    0 -0.26354812777E-02  0.13527694762E-01  0.32972553704E-01  0.35737005818E-01  0.00000000000E+00 0. -1.
  9000001    1    1    2    0    0  0.26354812777E-02 -0.13527694762E-01 -0.32972553704E-01  0.35750994182E-01  0.10000000475E-02 0.  1.
</event>
<event>
 4   0  0.2441219E-02  0.9118800E+02  0.7818609E-02  0.1379984E+01
      -11   -1    0    0    0    0  0.00000000000E+00  0.00000000000E+00  0.35740347158E-01  0.35744000000E-01  0.51099999109E-03 0.  1.
       11   -1    0    0    0    0 -0.00000000000E+00 -0.00000000000E+00 -0.35740347158E-01  0.35744000000E-01  0.51099999109E-03 0. -1.
       22    1    1    2    0    0 -0.10316835762E-01 -0.82226677946E-02 -0.33212711709E-01  0.35737005818E-01  0.00000000000E+00 0. -1.
  9000001    1    1    2    0    0  0.10316835762E-01  0.82226677946E-02  0.33212711709E-01  0.35750994182E-01  0.10000000475E-02 0.  1.
</event>
<event>
 4   0  0.2441219E-02  0.9118800E+02  0.7818609E-02  0.1379984E+01
      -11   -1    0    0    0    0  0.00000000000E+00  0.00000000000E+00  0.35740347158E-01  0.35744000000E-01  0.51099999109E-03 0.  1.
       11   -1    0    0    0    0 -0.00000000000E+00 -0.00000000000E+00 -0.35740347158E-01  0.35744000000E-01  0.51099999109E-03 0. -1.
       22    1    1    2    0    0 -0.52867344571E-02  0.10113268793E-01 -0.33865997962E-01  0.35737005818E-01  0.00000000000E+00 0. -1.
  9000001    1    1    2    0    0  0.52867344571E-02 -0.10113268793E-01  0.33865997962E-01  0.35750994182E-01  0.10000000475E-02 0.  1.
</event>
<event>
 4   0  0.2441219E-02  0.9118800E+02  0.7818609E-02  0.1379984E+01
      -11   -1    0    0    0    0  0.00000000000E+00  0.00000000000E+00  0.35740347158E-01  0.35744000000E-01  0.51099999109E-03 0. -1.
       11   -1    0    0    0    0 -0.00000000000E+00 -0.00000000000E+00 -0.35740347158E-01  0.35744000000E-01  0.51099999109E-03 0.  1.
       22    1    1    2    0    0 -0.24396857319E-02 -0.42126115762E-02 -0.35403889929E-01  0.35737005818E-01  0.00000000000E+00 0.  1.
  9000001    1    1    2    0    0  0.24396857319E-02  0.42126115762E-02  0.35403889929E-01  0.35750994182E-01  0.10000000475E-02 0. -1.
</event>
<event>
 4   0  0.2441219E-02  0.9118800E+02  0.7818609E-02  0.1379984E+01
      -11   -1    0    0    0    0  0.00000000000E+00  0.00000000000E+00  0.35740347158E-01  0.35744000000E-01  0.51099999109E-03 0.  1.
       11   -1    0    0    0    0 -0.00000000000E+00 -0.00000000000E+00 -0.35740347158E-01  0.35744000000E-01  0.51099999109E-03 0. -1.
       22    1    1    2    0    0  0.17525036878E-01 -0.22520998982E-01 -0.21513048881E-01  0.35737005818E-01  0.00000000000E+00 0. -1.
  9000001    1    1    2    0    0 -0.17525036878E-01  0.22520998982E-01  0.21513048881E-01  0.35750994182E-01  0.10000000475E-02 0.  1.
</event>
<event>
 4   0  0.2441219E-02  0.9118800E+02  0.7818609E-02  0.1379984E+01
      -11   -1    0    0    0    0  0.00000000000E+00  0.00000000000E+00  0.35740347158E-01  0.35744000000E-01  0.51099999109E-03 0. -1.
       11   -1    0    0    0    0 -0.00000000000E+00 -0.00000000000E+00 -0.35740347158E-01  0.35744000000E-01  0.51099999109E-03 0.  1.
       22    1    1    2    0    0  0.31383653194E-02  0.76073276892E-02 -0.34776613024E-01  0.35737005818E-01  0.00000000000E+00 0.  1.
  9000001    1    1    2    0    0 -0.31383653194E-02 -0.76073276892E-02  0.34776613024E-01  0.35750994182E-01  0.10000000475E-02 0. -1.
</event>
<event>
 4   0  0.2441219E-02  0.9118800E+02  0.7818609E-02  0.1379984E+01
      -11   -1    0    0    0    0  0.00000000000E+00  0.00000000000E+00  0.35740347158E-01  0.35744000000E-01  0.51099999109E-03 0. -1.
       11   -1    0    0    0    0 -0.00000000000E+00 -0.00000000000E+00 -0.35740347158E-01  0.35744000000E-01  0.51099999109E-03 0.  1.
       22    1    1    2    0    0 -0.15034134435E-01 -0.13314553752E-01  0.29560633367E-01  0.35737005818E-01  0.00000000000E+00 0. -1.
  9000001    1    1    2    0    0  0.15034134435E-01  0.13314553752E-01 -0.29560633367E-01  0.35750994182E-01  0.10000000475E-02 0.  1.
</event>
<event>
 4   0  0.2441219E-02  0.9118800E+02  0.7818609E-02  0.1379984E+01
      -11   -1    0    0    0    0  0.00000000000E+00  0.00000000000E+00  0.35740347158E-01  0.35744000000E-01  0.51099999109E-03 0. -1.
       11   -1    0    0    0    0 -0.00000000000E+00 -0.00000000000E+00 -0.35740347158E-01  0.35744000000E-01  0.51099999109E-03 0.  1.
       22    1    1    2    0    0 -0.64173806093E-02  0.34901954864E-02 -0.34982414817E-01  0.35737005818E-01  0.00000000000E+00 0.  1.
  9000001    1    1    2    0    0  0.64173806093E-02 -0.34901954864E-02  0.34982414817E-01  0.35750994182E-01  0.10000000475E-02 0. -1.
</event>
<event>
 4   0  0.2441219E-02  0.9118800E+02  0.7818609E-02  0.1379984E+01
      -11   -1    0    0    0    0  0.00000000000E+00  0.00000000000E+00  0.35740347158E-01  0.35744000000E-01  0.51099999109E-03 0. -1.
       11   -1    0    0    0    0 -0.00000000000E+00 -0.00000000000E+00 -0.35740347158E-01  0.35744000000E-01  0.51099999109E-03 0.  1.
       22    1    1    2    0    0 -0.19648785771E-01 -0.31458477263E-02  0.29684380483E-01  0.35737005818E-01  0.00000000000E+00 0. -1.
  9000001    1    1    2    0    0  0.19648785771E-01  0.31458477263E-02 -0.29684380483E-01  0.35750994182E-01  0.10000000475E-02 0.  1.
</event>
<event>
 4   0  0.2441219E-02  0.9118800E+02  0.7818609E-02  0.1379984E+01
      -11   -1    0    0    0    0  0.00000000000E+00  0.00000000000E+00  0.35740347158E-01  0.35744000000E-01  0.51099999109E-03 0.  1.
       11   -1    0    0    0    0 -0.00000000000E+00 -0.00000000000E+00 -0.35740347158E-01  0.35744000000E-01  0.51099999109E-03 0. -1.
       22    1    1    2    0    0 -0.85267195151E-02 -0.26620591951E-01  0.22265954355E-01  0.35737005818E-01  0.00000000000E+00 0.  1.
  9000001    1    1    2    0    0  0.85267195151E-02  0.26620591951E-01 -0.22265954355E-01  0.35750994182E-01  0.10000000475E-02 0. -1.
</event>
<event>
 4   0  0.2441219E-02  0.9118800E+02  0.7818609E-02  0.1379984E+01
      -11   -1    0    0    0    0  0.00000000000E+00  0.00000000000E+00  0.35740347158E-01  0.35744000000E-01  0.51099999109E-03 0. -1.
       11   -1    0    0    0    0 -0.00000000000E+00 -0.00000000000E+00 -0.35740347158E-01  0.35744000000E-01  0.51099999109E-03 0.  1.
       22    1    1    2    0    0  0.22863781913E-02  0.44455758036E-02 -0.35385631482E-01  0.35737005818E-01  0.00000000000E+00 0.  1.
  9000001    1    1    2    0    0 -0.22863781913E-02 -0.44455758036E-02  0.35385631482E-01  0.35750994182E-01  0.10000000475E-02 0. -1.
</event>
<event>
 4   0  0.2441219E-02  0.9118800E+02  0.7818609E-02  0.1379984E+01
      -11   -1    0    0    0    0  0.00000000000E+00  0.00000000000E+00  0.35740347158E-01  0.35744000000E-01  0.51099999109E-03 0.  1.
       11   -1    0    0    0    0 -0.00000000000E+00 -0.00000000000E+00 -0.35740347158E-01  0.35744000000E-01  0.51099999109E-03 0. -1.
       22    1    1    2    0    0 -0.54731040938E-02  0.96409055900E-03 -0.35302255535E-01  0.35737005818E-01  0.00000000000E+00 0. -1.
  9000001    1    1    2    0    0  0.54731040938E-02 -0.96409055900E-03  0.35302255535E-01  0.35750994182E-01  0.10000000475E-02 0.  1.
</event>
<event>
 4   0  0.2441219E-02  0.9118800E+02  0.7818609E-02  0.1379984E+01
      -11   -1    0    0    0    0  0.00000000000E+00  0.00000000000E+00  0.35740347158E-01  0.35744000000E-01  0.51099999109E-03 0. -1.
       11   -1    0    0    0    0 -0.00000000000E+00 -0.00000000000E+00 -0.35740347158E-01  0.35744000000E-01  0.51099999109E-03 0.  1.
       22    1    1    2    0    0  0.15666281546E-01  0.42804692136E-02 -0.31833611022E-01  0.35737005818E-01  0.00000000000E+00 0.  1.
  9000001    1    1    2    0    0 -0.15666281546E-01 -0.42804692136E-02  0.31833611022E-01  0.35750994182E-01  0.10000000475E-02 0. -1.
</event>
<event>
 4   0  0.2441219E-02  0.9118800E+02  0.7818609E-02  0.1379984E+01
      -11   -1    0    0    0    0  0.00000000000E+00  0.00000000000E+00  0.35740347158E-01  0.35744000000E-01  0.51099999109E-03 0.  1.
       11   -1    0    0    0    0 -0.00000000000E+00 -0.00000000000E+00 -0.35740347158E-01  0.35744000000E-01  0.51099999109E-03 0. -1.
       22    1    1    2    0    0 -0.32720036996E-02  0.16190004138E-01 -0.31690871599E-01  0.35737005818E-01  0.00000000000E+00 0. -1.
  9000001    1    1    2    0    0  0.32720036996E-02 -0.16190004138E-01  0.31690871599E-01  0.35750994182E-01  0.10000000475E-02 0.  1.
</event>
<event>
 4   0  0.2441219E-02  0.9118800E+02  0.7818609E-02  0.1379984E+01
      -11   -1    0    0    0    0  0.00000000000E+00  0.00000000000E+00  0.35740347158E-01  0.35744000000E-01  0.51099999109E-03 0.  1.
       11   -1    0    0    0    0 -0.00000000000E+00 -0.00000000000E+00 -0.35740347158E-01  0.35744000000E-01  0.51099999109E-03 0. -1.
       22    1    1    2    0    0 -0.98527523195E-02  0.35054208710E-02 -0.34172633512E-01  0.35737005818E-01  0.00000000000E+00 0. -1.
  9000001    1    1    2    0    0  0.98527523195E-02 -0.35054208710E-02  0.34172633512E-01  0.35750994182E-01  0.10000000475E-02 0.  1.
</event>
<event>
 4   0  0.2441219E-02  0.9118800E+02  0.7818609E-02  0.1379984E+01
      -11   -1    0    0    0    0  0.00000000000E+00  0.00000000000E+00  0.35740347158E-01  0.35744000000E-01  0.51099999109E-03 0.  1.
       11   -1    0    0    0    0 -0.00000000000E+00 -0.00000000000E+00 -0.35740347158E-01  0.35744000000E-01  0.51099999109E-03 0. -1.
       22    1    1    2    0    0 -0.81822544710E-02  0.33499991820E-01  0.93773580859E-02  0.35737005818E-01  0.00000000000E+00 0.  1.
  9000001    1    1    2    0    0  0.81822544710E-02 -0.33499991820E-01 -0.93773580859E-02  0.35750994182E-01  0.10000000475E-02 0. -1.
</event>
<event>
 4   0  0.2441219E-02  0.9118800E+02  0.7818609E-02  0.1379984E+01
      -11   -1    0    0    0    0  0.00000000000E+00  0.00000000000E+00  0.35740347158E-01  0.35744000000E-01  0.51099999109E-03 0.  1.
       11   -1    0    0    0    0 -0.00000000000E+00 -0.00000000000E+00 -0.35740347158E-01  0.35744000000E-01  0.51099999109E-03 0. -1.
       22    1    1    2    0    0  0.27272862153E-01  0.12037578231E-01 -0.19708406460E-01  0.35737005818E-01  0.00000000000E+00 0. -1.
  9000001    1    1    2    0    0 -0.27272862153E-01 -0.12037578231E-01  0.19708406460E-01  0.35750994182E-01  0.10000000475E-02 0.  1.
</event>
<event>
 4   0  0.2441219E-02  0.9118800E+02  0.7818609E-02  0.1379984E+01
      -11   -1    0    0    0    0  0.00000000000E+00  0.00000000000E+00  0.35740347158E-01  0.35744000000E-01  0.51099999109E-03 0.  1.
       11   -1    0    0    0    0 -0.00000000000E+00 -0.00000000000E+00 -0.35740347158E-01  0.35744000000E-01  0.51099999109E-03 0. -1.
       22    1    1    2    0    0  0.77220972389E-02  0.20638734821E-02 -0.34831641152E-01  0.35737005818E-01  0.00000000000E+00 0. -1.
  9000001    1    1    2    0    0 -0.77220972389E-02 -0.20638734821E-02  0.34831641152E-01  0.35750994182E-01  0.10000000475E-02 0.  1.
</event>
<event>
 4   0  0.2441219E-02  0.9118800E+02  0.7818609E-02  0.1379984E+01
      -11   -1    0    0    0    0  0.00000000000E+00  0.00000000000E+00  0.35740347158E-01  0.35744000000E-01  0.51099999109E-03 0. -1.
       11   -1    0    0    0    0 -0.00000000000E+00 -0.00000000000E+00 -0.35740347158E-01  0.35744000000E-01  0.51099999109E-03 0.  1.
       22    1    1    2    0    0  0.61337442462E-02 -0.25476554426E-02 -0.35114387623E-01  0.35737005818E-01  0.00000000000E+00 0.  1.
  9000001    1    1    2    0    0 -0.61337442462E-02  0.25476554426E-02  0.35114387623E-01  0.35750994182E-01  0.10000000475E-02 0. -1.
</event>
<event>
 4   0  0.2441219E-02  0.9118800E+02  0.7818609E-02  0.1379984E+01
      -11   -1    0    0    0    0  0.00000000000E+00  0.00000000000E+00  0.35740347158E-01  0.35744000000E-01  0.51099999109E-03 0.  1.
       11   -1    0    0    0    0 -0.00000000000E+00 -0.00000000000E+00 -0.35740347158E-01  0.35744000000E-01  0.51099999109E-03 0. -1.
       22    1    1    2    0    0 -0.43259111610E-02 -0.25752358085E-02  0.35380619526E-01  0.35737005818E-01  0.00000000000E+00 0.  1.
  9000001    1    1    2    0    0  0.43259111610E-02  0.25752358085E-02 -0.35380619526E-01  0.35750994182E-01  0.10000000475E-02 0. -1.
</event>
<event>
 4   0  0.2441219E-02  0.9118800E+02  0.7818609E-02  0.1379984E+01
      -11   -1    0    0    0    0  0.00000000000E+00  0.00000000000E+00  0.35740347158E-01  0.35744000000E-01  0.51099999109E-03 0.  1.
       11   -1    0    0    0    0 -0.00000000000E+00 -0.00000000000E+00 -0.35740347158E-01  0.35744000000E-01  0.51099999109E-03 0. -1.
       22    1    1    2    0    0 -0.36807352799E-02  0.11448206639E-01  0.33652998936E-01  0.35737005818E-01  0.00000000000E+00 0.  1.
  9000001    1    1    2    0    0  0.36807352799E-02 -0.11448206639E-01 -0.33652998936E-01  0.35750994182E-01  0.10000000475E-02 0. -1.
</event>
<event>
 4   0  0.2441219E-02  0.9118800E+02  0.7818609E-02  0.1379984E+01
      -11   -1    0    0    0    0  0.00000000000E+00  0.00000000000E+00  0.35740347158E-01  0.35744000000E-01  0.51099999109E-03 0. -1.
       11   -1    0    0    0    0 -0.00000000000E+00 -0.00000000000E+00 -0.35740347158E-01  0.35744000000E-01  0.51099999109E-03 0.  1.
       22    1    1    2    0    0  0.20277188744E-01  0.55554420505E-02  0.28898205224E-01  0.35737005818E-01  0.00000000000E+00 0. -1.
  9000001    1    1    2    0    0 -0.20277188744E-01 -0.55554420505E-02 -0.28898205224E-01  0.35750994182E-01  0.10000000475E-02 0.  1.
</event>
<event>
 4   0  0.2441219E-02  0.9118800E+02  0.7818609E-02  0.1379984E+01
      -11   -1    0    0    0    0  0.00000000000E+00  0.00000000000E+00  0.35740347158E-01  0.35744000000E-01  0.51099999109E-03 0.  1.
       11   -1    0    0    0    0 -0.00000000000E+00 -0.00000000000E+00 -0.35740347158E-01  0.35744000000E-01  0.51099999109E-03 0. -1.
       22    1    1    2    0    0 -0.81949144607E-02 -0.15131350315E-01 -0.31321226022E-01  0.35737005818E-01  0.00000000000E+00 0. -1.
  9000001    1    1    2    0    0  0.81949144607E-02  0.15131350315E-01  0.31321226022E-01  0.35750994182E-01  0.10000000475E-02 0.  1.
</event>
<event>
 4   0  0.2441219E-02  0.9118800E+02  0.7818609E-02  0.1379984E+01
      -11   -1    0    0    0    0  0.00000000000E+00  0.00000000000E+00  0.35740347158E-01  0.35744000000E-01  0.51099999109E-03 0. -1.
       11   -1    0    0    0    0 -0.00000000000E+00 -0.00000000000E+00 -0.35740347158E-01  0.35744000000E-01  0.51099999109E-03 0.  1.
       22    1    1    2    0    0  0.27722361732E-01 -0.85170181645E-02  0.20882160962E-01  0.35737005818E-01  0.00000000000E+00 0. -1.
  9000001    1    1    2    0    0 -0.27722361732E-01  0.85170181645E-02 -0.20882160962E-01  0.35750994182E-01  0.10000000475E-02 0.  1.
</event>
<event>
 4   0  0.2441219E-02  0.9118800E+02  0.7818609E-02  0.1379984E+01
      -11   -1    0    0    0    0  0.00000000000E+00  0.00000000000E+00  0.35740347158E-01  0.35744000000E-01  0.51099999109E-03 0.  1.
       11   -1    0    0    0    0 -0.00000000000E+00 -0.00000000000E+00 -0.35740347158E-01  0.35744000000E-01  0.51099999109E-03 0. -1.
       22    1    1    2    0    0  0.20774594886E-02 -0.33681326131E-02  0.35517227223E-01  0.35737005818E-01  0.00000000000E+00 0.  1.
  9000001    1    1    2    0    0 -0.20774594886E-02  0.33681326131E-02 -0.35517227223E-01  0.35750994182E-01  0.10000000475E-02 0. -1.
</event>
<event>
 4   0  0.2441219E-02  0.9118800E+02  0.7818609E-02  0.1379984E+01
      -11   -1    0    0    0    0  0.00000000000E+00  0.00000000000E+00  0.35740347158E-01  0.35744000000E-01  0.51099999109E-03 0.  1.
       11   -1    0    0    0    0 -0.00000000000E+00 -0.00000000000E+00 -0.35740347158E-01  0.35744000000E-01  0.51099999109E-03 0. -1.
       22    1    1    2    0    0 -0.40448211689E-02  0.81086540829E-03 -0.35498105638E-01  0.35737005818E-01  0.00000000000E+00 0. -1.
  9000001    1    1    2    0    0  0.40448211689E-02 -0.81086540829E-03  0.35498105638E-01  0.35750994182E-01  0.10000000475E-02 0.  1.
</event>
<event>
 4   0  0.2441219E-02  0.9118800E+02  0.7818609E-02  0.1379984E+01
      -11   -1    0    0    0    0  0.00000000000E+00  0.00000000000E+00  0.35740347158E-01  0.35744000000E-01  0.51099999109E-03 0. -1.
       11   -1    0    0    0    0 -0.00000000000E+00 -0.00000000000E+00 -0.35740347158E-01  0.35744000000E-01  0.51099999109E-03 0.  1.
       22    1    1    2    0    0  0.21291320714E-02 -0.77188440968E-02  0.34828434178E-01  0.35737005818E-01  0.00000000000E+00 0. -1.
  9000001    1    1    2    0    0 -0.21291320714E-02  0.77188440968E-02 -0.34828434178E-01  0.35750994182E-01  0.10000000475E-02 0.  1.
</event>
<event>
 4   0  0.2441219E-02  0.9118800E+02  0.7818609E-02  0.1379984E+01
      -11   -1    0    0    0    0  0.00000000000E+00  0.00000000000E+00  0.35740347158E-01  0.35744000000E-01  0.51099999109E-03 0. -1.
       11   -1    0    0    0    0 -0.00000000000E+00 -0.00000000000E+00 -0.35740347158E-01  0.35744000000E-01  0.51099999109E-03 0.  1.
       22    1    1    2    0    0 -0.17082549707E-01  0.65149169541E-02 -0.30706284983E-01  0.35737005818E-01  0.00000000000E+00 0.  1.
  9000001    1    1    2    0    0  0.17082549707E-01 -0.65149169541E-02  0.30706284983E-01  0.35750994182E-01  0.10000000475E-02 0. -1.
</event>
<event>
 4   0  0.2441219E-02  0.9118800E+02  0.7818609E-02  0.1379984E+01
      -11   -1    0    0    0    0  0.00000000000E+00  0.00000000000E+00  0.35740347158E-01  0.35744000000E-01  0.51099999109E-03 0.  1.
       11   -1    0    0    0    0 -0.00000000000E+00 -0.00000000000E+00 -0.35740347158E-01  0.35744000000E-01  0.51099999109E-03 0. -1.
       22    1    1    2    0    0  0.43156842590E-03  0.60366526715E-02 -0.35220819952E-01  0.35737005818E-01  0.00000000000E+00 0. -1.
  9000001    1    1    2    0    0 -0.43156842590E-03 -0.60366526715E-02  0.35220819952E-01  0.35750994182E-01  0.10000000475E-02 0.  1.
</event>
<event>
 4   0  0.2441219E-02  0.9118800E+02  0.7818609E-02  0.1379984E+01
      -11   -1    0    0    0    0  0.00000000000E+00  0.00000000000E+00  0.35740347158E-01  0.35744000000E-01  0.51099999109E-03 0. -1.
       11   -1    0    0    0    0 -0.00000000000E+00 -0.00000000000E+00 -0.35740347158E-01  0.35744000000E-01  0.51099999109E-03 0.  1.
       22    1    1    2    0    0  0.21195884722E-02  0.30206796384E-02  0.35545976201E-01  0.35737005818E-01  0.00000000000E+00 0. -1.
  9000001    1    1    2    0    0 -0.21195884722E-02 -0.30206796384E-02 -0.35545976201E-01  0.35750994182E-01  0.10000000475E-02 0.  1.
</event>
<event>
 4   0  0.2441219E-02  0.9118800E+02  0.7818609E-02  0.1379984E+01
      -11   -1    0    0    0    0  0.00000000000E+00  0.00000000000E+00  0.35740347158E-01  0.35744000000E-01  0.51099999109E-03 0. -1.
       11   -1    0    0    0    0 -0.00000000000E+00 -0.00000000000E+00 -0.35740347158E-01  0.35744000000E-01  0.51099999109E-03 0.  1.
       22    1    1    2    0    0 -0.19762819045E-03  0.13200004324E-01  0.33209251931E-01  0.35737005818E-01  0.00000000000E+00 0. -1.
  9000001    1    1    2    0    0  0.19762819045E-03 -0.13200004324E-01 -0.33209251931E-01  0.35750994182E-01  0.10000000475E-02 0.  1.
</event>
<event>
 4   0  0.2441219E-02  0.9118800E+02  0.7818609E-02  0.1379984E+01
      -11   -1    0    0    0    0  0.00000000000E+00  0.00000000000E+00  0.35740347158E-01  0.35744000000E-01  0.51099999109E-03 0. -1.
       11   -1    0    0    0    0 -0.00000000000E+00 -0.00000000000E+00 -0.35740347158E-01  0.35744000000E-01  0.51099999109E-03 0.  1.
       22    1    1    2    0    0 -0.98991636826E-03 -0.28670124931E-02  0.35608059338E-01  0.35737005818E-01  0.00000000000E+00 0. -1.
  9000001    1    1    2    0    0  0.98991636826E-03  0.28670124931E-02 -0.35608059338E-01  0.35750994182E-01  0.10000000475E-02 0.  1.
</event>
<event>
 4   0  0.2441219E-02  0.9118800E+02  0.7818609E-02  0.1379984E+01
      -11   -1    0    0    0    0  0.00000000000E+00  0.00000000000E+00  0.35740347158E-01  0.35744000000E-01  0.51099999109E-03 0.  1.
       11   -1    0    0    0    0 -0.00000000000E+00 -0.00000000000E+00 -0.35740347158E-01  0.35744000000E-01  0.51099999109E-03 0. -1.
       22    1    1    2    0    0  0.33313992982E-02  0.16065693012E-02  0.35545102316E-01  0.35737005818E-01  0.00000000000E+00 0.  1.
  9000001    1    1    2    0    0 -0.33313992982E-02 -0.16065693012E-02 -0.35545102316E-01  0.35750994182E-01  0.10000000475E-02 0. -1.
</event>
<event>
 4   0  0.2441219E-02  0.9118800E+02  0.7818609E-02  0.1379984E+01
      -11   -1    0    0    0    0  0.00000000000E+00  0.00000000000E+00  0.35740347158E-01  0.35744000000E-01  0.51099999109E-03 0.  1.
       11   -1    0    0    0    0 -0.00000000000E+00 -0.00000000000E+00 -0.35740347158E-01  0.35744000000E-01  0.51099999109E-03 0. -1.
       22    1    1    2    0    0  0.17095675283E-01 -0.20795092265E-01 -0.23503948800E-01  0.35737005818E-01  0.00000000000E+00 0. -1.
  9000001    1    1    2    0    0 -0.17095675283E-01  0.20795092265E-01  0.23503948800E-01  0.35750994182E-01  0.10000000475E-02 0.  1.
</event>
<event>
 4   0  0.2441219E-02  0.9118800E+02  0.7818609E-02  0.1379984E+01
      -11   -1    0    0    0    0  0.00000000000E+00  0.00000000000E+00  0.35740347158E-01  0.35744000000E-01  0.51099999109E-03 0.  1.
       11   -1    0    0    0    0 -0.00000000000E+00 -0.00000000000E+00 -0.35740347158E-01  0.35744000000E-01  0.51099999109E-03 0. -1.
       22    1    1    2    0    0  0.19837575279E-01  0.29276986693E-01  0.51441463896E-02  0.35737005818E-01  0.00000000000E+00 0. -1.
  9000001    1    1    2    0    0 -0.19837575279E-01 -0.29276986693E-01 -0.51441463896E-02  0.35750994182E-01  0.10000000475E-02 0.  1.
</event>
<event>
 4   0  0.2441219E-02  0.9118800E+02  0.7818609E-02  0.1379984E+01
      -11   -1    0    0    0    0  0.00000000000E+00  0.00000000000E+00  0.35740347158E-01  0.35744000000E-01  0.51099999109E-03 0. -1.
       11   -1    0    0    0    0 -0.00000000000E+00 -0.00000000000E+00 -0.35740347158E-01  0.35744000000E-01  0.51099999109E-03 0.  1.
       22    1    1    2    0    0 -0.10658038125E-01  0.98894949903E-02  0.32645638254E-01  0.35737005818E-01  0.00000000000E+00 0. -1.
  9000001    1    1    2    0    0  0.10658038125E-01 -0.98894949903E-02 -0.32645638254E-01  0.35750994182E-01  0.10000000475E-02 0.  1.
</event>
<event>
 4   0  0.2441219E-02  0.9118800E+02  0.7818609E-02  0.1379984E+01
      -11   -1    0    0    0    0  0.00000000000E+00  0.00000000000E+00  0.35740347158E-01  0.35744000000E-01  0.51099999109E-03 0.  1.
       11   -1    0    0    0    0 -0.00000000000E+00 -0.00000000000E+00 -0.35740347158E-01  0.35744000000E-01  0.51099999109E-03 0. -1.
       22    1    1    2    0    0  0.69558590813E-02  0.19659245766E-01 -0.29021779153E-01  0.35737005818E-01  0.00000000000E+00 0. -1.
  9000001    1    1    2    0    0 -0.69558590813E-02 -0.19659245766E-01  0.29021779153E-01  0.35750994182E-01  0.10000000475E-02 0.  1.
</event>
<event>
 4   0  0.2441219E-02  0.9118800E+02  0.7818609E-02  0.1379984E+01
      -11   -1    0    0    0    0  0.00000000000E+00  0.00000000000E+00  0.35740347158E-01  0.35744000000E-01  0.51099999109E-03 0.  1.
       11   -1    0    0    0    0 -0.00000000000E+00 -0.00000000000E+00 -0.35740347158E-01  0.35744000000E-01  0.51099999109E-03 0. -1.
       22    1    1    2    0    0  0.68260347105E-02 -0.22916436234E-02 -0.35004102681E-01  0.35737005818E-01  0.00000000000E+00 0. -1.
  9000001    1    1    2    0    0 -0.68260347105E-02  0.22916436234E-02  0.35004102681E-01  0.35750994182E-01  0.10000000475E-02 0.  1.
</event>
<event>
 4   0  0.2441219E-02  0.9118800E+02  0.7818609E-02  0.1379984E+01
      -11   -1    0    0    0    0  0.00000000000E+00  0.00000000000E+00  0.35740347158E-01  0.35744000000E-01  0.51099999109E-03 0. -1.
       11   -1    0    0    0    0 -0.00000000000E+00 -0.00000000000E+00 -0.35740347158E-01  0.35744000000E-01  0.51099999109E-03 0.  1.
       22    1    1    2    0    0  0.29227138090E-02 -0.86030556321E-02  0.34562678754E-01  0.35737005818E-01  0.00000000000E+00 0. -1.
  9000001    1    1    2    0    0 -0.29227138090E-02  0.86030556321E-02 -0.34562678754E-01  0.35750994182E-01  0.10000000475E-02 0.  1.
</event>
<event>
 4   0  0.2441219E-02  0.9118800E+02  0.7818609E-02  0.1379984E+01
      -11   -1    0    0    0    0  0.00000000000E+00  0.00000000000E+00  0.35740347158E-01  0.35744000000E-01  0.51099999109E-03 0. -1.
       11   -1    0    0    0    0 -0.00000000000E+00 -0.00000000000E+00 -0.35740347158E-01  0.35744000000E-01  0.51099999109E-03 0.  1.
       22    1    1    2    0    0 -0.89587986886E-02 -0.64183087536E-02  0.33995276491E-01  0.35737005818E-01  0.00000000000E+00 0. -1.
  9000001    1    1    2    0    0  0.89587986886E-02  0.64183087536E-02 -0.33995276491E-01  0.35750994182E-01  0.10000000475E-02 0.  1.
</event>
<event>
 4   0  0.2441219E-02  0.9118800E+02  0.7818609E-02  0.1379984E+01
      -11   -1    0    0    0    0  0.00000000000E+00  0.00000000000E+00  0.35740347158E-01  0.35744000000E-01  0.51099999109E-03 0.  1.
       11   -1    0    0    0    0 -0.00000000000E+00 -0.00000000000E+00 -0.35740347158E-01  0.35744000000E-01  0.51099999109E-03 0. -1.
       22    1    1    2    0    0  0.13501322951E-01 -0.32907984281E-01 -0.34514394124E-02  0.35737005818E-01  0.00000000000E+00 0.  1.
  9000001    1    1    2    0    0 -0.13501322951E-01  0.32907984281E-01  0.34514394124E-02  0.35750994182E-01  0.10000000475E-02 0. -1.
</event>
<event>
 4   0  0.2441219E-02  0.9118800E+02  0.7818609E-02  0.1379984E+01
      -11   -1    0    0    0    0  0.00000000000E+00  0.00000000000E+00  0.35740347158E-01  0.35744000000E-01  0.51099999109E-03 0.  1.
       11   -1    0    0    0    0 -0.00000000000E+00 -0.00000000000E+00 -0.35740347158E-01  0.35744000000E-01  0.51099999109E-03 0. -1.
       22    1    1    2    0    0 -0.70177546630E-02  0.39699652644E-02  0.34815572380E-01  0.35737005818E-01  0.00000000000E+00 0.  1.
  9000001    1    1    2    0    0  0.70177546630E-02 -0.39699652644E-02 -0.34815572380E-01  0.35750994182E-01  0.10000000475E-02 0. -1.
</event>
<event>
 4   0  0.2441219E-02  0.9118800E+02  0.7818609E-02  0.1379984E+01
      -11   -1    0    0    0    0  0.00000000000E+00  0.00000000000E+00  0.35740347158E-01  0.35744000000E-01  0.51099999109E-03 0.  1.
       11   -1    0    0    0    0 -0.00000000000E+00 -0.00000000000E+00 -0.35740347158E-01  0.35744000000E-01  0.51099999109E-03 0. -1.
       22    1    1    2    0    0  0.12292264842E-01  0.19328816438E-01  0.27430469647E-01  0.35737005818E-01  0.00000000000E+00 0.  1.
  9000001    1    1    2    0    0 -0.12292264842E-01 -0.19328816438E-01 -0.27430469647E-01  0.35750994182E-01  0.10000000475E-02 0. -1.
</event>
<event>
 4   0  0.2441219E-02  0.9118800E+02  0.7818609E-02  0.1379984E+01
      -11   -1    0    0    0    0  0.00000000000E+00  0.00000000000E+00  0.35740347158E-01  0.35744000000E-01  0.51099999109E-03 0. -1.
       11   -1    0    0    0    0 -0.00000000000E+00 -0.00000000000E+00 -0.35740347158E-01  0.35744000000E-01  0.51099999109E-03 0.  1.
       22    1    1    2    0    0 -0.16868330216E-02  0.26357880434E-02 -0.35599730345E-01  0.35737005818E-01  0.00000000000E+00 0.  1.
  9000001    1    1    2    0    0  0.16868330216E-02 -0.26357880434E-02  0.35599730345E-01  0.35750994182E-01  0.10000000475E-02 0. -1.
</event>
<event>
 4   0  0.2441219E-02  0.9118800E+02  0.7818609E-02  0.1379984E+01
      -11   -1    0    0    0    0  0.00000000000E+00  0.00000000000E+00  0.35740347158E-01  0.35744000000E-01  0.51099999109E-03 0. -1.
       11   -1    0    0    0    0 -0.00000000000E+00 -0.00000000000E+00 -0.35740347158E-01  0.35744000000E-01  0.51099999109E-03 0.  1.
       22    1    1    2    0    0  0.25182464421E-01  0.18134927694E-01  0.17722908003E-01  0.35737005818E-01  0.00000000000E+00 0.  1.
  9000001    1    1    2    0    0 -0.25182464421E-01 -0.18134927694E-01 -0.17722908003E-01  0.35750994182E-01  0.10000000475E-02 0. -1.
</event>
<event>
 4   0  0.2441219E-02  0.9118800E+02  0.7818609E-02  0.1379984E+01
      -11   -1    0    0    0    0  0.00000000000E+00  0.00000000000E+00  0.35740347158E-01  0.35744000000E-01  0.51099999109E-03 0. -1.
       11   -1    0    0    0    0 -0.00000000000E+00 -0.00000000000E+00 -0.35740347158E-01  0.35744000000E-01  0.51099999109E-03 0.  1.
       22    1    1    2    0    0  0.26756847074E-01 -0.16747113620E-01 -0.16755264991E-01  0.35737005818E-01  0.00000000000E+00 0.  1.
  9000001    1    1    2    0    0 -0.26756847074E-01  0.16747113620E-01  0.16755264991E-01  0.35750994182E-01  0.10000000475E-02 0. -1.
</event>
<event>
 4   0  0.2441219E-02  0.9118800E+02  0.7818609E-02  0.1379984E+01
      -11   -1    0    0    0    0  0.00000000000E+00  0.00000000000E+00  0.35740347158E-01  0.35744000000E-01  0.51099999109E-03 0. -1.
       11   -1    0    0    0    0 -0.00000000000E+00 -0.00000000000E+00 -0.35740347158E-01  0.35744000000E-01  0.51099999109E-03 0.  1.
       22    1    1    2    0    0  0.17912142389E-02 -0.27333503861E-01  0.22952226539E-01  0.35737005818E-01  0.00000000000E+00 0. -1.
  9000001    1    1    2    0    0 -0.17912142389E-02  0.27333503861E-01 -0.22952226539E-01  0.35750994182E-01  0.10000000475E-02 0.  1.
</event>
<event>
 4   0  0.2441219E-02  0.9118800E+02  0.7818609E-02  0.1379984E+01
      -11   -1    0    0    0    0  0.00000000000E+00  0.00000000000E+00  0.35740347158E-01  0.35744000000E-01  0.51099999109E-03 0.  1.
       11   -1    0    0    0    0 -0.00000000000E+00 -0.00000000000E+00 -0.35740347158E-01  0.35744000000E-01  0.51099999109E-03 0. -1.
       22    1    1    2    0    0 -0.20722173561E-01  0.26059893661E-01  0.12984877750E-01  0.35737005818E-01  0.00000000000E+00 0.  1.
  9000001    1    1    2    0    0  0.20722173561E-01 -0.26059893661E-01 -0.12984877750E-01  0.35750994182E-01  0.10000000475E-02 0. -1.
</event>
<event>
 4   0  0.2441219E-02  0.9118800E+02  0.7818609E-02  0.1379984E+01
      -11   -1    0    0    0    0  0.00000000000E+00  0.00000000000E+00  0.35740347158E-01  0.35744000000E-01  0.51099999109E-03 0.  1.
       11   -1    0    0    0    0 -0.00000000000E+00 -0.00000000000E+00 -0.35740347158E-01  0.35744000000E-01  0.51099999109E-03 0. -1.
       22    1    1    2    0    0 -0.23685253973E-01  0.17556779960E-01  0.20196579080E-01  0.35737005818E-01  0.00000000000E+00 0.  1.
  9000001    1    1    2    0    0  0.23685253973E-01 -0.17556779960E-01 -0.20196579080E-01  0.35750994182E-01  0.10000000475E-02 0. -1.
</event>
<event>
 4   0  0.2441219E-02  0.9118800E+02  0.7818609E-02  0.1379984E+01
      -11   -1    0    0    0    0  0.00000000000E+00  0.00000000000E+00  0.35740347158E-01  0.35744000000E-01  0.51099999109E-03 0. -1.
       11   -1    0    0    0    0 -0.00000000000E+00 -0.00000000000E+00 -0.35740347158E-01  0.35744000000E-01  0.51099999109E-03 0.  1.
       22    1    1    2    0    0 -0.80705600575E-02 -0.71726911016E-02  0.34066877573E-01  0.35737005818E-01  0.00000000000E+00 0. -1.
  9000001    1    1    2    0    0  0.80705600575E-02  0.71726911016E-02 -0.34066877573E-01  0.35750994182E-01  0.10000000475E-02 0.  1.
</event>
<event>
 4   0  0.2441219E-02  0.9118800E+02  0.7818609E-02  0.1379984E+01
      -11   -1    0    0    0    0  0.00000000000E+00  0.00000000000E+00  0.35740347158E-01  0.35744000000E-01  0.51099999109E-03 0.  1.
       11   -1    0    0    0    0 -0.00000000000E+00 -0.00000000000E+00 -0.35740347158E-01  0.35744000000E-01  0.51099999109E-03 0. -1.
       22    1    1    2    0    0  0.52195139341E-03 -0.31374552744E-02 -0.35595189647E-01  0.35737005818E-01  0.00000000000E+00 0. -1.
  9000001    1    1    2    0    0 -0.52195139341E-03  0.31374552744E-02  0.35595189647E-01  0.35750994182E-01  0.10000000475E-02 0.  1.
</event>
<event>
 4   0  0.2441219E-02  0.9118800E+02  0.7818609E-02  0.1379984E+01
      -11   -1    0    0    0    0  0.00000000000E+00  0.00000000000E+00  0.35740347158E-01  0.35744000000E-01  0.51099999109E-03 0.  1.
       11   -1    0    0    0    0 -0.00000000000E+00 -0.00000000000E+00 -0.35740347158E-01  0.35744000000E-01  0.51099999109E-03 0. -1.
       22    1    1    2    0    0 -0.12358583799E-02  0.63531326587E-02  0.35146037392E-01  0.35737005818E-01  0.00000000000E+00 0.  1.
  9000001    1    1    2    0    0  0.12358583799E-02 -0.63531326587E-02 -0.35146037392E-01  0.35750994182E-01  0.10000000475E-02 0. -1.
</event>
<event>
 4   0  0.2441219E-02  0.9118800E+02  0.7818609E-02  0.1379984E+01
      -11   -1    0    0    0    0  0.00000000000E+00  0.00000000000E+00  0.35740347158E-01  0.35744000000E-01  0.51099999109E-03 0.  1.
       11   -1    0    0    0    0 -0.00000000000E+00 -0.00000000000E+00 -0.35740347158E-01  0.35744000000E-01  0.51099999109E-03 0. -1.
       22    1    1    2    0    0  0.16310004533E-01 -0.22549405971E-01  0.22419670545E-01  0.35737005818E-01  0.00000000000E+00 0.  1.
  9000001    1    1    2    0    0 -0.16310004533E-01  0.22549405971E-01 -0.22419670545E-01  0.35750994182E-01  0.10000000475E-02 0. -1.
</event>
<event>
 4   0  0.2441219E-02  0.9118800E+02  0.7818609E-02  0.1379984E+01
      -11   -1    0    0    0    0  0.00000000000E+00  0.00000000000E+00  0.35740347158E-01  0.35744000000E-01  0.51099999109E-03 0.  1.
       11   -1    0    0    0    0 -0.00000000000E+00 -0.00000000000E+00 -0.35740347158E-01  0.35744000000E-01  0.51099999109E-03 0. -1.
       22    1    1    2    0    0  0.20519027266E-02  0.24035121386E-02 -0.35597000007E-01  0.35737005818E-01  0.00000000000E+00 0. -1.
  9000001    1    1    2    0    0 -0.20519027266E-02 -0.24035121386E-02  0.35597000007E-01  0.35750994182E-01  0.10000000475E-02 0.  1.
</event>
<event>
 4   0  0.2441219E-02  0.9118800E+02  0.7818609E-02  0.1379984E+01
      -11   -1    0    0    0    0  0.00000000000E+00  0.00000000000E+00  0.35740347158E-01  0.35744000000E-01  0.51099999109E-03 0. -1.
       11   -1    0    0    0    0 -0.00000000000E+00 -0.00000000000E+00 -0.35740347158E-01  0.35744000000E-01  0.51099999109E-03 0.  1.
       22    1    1    2    0    0 -0.12429924820E-01  0.11125007851E-01 -0.31604821691E-01  0.35737005818E-01  0.00000000000E+00 0.  1.
  9000001    1    1    2    0    0  0.12429924820E-01 -0.11125007851E-01  0.31604821691E-01  0.35750994182E-01  0.10000000475E-02 0. -1.
</event>
<event>
 4   0  0.2441219E-02  0.9118800E+02  0.7818609E-02  0.1379984E+01
      -11   -1    0    0    0    0  0.00000000000E+00  0.00000000000E+00  0.35740347158E-01  0.35744000000E-01  0.51099999109E-03 0.  1.
       11   -1    0    0    0    0 -0.00000000000E+00 -0.00000000000E+00 -0.35740347158E-01  0.35744000000E-01  0.51099999109E-03 0. -1.
       22    1    1    2    0    0 -0.18792010871E-01 -0.18108079037E-01 -0.24414982815E-01  0.35737005818E-01  0.00000000000E+00 0. -1.
  9000001    1    1    2    0    0  0.18792010871E-01  0.18108079037E-01  0.24414982815E-01  0.35750994182E-01  0.10000000475E-02 0.  1.
</event>
<event>
 4   0  0.2441219E-02  0.9118800E+02  0.7818609E-02  0.1379984E+01
      -11   -1    0    0    0    0  0.00000000000E+00  0.00000000000E+00  0.35740347158E-01  0.35744000000E-01  0.51099999109E-03 0. -1.
       11   -1    0    0    0    0 -0.00000000000E+00 -0.00000000000E+00 -0.35740347158E-01  0.35744000000E-01  0.51099999109E-03 0.  1.
       22    1    1    2    0    0  0.33184877422E-01  0.14257465721E-02 -0.13185778022E-01  0.35737005818E-01  0.00000000000E+00 0.  1.
  9000001    1    1    2    0    0 -0.33184877422E-01 -0.14257465721E-02  0.13185778022E-01  0.35750994182E-01  0.10000000475E-02 0. -1.
</event>
<event>
 4   0  0.2441219E-02  0.9118800E+02  0.7818609E-02  0.1379984E+01
      -11   -1    0    0    0    0  0.00000000000E+00  0.00000000000E+00  0.35740347158E-01  0.35744000000E-01  0.51099999109E-03 0. -1.
       11   -1    0    0    0    0 -0.00000000000E+00 -0.00000000000E+00 -0.35740347158E-01  0.35744000000E-01  0.51099999109E-03 0.  1.
       22    1    1    2    0    0 -0.20209283172E-01  0.12984963125E-02  0.29445413325E-01  0.35737005818E-01  0.00000000000E+00 0. -1.
  9000001    1    1    2    0    0  0.20209283172E-01 -0.12984963125E-02 -0.29445413325E-01  0.35750994182E-01  0.10000000475E-02 0.  1.
</event>
<event>
 4   0  0.2441219E-02  0.9118800E+02  0.7818609E-02  0.1379984E+01
      -11   -1    0    0    0    0  0.00000000000E+00  0.00000000000E+00  0.35740347158E-01  0.35744000000E-01  0.51099999109E-03 0.  1.
       11   -1    0    0    0    0 -0.00000000000E+00 -0.00000000000E+00 -0.35740347158E-01  0.35744000000E-01  0.51099999109E-03 0. -1.
       22    1    1    2    0    0  0.56828814998E-02  0.15288005068E-01  0.31798039936E-01  0.35737005818E-01  0.00000000000E+00 0.  1.
  9000001    1    1    2    0    0 -0.56828814998E-02 -0.15288005068E-01 -0.31798039936E-01  0.35750994182E-01  0.10000000475E-02 0. -1.
</event>
<event>
 4   0  0.2441219E-02  0.9118800E+02  0.7818609E-02  0.1379984E+01
      -11   -1    0    0    0    0  0.00000000000E+00  0.00000000000E+00  0.35740347158E-01  0.35744000000E-01  0.51099999109E-03 0.  1.
       11   -1    0    0    0    0 -0.00000000000E+00 -0.00000000000E+00 -0.35740347158E-01  0.35744000000E-01  0.51099999109E-03 0. -1.
       22    1    1    2    0    0  0.10313354414E-01 -0.35541836953E-04  0.34216473260E-01  0.35737005818E-01  0.00000000000E+00 0.  1.
  9000001    1    1    2    0    0 -0.10313354414E-01  0.35541836953E-04 -0.34216473260E-01  0.35750994182E-01  0.10000000475E-02 0. -1.
</event>
<event>
 4   0  0.2441219E-02  0.9118800E+02  0.7818609E-02  0.1379984E+01
      -11   -1    0    0    0    0  0.00000000000E+00  0.00000000000E+00  0.35740347158E-01  0.35744000000E-01  0.51099999109E-03 0. -1.
       11   -1    0    0    0    0 -0.00000000000E+00 -0.00000000000E+00 -0.35740347158E-01  0.35744000000E-01  0.51099999109E-03 0.  1.
       22    1    1    2    0    0  0.22908119930E-01 -0.25345652923E-01 -0.10485680905E-01  0.35737005818E-01  0.00000000000E+00 0.  1.
  9000001    1    1    2    0    0 -0.22908119930E-01  0.25345652923E-01  0.10485680905E-01  0.35750994182E-01  0.10000000475E-02 0. -1.
</event>
<event>
 4   0  0.2441219E-02  0.9118800E+02  0.7818609E-02  0.1379984E+01
      -11   -1    0    0    0    0  0.00000000000E+00  0.00000000000E+00  0.35740347158E-01  0.35744000000E-01  0.51099999109E-03 0.  1.
       11   -1    0    0    0    0 -0.00000000000E+00 -0.00000000000E+00 -0.35740347158E-01  0.35744000000E-01  0.51099999109E-03 0. -1.
       22    1    1    2    0    0 -0.15672492988E-01  0.44395770532E-02  0.31808752003E-01  0.35737005818E-01  0.00000000000E+00 0.  1.
  9000001    1    1    2    0    0  0.15672492988E-01 -0.44395770532E-02 -0.31808752003E-01  0.35750994182E-01  0.10000000475E-02 0. -1.
</event>
<event>
 4   0  0.2441219E-02  0.9118800E+02  0.7818609E-02  0.1379984E+01
      -11   -1    0    0    0    0  0.00000000000E+00  0.00000000000E+00  0.35740347158E-01  0.35744000000E-01  0.51099999109E-03 0. -1.
       11   -1    0    0    0    0 -0.00000000000E+00 -0.00000000000E+00 -0.35740347158E-01  0.35744000000E-01  0.51099999109E-03 0.  1.
       22    1    1    2    0    0 -0.63170523066E-02  0.44568157717E-02  0.34890761359E-01  0.35737005818E-01  0.00000000000E+00 0. -1.
  9000001    1    1    2    0    0  0.63170523066E-02 -0.44568157717E-02 -0.34890761359E-01  0.35750994182E-01  0.10000000475E-02 0.  1.
</event>
<event>
 4   0  0.2441219E-02  0.9118800E+02  0.7818609E-02  0.1379984E+01
      -11   -1    0    0    0    0  0.00000000000E+00  0.00000000000E+00  0.35740347158E-01  0.35744000000E-01  0.51099999109E-03 0. -1.
       11   -1    0    0    0    0 -0.00000000000E+00 -0.00000000000E+00 -0.35740347158E-01  0.35744000000E-01  0.51099999109E-03 0.  1.
       22    1    1    2    0    0 -0.64291339859E-02 -0.12887257888E-01  0.32706549882E-01  0.35737005818E-01  0.00000000000E+00 0. -1.
  9000001    1    1    2    0    0  0.64291339859E-02  0.12887257888E-01 -0.32706549882E-01  0.35750994182E-01  0.10000000475E-02 0.  1.
</event>
<event>
 4   0  0.2441219E-02  0.9118800E+02  0.7818609E-02  0.1379984E+01
      -11   -1    0    0    0    0  0.00000000000E+00  0.00000000000E+00  0.35740347158E-01  0.35744000000E-01  0.51099999109E-03 0.  1.
       11   -1    0    0    0    0 -0.00000000000E+00 -0.00000000000E+00 -0.35740347158E-01  0.35744000000E-01  0.51099999109E-03 0. -1.
       22    1    1    2    0    0 -0.19280405782E-01  0.13314773189E-01  0.26983631199E-01  0.35737005818E-01  0.00000000000E+00 0.  1.
  9000001    1    1    2    0    0  0.19280405782E-01 -0.13314773189E-01 -0.26983631199E-01  0.35750994182E-01  0.10000000475E-02 0. -1.
</event>
<event>
 4   0  0.2441219E-02  0.9118800E+02  0.7818609E-02  0.1379984E+01
      -11   -1    0    0    0    0  0.00000000000E+00  0.00000000000E+00  0.35740347158E-01  0.35744000000E-01  0.51099999109E-03 0.  1.
       11   -1    0    0    0    0 -0.00000000000E+00 -0.00000000000E+00 -0.35740347158E-01  0.35744000000E-01  0.51099999109E-03 0. -1.
       22    1    1    2    0    0  0.43062054257E-02 -0.23628681619E-02 -0.35397839394E-01  0.35737005818E-01  0.00000000000E+00 0. -1.
  9000001    1    1    2    0    0 -0.43062054257E-02  0.23628681619E-02  0.35397839394E-01  0.35750994182E-01  0.10000000475E-02 0.  1.
</event>
<event>
 4   0  0.2441219E-02  0.9118800E+02  0.7818609E-02  0.1379984E+01
      -11   -1    0    0    0    0  0.00000000000E+00  0.00000000000E+00  0.35740347158E-01  0.35744000000E-01  0.51099999109E-03 0.  1.
       11   -1    0    0    0    0 -0.00000000000E+00 -0.00000000000E+00 -0.35740347158E-01  0.35744000000E-01  0.51099999109E-03 0. -1.
       22    1    1    2    0    0  0.11944610608E-02 -0.70870124165E-02  0.35006872220E-01  0.35737005818E-01  0.00000000000E+00 0.  1.
  9000001    1    1    2    0    0 -0.11944610608E-02  0.70870124165E-02 -0.35006872220E-01  0.35750994182E-01  0.10000000475E-02 0. -1.
</event>
<event>
 4   0  0.2441219E-02  0.9118800E+02  0.7818609E-02  0.1379984E+01
      -11   -1    0    0    0    0  0.00000000000E+00  0.00000000000E+00  0.35740347158E-01  0.35744000000E-01  0.51099999109E-03 0.  1.
       11   -1    0    0    0    0 -0.00000000000E+00 -0.00000000000E+00 -0.35740347158E-01  0.35744000000E-01  0.51099999109E-03 0. -1.
       22    1    1    2    0    0 -0.42599299387E-02 -0.43574028886E-02  0.35213628354E-01  0.35737005818E-01  0.00000000000E+00 0.  1.
  9000001    1    1    2    0    0  0.42599299387E-02  0.43574028886E-02 -0.35213628354E-01  0.35750994182E-01  0.10000000475E-02 0. -1.
</event>
<event>
 4   0  0.2441219E-02  0.9118800E+02  0.7818609E-02  0.1379984E+01
      -11   -1    0    0    0    0  0.00000000000E+00  0.00000000000E+00  0.35740347158E-01  0.35744000000E-01  0.51099999109E-03 0.  1.
       11   -1    0    0    0    0 -0.00000000000E+00 -0.00000000000E+00 -0.35740347158E-01  0.35744000000E-01  0.51099999109E-03 0. -1.
       22    1    1    2    0    0 -0.47799300388E-02  0.37795500748E-02 -0.35213645862E-01  0.35737005818E-01  0.00000000000E+00 0. -1.
  9000001    1    1    2    0    0  0.47799300388E-02 -0.37795500748E-02  0.35213645862E-01  0.35750994182E-01  0.10000000475E-02 0.  1.
</event>
<event>
 4   0  0.2441219E-02  0.9118800E+02  0.7818609E-02  0.1379984E+01
      -11   -1    0    0    0    0  0.00000000000E+00  0.00000000000E+00  0.35740347158E-01  0.35744000000E-01  0.51099999109E-03 0.  1.
       11   -1    0    0    0    0 -0.00000000000E+00 -0.00000000000E+00 -0.35740347158E-01  0.35744000000E-01  0.51099999109E-03 0. -1.
       22    1    1    2    0    0 -0.18231622232E-01 -0.28626733498E-02 -0.30603049471E-01  0.35737005818E-01  0.00000000000E+00 0. -1.
  9000001    1    1    2    0    0  0.18231622232E-01  0.28626733498E-02  0.30603049471E-01  0.35750994182E-01  0.10000000475E-02 0.  1.
</event>
<event>
 4   0  0.2441219E-02  0.9118800E+02  0.7818609E-02  0.1379984E+01
      -11   -1    0    0    0    0  0.00000000000E+00  0.00000000000E+00  0.35740347158E-01  0.35744000000E-01  0.51099999109E-03 0. -1.
       11   -1    0    0    0    0 -0.00000000000E+00 -0.00000000000E+00 -0.35740347158E-01  0.35744000000E-01  0.51099999109E-03 0.  1.
       22    1    1    2    0    0 -0.17629197393E-01 -0.29661265085E-01  0.93034583734E-02  0.35737005818E-01  0.00000000000E+00 0. -1.
  9000001    1    1    2    0    0  0.17629197393E-01  0.29661265085E-01 -0.93034583734E-02  0.35750994182E-01  0.10000000475E-02 0.  1.
</event>
<event>
 4   0  0.2441219E-02  0.9118800E+02  0.7818609E-02  0.1379984E+01
      -11   -1    0    0    0    0  0.00000000000E+00  0.00000000000E+00  0.35740347158E-01  0.35744000000E-01  0.51099999109E-03 0. -1.
       11   -1    0    0    0    0 -0.00000000000E+00 -0.00000000000E+00 -0.35740347158E-01  0.35744000000E-01  0.51099999109E-03 0.  1.
       22    1    1    2    0    0  0.24432438331E-01  0.25570093458E-01  0.51341856805E-02  0.35737005818E-01  0.00000000000E+00 0. -1.
  9000001    1    1    2    0    0 -0.24432438331E-01 -0.25570093458E-01 -0.51341856805E-02  0.35750994182E-01  0.10000000475E-02 0.  1.
</event>
<event>
 4   0  0.2441219E-02  0.9118800E+02  0.7818609E-02  0.1379984E+01
      -11   -1    0    0    0    0  0.00000000000E+00  0.00000000000E+00  0.35740347158E-01  0.35744000000E-01  0.51099999109E-03 0. -1.
       11   -1    0    0    0    0 -0.00000000000E+00 -0.00000000000E+00 -0.35740347158E-01  0.35744000000E-01  0.51099999109E-03 0.  1.
       22    1    1    2    0    0  0.34946332316E-01 -0.30176911370E-02 -0.68396624742E-02  0.35737005818E-01  0.00000000000E+00 0.  1.
  9000001    1    1    2    0    0 -0.34946332316E-01  0.30176911370E-02  0.68396624742E-02  0.35750994182E-01  0.10000000475E-02 0. -1.
</event>
<event>
 4   0  0.2441219E-02  0.9118800E+02  0.7818609E-02  0.1379984E+01
      -11   -1    0    0    0    0  0.00000000000E+00  0.00000000000E+00  0.35740347158E-01  0.35744000000E-01  0.51099999109E-03 0.  1.
       11   -1    0    0    0    0 -0.00000000000E+00 -0.00000000000E+00 -0.35740347158E-01  0.35744000000E-01  0.51099999109E-03 0. -1.
       22    1    1    2    0    0  0.51776566588E-02 -0.24452722306E-02  0.35275290220E-01  0.35737005818E-01  0.00000000000E+00 0.  1.
  9000001    1    1    2    0    0 -0.51776566588E-02  0.24452722306E-02 -0.35275290220E-01  0.35750994182E-01  0.10000000475E-02 0. -1.
</event>
<event>
 4   0  0.2441219E-02  0.9118800E+02  0.7818609E-02  0.1379984E+01
      -11   -1    0    0    0    0  0.00000000000E+00  0.00000000000E+00  0.35740347158E-01  0.35744000000E-01  0.51099999109E-03 0. -1.
       11   -1    0    0    0    0 -0.00000000000E+00 -0.00000000000E+00 -0.35740347158E-01  0.35744000000E-01  0.51099999109E-03 0.  1.
       22    1    1    2    0    0 -0.50771129712E-02  0.18490141175E-02 -0.35326161064E-01  0.35737005818E-01  0.00000000000E+00 0.  1.
  9000001    1    1    2    0    0  0.50771129712E-02 -0.18490141175E-02  0.35326161064E-01  0.35750994182E-01  0.10000000475E-02 0. -1.
</event>
<event>
 4   0  0.2441219E-02  0.9118800E+02  0.7818609E-02  0.1379984E+01
      -11   -1    0    0    0    0  0.00000000000E+00  0.00000000000E+00  0.35740347158E-01  0.35744000000E-01  0.51099999109E-03 0. -1.
       11   -1    0    0    0    0 -0.00000000000E+00 -0.00000000000E+00 -0.35740347158E-01  0.35744000000E-01  0.51099999109E-03 0. -1.
       22    1    1    2    0    0  0.23435238678E-02  0.31479721513E-02  0.35520863617E-01  0.35737005818E-01  0.00000000000E+00 0. -1.
  9000001    1    1    2    0    0 -0.23435238678E-02 -0.31479721513E-02 -0.35520863617E-01  0.35750994182E-01  0.10000000475E-02 0. -1.
</event>
<event>
 4   0  0.2441219E-02  0.9118800E+02  0.7818609E-02  0.1379984E+01
      -11   -1    0    0    0    0  0.00000000000E+00  0.00000000000E+00  0.35740347158E-01  0.35744000000E-01  0.51099999109E-03 0.  1.
       11   -1    0    0    0    0 -0.00000000000E+00 -0.00000000000E+00 -0.35740347158E-01  0.35744000000E-01  0.51099999109E-03 0. -1.
       22    1    1    2    0    0 -0.17639809968E-01  0.14125291605E-01  0.27684776073E-01  0.35737005818E-01  0.00000000000E+00 0.  1.
  9000001    1    1    2    0    0  0.17639809968E-01 -0.14125291605E-01 -0.27684776073E-01  0.35750994182E-01  0.10000000475E-02 0. -1.
</event>
<event>
 4   0  0.2441219E-02  0.9118800E+02  0.7818609E-02  0.1379984E+01
      -11   -1    0    0    0    0  0.00000000000E+00  0.00000000000E+00  0.35740347158E-01  0.35744000000E-01  0.51099999109E-03 0. -1.
       11   -1    0    0    0    0 -0.00000000000E+00 -0.00000000000E+00 -0.35740347158E-01  0.35744000000E-01  0.51099999109E-03 0.  1.
       22    1    1    2    0    0 -0.24776724676E-02  0.28089149008E-02 -0.35540184596E-01  0.35737005818E-01  0.00000000000E+00 0.  1.
  9000001    1    1    2    0    0  0.24776724676E-02 -0.28089149008E-02  0.35540184596E-01  0.35750994182E-01  0.10000000475E-02 0. -1.
</event>
<event>
 4   0  0.2441219E-02  0.9118800E+02  0.7818609E-02  0.1379984E+01
      -11   -1    0    0    0    0  0.00000000000E+00  0.00000000000E+00  0.35740347158E-01  0.35744000000E-01  0.51099999109E-03 0. -1.
       11   -1    0    0    0    0 -0.00000000000E+00 -0.00000000000E+00 -0.35740347158E-01  0.35744000000E-01  0.51099999109E-03 0.  1.
       22    1    1    2    0    0 -0.33749695528E-01 -0.30007920580E-02 -0.11361640888E-01  0.35737005818E-01  0.00000000000E+00 0.  1.
  9000001    1    1    2    0    0  0.33749695528E-01  0.30007920580E-02  0.11361640888E-01  0.35750994182E-01  0.10000000475E-02 0. -1.
</event>
<event>
 4   0  0.2441219E-02  0.9118800E+02  0.7818609E-02  0.1379984E+01
      -11   -1    0    0    0    0  0.00000000000E+00  0.00000000000E+00  0.35740347158E-01  0.35744000000E-01  0.51099999109E-03 0.  1.
       11   -1    0    0    0    0 -0.00000000000E+00 -0.00000000000E+00 -0.35740347158E-01  0.35744000000E-01  0.51099999109E-03 0. -1.
       22    1    1    2    0    0 -0.23991470751E-02 -0.40022130848E-02 -0.35431059377E-01  0.35737005818E-01  0.00000000000E+00 0. -1.
  9000001    1    1    2    0    0  0.23991470751E-02  0.40022130848E-02  0.35431059377E-01  0.35750994182E-01  0.10000000475E-02 0.  1.
</event>
<event>
 4   0  0.2441219E-02  0.9118800E+02  0.7818609E-02  0.1379984E+01
      -11   -1    0    0    0    0  0.00000000000E+00  0.00000000000E+00  0.35740347158E-01  0.35744000000E-01  0.51099999109E-03 0. -1.
       11   -1    0    0    0    0 -0.00000000000E+00 -0.00000000000E+00 -0.35740347158E-01  0.35744000000E-01  0.51099999109E-03 0.  1.
       22    1    1    2    0    0 -0.16498428014E-02  0.10033839262E-01 -0.34259796749E-01  0.35737005818E-01  0.00000000000E+00 0.  1.
  9000001    1    1    2    0    0  0.16498428014E-02 -0.10033839262E-01  0.34259796749E-01  0.35750994182E-01  0.10000000475E-02 0. -1.
</event>
<event>
 4   0  0.2441219E-02  0.9118800E+02  0.7818609E-02  0.1379984E+01
      -11   -1    0    0    0    0  0.00000000000E+00  0.00000000000E+00  0.35740347158E-01  0.35744000000E-01  0.51099999109E-03 0. -1.
       11   -1    0    0    0    0 -0.00000000000E+00 -0.00000000000E+00 -0.35740347158E-01  0.35744000000E-01  0.51099999109E-03 0.  1.
       22    1    1    2    0    0 -0.97665606731E-02 -0.55378090825E-02  0.33927577987E-01  0.35737005818E-01  0.00000000000E+00 0. -1.
  9000001    1    1    2    0    0  0.97665606731E-02  0.55378090825E-02 -0.33927577987E-01  0.35750994182E-01  0.10000000475E-02 0.  1.
</event>
<event>
 4   0  0.2441219E-02  0.9118800E+02  0.7818609E-02  0.1379984E+01
      -11   -1    0    0    0    0  0.00000000000E+00  0.00000000000E+00  0.35740347158E-01  0.35744000000E-01  0.51099999109E-03 0. -1.
       11   -1    0    0    0    0 -0.00000000000E+00 -0.00000000000E+00 -0.35740347158E-01  0.35744000000E-01  0.51099999109E-03 0.  1.
       22    1    1    2    0    0  0.42092005429E-02 -0.79648458720E-02 -0.34582906846E-01  0.35737005818E-01  0.00000000000E+00 0.  1.
  9000001    1    1    2    0    0 -0.42092005429E-02  0.79648458720E-02  0.34582906846E-01  0.35750994182E-01  0.10000000475E-02 0. -1.
</event>
<event>
 4   0  0.2441219E-02  0.9118800E+02  0.7818609E-02  0.1379984E+01
      -11   -1    0    0    0    0  0.00000000000E+00  0.00000000000E+00  0.35740347158E-01  0.35744000000E-01  0.51099999109E-03 0. -1.
       11   -1    0    0    0    0 -0.00000000000E+00 -0.00000000000E+00 -0.35740347158E-01  0.35744000000E-01  0.51099999109E-03 0.  1.
       22    1    1    2    0    0  0.12421510920E-01  0.11761789977E-02 -0.33488150954E-01  0.35737005818E-01  0.00000000000E+00 0.  1.
  9000001    1    1    2    0    0 -0.12421510920E-01 -0.11761789977E-02  0.33488150954E-01  0.35750994182E-01  0.10000000475E-02 0. -1.
</event>
<event>
 4   0  0.2441219E-02  0.9118800E+02  0.7818609E-02  0.1379984E+01
      -11   -1    0    0    0    0  0.00000000000E+00  0.00000000000E+00  0.35740347158E-01  0.35744000000E-01  0.51099999109E-03 0.  1.
       11   -1    0    0    0    0 -0.00000000000E+00 -0.00000000000E+00 -0.35740347158E-01  0.35744000000E-01  0.51099999109E-03 0. -1.
       22    1    1    2    0    0 -0.12201338901E-01 -0.67761943645E-02 -0.32898998523E-01  0.35737005818E-01  0.00000000000E+00 0. -1.
  9000001    1    1    2    0    0  0.12201338901E-01  0.67761943645E-02  0.32898998523E-01  0.35750994182E-01  0.10000000475E-02 0.  1.
</event>
<event>
 4   0  0.2441219E-02  0.9118800E+02  0.7818609E-02  0.1379984E+01
      -11   -1    0    0    0    0  0.00000000000E+00  0.00000000000E+00  0.35740347158E-01  0.35744000000E-01  0.51099999109E-03 0.  1.
       11   -1    0    0    0    0 -0.00000000000E+00 -0.00000000000E+00 -0.35740347158E-01  0.35744000000E-01  0.51099999109E-03 0. -1.
       22    1    1    2    0    0  0.85331806527E-02  0.56990715518E-03 -0.34698611192E-01  0.35737005818E-01  0.00000000000E+00 0. -1.
  9000001    1    1    2    0    0 -0.85331806527E-02 -0.56990715518E-03  0.34698611192E-01  0.35750994182E-01  0.10000000475E-02 0.  1.
</event>
<event>
 4   0  0.2441219E-02  0.9118800E+02  0.7818609E-02  0.1379984E+01
      -11   -1    0    0    0    0  0.00000000000E+00  0.00000000000E+00  0.35740347158E-01  0.35744000000E-01  0.51099999109E-03 0.  1.
       11   -1    0    0    0    0 -0.00000000000E+00 -0.00000000000E+00 -0.35740347158E-01  0.35744000000E-01  0.51099999109E-03 0. -1.
       22    1    1    2    0    0  0.62331417188E-02  0.13308934137E-02  0.35164047718E-01  0.35737005818E-01  0.00000000000E+00 0.  1.
  9000001    1    1    2    0    0 -0.62331417188E-02 -0.13308934137E-02 -0.35164047718E-01  0.35750994182E-01  0.10000000475E-02 0. -1.
</event>
<event>
 4   0  0.2441219E-02  0.9118800E+02  0.7818609E-02  0.1379984E+01
      -11   -1    0    0    0    0  0.00000000000E+00  0.00000000000E+00  0.35740347158E-01  0.35744000000E-01  0.51099999109E-03 0.  1.
       11   -1    0    0    0    0 -0.00000000000E+00 -0.00000000000E+00 -0.35740347158E-01  0.35744000000E-01  0.51099999109E-03 0. -1.
       22    1    1    2    0    0 -0.88545356851E-03 -0.54734136709E-02  0.35304267442E-01  0.35737005818E-01  0.00000000000E+00 0.  1.
  9000001    1    1    2    0    0  0.88545356851E-03  0.54734136709E-02 -0.35304267442E-01  0.35750994182E-01  0.10000000475E-02 0. -1.
</event>
<event>
 4   0  0.2441219E-02  0.9118800E+02  0.7818609E-02  0.1379984E+01
      -11   -1    0    0    0    0  0.00000000000E+00  0.00000000000E+00  0.35740347158E-01  0.35744000000E-01  0.51099999109E-03 0. -1.
       11   -1    0    0    0    0 -0.00000000000E+00 -0.00000000000E+00 -0.35740347158E-01  0.35744000000E-01  0.51099999109E-03 0.  1.
       22    1    1    2    0    0 -0.12757443201E-01  0.72546808570E-02 -0.32584518310E-01  0.35737005818E-01  0.00000000000E+00 0.  1.
  9000001    1    1    2    0    0  0.12757443201E-01 -0.72546808570E-02  0.32584518310E-01  0.35750994182E-01  0.10000000475E-02 0. -1.
</event>
<event>
 4   0  0.2441219E-02  0.9118800E+02  0.7818609E-02  0.1379984E+01
      -11   -1    0    0    0    0  0.00000000000E+00  0.00000000000E+00  0.35740347158E-01  0.35744000000E-01  0.51099999109E-03 0.  1.
       11   -1    0    0    0    0 -0.00000000000E+00 -0.00000000000E+00 -0.35740347158E-01  0.35744000000E-01  0.51099999109E-03 0. -1.
       22    1    1    2    0    0 -0.48760061275E-02 -0.30158999143E-02  0.35274105188E-01  0.35737005818E-01  0.00000000000E+00 0.  1.
  9000001    1    1    2    0    0  0.48760061275E-02  0.30158999143E-02 -0.35274105188E-01  0.35750994182E-01  0.10000000475E-02 0. -1.
</event>
<event>
 4   0  0.2441219E-02  0.9118800E+02  0.7818609E-02  0.1379984E+01
      -11   -1    0    0    0    0  0.00000000000E+00  0.00000000000E+00  0.35740347158E-01  0.35744000000E-01  0.51099999109E-03 0. -1.
       11   -1    0    0    0    0 -0.00000000000E+00 -0.00000000000E+00 -0.35740347158E-01  0.35744000000E-01  0.51099999109E-03 0.  1.
       22    1    1    2    0    0 -0.16065912535E-02 -0.11333480664E-01  0.33854167623E-01  0.35737005818E-01  0.00000000000E+00 0. -1.
  9000001    1    1    2    0    0  0.16065912535E-02  0.11333480664E-01 -0.33854167623E-01  0.35750994182E-01  0.10000000475E-02 0.  1.
</event>
<event>
 4   0  0.2441219E-02  0.9118800E+02  0.7818609E-02  0.1379984E+01
      -11   -1    0    0    0    0  0.00000000000E+00  0.00000000000E+00  0.35740347158E-01  0.35744000000E-01  0.51099999109E-03 0.  1.
       11   -1    0    0    0    0 -0.00000000000E+00 -0.00000000000E+00 -0.35740347158E-01  0.35744000000E-01  0.51099999109E-03 0. -1.
       22    1    1    2    0    0  0.34273961072E-02 -0.20235074955E-01  0.29256252022E-01  0.35737005818E-01  0.00000000000E+00 0.  1.
  9000001    1    1    2    0    0 -0.34273961072E-02  0.20235074955E-01 -0.29256252022E-01  0.35750994182E-01  0.10000000475E-02 0. -1.
</event>
<event>
 4   0  0.2441219E-02  0.9118800E+02  0.7818609E-02  0.1379984E+01
      -11   -1    0    0    0    0  0.00000000000E+00  0.00000000000E+00  0.35740347158E-01  0.35744000000E-01  0.51099999109E-03 0.  1.
       11   -1    0    0    0    0 -0.00000000000E+00 -0.00000000000E+00 -0.35740347158E-01  0.35744000000E-01  0.51099999109E-03 0. -1.
       22    1    1    2    0    0 -0.11228912819E-03  0.26094927040E-01  0.24416710647E-01  0.35737005818E-01  0.00000000000E+00 0.  1.
  9000001    1    1    2    0    0  0.11228912819E-03 -0.26094927040E-01 -0.24416710647E-01  0.35750994182E-01  0.10000000475E-02 0. -1.
</event>
<event>
 4   0  0.2441219E-02  0.9118800E+02  0.7818609E-02  0.1379984E+01
      -11   -1    0    0    0    0  0.00000000000E+00  0.00000000000E+00  0.35740347158E-01  0.35744000000E-01  0.51099999109E-03 0. -1.
       11   -1    0    0    0    0 -0.00000000000E+00 -0.00000000000E+00 -0.35740347158E-01  0.35744000000E-01  0.51099999109E-03 0.  1.
       22    1    1    2    0    0  0.10303386326E-01  0.30360309900E-03  0.34218147820E-01  0.35737005818E-01  0.00000000000E+00 0. -1.
  9000001    1    1    2    0    0 -0.10303386326E-01 -0.30360309900E-03 -0.34218147820E-01  0.35750994182E-01  0.10000000475E-02 0.  1.
</event>
<event>
 4   0  0.2441219E-02  0.9118800E+02  0.7818609E-02  0.1379984E+01
      -11   -1    0    0    0    0  0.00000000000E+00  0.00000000000E+00  0.35740347158E-01  0.35744000000E-01  0.51099999109E-03 0.  1.
       11   -1    0    0    0    0 -0.00000000000E+00 -0.00000000000E+00 -0.35740347158E-01  0.35744000000E-01  0.51099999109E-03 0. -1.
       22    1    1    2    0    0 -0.11257357335E-02  0.35881129009E-02  0.35538595213E-01  0.35737005818E-01  0.00000000000E+00 0.  1.
  9000001    1    1    2    0    0  0.11257357335E-02 -0.35881129009E-02 -0.35538595213E-01  0.35750994182E-01  0.10000000475E-02 0. -1.
</event>
<event>
 4   0  0.2441219E-02  0.9118800E+02  0.7818609E-02  0.1379984E+01
      -11   -1    0    0    0    0  0.00000000000E+00  0.00000000000E+00  0.35740347158E-01  0.35744000000E-01  0.51099999109E-03 0. -1.
       11   -1    0    0    0    0 -0.00000000000E+00 -0.00000000000E+00 -0.35740347158E-01  0.35744000000E-01  0.51099999109E-03 0.  1.
       22    1    1    2    0    0  0.75796955235E-03 -0.48472894397E-02  0.35398627828E-01  0.35737005818E-01  0.00000000000E+00 0. -1.
  9000001    1    1    2    0    0 -0.75796955235E-03  0.48472894397E-02 -0.35398627828E-01  0.35750994182E-01  0.10000000475E-02 0.  1.
</event>
<event>
 4   0  0.2441219E-02  0.9118800E+02  0.7818609E-02  0.1379984E+01
      -11   -1    0    0    0    0  0.00000000000E+00  0.00000000000E+00  0.35740347158E-01  0.35744000000E-01  0.51099999109E-03 0. -1.
       11   -1    0    0    0    0 -0.00000000000E+00 -0.00000000000E+00 -0.35740347158E-01  0.35744000000E-01  0.51099999109E-03 0.  1.
       22    1    1    2    0    0 -0.51636505232E-02  0.20204166167E-02 -0.35304223754E-01  0.35737005818E-01  0.00000000000E+00 0.  1.
  9000001    1    1    2    0    0  0.51636505232E-02 -0.20204166167E-02  0.35304223754E-01  0.35750994182E-01  0.10000000475E-02 0. -1.
</event>
<event>
 4   0  0.2441219E-02  0.9118800E+02  0.7818609E-02  0.1379984E+01
      -11   -1    0    0    0    0  0.00000000000E+00  0.00000000000E+00  0.35740347158E-01  0.35744000000E-01  0.51099999109E-03 0. -1.
       11   -1    0    0    0    0 -0.00000000000E+00 -0.00000000000E+00 -0.35740347158E-01  0.35744000000E-01  0.51099999109E-03 0.  1.
       22    1    1    2    0    0 -0.75491800050E-02 -0.34762406530E-02 -0.34757146273E-01  0.35737005818E-01  0.00000000000E+00 0.  1.
  9000001    1    1    2    0    0  0.75491800050E-02  0.34762406530E-02  0.34757146273E-01  0.35750994182E-01  0.10000000475E-02 0. -1.
</event>
<event>
 4   0  0.2441219E-02  0.9118800E+02  0.7818609E-02  0.1379984E+01
      -11   -1    0    0    0    0  0.00000000000E+00  0.00000000000E+00  0.35740347158E-01  0.35744000000E-01  0.51099999109E-03 0. -1.
       11   -1    0    0    0    0 -0.00000000000E+00 -0.00000000000E+00 -0.35740347158E-01  0.35744000000E-01  0.51099999109E-03 0.  1.
       22    1    1    2    0    0  0.34422136664E-02 -0.40490142618E-02  0.35339641105E-01  0.35737005818E-01  0.00000000000E+00 0. -1.
  9000001    1    1    2    0    0 -0.34422136664E-02  0.40490142618E-02 -0.35339641105E-01  0.35750994182E-01  0.10000000475E-02 0.  1.
</event>
<event>
 4   0  0.2441219E-02  0.9118800E+02  0.7818609E-02  0.1379984E+01
      -11   -1    0    0    0    0  0.00000000000E+00  0.00000000000E+00  0.35740347158E-01  0.35744000000E-01  0.51099999109E-03 0. -1.
       11   -1    0    0    0    0 -0.00000000000E+00 -0.00000000000E+00 -0.35740347158E-01  0.35744000000E-01  0.51099999109E-03 0.  1.
       22    1    1    2    0    0 -0.26824231061E-01 -0.15311748527E-01 -0.17976222347E-01  0.35737005818E-01  0.00000000000E+00 0.  1.
  9000001    1    1    2    0    0  0.26824231061E-01  0.15311748527E-01  0.17976222347E-01  0.35750994182E-01  0.10000000475E-02 0. -1.
</event>
<event>
 4   0  0.2441219E-02  0.9118800E+02  0.7818609E-02  0.1379984E+01
      -11   -1    0    0    0    0  0.00000000000E+00  0.00000000000E+00  0.35740347158E-01  0.35744000000E-01  0.51099999109E-03 0.  1.
       11   -1    0    0    0    0 -0.00000000000E+00 -0.00000000000E+00 -0.35740347158E-01  0.35744000000E-01  0.51099999109E-03 0. -1.
       22    1    1    2    0    0 -0.15510082845E-01 -0.90387437403E-02  0.30901003651E-01  0.35737005818E-01  0.00000000000E+00 0.  1.
  9000001    1    1    2    0    0  0.15510082845E-01  0.90387437403E-02 -0.30901003651E-01  0.35750994182E-01  0.10000000475E-02 0. -1.
</event>
<event>
 4   0  0.2441219E-02  0.9118800E+02  0.7818609E-02  0.1379984E+01
      -11   -1    0    0    0    0  0.00000000000E+00  0.00000000000E+00  0.35740347158E-01  0.35744000000E-01  0.51099999109E-03 0.  1.
       11   -1    0    0    0    0 -0.00000000000E+00 -0.00000000000E+00 -0.35740347158E-01  0.35744000000E-01  0.51099999109E-03 0. -1.
       22    1    1    2    0    0 -0.34369173356E-01 -0.37798521377E-02 -0.90336164126E-02  0.35737005818E-01  0.00000000000E+00 0. -1.
  9000001    1    1    2    0    0  0.34369173356E-01  0.37798521377E-02  0.90336164126E-02  0.35750994182E-01  0.10000000475E-02 0.  1.
</event>
<event>
 4   0  0.2441219E-02  0.9118800E+02  0.7818609E-02  0.1379984E+01
      -11   -1    0    0    0    0  0.00000000000E+00  0.00000000000E+00  0.35740347158E-01  0.35744000000E-01  0.51099999109E-03 0.  1.
       11   -1    0    0    0    0 -0.00000000000E+00 -0.00000000000E+00 -0.35740347158E-01  0.35744000000E-01  0.51099999109E-03 0. -1.
       22    1    1    2    0    0  0.16019583863E-02  0.26054909204E-02  0.35605880571E-01  0.35737005818E-01  0.00000000000E+00 0.  1.
  9000001    1    1    2    0    0 -0.16019583863E-02 -0.26054909204E-02 -0.35605880571E-01  0.35750994182E-01  0.10000000475E-02 0. -1.
</event>
<event>
 4   0  0.2441219E-02  0.9118800E+02  0.7818609E-02  0.1379984E+01
      -11   -1    0    0    0    0  0.00000000000E+00  0.00000000000E+00  0.35740347158E-01  0.35744000000E-01  0.51099999109E-03 0. -1.
       11   -1    0    0    0    0 -0.00000000000E+00 -0.00000000000E+00 -0.35740347158E-01  0.35744000000E-01  0.51099999109E-03 0.  1.
       22    1    1    2    0    0  0.87254955818E-02 -0.25727319623E-01 -0.23218620474E-01  0.35737005818E-01  0.00000000000E+00 0.  1.
  9000001    1    1    2    0    0 -0.87254955818E-02  0.25727319623E-01  0.23218620474E-01  0.35750994182E-01  0.10000000475E-02 0. -1.
</event>
<event>
 4   0  0.2441219E-02  0.9118800E+02  0.7818609E-02  0.1379984E+01
      -11   -1    0    0    0    0  0.00000000000E+00  0.00000000000E+00  0.35740347158E-01  0.35744000000E-01  0.51099999109E-03 0. -1.
       11   -1    0    0    0    0 -0.00000000000E+00 -0.00000000000E+00 -0.35740347158E-01  0.35744000000E-01  0.51099999109E-03 0.  1.
       22    1    1    2    0    0  0.28142588750E-02 -0.14685190482E-02 -0.35595743898E-01  0.35737005818E-01  0.00000000000E+00 0.  1.
  9000001    1    1    2    0    0 -0.28142588750E-02  0.14685190482E-02  0.35595743898E-01  0.35750994182E-01  0.10000000475E-02 0. -1.
</event>
<event>
 4   0  0.2441219E-02  0.9118800E+02  0.7818609E-02  0.1379984E+01
      -11   -1    0    0    0    0  0.00000000000E+00  0.00000000000E+00  0.35740347158E-01  0.35744000000E-01  0.51099999109E-03 0. -1.
       11   -1    0    0    0    0 -0.00000000000E+00 -0.00000000000E+00 -0.35740347158E-01  0.35744000000E-01  0.51099999109E-03 0.  1.
       22    1    1    2    0    0  0.43783477175E-02 -0.27803870232E-02 -0.35358635496E-01  0.35737005818E-01  0.00000000000E+00 0.  1.
  9000001    1    1    2    0    0 -0.43783477175E-02  0.27803870232E-02  0.35358635496E-01  0.35750994182E-01  0.10000000475E-02 0. -1.
</event>
<event>
 4   0  0.2441219E-02  0.9118800E+02  0.7818609E-02  0.1379984E+01
      -11   -1    0    0    0    0  0.00000000000E+00  0.00000000000E+00  0.35740347158E-01  0.35744000000E-01  0.51099999109E-03 0.  1.
       11   -1    0    0    0    0 -0.00000000000E+00 -0.00000000000E+00 -0.35740347158E-01  0.35744000000E-01  0.51099999109E-03 0. -1.
       22    1    1    2    0    0  0.13555283501E-02 -0.40108256794E-02  0.35485340708E-01  0.35737005818E-01  0.00000000000E+00 0.  1.
  9000001    1    1    2    0    0 -0.13555283501E-02  0.40108256794E-02 -0.35485340708E-01  0.35750994182E-01  0.10000000475E-02 0. -1.
</event>
<event>
 4   0  0.2441219E-02  0.9118800E+02  0.7818609E-02  0.1379984E+01
      -11   -1    0    0    0    0  0.00000000000E+00  0.00000000000E+00  0.35740347158E-01  0.35744000000E-01  0.51099999109E-03 0. -1.
       11   -1    0    0    0    0 -0.00000000000E+00 -0.00000000000E+00 -0.35740347158E-01  0.35744000000E-01  0.51099999109E-03 0.  1.
       22    1    1    2    0    0  0.10256249206E-01 -0.27883860026E-01  0.19860344588E-01  0.35737005818E-01  0.00000000000E+00 0. -1.
  9000001    1    1    2    0    0 -0.10256249206E-01  0.27883860026E-01 -0.19860344588E-01  0.35750994182E-01  0.10000000475E-02 0.  1.
</event>
<event>
 4   0  0.2441219E-02  0.9118800E+02  0.7818609E-02  0.1379984E+01
      -11   -1    0    0    0    0  0.00000000000E+00  0.00000000000E+00  0.35740347158E-01  0.35744000000E-01  0.51099999109E-03 0.  1.
       11   -1    0    0    0    0 -0.00000000000E+00 -0.00000000000E+00 -0.35740347158E-01  0.35744000000E-01  0.51099999109E-03 0. -1.
       22    1    1    2    0    0 -0.92770974333E-02  0.36259902067E-02  0.34320857261E-01  0.35737005818E-01  0.00000000000E+00 0.  1.
  9000001    1    1    2    0    0  0.92770974333E-02 -0.36259902067E-02 -0.34320857261E-01  0.35750994182E-01  0.10000000475E-02 0. -1.
</event>
<event>
 4   0  0.2441219E-02  0.9118800E+02  0.7818609E-02  0.1379984E+01
      -11   -1    0    0    0    0  0.00000000000E+00  0.00000000000E+00  0.35740347158E-01  0.35744000000E-01  0.51099999109E-03 0. -1.
       11   -1    0    0    0    0 -0.00000000000E+00 -0.00000000000E+00 -0.35740347158E-01  0.35744000000E-01  0.51099999109E-03 0.  1.
       22    1    1    2    0    0 -0.28132341077E-01  0.60314706025E-02 -0.21197318999E-01  0.35737005818E-01  0.00000000000E+00 0.  1.
  9000001    1    1    2    0    0  0.28132341077E-01 -0.60314706025E-02  0.21197318999E-01  0.35750994182E-01  0.10000000475E-02 0. -1.
</event>
<event>
 4   0  0.2441219E-02  0.9118800E+02  0.7818609E-02  0.1379984E+01
      -11   -1    0    0    0    0  0.00000000000E+00  0.00000000000E+00  0.35740347158E-01  0.35744000000E-01  0.51099999109E-03 0.  1.
       11   -1    0    0    0    0 -0.00000000000E+00 -0.00000000000E+00 -0.35740347158E-01  0.35744000000E-01  0.51099999109E-03 0. -1.
       22    1    1    2    0    0 -0.50247198480E-02 -0.45029775174E-02 -0.35094286840E-01  0.35737005818E-01  0.00000000000E+00 0. -1.
  9000001    1    1    2    0    0  0.50247198480E-02  0.45029775174E-02  0.35094286840E-01  0.35750994182E-01  0.10000000475E-02 0.  1.
</event>
<event>
 4   0  0.2441219E-02  0.9118800E+02  0.7818609E-02  0.1379984E+01
      -11   -1    0    0    0    0  0.00000000000E+00  0.00000000000E+00  0.35740347158E-01  0.35744000000E-01  0.51099999109E-03 0.  1.
       11   -1    0    0    0    0 -0.00000000000E+00 -0.00000000000E+00 -0.35740347158E-01  0.35744000000E-01  0.51099999109E-03 0. -1.
       22    1    1    2    0    0 -0.10039833302E-01  0.10377374487E-01 -0.32690142717E-01  0.35737005818E-01  0.00000000000E+00 0. -1.
  9000001    1    1    2    0    0  0.10039833302E-01 -0.10377374487E-01  0.32690142717E-01  0.35750994182E-01  0.10000000475E-02 0.  1.
</event>
<event>
 4   0  0.2441219E-02  0.9118800E+02  0.7818609E-02  0.1379984E+01
      -11   -1    0    0    0    0  0.00000000000E+00  0.00000000000E+00  0.35740347158E-01  0.35744000000E-01  0.51099999109E-03 0. -1.
       11   -1    0    0    0    0 -0.00000000000E+00 -0.00000000000E+00 -0.35740347158E-01  0.35744000000E-01  0.51099999109E-03 0.  1.
       22    1    1    2    0    0  0.35648769242E-02  0.19009689423E-02  0.35507908337E-01  0.35737005818E-01  0.00000000000E+00 0. -1.
  9000001    1    1    2    0    0 -0.35648769242E-02 -0.19009689423E-02 -0.35507908337E-01  0.35750994182E-01  0.10000000475E-02 0.  1.
</event>
<event>
 4   0  0.2441219E-02  0.9118800E+02  0.7818609E-02  0.1379984E+01
      -11   -1    0    0    0    0  0.00000000000E+00  0.00000000000E+00  0.35740347158E-01  0.35744000000E-01  0.51099999109E-03 0. -1.
       11   -1    0    0    0    0 -0.00000000000E+00 -0.00000000000E+00 -0.35740347158E-01  0.35744000000E-01  0.51099999109E-03 0.  1.
       22    1    1    2    0    0  0.42557344229E-02 -0.29925062344E-02 -0.35356289622E-01  0.35737005818E-01  0.00000000000E+00 0.  1.
  9000001    1    1    2    0    0 -0.42557344229E-02  0.29925062344E-02  0.35356289622E-01  0.35750994182E-01  0.10000000475E-02 0. -1.
</event>
<event>
 4   0  0.2441219E-02  0.9118800E+02  0.7818609E-02  0.1379984E+01
      -11   -1    0    0    0    0  0.00000000000E+00  0.00000000000E+00  0.35740347158E-01  0.35744000000E-01  0.51099999109E-03 0.  1.
       11   -1    0    0    0    0 -0.00000000000E+00 -0.00000000000E+00 -0.35740347158E-01  0.35744000000E-01  0.51099999109E-03 0. -1.
       22    1    1    2    0    0 -0.11721106293E-01  0.59369948936E-02  0.33234038932E-01  0.35737005818E-01  0.00000000000E+00 0.  1.
  9000001    1    1    2    0    0  0.11721106293E-01 -0.59369948936E-02 -0.33234038932E-01  0.35750994182E-01  0.10000000475E-02 0. -1.
</event>
<event>
 4   0  0.2441219E-02  0.9118800E+02  0.7818609E-02  0.1379984E+01
      -11   -1    0    0    0    0  0.00000000000E+00  0.00000000000E+00  0.35740347158E-01  0.35744000000E-01  0.51099999109E-03 0.  1.
       11   -1    0    0    0    0 -0.00000000000E+00 -0.00000000000E+00 -0.35740347158E-01  0.35744000000E-01  0.51099999109E-03 0. -1.
       22    1    1    2    0    0 -0.35301025793E-02 -0.19066145345E-01 -0.30019228210E-01  0.35737005818E-01  0.00000000000E+00 0. -1.
  9000001    1    1    2    0    0  0.35301025793E-02  0.19066145345E-01  0.30019228210E-01  0.35750994182E-01  0.10000000475E-02 0.  1.
</event>
<event>
 4   0  0.2441219E-02  0.9118800E+02  0.7818609E-02  0.1379984E+01
      -11   -1    0    0    0    0  0.00000000000E+00  0.00000000000E+00  0.35740347158E-01  0.35744000000E-01  0.51099999109E-03 0.  1.
       11   -1    0    0    0    0 -0.00000000000E+00 -0.00000000000E+00 -0.35740347158E-01  0.35744000000E-01  0.51099999109E-03 0. -1.
       22    1    1    2    0    0  0.70356899941E-02 -0.12279824570E-01 -0.32815218416E-01  0.35737005818E-01  0.00000000000E+00 0. -1.
  9000001    1    1    2    0    0 -0.70356899941E-02  0.12279824570E-01  0.32815218416E-01  0.35750994182E-01  0.10000000475E-02 0.  1.
</event>
<event>
 4   0  0.2441219E-02  0.9118800E+02  0.7818609E-02  0.1379984E+01
      -11   -1    0    0    0    0  0.00000000000E+00  0.00000000000E+00  0.35740347158E-01  0.35744000000E-01  0.51099999109E-03 0. -1.
       11   -1    0    0    0    0 -0.00000000000E+00 -0.00000000000E+00 -0.35740347158E-01  0.35744000000E-01  0.51099999109E-03 0.  1.
       22    1    1    2    0    0 -0.27554293996E-02 -0.62645727126E-02  0.35075580144E-01  0.35737005818E-01  0.00000000000E+00 0. -1.
  9000001    1    1    2    0    0  0.27554293996E-02  0.62645727126E-02 -0.35075580144E-01  0.35750994182E-01  0.10000000475E-02 0.  1.
</event>
<event>
 4   0  0.2441219E-02  0.9118800E+02  0.7818609E-02  0.1379984E+01
      -11   -1    0    0    0    0  0.00000000000E+00  0.00000000000E+00  0.35740347158E-01  0.35744000000E-01  0.51099999109E-03 0.  1.
       11   -1    0    0    0    0 -0.00000000000E+00 -0.00000000000E+00 -0.35740347158E-01  0.35744000000E-01  0.51099999109E-03 0. -1.
       22    1    1    2    0    0 -0.74541135181E-02  0.33411747719E-01  0.10257918448E-01  0.35737005818E-01  0.00000000000E+00 0.  1.
  9000001    1    1    2    0    0  0.74541135181E-02 -0.33411747719E-01 -0.10257918448E-01  0.35750994182E-01  0.10000000475E-02 0. -1.
</event>
<event>
 4   0  0.2441219E-02  0.9118800E+02  0.7818609E-02  0.1379984E+01
      -11   -1    0    0    0    0  0.00000000000E+00  0.00000000000E+00  0.35740347158E-01  0.35744000000E-01  0.51099999109E-03 0.  1.
       11   -1    0    0    0    0 -0.00000000000E+00 -0.00000000000E+00 -0.35740347158E-01  0.35744000000E-01  0.51099999109E-03 0. -1.
       22    1    1    2    0    0 -0.29954506980E-02  0.23073339991E-02  0.35536418922E-01  0.35737005818E-01  0.00000000000E+00 0.  1.
  9000001    1    1    2    0    0  0.29954506980E-02 -0.23073339991E-02 -0.35536418922E-01  0.35750994182E-01  0.10000000475E-02 0. -1.
</event>
<event>
 4   0  0.2441219E-02  0.9118800E+02  0.7818609E-02  0.1379984E+01
      -11   -1    0    0    0    0  0.00000000000E+00  0.00000000000E+00  0.35740347158E-01  0.35744000000E-01  0.51099999109E-03 0.  1.
       11   -1    0    0    0    0 -0.00000000000E+00 -0.00000000000E+00 -0.35740347158E-01  0.35744000000E-01  0.51099999109E-03 0. -1.
       22    1    1    2    0    0  0.15159287659E-01 -0.58698766868E-02  0.31825683500E-01  0.35737005818E-01  0.00000000000E+00 0.  1.
  9000001    1    1    2    0    0 -0.15159287659E-01  0.58698766868E-02 -0.31825683500E-01  0.35750994182E-01  0.10000000475E-02 0. -1.
</event>
<event>
 4   0  0.2441219E-02  0.9118800E+02  0.7818609E-02  0.1379984E+01
      -11   -1    0    0    0    0  0.00000000000E+00  0.00000000000E+00  0.35740347158E-01  0.35744000000E-01  0.51099999109E-03 0.  1.
       11   -1    0    0    0    0 -0.00000000000E+00 -0.00000000000E+00 -0.35740347158E-01  0.35744000000E-01  0.51099999109E-03 0. -1.
       22    1    1    2    0    0  0.10703750493E-01  0.11691778731E-01 -0.32029137053E-01  0.35737005818E-01  0.00000000000E+00 0. -1.
  9000001    1    1    2    0    0 -0.10703750493E-01 -0.11691778731E-01  0.32029137053E-01  0.35750994182E-01  0.10000000475E-02 0.  1.
</event>
<event>
 4   0  0.2441219E-02  0.9118800E+02  0.7818609E-02  0.1379984E+01
      -11   -1    0    0    0    0  0.00000000000E+00  0.00000000000E+00  0.35740347158E-01  0.35744000000E-01  0.51099999109E-03 0. -1.
       11   -1    0    0    0    0 -0.00000000000E+00 -0.00000000000E+00 -0.35740347158E-01  0.35744000000E-01  0.51099999109E-03 0.  1.
       22    1    1    2    0    0 -0.43663740571E-02 -0.21972223767E-02  0.35401138065E-01  0.35737005818E-01  0.00000000000E+00 0. -1.
  9000001    1    1    2    0    0  0.43663740571E-02  0.21972223767E-02 -0.35401138065E-01  0.35750994182E-01  0.10000000475E-02 0.  1.
</event>
<event>
 4   0  0.2441219E-02  0.9118800E+02  0.7818609E-02  0.1379984E+01
      -11   -1    0    0    0    0  0.00000000000E+00  0.00000000000E+00  0.35740347158E-01  0.35744000000E-01  0.51099999109E-03 0.  1.
       11   -1    0    0    0    0 -0.00000000000E+00 -0.00000000000E+00 -0.35740347158E-01  0.35744000000E-01  0.51099999109E-03 0. -1.
       22    1    1    2    0    0  0.43882806105E-02 -0.25178245897E-01  0.24978641110E-01  0.35737005818E-01  0.00000000000E+00 0.  1.
  9000001    1    1    2    0    0 -0.43882806105E-02  0.25178245897E-01 -0.24978641110E-01  0.35750994182E-01  0.10000000475E-02 0. -1.
</event>
<event>
 4   0  0.2441219E-02  0.9118800E+02  0.7818609E-02  0.1379984E+01
      -11   -1    0    0    0    0  0.00000000000E+00  0.00000000000E+00  0.35740347158E-01  0.35744000000E-01  0.51099999109E-03 0. -1.
       11   -1    0    0    0    0 -0.00000000000E+00 -0.00000000000E+00 -0.35740347158E-01  0.35744000000E-01  0.51099999109E-03 0.  1.
       22    1    1    2    0    0  0.52608992655E-02  0.36813936729E-02 -0.35155424395E-01  0.35737005818E-01  0.00000000000E+00 0.  1.
  9000001    1    1    2    0    0 -0.52608992655E-02 -0.36813936729E-02  0.35155424395E-01  0.35750994182E-01  0.10000000475E-02 0. -1.
</event>
<event>
 4   0  0.2441219E-02  0.9118800E+02  0.7818609E-02  0.1379984E+01
      -11   -1    0    0    0    0  0.00000000000E+00  0.00000000000E+00  0.35740347158E-01  0.35744000000E-01  0.51099999109E-03 0.  1.
       11   -1    0    0    0    0 -0.00000000000E+00 -0.00000000000E+00 -0.35740347158E-01  0.35744000000E-01  0.51099999109E-03 0. -1.
       22    1    1    2    0    0  0.11458281194E-03 -0.94501484171E-02 -0.34464694262E-01  0.35737005818E-01  0.00000000000E+00 0. -1.
  9000001    1    1    2    0    0 -0.11458281194E-03  0.94501484171E-02  0.34464694262E-01  0.35750994182E-01  0.10000000475E-02 0.  1.
</event>
<event>
 4   0  0.2441219E-02  0.9118800E+02  0.7818609E-02  0.1379984E+01
      -11   -1    0    0    0    0  0.00000000000E+00  0.00000000000E+00  0.35740347158E-01  0.35744000000E-01  0.51099999109E-03 0.  1.
       11   -1    0    0    0    0 -0.00000000000E+00 -0.00000000000E+00 -0.35740347158E-01  0.35744000000E-01  0.51099999109E-03 0. -1.
       22    1    1    2    0    0 -0.19742454078E-02 -0.10777559606E-01 -0.34015880833E-01  0.35737005818E-01  0.00000000000E+00 0. -1.
  9000001    1    1    2    0    0  0.19742454078E-02  0.10777559606E-01  0.34015880833E-01  0.35750994182E-01  0.10000000475E-02 0.  1.
</event>
<event>
 4   0  0.2441219E-02  0.9118800E+02  0.7818609E-02  0.1379984E+01
      -11   -1    0    0    0    0  0.00000000000E+00  0.00000000000E+00  0.35740347158E-01  0.35744000000E-01  0.51099999109E-03 0.  1.
       11   -1    0    0    0    0 -0.00000000000E+00 -0.00000000000E+00 -0.35740347158E-01  0.35744000000E-01  0.51099999109E-03 0. -1.
       22    1    1    2    0    0  0.23405550648E-02 -0.20730652949E-02  0.35599968921E-01  0.35737005818E-01  0.00000000000E+00 0.  1.
  9000001    1    1    2    0    0 -0.23405550648E-02  0.20730652949E-02 -0.35599968921E-01  0.35750994182E-01  0.10000000475E-02 0. -1.
</event>
<event>
 4   0  0.2441219E-02  0.9118800E+02  0.7818609E-02  0.1379984E+01
      -11   -1    0    0    0    0  0.00000000000E+00  0.00000000000E+00  0.35740347158E-01  0.35744000000E-01  0.51099999109E-03 0. -1.
       11   -1    0    0    0    0 -0.00000000000E+00 -0.00000000000E+00 -0.35740347158E-01  0.35744000000E-01  0.51099999109E-03 0.  1.
       22    1    1    2    0    0  0.16356882937E-01 -0.98126429411E-02  0.30220820703E-01  0.35737005818E-01  0.00000000000E+00 0. -1.
  9000001    1    1    2    0    0 -0.16356882937E-01  0.98126429411E-02 -0.30220820703E-01  0.35750994182E-01  0.10000000475E-02 0.  1.
</event>
<event>
 4   0  0.2441219E-02  0.9118800E+02  0.7818609E-02  0.1379984E+01
      -11   -1    0    0    0    0  0.00000000000E+00  0.00000000000E+00  0.35740347158E-01  0.35744000000E-01  0.51099999109E-03 0.  1.
       11   -1    0    0    0    0 -0.00000000000E+00 -0.00000000000E+00 -0.35740347158E-01  0.35744000000E-01  0.51099999109E-03 0. -1.
       22    1    1    2    0    0  0.12266649767E-01  0.23766243736E-02  0.33481555295E-01  0.35737005818E-01  0.00000000000E+00 0.  1.
  9000001    1    1    2    0    0 -0.12266649767E-01 -0.23766243736E-02 -0.33481555295E-01  0.35750994182E-01  0.10000000475E-02 0. -1.
</event>
<event>
 4   0  0.2441219E-02  0.9118800E+02  0.7818609E-02  0.1379984E+01
      -11   -1    0    0    0    0  0.00000000000E+00  0.00000000000E+00  0.35740347158E-01  0.35744000000E-01  0.51099999109E-03 0. -1.
       11   -1    0    0    0    0 -0.00000000000E+00 -0.00000000000E+00 -0.35740347158E-01  0.35744000000E-01  0.51099999109E-03 0.  1.
       22    1    1    2    0    0  0.32743396351E-01 -0.11587224898E-01 -0.84106955385E-02  0.35737005818E-01  0.00000000000E+00 0.  1.
  9000001    1    1    2    0    0 -0.32743396351E-01  0.11587224898E-01  0.84106955385E-02  0.35750994182E-01  0.10000000475E-02 0. -1.
</event>
<event>
 4   0  0.2441219E-02  0.9118800E+02  0.7818609E-02  0.1379984E+01
      -11   -1    0    0    0    0  0.00000000000E+00  0.00000000000E+00  0.35740347158E-01  0.35744000000E-01  0.51099999109E-03 0. -1.
       11   -1    0    0    0    0 -0.00000000000E+00 -0.00000000000E+00 -0.35740347158E-01  0.35744000000E-01  0.51099999109E-03 0.  1.
       22    1    1    2    0    0 -0.27265316489E-02  0.18891539354E-02  0.35582730466E-01  0.35737005818E-01  0.00000000000E+00 0. -1.
  9000001    1    1    2    0    0  0.27265316489E-02 -0.18891539354E-02 -0.35582730466E-01  0.35750994182E-01  0.10000000475E-02 0.  1.
</event>
<event>
 4   0  0.2441219E-02  0.9118800E+02  0.7818609E-02  0.1379984E+01
      -11   -1    0    0    0    0  0.00000000000E+00  0.00000000000E+00  0.35740347158E-01  0.35744000000E-01  0.51099999109E-03 0. -1.
       11   -1    0    0    0    0 -0.00000000000E+00 -0.00000000000E+00 -0.35740347158E-01  0.35744000000E-01  0.51099999109E-03 0.  1.
       22    1    1    2    0    0 -0.19723990705E-02  0.27581280823E-01 -0.22638820087E-01  0.35737005818E-01  0.00000000000E+00 0.  1.
  9000001    1    1    2    0    0  0.19723990705E-02 -0.27581280823E-01  0.22638820087E-01  0.35750994182E-01  0.10000000475E-02 0. -1.
</event>
<event>
 4   0  0.2441219E-02  0.9118800E+02  0.7818609E-02  0.1379984E+01
      -11   -1    0    0    0    0  0.00000000000E+00  0.00000000000E+00  0.35740347158E-01  0.35744000000E-01  0.51099999109E-03 0. -1.
       11   -1    0    0    0    0 -0.00000000000E+00 -0.00000000000E+00 -0.35740347158E-01  0.35744000000E-01  0.51099999109E-03 0.  1.
       22    1    1    2    0    0  0.25466854533E-02 -0.27699607133E-01 -0.22436125841E-01  0.35737005818E-01  0.00000000000E+00 0.  1.
  9000001    1    1    2    0    0 -0.25466854533E-02  0.27699607133E-01  0.22436125841E-01  0.35750994182E-01  0.10000000475E-02 0. -1.
</event>
<event>
 4   0  0.2441219E-02  0.9118800E+02  0.7818609E-02  0.1379984E+01
      -11   -1    0    0    0    0  0.00000000000E+00  0.00000000000E+00  0.35740347158E-01  0.35744000000E-01  0.51099999109E-03 0.  1.
       11   -1    0    0    0    0 -0.00000000000E+00 -0.00000000000E+00 -0.35740347158E-01  0.35744000000E-01  0.51099999109E-03 0. -1.
       22    1    1    2    0    0 -0.35126437476E-01 -0.53104458299E-02 -0.38815126183E-02  0.35737005818E-01  0.00000000000E+00 0.  1.
  9000001    1    1    2    0    0  0.35126437476E-01  0.53104458299E-02  0.38815126183E-02  0.35750994182E-01  0.10000000475E-02 0. -1.
</event>
<event>
 4   0  0.2441219E-02  0.9118800E+02  0.7818609E-02  0.1379984E+01
      -11   -1    0    0    0    0  0.00000000000E+00  0.00000000000E+00  0.35740347158E-01  0.35744000000E-01  0.51099999109E-03 0.  1.
       11   -1    0    0    0    0 -0.00000000000E+00 -0.00000000000E+00 -0.35740347158E-01  0.35744000000E-01  0.51099999109E-03 0. -1.
       22    1    1    2    0    0  0.25936382282E-01  0.15795275265E-01 -0.18840035518E-01  0.35737005818E-01  0.00000000000E+00 0. -1.
  9000001    1    1    2    0    0 -0.25936382282E-01 -0.15795275265E-01  0.18840035518E-01  0.35750994182E-01  0.10000000475E-02 0.  1.
</event>
<event>
 4   0  0.2441219E-02  0.9118800E+02  0.7818609E-02  0.1379984E+01
      -11   -1    0    0    0    0  0.00000000000E+00  0.00000000000E+00  0.35740347158E-01  0.35744000000E-01  0.51099999109E-03 0.  1.
       11   -1    0    0    0    0 -0.00000000000E+00 -0.00000000000E+00 -0.35740347158E-01  0.35744000000E-01  0.51099999109E-03 0. -1.
       22    1    1    2    0    0  0.20224417564E-01  0.93313590148E-02 -0.27946954360E-01  0.35737005818E-01  0.00000000000E+00 0. -1.
  9000001    1    1    2    0    0 -0.20224417564E-01 -0.93313590148E-02  0.27946954360E-01  0.35750994182E-01  0.10000000475E-02 0.  1.
</event>
<event>
 4   0  0.2441219E-02  0.9118800E+02  0.7818609E-02  0.1379984E+01
      -11   -1    0    0    0    0  0.00000000000E+00  0.00000000000E+00  0.35740347158E-01  0.35744000000E-01  0.51099999109E-03 0. -1.
       11   -1    0    0    0    0 -0.00000000000E+00 -0.00000000000E+00 -0.35740347158E-01  0.35744000000E-01  0.51099999109E-03 0.  1.
       22    1    1    2    0    0  0.37914845702E-02  0.49683130781E-03 -0.35531836264E-01  0.35737005818E-01  0.00000000000E+00 0.  1.
  9000001    1    1    2    0    0 -0.37914845702E-02 -0.49683130781E-03  0.35531836264E-01  0.35750994182E-01  0.10000000475E-02 0. -1.
</event>
<event>
 4   0  0.2441219E-02  0.9118800E+02  0.7818609E-02  0.1379984E+01
      -11   -1    0    0    0    0  0.00000000000E+00  0.00000000000E+00  0.35740347158E-01  0.35744000000E-01  0.51099999109E-03 0.  1.
       11   -1    0    0    0    0 -0.00000000000E+00 -0.00000000000E+00 -0.35740347158E-01  0.35744000000E-01  0.51099999109E-03 0. -1.
       22    1    1    2    0    0 -0.29706990970E-02  0.24581331141E-01 -0.25769491479E-01  0.35737005818E-01  0.00000000000E+00 0. -1.
  9000001    1    1    2    0    0  0.29706990970E-02 -0.24581331141E-01  0.25769491479E-01  0.35750994182E-01  0.10000000475E-02 0.  1.
</event>
<event>
 4   0  0.2441219E-02  0.9118800E+02  0.7818609E-02  0.1379984E+01
      -11   -1    0    0    0    0  0.00000000000E+00  0.00000000000E+00  0.35740347158E-01  0.35744000000E-01  0.51099999109E-03 0.  1.
       11   -1    0    0    0    0 -0.00000000000E+00 -0.00000000000E+00 -0.35740347158E-01  0.35744000000E-01  0.51099999109E-03 0. -1.
       22    1    1    2    0    0  0.53904195352E-02  0.23390208018E-02 -0.35250616219E-01  0.35737005818E-01  0.00000000000E+00 0. -1.
  9000001    1    1    2    0    0 -0.53904195352E-02 -0.23390208018E-02  0.35250616219E-01  0.35750994182E-01  0.10000000475E-02 0.  1.
</event>
<event>
 4   0  0.2441219E-02  0.9118800E+02  0.7818609E-02  0.1379984E+01
      -11   -1    0    0    0    0  0.00000000000E+00  0.00000000000E+00  0.35740347158E-01  0.35744000000E-01  0.51099999109E-03 0. -1.
       11   -1    0    0    0    0 -0.00000000000E+00 -0.00000000000E+00 -0.35740347158E-01  0.35744000000E-01  0.51099999109E-03 0.  1.
       22    1    1    2    0    0  0.22375457414E-01  0.19383007895E-01  0.20019278093E-01  0.35737005818E-01  0.00000000000E+00 0. -1.
  9000001    1    1    2    0    0 -0.22375457414E-01 -0.19383007895E-01 -0.20019278093E-01  0.35750994182E-01  0.10000000475E-02 0.  1.
</event>
<event>
 4   0  0.2441219E-02  0.9118800E+02  0.7818609E-02  0.1379984E+01
      -11   -1    0    0    0    0  0.00000000000E+00  0.00000000000E+00  0.35740347158E-01  0.35744000000E-01  0.51099999109E-03 0.  1.
       11   -1    0    0    0    0 -0.00000000000E+00 -0.00000000000E+00 -0.35740347158E-01  0.35744000000E-01  0.51099999109E-03 0. -1.
       22    1    1    2    0    0 -0.26814453115E-02 -0.27937849585E-02  0.35526584434E-01  0.35737005818E-01  0.00000000000E+00 0.  1.
  9000001    1    1    2    0    0  0.26814453115E-02  0.27937849585E-02 -0.35526584434E-01  0.35750994182E-01  0.10000000475E-02 0. -1.
</event>
<event>
 4   0  0.2441219E-02  0.9118800E+02  0.7818609E-02  0.1379984E+01
      -11   -1    0    0    0    0  0.00000000000E+00  0.00000000000E+00  0.35740347158E-01  0.35744000000E-01  0.51099999109E-03 0.  1.
       11   -1    0    0    0    0 -0.00000000000E+00 -0.00000000000E+00 -0.35740347158E-01  0.35744000000E-01  0.51099999109E-03 0. -1.
       22    1    1    2    0    0 -0.86489917080E-03  0.33971884057E-02 -0.35564654437E-01  0.35737005818E-01  0.00000000000E+00 0. -1.
  9000001    1    1    2    0    0  0.86489917080E-03 -0.33971884057E-02  0.35564654437E-01  0.35750994182E-01  0.10000000475E-02 0.  1.
</event>
<event>
 4   0  0.2441219E-02  0.9118800E+02  0.7818609E-02  0.1379984E+01
      -11   -1    0    0    0    0  0.00000000000E+00  0.00000000000E+00  0.35740347158E-01  0.35744000000E-01  0.51099999109E-03 0.  1.
       11   -1    0    0    0    0 -0.00000000000E+00 -0.00000000000E+00 -0.35740347158E-01  0.35744000000E-01  0.51099999109E-03 0. -1.
       22    1    1    2    0    0  0.11312483644E-01  0.89642283216E-02  0.32692566575E-01  0.35737005818E-01  0.00000000000E+00 0.  1.
  9000001    1    1    2    0    0 -0.11312483644E-01 -0.89642283216E-02 -0.32692566575E-01  0.35750994182E-01  0.10000000475E-02 0. -1.
</event>
<event>
 4   0  0.2441219E-02  0.9118800E+02  0.7818609E-02  0.1379984E+01
      -11   -1    0    0    0    0  0.00000000000E+00  0.00000000000E+00  0.35740347158E-01  0.35744000000E-01  0.51099999109E-03 0. -1.
       11   -1    0    0    0    0 -0.00000000000E+00 -0.00000000000E+00 -0.35740347158E-01  0.35744000000E-01  0.51099999109E-03 0.  1.
       22    1    1    2    0    0  0.27361690595E-01 -0.14701796954E-01  0.17672822044E-01  0.35737005818E-01  0.00000000000E+00 0. -1.
  9000001    1    1    2    0    0 -0.27361690595E-01  0.14701796954E-01 -0.17672822044E-01  0.35750994182E-01  0.10000000475E-02 0.  1.
</event>
<event>
 4   0  0.2441219E-02  0.9118800E+02  0.7818609E-02  0.1379984E+01
      -11   -1    0    0    0    0  0.00000000000E+00  0.00000000000E+00  0.35740347158E-01  0.35744000000E-01  0.51099999109E-03 0.  1.
       11   -1    0    0    0    0 -0.00000000000E+00 -0.00000000000E+00 -0.35740347158E-01  0.35744000000E-01  0.51099999109E-03 0. -1.
       22    1    1    2    0    0 -0.11707283183E-02 -0.28343949839E-02 -0.35605184807E-01  0.35737005818E-01  0.00000000000E+00 0. -1.
  9000001    1    1    2    0    0  0.11707283183E-02  0.28343949839E-02  0.35605184807E-01  0.35750994182E-01  0.10000000475E-02 0.  1.
</event>
<event>
 4   0  0.2441219E-02  0.9118800E+02  0.7818609E-02  0.1379984E+01
      -11   -1    0    0    0    0  0.00000000000E+00  0.00000000000E+00  0.35740347158E-01  0.35744000000E-01  0.51099999109E-03 0.  1.
       11   -1    0    0    0    0 -0.00000000000E+00 -0.00000000000E+00 -0.35740347158E-01  0.35744000000E-01  0.51099999109E-03 0. -1.
       22    1    1    2    0    0  0.56969034770E-03 -0.31772499190E-01 -0.16349841988E-01  0.35737005818E-01  0.00000000000E+00 0. -1.
  9000001    1    1    2    0    0 -0.56969034770E-03  0.31772499190E-01  0.16349841988E-01  0.35750994182E-01  0.10000000475E-02 0.  1.
</event>
<event>
 4   0  0.2441219E-02  0.9118800E+02  0.7818609E-02  0.1379984E+01
      -11   -1    0    0    0    0  0.00000000000E+00  0.00000000000E+00  0.35740347158E-01  0.35744000000E-01  0.51099999109E-03 0. -1.
       11   -1    0    0    0    0 -0.00000000000E+00 -0.00000000000E+00 -0.35740347158E-01  0.35744000000E-01  0.51099999109E-03 0.  1.
       22    1    1    2    0    0 -0.41982923826E-02  0.41970085520E-02 -0.35240502907E-01  0.35737005818E-01  0.00000000000E+00 0.  1.
  9000001    1    1    2    0    0  0.41982923826E-02 -0.41970085520E-02  0.35240502907E-01  0.35750994182E-01  0.10000000475E-02 0. -1.
</event>
<event>
 4   0  0.2441219E-02  0.9118800E+02  0.7818609E-02  0.1379984E+01
      -11   -1    0    0    0    0  0.00000000000E+00  0.00000000000E+00  0.35740347158E-01  0.35744000000E-01  0.51099999109E-03 0.  1.
       11   -1    0    0    0    0 -0.00000000000E+00 -0.00000000000E+00 -0.35740347158E-01  0.35744000000E-01  0.51099999109E-03 0. -1.
       22    1    1    2    0    0 -0.26098556487E-02  0.89270598023E-02 -0.34505504512E-01  0.35737005818E-01  0.00000000000E+00 0. -1.
  9000001    1    1    2    0    0  0.26098556487E-02 -0.89270598023E-02  0.34505504512E-01  0.35750994182E-01  0.10000000475E-02 0.  1.
</event>
<event>
 4   0  0.2441219E-02  0.9118800E+02  0.7818609E-02  0.1379984E+01
      -11   -1    0    0    0    0  0.00000000000E+00  0.00000000000E+00  0.35740347158E-01  0.35744000000E-01  0.51099999109E-03 0. -1.
       11   -1    0    0    0    0 -0.00000000000E+00 -0.00000000000E+00 -0.35740347158E-01  0.35744000000E-01  0.51099999109E-03 0.  1.
       22    1    1    2    0    0 -0.46459171287E-02 -0.92260118663E-02  0.34211544016E-01  0.35737005818E-01  0.00000000000E+00 0. -1.
  9000001    1    1    2    0    0  0.46459171287E-02  0.92260118663E-02 -0.34211544016E-01  0.35750994182E-01  0.10000000475E-02 0.  1.
</event>
<event>
 4   0  0.2441219E-02  0.9118800E+02  0.7818609E-02  0.1379984E+01
      -11   -1    0    0    0    0  0.00000000000E+00  0.00000000000E+00  0.35740347158E-01  0.35744000000E-01  0.51099999109E-03 0. -1.
       11   -1    0    0    0    0 -0.00000000000E+00 -0.00000000000E+00 -0.35740347158E-01  0.35744000000E-01  0.51099999109E-03 0.  1.
       22    1    1    2    0    0  0.15599813588E-02  0.72018246640E-02  0.34969040086E-01  0.35737005818E-01  0.00000000000E+00 0. -1.
  9000001    1    1    2    0    0 -0.15599813588E-02 -0.72018246640E-02 -0.34969040086E-01  0.35750994182E-01  0.10000000475E-02 0.  1.
</event>
<event>
 4   0  0.2441219E-02  0.9118800E+02  0.7818609E-02  0.1379984E+01
      -11   -1    0    0    0    0  0.00000000000E+00  0.00000000000E+00  0.35740347158E-01  0.35744000000E-01  0.51099999109E-03 0.  1.
       11   -1    0    0    0    0 -0.00000000000E+00 -0.00000000000E+00 -0.35740347158E-01  0.35744000000E-01  0.51099999109E-03 0. -1.
       22    1    1    2    0    0  0.95537533832E-02  0.63552377868E-02 -0.33844797737E-01  0.35737005818E-01  0.00000000000E+00 0. -1.
  9000001    1    1    2    0    0 -0.95537533832E-02 -0.63552377868E-02  0.33844797737E-01  0.35750994182E-01  0.10000000475E-02 0.  1.
</event>
<event>
 4   0  0.2441219E-02  0.9118800E+02  0.7818609E-02  0.1379984E+01
      -11   -1    0    0    0    0  0.00000000000E+00  0.00000000000E+00  0.35740347158E-01  0.35744000000E-01  0.51099999109E-03 0. -1.
       11   -1    0    0    0    0 -0.00000000000E+00 -0.00000000000E+00 -0.35740347158E-01  0.35744000000E-01  0.51099999109E-03 0.  1.
       22    1    1    2    0    0  0.51719746978E-02  0.85049515441E-02 -0.34322733892E-01  0.35737005818E-01  0.00000000000E+00 0.  1.
  9000001    1    1    2    0    0 -0.51719746978E-02 -0.85049515441E-02  0.34322733892E-01  0.35750994182E-01  0.10000000475E-02 0. -1.
</event>
<event>
 4   0  0.2441219E-02  0.9118800E+02  0.7818609E-02  0.1379984E+01
      -11   -1    0    0    0    0  0.00000000000E+00  0.00000000000E+00  0.35740347158E-01  0.35744000000E-01  0.51099999109E-03 0.  1.
       11   -1    0    0    0    0 -0.00000000000E+00 -0.00000000000E+00 -0.35740347158E-01  0.35744000000E-01  0.51099999109E-03 0. -1.
       22    1    1    2    0    0  0.78981047865E-02  0.84462825507E-02  0.33814402800E-01  0.35737005818E-01  0.00000000000E+00 0.  1.
  9000001    1    1    2    0    0 -0.78981047865E-02 -0.84462825507E-02 -0.33814402800E-01  0.35750994182E-01  0.10000000475E-02 0. -1.
</event>
<event>
 4   0  0.2441219E-02  0.9118800E+02  0.7818609E-02  0.1379984E+01
      -11   -1    0    0    0    0  0.00000000000E+00  0.00000000000E+00  0.35740347158E-01  0.35744000000E-01  0.51099999109E-03 0. -1.
       11   -1    0    0    0    0 -0.00000000000E+00 -0.00000000000E+00 -0.35740347158E-01  0.35744000000E-01  0.51099999109E-03 0.  1.
       22    1    1    2    0    0 -0.69433576722E-02  0.21333417590E-02 -0.34991030594E-01  0.35737005818E-01  0.00000000000E+00 0.  1.
  9000001    1    1    2    0    0  0.69433576722E-02 -0.21333417590E-02  0.34991030594E-01  0.35750994182E-01  0.10000000475E-02 0. -1.
</event>
<event>
 4   0  0.2441219E-02  0.9118800E+02  0.7818609E-02  0.1379984E+01
      -11   -1    0    0    0    0  0.00000000000E+00  0.00000000000E+00  0.35740347158E-01  0.35744000000E-01  0.51099999109E-03 0. -1.
       11   -1    0    0    0    0 -0.00000000000E+00 -0.00000000000E+00 -0.35740347158E-01  0.35744000000E-01  0.51099999109E-03 0.  1.
       22    1    1    2    0    0 -0.74807059449E-02  0.67932622270E-02  0.34278626165E-01  0.35737005818E-01  0.00000000000E+00 0. -1.
  9000001    1    1    2    0    0  0.74807059449E-02 -0.67932622270E-02 -0.34278626165E-01  0.35750994182E-01  0.10000000475E-02 0.  1.
</event>
<event>
 4   0  0.2441219E-02  0.9118800E+02  0.7818609E-02  0.1379984E+01
      -11   -1    0    0    0    0  0.00000000000E+00  0.00000000000E+00  0.35740347158E-01  0.35744000000E-01  0.51099999109E-03 0. -1.
       11   -1    0    0    0    0 -0.00000000000E+00 -0.00000000000E+00 -0.35740347158E-01  0.35744000000E-01  0.51099999109E-03 0.  1.
       22    1    1    2    0    0  0.15685519864E-03 -0.76031362352E-02  0.34918495109E-01  0.35737005818E-01  0.00000000000E+00 0. -1.
  9000001    1    1    2    0    0 -0.15685519864E-03  0.76031362352E-02 -0.34918495109E-01  0.35750994182E-01  0.10000000475E-02 0.  1.
</event>
<event>
 4   0  0.2441219E-02  0.9118800E+02  0.7818609E-02  0.1379984E+01
      -11   -1    0    0    0    0  0.00000000000E+00  0.00000000000E+00  0.35740347158E-01  0.35744000000E-01  0.51099999109E-03 0. -1.
       11   -1    0    0    0    0 -0.00000000000E+00 -0.00000000000E+00 -0.35740347158E-01  0.35744000000E-01  0.51099999109E-03 0.  1.
       22    1    1    2    0    0  0.77912048437E-03 -0.19622672266E-01 -0.29857616939E-01  0.35737005818E-01  0.00000000000E+00 0.  1.
  9000001    1    1    2    0    0 -0.77912048437E-03  0.19622672266E-01  0.29857616939E-01  0.35750994182E-01  0.10000000475E-02 0. -1.
</event>
<event>
 4   0  0.2441219E-02  0.9118800E+02  0.7818609E-02  0.1379984E+01
      -11   -1    0    0    0    0  0.00000000000E+00  0.00000000000E+00  0.35740347158E-01  0.35744000000E-01  0.51099999109E-03 0. -1.
       11   -1    0    0    0    0 -0.00000000000E+00 -0.00000000000E+00 -0.35740347158E-01  0.35744000000E-01  0.51099999109E-03 0.  1.
       22    1    1    2    0    0  0.21045544084E-01 -0.27395206144E-02  0.28752629199E-01  0.35737005818E-01  0.00000000000E+00 0. -1.
  9000001    1    1    2    0    0 -0.21045544084E-01  0.27395206144E-02 -0.28752629199E-01  0.35750994182E-01  0.10000000475E-02 0.  1.
</event>
<event>
 4   0  0.2441219E-02  0.9118800E+02  0.7818609E-02  0.1379984E+01
      -11   -1    0    0    0    0  0.00000000000E+00  0.00000000000E+00  0.35740347158E-01  0.35744000000E-01  0.51099999109E-03 0. -1.
       11   -1    0    0    0    0 -0.00000000000E+00 -0.00000000000E+00 -0.35740347158E-01  0.35744000000E-01  0.51099999109E-03 0.  1.
       22    1    1    2    0    0 -0.26534184023E-02  0.15259674339E-02 -0.35605679028E-01  0.35737005818E-01  0.00000000000E+00 0.  1.
  9000001    1    1    2    0    0  0.26534184023E-02 -0.15259674339E-02  0.35605679028E-01  0.35750994182E-01  0.10000000475E-02 0. -1.
</event>
<event>
 4   0  0.2441219E-02  0.9118800E+02  0.7818609E-02  0.1379984E+01
      -11   -1    0    0    0    0  0.00000000000E+00  0.00000000000E+00  0.35740347158E-01  0.35744000000E-01  0.51099999109E-03 0.  1.
       11   -1    0    0    0    0 -0.00000000000E+00 -0.00000000000E+00 -0.35740347158E-01  0.35744000000E-01  0.51099999109E-03 0. -1.
       22    1    1    2    0    0 -0.84620223063E-03 -0.10401005976E-01 -0.34179476318E-01  0.35737005818E-01  0.00000000000E+00 0. -1.
  9000001    1    1    2    0    0  0.84620223063E-03  0.10401005976E-01  0.34179476318E-01  0.35750994182E-01  0.10000000475E-02 0.  1.
</event>
<event>
 4   0  0.2441219E-02  0.9118800E+02  0.7818609E-02  0.1379984E+01
      -11   -1    0    0    0    0  0.00000000000E+00  0.00000000000E+00  0.35740347158E-01  0.35744000000E-01  0.51099999109E-03 0.  1.
       11   -1    0    0    0    0 -0.00000000000E+00 -0.00000000000E+00 -0.35740347158E-01  0.35744000000E-01  0.51099999109E-03 0. -1.
       22    1    1    2    0    0 -0.48974659947E-02  0.75542381616E-02  0.34584416975E-01  0.35737005818E-01  0.00000000000E+00 0.  1.
  9000001    1    1    2    0    0  0.48974659947E-02 -0.75542381616E-02 -0.34584416975E-01  0.35750994182E-01  0.10000000475E-02 0. -1.
</event>
<event>
 4   0  0.2441219E-02  0.9118800E+02  0.7818609E-02  0.1379984E+01
      -11   -1    0    0    0    0  0.00000000000E+00  0.00000000000E+00  0.35740347158E-01  0.35744000000E-01  0.51099999109E-03 0.  1.
       11   -1    0    0    0    0 -0.00000000000E+00 -0.00000000000E+00 -0.35740347158E-01  0.35744000000E-01  0.51099999109E-03 0. -1.
       22    1    1    2    0    0  0.21970156105E-02  0.40206962374E-02  0.35442075405E-01  0.35737005818E-01  0.00000000000E+00 0.  1.
  9000001    1    1    2    0    0 -0.21970156105E-02 -0.40206962374E-02 -0.35442075405E-01  0.35750994182E-01  0.10000000475E-02 0. -1.
</event>
<event>
 4   0  0.2441219E-02  0.9118800E+02  0.7818609E-02  0.1379984E+01
      -11   -1    0    0    0    0  0.00000000000E+00  0.00000000000E+00  0.35740347158E-01  0.35744000000E-01  0.51099999109E-03 0. -1.
       11   -1    0    0    0    0 -0.00000000000E+00 -0.00000000000E+00 -0.35740347158E-01  0.35744000000E-01  0.51099999109E-03 0.  1.
       22    1    1    2    0    0 -0.81727755610E-02 -0.25305188296E-01 -0.23874395695E-01  0.35737005818E-01  0.00000000000E+00 0.  1.
  9000001    1    1    2    0    0  0.81727755610E-02  0.25305188296E-01  0.23874395695E-01  0.35750994182E-01  0.10000000475E-02 0. -1.
</event>
<event>
 4   0  0.2441219E-02  0.9118800E+02  0.7818609E-02  0.1379984E+01
      -11   -1    0    0    0    0  0.00000000000E+00  0.00000000000E+00  0.35740347158E-01  0.35744000000E-01  0.51099999109E-03 0.  1.
       11   -1    0    0    0    0 -0.00000000000E+00 -0.00000000000E+00 -0.35740347158E-01  0.35744000000E-01  0.51099999109E-03 0. -1.
       22    1    1    2    0    0  0.27047235589E-01 -0.20744947471E-01  0.10734420631E-01  0.35737005818E-01  0.00000000000E+00 0.  1.
  9000001    1    1    2    0    0 -0.27047235589E-01  0.20744947471E-01 -0.10734420631E-01  0.35750994182E-01  0.10000000475E-02 0. -1.
</event>
<event>
 4   0  0.2441219E-02  0.9118800E+02  0.7818609E-02  0.1379984E+01
      -11   -1    0    0    0    0  0.00000000000E+00  0.00000000000E+00  0.35740347158E-01  0.35744000000E-01  0.51099999109E-03 0.  1.
       11   -1    0    0    0    0 -0.00000000000E+00 -0.00000000000E+00 -0.35740347158E-01  0.35744000000E-01  0.51099999109E-03 0. -1.
       22    1    1    2    0    0  0.32184262618E-02  0.12359717163E-01  0.33376828922E-01  0.35737005818E-01  0.00000000000E+00 0.  1.
  9000001    1    1    2    0    0 -0.32184262618E-02 -0.12359717163E-01 -0.33376828922E-01  0.35750994182E-01  0.10000000475E-02 0. -1.
</event>
<event>
 4   0  0.2441219E-02  0.9118800E+02  0.7818609E-02  0.1379984E+01
      -11   -1    0    0    0    0  0.00000000000E+00  0.00000000000E+00  0.35740347158E-01  0.35744000000E-01  0.51099999109E-03 0. -1.
       11   -1    0    0    0    0 -0.00000000000E+00 -0.00000000000E+00 -0.35740347158E-01  0.35744000000E-01  0.51099999109E-03 0.  1.
       22    1    1    2    0    0 -0.89359301275E-03  0.28790813409E-02 -0.35609633065E-01  0.35737005818E-01  0.00000000000E+00 0.  1.
  9000001    1    1    2    0    0  0.89359301275E-03 -0.28790813409E-02  0.35609633065E-01  0.35750994182E-01  0.10000000475E-02 0. -1.
</event>
<event>
 4   0  0.2441219E-02  0.9118800E+02  0.7818609E-02  0.1379984E+01
      -11   -1    0    0    0    0  0.00000000000E+00  0.00000000000E+00  0.35740347158E-01  0.35744000000E-01  0.51099999109E-03 0.  1.
       11   -1    0    0    0    0 -0.00000000000E+00 -0.00000000000E+00 -0.35740347158E-01  0.35744000000E-01  0.51099999109E-03 0. -1.
       22    1    1    2    0    0 -0.78127798126E-02  0.15689609616E-01 -0.31143702518E-01  0.35737005818E-01  0.00000000000E+00 0. -1.
  9000001    1    1    2    0    0  0.78127798126E-02 -0.15689609616E-01  0.31143702518E-01  0.35750994182E-01  0.10000000475E-02 0.  1.
</event>
<event>
 4   0  0.2441219E-02  0.9118800E+02  0.7818609E-02  0.1379984E+01
      -11   -1    0    0    0    0  0.00000000000E+00  0.00000000000E+00  0.35740347158E-01  0.35744000000E-01  0.51099999109E-03 0. -1.
       11   -1    0    0    0    0 -0.00000000000E+00 -0.00000000000E+00 -0.35740347158E-01  0.35744000000E-01  0.51099999109E-03 0.  1.
       22    1    1    2    0    0 -0.26639588170E-01 -0.23783490800E-01  0.13459169213E-02  0.35737005818E-01  0.00000000000E+00 0. -1.
  9000001    1    1    2    0    0  0.26639588170E-01  0.23783490800E-01 -0.13459169213E-02  0.35750994182E-01  0.10000000475E-02 0.  1.
</event>
<event>
 4   0  0.2441219E-02  0.9118800E+02  0.7818609E-02  0.1379984E+01
      -11   -1    0    0    0    0  0.00000000000E+00  0.00000000000E+00  0.35740347158E-01  0.35744000000E-01  0.51099999109E-03 0.  1.
       11   -1    0    0    0    0 -0.00000000000E+00 -0.00000000000E+00 -0.35740347158E-01  0.35744000000E-01  0.51099999109E-03 0. -1.
       22    1    1    2    0    0 -0.24366793360E-01 -0.11761070692E-01 -0.23346738154E-01  0.35737005818E-01  0.00000000000E+00 0. -1.
  9000001    1    1    2    0    0  0.24366793360E-01  0.11761070692E-01  0.23346738154E-01  0.35750994182E-01  0.10000000475E-02 0.  1.
</event>
<event>
 4   0  0.2441219E-02  0.9118800E+02  0.7818609E-02  0.1379984E+01
      -11   -1    0    0    0    0  0.00000000000E+00  0.00000000000E+00  0.35740347158E-01  0.35744000000E-01  0.51099999109E-03 0.  1.
       11   -1    0    0    0    0 -0.00000000000E+00 -0.00000000000E+00 -0.35740347158E-01  0.35744000000E-01  0.51099999109E-03 0. -1.
       22    1    1    2    0    0  0.11146476667E-01 -0.28935687309E-01 -0.17765574652E-01  0.35737005818E-01  0.00000000000E+00 0. -1.
  9000001    1    1    2    0    0 -0.11146476667E-01  0.28935687309E-01  0.17765574652E-01  0.35750994182E-01  0.10000000475E-02 0.  1.
</event>
<event>
 4   0  0.2441219E-02  0.9118800E+02  0.7818609E-02  0.1379984E+01
      -11   -1    0    0    0    0  0.00000000000E+00  0.00000000000E+00  0.35740347158E-01  0.35744000000E-01  0.51099999109E-03 0. -1.
       11   -1    0    0    0    0 -0.00000000000E+00 -0.00000000000E+00 -0.35740347158E-01  0.35744000000E-01  0.51099999109E-03 0.  1.
       22    1    1    2    0    0  0.31962190166E-02  0.66345630370E-03 -0.35587604508E-01  0.35737005818E-01  0.00000000000E+00 0.  1.
  9000001    1    1    2    0    0 -0.31962190166E-02 -0.66345630370E-03  0.35587604508E-01  0.35750994182E-01  0.10000000475E-02 0. -1.
</event>
<event>
 4   0  0.2441219E-02  0.9118800E+02  0.7818609E-02  0.1379984E+01
      -11   -1    0    0    0    0  0.00000000000E+00  0.00000000000E+00  0.35740347158E-01  0.35744000000E-01  0.51099999109E-03 0.  1.
       11   -1    0    0    0    0 -0.00000000000E+00 -0.00000000000E+00 -0.35740347158E-01  0.35744000000E-01  0.51099999109E-03 0. -1.
       22    1    1    2    0    0  0.83038300810E-02  0.83933680572E-02  0.33730273695E-01  0.35737005818E-01  0.00000000000E+00 0.  1.
  9000001    1    1    2    0    0 -0.83038300810E-02 -0.83933680572E-02 -0.33730273695E-01  0.35750994182E-01  0.10000000475E-02 0. -1.
</event>
<event>
 4   0  0.2441219E-02  0.9118800E+02  0.7818609E-02  0.1379984E+01
      -11   -1    0    0    0    0  0.00000000000E+00  0.00000000000E+00  0.35740347158E-01  0.35744000000E-01  0.51099999109E-03 0. -1.
       11   -1    0    0    0    0 -0.00000000000E+00 -0.00000000000E+00 -0.35740347158E-01  0.35744000000E-01  0.51099999109E-03 0.  1.
       22    1    1    2    0    0 -0.68962181656E-04 -0.30448472191E-02 -0.35606989967E-01  0.35737005818E-01  0.00000000000E+00 0.  1.
  9000001    1    1    2    0    0  0.68962181656E-04  0.30448472191E-02  0.35606989967E-01  0.35750994182E-01  0.10000000475E-02 0. -1.
</event>
<event>
 4   0  0.2441219E-02  0.9118800E+02  0.7818609E-02  0.1379984E+01
      -11   -1    0    0    0    0  0.00000000000E+00  0.00000000000E+00  0.35740347158E-01  0.35744000000E-01  0.51099999109E-03 0.  1.
       11   -1    0    0    0    0 -0.00000000000E+00 -0.00000000000E+00 -0.35740347158E-01  0.35744000000E-01  0.51099999109E-03 0. -1.
       22    1    1    2    0    0  0.93219174918E-02  0.35587593423E-02 -0.34315749607E-01  0.35737005818E-01  0.00000000000E+00 0. -1.
  9000001    1    1    2    0    0 -0.93219174918E-02 -0.35587593423E-02  0.34315749607E-01  0.35750994182E-01  0.10000000475E-02 0.  1.
</event>
<event>
 4   0  0.2441219E-02  0.9118800E+02  0.7818609E-02  0.1379984E+01
      -11   -1    0    0    0    0  0.00000000000E+00  0.00000000000E+00  0.35740347158E-01  0.35744000000E-01  0.51099999109E-03 0.  1.
       11   -1    0    0    0    0 -0.00000000000E+00 -0.00000000000E+00 -0.35740347158E-01  0.35744000000E-01  0.51099999109E-03 0. -1.
       22    1    1    2    0    0 -0.23967655553E-02  0.21886039680E-02 -0.35589311772E-01  0.35737005818E-01  0.00000000000E+00 0. -1.
  9000001    1    1    2    0    0  0.23967655553E-02 -0.21886039680E-02  0.35589311772E-01  0.35750994182E-01  0.10000000475E-02 0.  1.
</event>
<event>
 4   0  0.2441219E-02  0.9118800E+02  0.7818609E-02  0.1379984E+01
      -11   -1    0    0    0    0  0.00000000000E+00  0.00000000000E+00  0.35740347158E-01  0.35744000000E-01  0.51099999109E-03 0.  1.
       11   -1    0    0    0    0 -0.00000000000E+00 -0.00000000000E+00 -0.35740347158E-01  0.35744000000E-01  0.51099999109E-03 0. -1.
       22    1    1    2    0    0 -0.18764525549E-01  0.18487587995E-01 -0.24150264096E-01  0.35737005818E-01  0.00000000000E+00 0. -1.
  9000001    1    1    2    0    0  0.18764525549E-01 -0.18487587995E-01  0.24150264096E-01  0.35750994182E-01  0.10000000475E-02 0.  1.
</event>
<event>
 4   0  0.2441219E-02  0.9118800E+02  0.7818609E-02  0.1379984E+01
      -11   -1    0    0    0    0  0.00000000000E+00  0.00000000000E+00  0.35740347158E-01  0.35744000000E-01  0.51099999109E-03 0. -1.
       11   -1    0    0    0    0 -0.00000000000E+00 -0.00000000000E+00 -0.35740347158E-01  0.35744000000E-01  0.51099999109E-03 0.  1.
       22    1    1    2    0    0  0.27040434291E-02 -0.12222426378E-01 -0.33472884959E-01  0.35737005818E-01  0.00000000000E+00 0.  1.
  9000001    1    1    2    0    0 -0.27040434291E-02  0.12222426378E-01  0.33472884959E-01  0.35750994182E-01  0.10000000475E-02 0. -1.
</event>
<event>
 4   0  0.2441219E-02  0.9118800E+02  0.7818609E-02  0.1379984E+01
      -11   -1    0    0    0    0  0.00000000000E+00  0.00000000000E+00  0.35740347158E-01  0.35744000000E-01  0.51099999109E-03 0.  1.
       11   -1    0    0    0    0 -0.00000000000E+00 -0.00000000000E+00 -0.35740347158E-01  0.35744000000E-01  0.51099999109E-03 0. -1.
       22    1    1    2    0    0  0.93747698346E-02  0.24534689760E-01  0.24234196372E-01  0.35737005818E-01  0.00000000000E+00 0.  1.
  9000001    1    1    2    0    0 -0.93747698346E-02 -0.24534689760E-01 -0.24234196372E-01  0.35750994182E-01  0.10000000475E-02 0. -1.
</event>
<event>
 4   0  0.2441219E-02  0.9118800E+02  0.7818609E-02  0.1379984E+01
      -11   -1    0    0    0    0  0.00000000000E+00  0.00000000000E+00  0.35740347158E-01  0.35744000000E-01  0.51099999109E-03 0.  1.
       11   -1    0    0    0    0 -0.00000000000E+00 -0.00000000000E+00 -0.35740347158E-01  0.35744000000E-01  0.51099999109E-03 0. -1.
       22    1    1    2    0    0 -0.33098063647E-02  0.14016574843E-02  0.35555788882E-01  0.35737005818E-01  0.00000000000E+00 0.  1.
  9000001    1    1    2    0    0  0.33098063647E-02 -0.14016574843E-02 -0.35555788882E-01  0.35750994182E-01  0.10000000475E-02 0. -1.
</event>
<event>
 4   0  0.2441219E-02  0.9118800E+02  0.7818609E-02  0.1379984E+01
      -11   -1    0    0    0    0  0.00000000000E+00  0.00000000000E+00  0.35740347158E-01  0.35744000000E-01  0.51099999109E-03 0. -1.
       11   -1    0    0    0    0 -0.00000000000E+00 -0.00000000000E+00 -0.35740347158E-01  0.35744000000E-01  0.51099999109E-03 0.  1.
       22    1    1    2    0    0 -0.83143914105E-02  0.35132982217E-02 -0.34578334488E-01  0.35737005818E-01  0.00000000000E+00 0.  1.
  9000001    1    1    2    0    0  0.83143914105E-02 -0.35132982217E-02  0.34578334488E-01  0.35750994182E-01  0.10000000475E-02 0. -1.
</event>
<event>
 4   0  0.2441219E-02  0.9118800E+02  0.7818609E-02  0.1379984E+01
      -11   -1    0    0    0    0  0.00000000000E+00  0.00000000000E+00  0.35740347158E-01  0.35744000000E-01  0.51099999109E-03 0.  1.
       11   -1    0    0    0    0 -0.00000000000E+00 -0.00000000000E+00 -0.35740347158E-01  0.35744000000E-01  0.51099999109E-03 0. -1.
       22    1    1    2    0    0 -0.68838888264E-02  0.73818039235E-03  0.35059959344E-01  0.35737005818E-01  0.00000000000E+00 0.  1.
  9000001    1    1    2    0    0  0.68838888264E-02 -0.73818039235E-03 -0.35059959344E-01  0.35750994182E-01  0.10000000475E-02 0. -1.
</event>
<event>
 4   0  0.2441219E-02  0.9118800E+02  0.7818609E-02  0.1379984E+01
      -11   -1    0    0    0    0  0.00000000000E+00  0.00000000000E+00  0.35740347158E-01  0.35744000000E-01  0.51099999109E-03 0.  1.
       11   -1    0    0    0    0 -0.00000000000E+00 -0.00000000000E+00 -0.35740347158E-01  0.35744000000E-01  0.51099999109E-03 0. -1.
       22    1    1    2    0    0  0.97647383254E-02 -0.12195238666E-01  0.32141244907E-01  0.35737005818E-01  0.00000000000E+00 0.  1.
  9000001    1    1    2    0    0 -0.97647383254E-02  0.12195238666E-01 -0.32141244907E-01  0.35750994182E-01  0.10000000475E-02 0. -1.
</event>
<event>
 4   0  0.2441219E-02  0.9118800E+02  0.7818609E-02  0.1379984E+01
      -11   -1    0    0    0    0  0.00000000000E+00  0.00000000000E+00  0.35740347158E-01  0.35744000000E-01  0.51099999109E-03 0. -1.
       11   -1    0    0    0    0 -0.00000000000E+00 -0.00000000000E+00 -0.35740347158E-01  0.35744000000E-01  0.51099999109E-03 0.  1.
       22    1    1    2    0    0  0.98931688000E-03  0.18772738765E-01 -0.30393076782E-01  0.35737005818E-01  0.00000000000E+00 0.  1.
  9000001    1    1    2    0    0 -0.98931688000E-03 -0.18772738765E-01  0.30393076782E-01  0.35750994182E-01  0.10000000475E-02 0. -1.
</event>
<event>
 4   0  0.2441219E-02  0.9118800E+02  0.7818609E-02  0.1379984E+01
      -11   -1    0    0    0    0  0.00000000000E+00  0.00000000000E+00  0.35740347158E-01  0.35744000000E-01  0.51099999109E-03 0.  1.
       11   -1    0    0    0    0 -0.00000000000E+00 -0.00000000000E+00 -0.35740347158E-01  0.35744000000E-01  0.51099999109E-03 0. -1.
       22    1    1    2    0    0 -0.29232909879E-01 -0.18733598355E-01  0.84630288616E-02  0.35737005818E-01  0.00000000000E+00 0. -1.
  9000001    1    1    2    0    0  0.29232909879E-01  0.18733598355E-01 -0.84630288616E-02  0.35750994182E-01  0.10000000475E-02 0.  1.
</event>
<event>
 4   0  0.2441219E-02  0.9118800E+02  0.7818609E-02  0.1379984E+01
      -11   -1    0    0    0    0  0.00000000000E+00  0.00000000000E+00  0.35740347158E-01  0.35744000000E-01  0.51099999109E-03 0.  1.
       11   -1    0    0    0    0 -0.00000000000E+00 -0.00000000000E+00 -0.35740347158E-01  0.35744000000E-01  0.51099999109E-03 0. -1.
       22    1    1    2    0    0  0.91723855071E-02  0.59229237717E-02  0.34028222154E-01  0.35737005818E-01  0.00000000000E+00 0.  1.
  9000001    1    1    2    0    0 -0.91723855071E-02 -0.59229237717E-02 -0.34028222154E-01  0.35750994182E-01  0.10000000475E-02 0. -1.
</event>
<event>
 4   0  0.2441219E-02  0.9118800E+02  0.7818609E-02  0.1379984E+01
      -11   -1    0    0    0    0  0.00000000000E+00  0.00000000000E+00  0.35740347158E-01  0.35744000000E-01  0.51099999109E-03 0.  1.
       11   -1    0    0    0    0 -0.00000000000E+00 -0.00000000000E+00 -0.35740347158E-01  0.35744000000E-01  0.51099999109E-03 0. -1.
       22    1    1    2    0    0 -0.73400794252E-02  0.21112506818E-02 -0.34911308189E-01  0.35737005818E-01  0.00000000000E+00 0. -1.
  9000001    1    1    2    0    0  0.73400794252E-02 -0.21112506818E-02  0.34911308189E-01  0.35750994182E-01  0.10000000475E-02 0.  1.
</event>
<event>
 4   0  0.2441219E-02  0.9118800E+02  0.7818609E-02  0.1379984E+01
      -11   -1    0    0    0    0  0.00000000000E+00  0.00000000000E+00  0.35740347158E-01  0.35744000000E-01  0.51099999109E-03 0.  1.
       11   -1    0    0    0    0 -0.00000000000E+00 -0.00000000000E+00 -0.35740347158E-01  0.35744000000E-01  0.51099999109E-03 0. -1.
       22    1    1    2    0    0 -0.22312998090E-01  0.58317151599E-02 -0.27299355293E-01  0.35737005818E-01  0.00000000000E+00 0. -1.
  9000001    1    1    2    0    0  0.22312998090E-01 -0.58317151599E-02  0.27299355293E-01  0.35750994182E-01  0.10000000475E-02 0.  1.
</event>
<event>
 4   0  0.2441219E-02  0.9118800E+02  0.7818609E-02  0.1379984E+01
      -11   -1    0    0    0    0  0.00000000000E+00  0.00000000000E+00  0.35740347158E-01  0.35744000000E-01  0.51099999109E-03 0. -1.
       11   -1    0    0    0    0 -0.00000000000E+00 -0.00000000000E+00 -0.35740347158E-01  0.35744000000E-01  0.51099999109E-03 0.  1.
       22    1    1    2    0    0  0.92192401561E-02  0.18070137691E-01 -0.29421239261E-01  0.35737005818E-01  0.00000000000E+00 0.  1.
  9000001    1    1    2    0    0 -0.92192401561E-02 -0.18070137691E-01  0.29421239261E-01  0.35750994182E-01  0.10000000475E-02 0. -1.
</event>
<event>
 4   0  0.2441219E-02  0.9118800E+02  0.7818609E-02  0.1379984E+01
      -11   -1    0    0    0    0  0.00000000000E+00  0.00000000000E+00  0.35740347158E-01  0.35744000000E-01  0.51099999109E-03 0. -1.
       11   -1    0    0    0    0 -0.00000000000E+00 -0.00000000000E+00 -0.35740347158E-01  0.35744000000E-01  0.51099999109E-03 0.  1.
       22    1    1    2    0    0 -0.34280251947E-01 -0.25949320889E-02 -0.97603400948E-02  0.35737005818E-01  0.00000000000E+00 0.  1.
  9000001    1    1    2    0    0  0.34280251947E-01  0.25949320889E-02  0.97603400948E-02  0.35750994182E-01  0.10000000475E-02 0. -1.
</event>
<event>
 4   0  0.2441219E-02  0.9118800E+02  0.7818609E-02  0.1379984E+01
      -11   -1    0    0    0    0  0.00000000000E+00  0.00000000000E+00  0.35740347158E-01  0.35744000000E-01  0.51099999109E-03 0. -1.
       11   -1    0    0    0    0 -0.00000000000E+00 -0.00000000000E+00 -0.35740347158E-01  0.35744000000E-01  0.51099999109E-03 0.  1.
       22    1    1    2    0    0  0.12034298038E-01 -0.63935234732E-03 -0.33643728750E-01  0.35737005818E-01  0.00000000000E+00 0.  1.
  9000001    1    1    2    0    0 -0.12034298038E-01  0.63935234732E-03  0.33643728750E-01  0.35750994182E-01  0.10000000475E-02 0. -1.
</event>
<event>
 4   0  0.2441219E-02  0.9118800E+02  0.7818609E-02  0.1379984E+01
      -11   -1    0    0    0    0  0.00000000000E+00  0.00000000000E+00  0.35740347158E-01  0.35744000000E-01  0.51099999109E-03 0. -1.
       11   -1    0    0    0    0 -0.00000000000E+00 -0.00000000000E+00 -0.35740347158E-01  0.35744000000E-01  0.51099999109E-03 0.  1.
       22    1    1    2    0    0  0.34570398966E-02  0.37663802842E-02 -0.35369433690E-01  0.35737005818E-01  0.00000000000E+00 0.  1.
  9000001    1    1    2    0    0 -0.34570398966E-02 -0.37663802842E-02  0.35369433690E-01  0.35750994182E-01  0.10000000475E-02 0. -1.
</event>
<event>
 4   0  0.2441219E-02  0.9118800E+02  0.7818609E-02  0.1379984E+01
      -11   -1    0    0    0    0  0.00000000000E+00  0.00000000000E+00  0.35740347158E-01  0.35744000000E-01  0.51099999109E-03 0. -1.
       11   -1    0    0    0    0 -0.00000000000E+00 -0.00000000000E+00 -0.35740347158E-01  0.35744000000E-01  0.51099999109E-03 0.  1.
       22    1    1    2    0    0 -0.24974526870E-02 -0.74080494130E-02 -0.34871437006E-01  0.35737005818E-01  0.00000000000E+00 0.  1.
  9000001    1    1    2    0    0  0.24974526870E-02  0.74080494130E-02  0.34871437006E-01  0.35750994182E-01  0.10000000475E-02 0. -1.
</event>
<event>
 4   0  0.2441219E-02  0.9118800E+02  0.7818609E-02  0.1379984E+01
      -11   -1    0    0    0    0  0.00000000000E+00  0.00000000000E+00  0.35740347158E-01  0.35744000000E-01  0.51099999109E-03 0. -1.
       11   -1    0    0    0    0 -0.00000000000E+00 -0.00000000000E+00 -0.35740347158E-01  0.35744000000E-01  0.51099999109E-03 0.  1.
       22    1    1    2    0    0 -0.26051907968E-01  0.11739499319E-01 -0.21461962442E-01  0.35737005818E-01  0.00000000000E+00 0.  1.
  9000001    1    1    2    0    0  0.26051907968E-01 -0.11739499319E-01  0.21461962442E-01  0.35750994182E-01  0.10000000475E-02 0. -1.
</event>
<event>
 4   0  0.2441219E-02  0.9118800E+02  0.7818609E-02  0.1379984E+01
      -11   -1    0    0    0    0  0.00000000000E+00  0.00000000000E+00  0.35740347158E-01  0.35744000000E-01  0.51099999109E-03 0. -1.
       11   -1    0    0    0    0 -0.00000000000E+00 -0.00000000000E+00 -0.35740347158E-01  0.35744000000E-01  0.51099999109E-03 0.  1.
       22    1    1    2    0    0  0.57354102056E-02  0.43436010139E-02  0.35005310810E-01  0.35737005818E-01  0.00000000000E+00 0. -1.
  9000001    1    1    2    0    0 -0.57354102056E-02 -0.43436010139E-02 -0.35005310810E-01  0.35750994182E-01  0.10000000475E-02 0.  1.
</event>
<event>
 4   0  0.2441219E-02  0.9118800E+02  0.7818609E-02  0.1379984E+01
      -11   -1    0    0    0    0  0.00000000000E+00  0.00000000000E+00  0.35740347158E-01  0.35744000000E-01  0.51099999109E-03 0. -1.
       11   -1    0    0    0    0 -0.00000000000E+00 -0.00000000000E+00 -0.35740347158E-01  0.35744000000E-01  0.51099999109E-03 0.  1.
       22    1    1    2    0    0  0.49981360104E-02  0.20204314153E-01  0.29050609476E-01  0.35737005818E-01  0.00000000000E+00 0. -1.
  9000001    1    1    2    0    0 -0.49981360104E-02 -0.20204314153E-01 -0.29050609476E-01  0.35750994182E-01  0.10000000475E-02 0.  1.
</event>
<event>
 4   0  0.2441219E-02  0.9118800E+02  0.7818609E-02  0.1379984E+01
      -11   -1    0    0    0    0  0.00000000000E+00  0.00000000000E+00  0.35740347158E-01  0.35744000000E-01  0.51099999109E-03 0. -1.
       11   -1    0    0    0    0 -0.00000000000E+00 -0.00000000000E+00 -0.35740347158E-01  0.35744000000E-01  0.51099999109E-03 0.  1.
       22    1    1    2    0    0 -0.11101481188E-01 -0.63907143807E-02  0.33362396047E-01  0.35737005818E-01  0.00000000000E+00 0. -1.
  9000001    1    1    2    0    0  0.11101481188E-01  0.63907143807E-02 -0.33362396047E-01  0.35750994182E-01  0.10000000475E-02 0.  1.
</event>
<event>
 4   0  0.2441219E-02  0.9118800E+02  0.7818609E-02  0.1379984E+01
      -11   -1    0    0    0    0  0.00000000000E+00  0.00000000000E+00  0.35740347158E-01  0.35744000000E-01  0.51099999109E-03 0.  1.
       11   -1    0    0    0    0 -0.00000000000E+00 -0.00000000000E+00 -0.35740347158E-01  0.35744000000E-01  0.51099999109E-03 0. -1.
       22    1    1    2    0    0 -0.20850604536E-01 -0.24046064159E-01 -0.16253389611E-01  0.35737005818E-01  0.00000000000E+00 0. -1.
  9000001    1    1    2    0    0  0.20850604536E-01  0.24046064159E-01  0.16253389611E-01  0.35750994182E-01  0.10000000475E-02 0.  1.
</event>
<event>
 4   0  0.2441219E-02  0.9118800E+02  0.7818609E-02  0.1379984E+01
      -11   -1    0    0    0    0  0.00000000000E+00  0.00000000000E+00  0.35740347158E-01  0.35744000000E-01  0.51099999109E-03 0. -1.
       11   -1    0    0    0    0 -0.00000000000E+00 -0.00000000000E+00 -0.35740347158E-01  0.35744000000E-01  0.51099999109E-03 0.  1.
       22    1    1    2    0    0 -0.21015035850E-02 -0.63508645390E-02  0.35105324200E-01  0.35737005818E-01  0.00000000000E+00 0. -1.
  9000001    1    1    2    0    0  0.21015035850E-02  0.63508645390E-02 -0.35105324200E-01  0.35750994182E-01  0.10000000475E-02 0.  1.
</event>
<event>
 4   0  0.2441219E-02  0.9118800E+02  0.7818609E-02  0.1379984E+01
      -11   -1    0    0    0    0  0.00000000000E+00  0.00000000000E+00  0.35740347158E-01  0.35744000000E-01  0.51099999109E-03 0.  1.
       11   -1    0    0    0    0 -0.00000000000E+00 -0.00000000000E+00 -0.35740347158E-01  0.35744000000E-01  0.51099999109E-03 0. -1.
       22    1    1    2    0    0  0.92148774354E-02 -0.11966979257E-01 -0.32388439700E-01  0.35737005818E-01  0.00000000000E+00 0. -1.
  9000001    1    1    2    0    0 -0.92148774354E-02  0.11966979257E-01  0.32388439700E-01  0.35750994182E-01  0.10000000475E-02 0.  1.
</event>
<event>
 4   0  0.2441219E-02  0.9118800E+02  0.7818609E-02  0.1379984E+01
      -11   -1    0    0    0    0  0.00000000000E+00  0.00000000000E+00  0.35740347158E-01  0.35744000000E-01  0.51099999109E-03 0.  1.
       11   -1    0    0    0    0 -0.00000000000E+00 -0.00000000000E+00 -0.35740347158E-01  0.35744000000E-01  0.51099999109E-03 0. -1.
       22    1    1    2    0    0  0.43410414064E-02 -0.13249409258E-02 -0.35447615941E-01  0.35737005818E-01  0.00000000000E+00 0. -1.
  9000001    1    1    2    0    0 -0.43410414064E-02  0.13249409258E-02  0.35447615941E-01  0.35750994182E-01  0.10000000475E-02 0.  1.
</event>
<event>
 4   0  0.2441219E-02  0.9118800E+02  0.7818609E-02  0.1379984E+01
      -11   -1    0    0    0    0  0.00000000000E+00  0.00000000000E+00  0.35740347158E-01  0.35744000000E-01  0.51099999109E-03 0. -1.
       11   -1    0    0    0    0 -0.00000000000E+00 -0.00000000000E+00 -0.35740347158E-01  0.35744000000E-01  0.51099999109E-03 0.  1.
       22    1    1    2    0    0 -0.87758676572E-02 -0.55098902510E-02  0.34201737400E-01  0.35737005818E-01  0.00000000000E+00 0. -1.
  9000001    1    1    2    0    0  0.87758676572E-02  0.55098902510E-02 -0.34201737400E-01  0.35750994182E-01  0.10000000475E-02 0.  1.
</event>
<event>
 4   0  0.2441219E-02  0.9118800E+02  0.7818609E-02  0.1379984E+01
      -11   -1    0    0    0    0  0.00000000000E+00  0.00000000000E+00  0.35740347158E-01  0.35744000000E-01  0.51099999109E-03 0. -1.
       11   -1    0    0    0    0 -0.00000000000E+00 -0.00000000000E+00 -0.35740347158E-01  0.35744000000E-01  0.51099999109E-03 0.  1.
       22    1    1    2    0    0 -0.22903205116E-01 -0.97389450003E-02  0.25646242036E-01  0.35737005818E-01  0.00000000000E+00 0. -1.
  9000001    1    1    2    0    0  0.22903205116E-01  0.97389450003E-02 -0.25646242036E-01  0.35750994182E-01  0.10000000475E-02 0.  1.
</event>
<event>
 4   0  0.2441219E-02  0.9118800E+02  0.7818609E-02  0.1379984E+01
      -11   -1    0    0    0    0  0.00000000000E+00  0.00000000000E+00  0.35740347158E-01  0.35744000000E-01  0.51099999109E-03 0.  1.
       11   -1    0    0    0    0 -0.00000000000E+00 -0.00000000000E+00 -0.35740347158E-01  0.35744000000E-01  0.51099999109E-03 0. -1.
       22    1    1    2    0    0  0.56550473294E-02  0.92579349778E-02 -0.34050619150E-01  0.35737005818E-01  0.00000000000E+00 0. -1.
  9000001    1    1    2    0    0 -0.56550473294E-02 -0.92579349778E-02  0.34050619150E-01  0.35750994182E-01  0.10000000475E-02 0.  1.
</event>
<event>
 4   0  0.2441219E-02  0.9118800E+02  0.7818609E-02  0.1379984E+01
      -11   -1    0    0    0    0  0.00000000000E+00  0.00000000000E+00  0.35740347158E-01  0.35744000000E-01  0.51099999109E-03 0. -1.
       11   -1    0    0    0    0 -0.00000000000E+00 -0.00000000000E+00 -0.35740347158E-01  0.35744000000E-01  0.51099999109E-03 0.  1.
       22    1    1    2    0    0 -0.22189846830E-02 -0.12616561719E-01  0.33362135157E-01  0.35737005818E-01  0.00000000000E+00 0. -1.
  9000001    1    1    2    0    0  0.22189846830E-02  0.12616561719E-01 -0.33362135157E-01  0.35750994182E-01  0.10000000475E-02 0.  1.
</event>
<event>
 4   0  0.2441219E-02  0.9118800E+02  0.7818609E-02  0.1379984E+01
      -11   -1    0    0    0    0  0.00000000000E+00  0.00000000000E+00  0.35740347158E-01  0.35744000000E-01  0.51099999109E-03 0. -1.
       11   -1    0    0    0    0 -0.00000000000E+00 -0.00000000000E+00 -0.35740347158E-01  0.35744000000E-01  0.51099999109E-03 0.  1.
       22    1    1    2    0    0 -0.10764081959E-01  0.23833773564E-01 -0.24356094970E-01  0.35737005818E-01  0.00000000000E+00 0.  1.
  9000001    1    1    2    0    0  0.10764081959E-01 -0.23833773564E-01  0.24356094970E-01  0.35750994182E-01  0.10000000475E-02 0. -1.
</event>
<event>
 4   0  0.2441219E-02  0.9118800E+02  0.7818609E-02  0.1379984E+01
      -11   -1    0    0    0    0  0.00000000000E+00  0.00000000000E+00  0.35740347158E-01  0.35744000000E-01  0.51099999109E-03 0. -1.
       11   -1    0    0    0    0 -0.00000000000E+00 -0.00000000000E+00 -0.35740347158E-01  0.35744000000E-01  0.51099999109E-03 0.  1.
       22    1    1    2    0    0 -0.23040004549E-01  0.14987523952E-01 -0.22840006590E-01  0.35737005818E-01  0.00000000000E+00 0.  1.
  9000001    1    1    2    0    0  0.23040004549E-01 -0.14987523952E-01  0.22840006590E-01  0.35750994182E-01  0.10000000475E-02 0. -1.
</event>
<event>
 4   0  0.2441219E-02  0.9118800E+02  0.7818609E-02  0.1379984E+01
      -11   -1    0    0    0    0  0.00000000000E+00  0.00000000000E+00  0.35740347158E-01  0.35744000000E-01  0.51099999109E-03 0.  1.
       11   -1    0    0    0    0 -0.00000000000E+00 -0.00000000000E+00 -0.35740347158E-01  0.35744000000E-01  0.51099999109E-03 0. -1.
       22    1    1    2    0    0  0.30098311440E-01  0.14534279639E-01  0.12648318018E-01  0.35737005818E-01  0.00000000000E+00 0.  1.
  9000001    1    1    2    0    0 -0.30098311440E-01 -0.14534279639E-01 -0.12648318018E-01  0.35750994182E-01  0.10000000475E-02 0. -1.
</event>
<event>
 4   0  0.2441219E-02  0.9118800E+02  0.7818609E-02  0.1379984E+01
      -11   -1    0    0    0    0  0.00000000000E+00  0.00000000000E+00  0.35740347158E-01  0.35744000000E-01  0.51099999109E-03 0. -1.
       11   -1    0    0    0    0 -0.00000000000E+00 -0.00000000000E+00 -0.35740347158E-01  0.35744000000E-01  0.51099999109E-03 0.  1.
       22    1    1    2    0    0  0.73681145043E-02  0.81269250891E-02 -0.34011726832E-01  0.35737005818E-01  0.00000000000E+00 0.  1.
  9000001    1    1    2    0    0 -0.73681145043E-02 -0.81269250891E-02  0.34011726832E-01  0.35750994182E-01  0.10000000475E-02 0. -1.
</event>
<event>
 4   0  0.2441219E-02  0.9118800E+02  0.7818609E-02  0.1379984E+01
      -11   -1    0    0    0    0  0.00000000000E+00  0.00000000000E+00  0.35740347158E-01  0.35744000000E-01  0.51099999109E-03 0.  1.
       11   -1    0    0    0    0 -0.00000000000E+00 -0.00000000000E+00 -0.35740347158E-01  0.35744000000E-01  0.51099999109E-03 0. -1.
       22    1    1    2    0    0  0.48368564412E-02 -0.71847986669E-02 -0.34671559999E-01  0.35737005818E-01  0.00000000000E+00 0. -1.
  9000001    1    1    2    0    0 -0.48368564412E-02  0.71847986669E-02  0.34671559999E-01  0.35750994182E-01  0.10000000475E-02 0.  1.
</event>
<event>
 4   0  0.2441219E-02  0.9118800E+02  0.7818609E-02  0.1379984E+01
      -11   -1    0    0    0    0  0.00000000000E+00  0.00000000000E+00  0.35740347158E-01  0.35744000000E-01  0.51099999109E-03 0. -1.
       11   -1    0    0    0    0 -0.00000000000E+00 -0.00000000000E+00 -0.35740347158E-01  0.35744000000E-01  0.51099999109E-03 0.  1.
       22    1    1    2    0    0 -0.60001647586E-02  0.30417926285E-01 -0.17773051743E-01  0.35737005818E-01  0.00000000000E+00 0.  1.
  9000001    1    1    2    0    0  0.60001647586E-02 -0.30417926285E-01  0.17773051743E-01  0.35750994182E-01  0.10000000475E-02 0. -1.
</event>
<event>
 4   0  0.2441219E-02  0.9118800E+02  0.7818609E-02  0.1379984E+01
      -11   -1    0    0    0    0  0.00000000000E+00  0.00000000000E+00  0.35740347158E-01  0.35744000000E-01  0.51099999109E-03 0.  1.
       11   -1    0    0    0    0 -0.00000000000E+00 -0.00000000000E+00 -0.35740347158E-01  0.35744000000E-01  0.51099999109E-03 0. -1.
       22    1    1    2    0    0 -0.93732875223E-02 -0.21434693408E-01  0.27015347201E-01  0.35737005818E-01  0.00000000000E+00 0.  1.
  9000001    1    1    2    0    0  0.93732875223E-02  0.21434693408E-01 -0.27015347201E-01  0.35750994182E-01  0.10000000475E-02 0. -1.
</event>
<event>
 4   0  0.2441219E-02  0.9118800E+02  0.7818609E-02  0.1379984E+01
      -11   -1    0    0    0    0  0.00000000000E+00  0.00000000000E+00  0.35740347158E-01  0.35744000000E-01  0.51099999109E-03 0. -1.
       11   -1    0    0    0    0 -0.00000000000E+00 -0.00000000000E+00 -0.35740347158E-01  0.35744000000E-01  0.51099999109E-03 0.  1.
       22    1    1    2    0    0  0.32858762010E-01  0.12522236008E-01 -0.63740842000E-02  0.35737005818E-01  0.00000000000E+00 0.  1.
  9000001    1    1    2    0    0 -0.32858762010E-01 -0.12522236008E-01  0.63740842000E-02  0.35750994182E-01  0.10000000475E-02 0. -1.
</event>
<event>
 4   0  0.2441219E-02  0.9118800E+02  0.7818609E-02  0.1379984E+01
      -11   -1    0    0    0    0  0.00000000000E+00  0.00000000000E+00  0.35740347158E-01  0.35744000000E-01  0.51099999109E-03 0.  1.
       11   -1    0    0    0    0 -0.00000000000E+00 -0.00000000000E+00 -0.35740347158E-01  0.35744000000E-01  0.51099999109E-03 0. -1.
       22    1    1    2    0    0  0.12497715550E-03  0.33815021467E-02  0.35576444578E-01  0.35737005818E-01  0.00000000000E+00 0.  1.
  9000001    1    1    2    0    0 -0.12497715550E-03 -0.33815021467E-02 -0.35576444578E-01  0.35750994182E-01  0.10000000475E-02 0. -1.
</event>
<event>
 4   0  0.2441219E-02  0.9118800E+02  0.7818609E-02  0.1379984E+01
      -11   -1    0    0    0    0  0.00000000000E+00  0.00000000000E+00  0.35740347158E-01  0.35744000000E-01  0.51099999109E-03 0.  1.
       11   -1    0    0    0    0 -0.00000000000E+00 -0.00000000000E+00 -0.35740347158E-01  0.35744000000E-01  0.51099999109E-03 0. -1.
       22    1    1    2    0    0 -0.31820144040E-01  0.16107244481E-01 -0.22734760629E-02  0.35737005818E-01  0.00000000000E+00 0.  1.
  9000001    1    1    2    0    0  0.31820144040E-01 -0.16107244481E-01  0.22734760629E-02  0.35750994182E-01  0.10000000475E-02 0. -1.
</event>
<event>
 4   0  0.2441219E-02  0.9118800E+02  0.7818609E-02  0.1379984E+01
      -11   -1    0    0    0    0  0.00000000000E+00  0.00000000000E+00  0.35740347158E-01  0.35744000000E-01  0.51099999109E-03 0. -1.
       11   -1    0    0    0    0 -0.00000000000E+00 -0.00000000000E+00 -0.35740347158E-01  0.35744000000E-01  0.51099999109E-03 0.  1.
       22    1    1    2    0    0 -0.20891554433E-02  0.22258966917E-02  0.35606381427E-01  0.35737005818E-01  0.00000000000E+00 0. -1.
  9000001    1    1    2    0    0  0.20891554433E-02 -0.22258966917E-02 -0.35606381427E-01  0.35750994182E-01  0.10000000475E-02 0.  1.
</event>
<event>
 4   0  0.2441219E-02  0.9118800E+02  0.7818609E-02  0.1379984E+01
      -11   -1    0    0    0    0  0.00000000000E+00  0.00000000000E+00  0.35740347158E-01  0.35744000000E-01  0.51099999109E-03 0. -1.
       11   -1    0    0    0    0 -0.00000000000E+00 -0.00000000000E+00 -0.35740347158E-01  0.35744000000E-01  0.51099999109E-03 0.  1.
       22    1    1    2    0    0 -0.34016000457E-02  0.37434582780E-02 -0.35377241584E-01  0.35737005818E-01  0.00000000000E+00 0.  1.
  9000001    1    1    2    0    0  0.34016000457E-02 -0.37434582780E-02  0.35377241584E-01  0.35750994182E-01  0.10000000475E-02 0. -1.
</event>
<event>
 4   0  0.2441219E-02  0.9118800E+02  0.7818609E-02  0.1379984E+01
      -11   -1    0    0    0    0  0.00000000000E+00  0.00000000000E+00  0.35740347158E-01  0.35744000000E-01  0.51099999109E-03 0.  1.
       11   -1    0    0    0    0 -0.00000000000E+00 -0.00000000000E+00 -0.35740347158E-01  0.35744000000E-01  0.51099999109E-03 0. -1.
       22    1    1    2    0    0  0.14523642422E-01 -0.23266576187E-01  0.22909906770E-01  0.35737005818E-01  0.00000000000E+00 0.  1.
  9000001    1    1    2    0    0 -0.14523642422E-01  0.23266576187E-01 -0.22909906770E-01  0.35750994182E-01  0.10000000475E-02 0. -1.
</event>
<event>
 4   0  0.2441219E-02  0.9118800E+02  0.7818609E-02  0.1379984E+01
      -11   -1    0    0    0    0  0.00000000000E+00  0.00000000000E+00  0.35740347158E-01  0.35744000000E-01  0.51099999109E-03 0.  1.
       11   -1    0    0    0    0 -0.00000000000E+00 -0.00000000000E+00 -0.35740347158E-01  0.35744000000E-01  0.51099999109E-03 0. -1.
       22    1    1    2    0    0 -0.13435465400E-01 -0.20392332257E-01 -0.26091658427E-01  0.35737005818E-01  0.00000000000E+00 0. -1.
  9000001    1    1    2    0    0  0.13435465400E-01  0.20392332257E-01  0.26091658427E-01  0.35750994182E-01  0.10000000475E-02 0.  1.
</event>
<event>
 4   0  0.2441219E-02  0.9118800E+02  0.7818609E-02  0.1379984E+01
      -11   -1    0    0    0    0  0.00000000000E+00  0.00000000000E+00  0.35740347158E-01  0.35744000000E-01  0.51099999109E-03 0.  1.
       11   -1    0    0    0    0 -0.00000000000E+00 -0.00000000000E+00 -0.35740347158E-01  0.35744000000E-01  0.51099999109E-03 0. -1.
       22    1    1    2    0    0 -0.21112285931E-02  0.45316801411E-02  0.35385592743E-01  0.35737005818E-01  0.00000000000E+00 0.  1.
  9000001    1    1    2    0    0  0.21112285931E-02 -0.45316801411E-02 -0.35385592743E-01  0.35750994182E-01  0.10000000475E-02 0. -1.
</event>
<event>
 4   0  0.2441219E-02  0.9118800E+02  0.7818609E-02  0.1379984E+01
      -11   -1    0    0    0    0  0.00000000000E+00  0.00000000000E+00  0.35740347158E-01  0.35744000000E-01  0.51099999109E-03 0. -1.
       11   -1    0    0    0    0 -0.00000000000E+00 -0.00000000000E+00 -0.35740347158E-01  0.35744000000E-01  0.51099999109E-03 0.  1.
       22    1    1    2    0    0  0.34542088159E-02 -0.24560201975E-01  0.25729331613E-01  0.35737005818E-01  0.00000000000E+00 0. -1.
  9000001    1    1    2    0    0 -0.34542088159E-02  0.24560201975E-01 -0.25729331613E-01  0.35750994182E-01  0.10000000475E-02 0.  1.
</event>
<event>
 4   0  0.2441219E-02  0.9118800E+02  0.7818609E-02  0.1379984E+01
      -11   -1    0    0    0    0  0.00000000000E+00  0.00000000000E+00  0.35740347158E-01  0.35744000000E-01  0.51099999109E-03 0. -1.
       11   -1    0    0    0    0 -0.00000000000E+00 -0.00000000000E+00 -0.35740347158E-01  0.35744000000E-01  0.51099999109E-03 0.  1.
       22    1    1    2    0    0  0.21655231746E-02  0.49306175349E-02  0.35328927311E-01  0.35737005818E-01  0.00000000000E+00 0. -1.
  9000001    1    1    2    0    0 -0.21655231746E-02 -0.49306175349E-02 -0.35328927311E-01  0.35750994182E-01  0.10000000475E-02 0.  1.
</event>
<event>
 4   0  0.2441219E-02  0.9118800E+02  0.7818609E-02  0.1379984E+01
      -11   -1    0    0    0    0  0.00000000000E+00  0.00000000000E+00  0.35740347158E-01  0.35744000000E-01  0.51099999109E-03 0.  1.
       11   -1    0    0    0    0 -0.00000000000E+00 -0.00000000000E+00 -0.35740347158E-01  0.35744000000E-01  0.51099999109E-03 0. -1.
       22    1    1    2    0    0  0.47104754839E-03 -0.21797499928E-01 -0.28315732305E-01  0.35737005818E-01  0.00000000000E+00 0. -1.
  9000001    1    1    2    0    0 -0.47104754839E-03  0.21797499928E-01  0.28315732305E-01  0.35750994182E-01  0.10000000475E-02 0.  1.
</event>
<event>
 4   0  0.2441219E-02  0.9118800E+02  0.7818609E-02  0.1379984E+01
      -11   -1    0    0    0    0  0.00000000000E+00  0.00000000000E+00  0.35740347158E-01  0.35744000000E-01  0.51099999109E-03 0.  1.
       11   -1    0    0    0    0 -0.00000000000E+00 -0.00000000000E+00 -0.35740347158E-01  0.35744000000E-01  0.51099999109E-03 0. -1.
       22    1    1    2    0    0 -0.81282122129E-02 -0.13007311033E-01 -0.32278098004E-01  0.35737005818E-01  0.00000000000E+00 0. -1.
  9000001    1    1    2    0    0  0.81282122129E-02  0.13007311033E-01  0.32278098004E-01  0.35750994182E-01  0.10000000475E-02 0.  1.
</event>
<event>
 4   0  0.2441219E-02  0.9118800E+02  0.7818609E-02  0.1379984E+01
      -11   -1    0    0    0    0  0.00000000000E+00  0.00000000000E+00  0.35740347158E-01  0.35744000000E-01  0.51099999109E-03 0. -1.
       11   -1    0    0    0    0 -0.00000000000E+00 -0.00000000000E+00 -0.35740347158E-01  0.35744000000E-01  0.51099999109E-03 0.  1.
       22    1    1    2    0    0 -0.20478785175E-01  0.24292215713E-02 -0.29186500735E-01  0.35737005818E-01  0.00000000000E+00 0.  1.
  9000001    1    1    2    0    0  0.20478785175E-01 -0.24292215713E-02  0.29186500735E-01  0.35750994182E-01  0.10000000475E-02 0. -1.
</event>
<event>
 4   0  0.2441219E-02  0.9118800E+02  0.7818609E-02  0.1379984E+01
      -11   -1    0    0    0    0  0.00000000000E+00  0.00000000000E+00  0.35740347158E-01  0.35744000000E-01  0.51099999109E-03 0.  1.
       11   -1    0    0    0    0 -0.00000000000E+00 -0.00000000000E+00 -0.35740347158E-01  0.35744000000E-01  0.51099999109E-03 0. -1.
       22    1    1    2    0    0  0.22145629344E-01  0.73532479443E-03 -0.28038615930E-01  0.35737005818E-01  0.00000000000E+00 0. -1.
  9000001    1    1    2    0    0 -0.22145629344E-01 -0.73532479443E-03  0.28038615930E-01  0.35750994182E-01  0.10000000475E-02 0.  1.
</event>
<event>
 4   0  0.2441219E-02  0.9118800E+02  0.7818609E-02  0.1379984E+01
      -11   -1    0    0    0    0  0.00000000000E+00  0.00000000000E+00  0.35740347158E-01  0.35744000000E-01  0.51099999109E-03 0.  1.
       11   -1    0    0    0    0 -0.00000000000E+00 -0.00000000000E+00 -0.35740347158E-01  0.35744000000E-01  0.51099999109E-03 0. -1.
       22    1    1    2    0    0 -0.54934247705E-02 -0.54073541397E-02  0.34895793305E-01  0.35737005818E-01  0.00000000000E+00 0.  1.
  9000001    1    1    2    0    0  0.54934247705E-02  0.54073541397E-02 -0.34895793305E-01  0.35750994182E-01  0.10000000475E-02 0. -1.
</event>
<event>
 4   0  0.2441219E-02  0.9118800E+02  0.7818609E-02  0.1379984E+01
      -11   -1    0    0    0    0  0.00000000000E+00  0.00000000000E+00  0.35740347158E-01  0.35744000000E-01  0.51099999109E-03 0. -1.
       11   -1    0    0    0    0 -0.00000000000E+00 -0.00000000000E+00 -0.35740347158E-01  0.35744000000E-01  0.51099999109E-03 0.  1.
       22    1    1    2    0    0 -0.60798893573E-02 -0.62474185767E-03  0.35210484630E-01  0.35737005818E-01  0.00000000000E+00 0. -1.
  9000001    1    1    2    0    0  0.60798893573E-02  0.62474185767E-03 -0.35210484630E-01  0.35750994182E-01  0.10000000475E-02 0.  1.
</event>
<event>
 4   0  0.2441219E-02  0.9118800E+02  0.7818609E-02  0.1379984E+01
      -11   -1    0    0    0    0  0.00000000000E+00  0.00000000000E+00  0.35740347158E-01  0.35744000000E-01  0.51099999109E-03 0. -1.
       11   -1    0    0    0    0 -0.00000000000E+00 -0.00000000000E+00 -0.35740347158E-01  0.35744000000E-01  0.51099999109E-03 0.  1.
       22    1    1    2    0    0  0.28900560826E-01 -0.44666692702E-02 -0.20541178994E-01  0.35737005818E-01  0.00000000000E+00 0.  1.
  9000001    1    1    2    0    0 -0.28900560826E-01  0.44666692702E-02  0.20541178994E-01  0.35750994182E-01  0.10000000475E-02 0. -1.
</event>
<event>
 4   0  0.2441219E-02  0.9118800E+02  0.7818609E-02  0.1379984E+01
      -11   -1    0    0    0    0  0.00000000000E+00  0.00000000000E+00  0.35740347158E-01  0.35744000000E-01  0.51099999109E-03 0.  1.
       11   -1    0    0    0    0 -0.00000000000E+00 -0.00000000000E+00 -0.35740347158E-01  0.35744000000E-01  0.51099999109E-03 0. -1.
       22    1    1    2    0    0  0.73713542386E-02  0.55580248961E-02 -0.34523978346E-01  0.35737005818E-01  0.00000000000E+00 0. -1.
  9000001    1    1    2    0    0 -0.73713542386E-02 -0.55580248961E-02  0.34523978346E-01  0.35750994182E-01  0.10000000475E-02 0.  1.
</event>
<event>
 4   0  0.2441219E-02  0.9118800E+02  0.7818609E-02  0.1379984E+01
      -11   -1    0    0    0    0  0.00000000000E+00  0.00000000000E+00  0.35740347158E-01  0.35744000000E-01  0.51099999109E-03 0. -1.
       11   -1    0    0    0    0 -0.00000000000E+00 -0.00000000000E+00 -0.35740347158E-01  0.35744000000E-01  0.51099999109E-03 0.  1.
       22    1    1    2    0    0 -0.42501618542E-02 -0.17642903433E-01 -0.30786322735E-01  0.35737005818E-01  0.00000000000E+00 0.  1.
  9000001    1    1    2    0    0  0.42501618542E-02  0.17642903433E-01  0.30786322735E-01  0.35750994182E-01  0.10000000475E-02 0. -1.
</event>
<event>
 4   0  0.2441219E-02  0.9118800E+02  0.7818609E-02  0.1379984E+01
      -11   -1    0    0    0    0  0.00000000000E+00  0.00000000000E+00  0.35740347158E-01  0.35744000000E-01  0.51099999109E-03 0. -1.
       11   -1    0    0    0    0 -0.00000000000E+00 -0.00000000000E+00 -0.35740347158E-01  0.35744000000E-01  0.51099999109E-03 0.  1.
       22    1    1    2    0    0  0.34509245984E-02  0.39988379329E-02 -0.35344504516E-01  0.35737005818E-01  0.00000000000E+00 0.  1.
  9000001    1    1    2    0    0 -0.34509245984E-02 -0.39988379329E-02  0.35344504516E-01  0.35750994182E-01  0.10000000475E-02 0. -1.
</event>
<event>
 4   0  0.2441219E-02  0.9118800E+02  0.7818609E-02  0.1379984E+01
      -11   -1    0    0    0    0  0.00000000000E+00  0.00000000000E+00  0.35740347158E-01  0.35744000000E-01  0.51099999109E-03 0. -1.
       11   -1    0    0    0    0 -0.00000000000E+00 -0.00000000000E+00 -0.35740347158E-01  0.35744000000E-01  0.51099999109E-03 0.  1.
       22    1    1    2    0    0  0.10589884339E-02 -0.20926811463E-01  0.28949623320E-01  0.35737005818E-01  0.00000000000E+00 0. -1.
  9000001    1    1    2    0    0 -0.10589884339E-02  0.20926811463E-01 -0.28949623320E-01  0.35750994182E-01  0.10000000475E-02 0.  1.
</event>
<event>
 4   0  0.2441219E-02  0.9118800E+02  0.7818609E-02  0.1379984E+01
      -11   -1    0    0    0    0  0.00000000000E+00  0.00000000000E+00  0.35740347158E-01  0.35744000000E-01  0.51099999109E-03 0. -1.
       11   -1    0    0    0    0 -0.00000000000E+00 -0.00000000000E+00 -0.35740347158E-01  0.35744000000E-01  0.51099999109E-03 0.  1.
       22    1    1    2    0    0  0.12355098966E-01  0.25762709165E-03 -0.33532353671E-01  0.35737005818E-01  0.00000000000E+00 0.  1.
  9000001    1    1    2    0    0 -0.12355098966E-01 -0.25762709165E-03  0.33532353671E-01  0.35750994182E-01  0.10000000475E-02 0. -1.
</event>
<event>
 4   0  0.2441219E-02  0.9118800E+02  0.7818609E-02  0.1379984E+01
      -11   -1    0    0    0    0  0.00000000000E+00  0.00000000000E+00  0.35740347158E-01  0.35744000000E-01  0.51099999109E-03 0. -1.
       11   -1    0    0    0    0 -0.00000000000E+00 -0.00000000000E+00 -0.35740347158E-01  0.35744000000E-01  0.51099999109E-03 0.  1.
       22    1    1    2    0    0  0.36299585236E-02  0.32984361248E-02  0.35398831974E-01  0.35737005818E-01  0.00000000000E+00 0. -1.
  9000001    1    1    2    0    0 -0.36299585236E-02 -0.32984361248E-02 -0.35398831974E-01  0.35750994182E-01  0.10000000475E-02 0.  1.
</event>
<event>
 4   0  0.2441219E-02  0.9118800E+02  0.7818609E-02  0.1379984E+01
      -11   -1    0    0    0    0  0.00000000000E+00  0.00000000000E+00  0.35740347158E-01  0.35744000000E-01  0.51099999109E-03 0. -1.
       11   -1    0    0    0    0 -0.00000000000E+00 -0.00000000000E+00 -0.35740347158E-01  0.35744000000E-01  0.51099999109E-03 0.  1.
       22    1    1    2    0    0  0.41193576694E-02  0.14994347622E-02  0.35467113960E-01  0.35737005818E-01  0.00000000000E+00 0. -1.
  9000001    1    1    2    0    0 -0.41193576694E-02 -0.14994347622E-02 -0.35467113960E-01  0.35750994182E-01  0.10000000475E-02 0.  1.
</event>
<event>
 4   0  0.2441219E-02  0.9118800E+02  0.7818609E-02  0.1379984E+01
      -11   -1    0    0    0    0  0.00000000000E+00  0.00000000000E+00  0.35740347158E-01  0.35744000000E-01  0.51099999109E-03 0. -1.
       11   -1    0    0    0    0 -0.00000000000E+00 -0.00000000000E+00 -0.35740347158E-01  0.35744000000E-01  0.51099999109E-03 0.  1.
       22    1    1    2    0    0 -0.83425620872E-02  0.10220400016E-01  0.33212628114E-01  0.35737005818E-01  0.00000000000E+00 0. -1.
  9000001    1    1    2    0    0  0.83425620872E-02 -0.10220400016E-01 -0.33212628114E-01  0.35750994182E-01  0.10000000475E-02 0.  1.
</event>
<event>
 4   0  0.2441219E-02  0.9118800E+02  0.7818609E-02  0.1379984E+01
      -11   -1    0    0    0    0  0.00000000000E+00  0.00000000000E+00  0.35740347158E-01  0.35744000000E-01  0.51099999109E-03 0. -1.
       11   -1    0    0    0    0 -0.00000000000E+00 -0.00000000000E+00 -0.35740347158E-01  0.35744000000E-01  0.51099999109E-03 0.  1.
       22    1    1    2    0    0  0.65654659726E-03  0.36054835616E-02  0.35548600812E-01  0.35737005818E-01  0.00000000000E+00 0. -1.
  9000001    1    1    2    0    0 -0.65654659726E-03 -0.36054835616E-02 -0.35548600812E-01  0.35750994182E-01  0.10000000475E-02 0.  1.
</event>
<event>
 4   0  0.2441219E-02  0.9118800E+02  0.7818609E-02  0.1379984E+01
      -11   -1    0    0    0    0  0.00000000000E+00  0.00000000000E+00  0.35740347158E-01  0.35744000000E-01  0.51099999109E-03 0. -1.
       11   -1    0    0    0    0 -0.00000000000E+00 -0.00000000000E+00 -0.35740347158E-01  0.35744000000E-01  0.51099999109E-03 0.  1.
       22    1    1    2    0    0  0.30988329847E-01  0.37099300053E-02  0.17409578326E-01  0.35737005818E-01  0.00000000000E+00 0.  1.
  9000001    1    1    2    0    0 -0.30988329847E-01 -0.37099300053E-02 -0.17409578326E-01  0.35750994182E-01  0.10000000475E-02 0. -1.
</event>
<event>
 4   0  0.2441219E-02  0.9118800E+02  0.7818609E-02  0.1379984E+01
      -11   -1    0    0    0    0  0.00000000000E+00  0.00000000000E+00  0.35740347158E-01  0.35744000000E-01  0.51099999109E-03 0.  1.
       11   -1    0    0    0    0 -0.00000000000E+00 -0.00000000000E+00 -0.35740347158E-01  0.35744000000E-01  0.51099999109E-03 0. -1.
       22    1    1    2    0    0  0.43679422340E-02 -0.51410860784E-02 -0.35094499561E-01  0.35737005818E-01  0.00000000000E+00 0. -1.
  9000001    1    1    2    0    0 -0.43679422340E-02  0.51410860784E-02  0.35094499561E-01  0.35750994182E-01  0.10000000475E-02 0.  1.
</event>
<event>
 4   0  0.2441219E-02  0.9118800E+02  0.7818609E-02  0.1379984E+01
      -11   -1    0    0    0    0  0.00000000000E+00  0.00000000000E+00  0.35740347158E-01  0.35744000000E-01  0.51099999109E-03 0. -1.
       11   -1    0    0    0    0 -0.00000000000E+00 -0.00000000000E+00 -0.35740347158E-01  0.35744000000E-01  0.51099999109E-03 0.  1.
       22    1    1    2    0    0 -0.64359205111E-02 -0.15236441963E-02  0.35119667145E-01  0.35737005818E-01  0.00000000000E+00 0. -1.
  9000001    1    1    2    0    0  0.64359205111E-02  0.15236441963E-02 -0.35119667145E-01  0.35750994182E-01  0.10000000475E-02 0.  1.
</event>
<event>
 4   0  0.2441219E-02  0.9118800E+02  0.7818609E-02  0.1379984E+01
      -11   -1    0    0    0    0  0.00000000000E+00  0.00000000000E+00  0.35740347158E-01  0.35744000000E-01  0.51099999109E-03 0. -1.
       11   -1    0    0    0    0 -0.00000000000E+00 -0.00000000000E+00 -0.35740347158E-01  0.35744000000E-01  0.51099999109E-03 0.  1.
       22    1    1    2    0    0 -0.93236887064E-02  0.49559462516E-02 -0.34141485183E-01  0.35737005818E-01  0.00000000000E+00 0.  1.
  9000001    1    1    2    0    0  0.93236887064E-02 -0.49559462516E-02  0.34141485183E-01  0.35750994182E-01  0.10000000475E-02 0. -1.
</event>
<event>
 4   0  0.2441219E-02  0.9118800E+02  0.7818609E-02  0.1379984E+01
      -11   -1    0    0    0    0  0.00000000000E+00  0.00000000000E+00  0.35740347158E-01  0.35744000000E-01  0.51099999109E-03 0.  1.
       11   -1    0    0    0    0 -0.00000000000E+00 -0.00000000000E+00 -0.35740347158E-01  0.35744000000E-01  0.51099999109E-03 0. -1.
       22    1    1    2    0    0  0.28572861235E-02 -0.18479189135E-02  0.35574635579E-01  0.35737005818E-01  0.00000000000E+00 0.  1.
  9000001    1    1    2    0    0 -0.28572861235E-02  0.18479189135E-02 -0.35574635579E-01  0.35750994182E-01  0.10000000475E-02 0. -1.
</event>
<event>
 4   0  0.2441219E-02  0.9118800E+02  0.7818609E-02  0.1379984E+01
      -11   -1    0    0    0    0  0.00000000000E+00  0.00000000000E+00  0.35740347158E-01  0.35744000000E-01  0.51099999109E-03 0.  1.
       11   -1    0    0    0    0 -0.00000000000E+00 -0.00000000000E+00 -0.35740347158E-01  0.35744000000E-01  0.51099999109E-03 0. -1.
       22    1    1    2    0    0 -0.83367533951E-02 -0.13528127635E-01  0.32009715562E-01  0.35737005818E-01  0.00000000000E+00 0.  1.
  9000001    1    1    2    0    0  0.83367533951E-02  0.13528127635E-01 -0.32009715562E-01  0.35750994182E-01  0.10000000475E-02 0. -1.
</event>
<event>
 4   0  0.2441219E-02  0.9118800E+02  0.7818609E-02  0.1379984E+01
      -11   -1    0    0    0    0  0.00000000000E+00  0.00000000000E+00  0.35740347158E-01  0.35744000000E-01  0.51099999109E-03 0.  1.
       11   -1    0    0    0    0 -0.00000000000E+00 -0.00000000000E+00 -0.35740347158E-01  0.35744000000E-01  0.51099999109E-03 0. -1.
       22    1    1    2    0    0 -0.84635567116E-02 -0.80530477854E-02 -0.33773513498E-01  0.35737005818E-01  0.00000000000E+00 0. -1.
  9000001    1    1    2    0    0  0.84635567116E-02  0.80530477854E-02  0.33773513498E-01  0.35750994182E-01  0.10000000475E-02 0.  1.
</event>
<event>
 4   0  0.2441219E-02  0.9118800E+02  0.7818609E-02  0.1379984E+01
      -11   -1    0    0    0    0  0.00000000000E+00  0.00000000000E+00  0.35740347158E-01  0.35744000000E-01  0.51099999109E-03 0.  1.
       11   -1    0    0    0    0 -0.00000000000E+00 -0.00000000000E+00 -0.35740347158E-01  0.35744000000E-01  0.51099999109E-03 0. -1.
       22    1    1    2    0    0  0.17624011604E-01 -0.13990749358E-02 -0.31057533533E-01  0.35737005818E-01  0.00000000000E+00 0. -1.
  9000001    1    1    2    0    0 -0.17624011604E-01  0.13990749358E-02  0.31057533533E-01  0.35750994182E-01  0.10000000475E-02 0.  1.
</event>
<event>
 4   0  0.2441219E-02  0.9118800E+02  0.7818609E-02  0.1379984E+01
      -11   -1    0    0    0    0  0.00000000000E+00  0.00000000000E+00  0.35740347158E-01  0.35744000000E-01  0.51099999109E-03 0.  1.
       11   -1    0    0    0    0 -0.00000000000E+00 -0.00000000000E+00 -0.35740347158E-01  0.35744000000E-01  0.51099999109E-03 0. -1.
       22    1    1    2    0    0  0.22082338988E-01 -0.10972600081E-01  0.25867082115E-01  0.35737005818E-01  0.00000000000E+00 0.  1.
  9000001    1    1    2    0    0 -0.22082338988E-01  0.10972600081E-01 -0.25867082115E-01  0.35750994182E-01  0.10000000475E-02 0. -1.
</event>
<event>
 4   0  0.2441219E-02  0.9118800E+02  0.7818609E-02  0.1379984E+01
      -11   -1    0    0    0    0  0.00000000000E+00  0.00000000000E+00  0.35740347158E-01  0.35744000000E-01  0.51099999109E-03 0.  1.
       11   -1    0    0    0    0 -0.00000000000E+00 -0.00000000000E+00 -0.35740347158E-01  0.35744000000E-01  0.51099999109E-03 0. -1.
       22    1    1    2    0    0  0.22391896657E-02  0.53375688812E-02 -0.35265138210E-01  0.35737005818E-01  0.00000000000E+00 0. -1.
  9000001    1    1    2    0    0 -0.22391896657E-02 -0.53375688812E-02  0.35265138210E-01  0.35750994182E-01  0.10000000475E-02 0.  1.
</event>
<event>
 4   0  0.2441219E-02  0.9118800E+02  0.7818609E-02  0.1379984E+01
      -11   -1    0    0    0    0  0.00000000000E+00  0.00000000000E+00  0.35740347158E-01  0.35744000000E-01  0.51099999109E-03 0.  1.
       11   -1    0    0    0    0 -0.00000000000E+00 -0.00000000000E+00 -0.35740347158E-01  0.35744000000E-01  0.51099999109E-03 0. -1.
       22    1    1    2    0    0  0.35443392774E-02 -0.19819102973E-01 -0.29525826005E-01  0.35737005818E-01  0.00000000000E+00 0. -1.
  9000001    1    1    2    0    0 -0.35443392774E-02  0.19819102973E-01  0.29525826005E-01  0.35750994182E-01  0.10000000475E-02 0.  1.
</event>
<event>
 4   0  0.2441219E-02  0.9118800E+02  0.7818609E-02  0.1379984E+01
      -11   -1    0    0    0    0  0.00000000000E+00  0.00000000000E+00  0.35740347158E-01  0.35744000000E-01  0.51099999109E-03 0.  1.
       11   -1    0    0    0    0 -0.00000000000E+00 -0.00000000000E+00 -0.35740347158E-01  0.35744000000E-01  0.51099999109E-03 0. -1.
       22    1    1    2    0    0 -0.43099203817E-02 -0.56855408091E-02  0.35017606955E-01  0.35737005818E-01  0.00000000000E+00 0.  1.
  9000001    1    1    2    0    0  0.43099203817E-02  0.56855408091E-02 -0.35017606955E-01  0.35750994182E-01  0.10000000475E-02 0. -1.
</event>
<event>
 4   0  0.2441219E-02  0.9118800E+02  0.7818609E-02  0.1379984E+01
      -11   -1    0    0    0    0  0.00000000000E+00  0.00000000000E+00  0.35740347158E-01  0.35744000000E-01  0.51099999109E-03 0. -1.
       11   -1    0    0    0    0 -0.00000000000E+00 -0.00000000000E+00 -0.35740347158E-01  0.35744000000E-01  0.51099999109E-03 0.  1.
       22    1    1    2    0    0  0.14864010245E-01 -0.11954631749E-01 -0.30220548705E-01  0.35737005818E-01  0.00000000000E+00 0.  1.
  9000001    1    1    2    0    0 -0.14864010245E-01  0.11954631749E-01  0.30220548705E-01  0.35750994182E-01  0.10000000475E-02 0. -1.
</event>
<event>
 4   0  0.2441219E-02  0.9118800E+02  0.7818609E-02  0.1379984E+01
      -11   -1    0    0    0    0  0.00000000000E+00  0.00000000000E+00  0.35740347158E-01  0.35744000000E-01  0.51099999109E-03 0. -1.
       11   -1    0    0    0    0 -0.00000000000E+00 -0.00000000000E+00 -0.35740347158E-01  0.35744000000E-01  0.51099999109E-03 0.  1.
       22    1    1    2    0    0 -0.18312246473E-02  0.26533540668E-02 -0.35591289852E-01  0.35737005818E-01  0.00000000000E+00 0.  1.
  9000001    1    1    2    0    0  0.18312246473E-02 -0.26533540668E-02  0.35591289852E-01  0.35750994182E-01  0.10000000475E-02 0. -1.
</event>
<event>
 4   0  0.2441219E-02  0.9118800E+02  0.7818609E-02  0.1379984E+01
      -11   -1    0    0    0    0  0.00000000000E+00  0.00000000000E+00  0.35740347158E-01  0.35744000000E-01  0.51099999109E-03 0. -1.
       11   -1    0    0    0    0 -0.00000000000E+00 -0.00000000000E+00 -0.35740347158E-01  0.35744000000E-01  0.51099999109E-03 0.  1.
       22    1    1    2    0    0  0.14274227019E-03 -0.12381265162E-01  0.33523387098E-01  0.35737005818E-01  0.00000000000E+00 0. -1.
  9000001    1    1    2    0    0 -0.14274227019E-03  0.12381265162E-01 -0.33523387098E-01  0.35750994182E-01  0.10000000475E-02 0.  1.
</event>
<event>
 4   0  0.2441219E-02  0.9118800E+02  0.7818609E-02  0.1379984E+01
      -11   -1    0    0    0    0  0.00000000000E+00  0.00000000000E+00  0.35740347158E-01  0.35744000000E-01  0.51099999109E-03 0.  1.
       11   -1    0    0    0    0 -0.00000000000E+00 -0.00000000000E+00 -0.35740347158E-01  0.35744000000E-01  0.51099999109E-03 0. -1.
       22    1    1    2    0    0  0.20193147340E-01  0.64580034258E-02  0.28769160174E-01  0.35737005818E-01  0.00000000000E+00 0.  1.
  9000001    1    1    2    0    0 -0.20193147340E-01 -0.64580034258E-02 -0.28769160174E-01  0.35750994182E-01  0.10000000475E-02 0. -1.
</event>
<event>
 4   0  0.2441219E-02  0.9118800E+02  0.7818609E-02  0.1379984E+01
      -11   -1    0    0    0    0  0.00000000000E+00  0.00000000000E+00  0.35740347158E-01  0.35744000000E-01  0.51099999109E-03 0.  1.
       11   -1    0    0    0    0 -0.00000000000E+00 -0.00000000000E+00 -0.35740347158E-01  0.35744000000E-01  0.51099999109E-03 0. -1.
       22    1    1    2    0    0 -0.22310446213E-04 -0.53280458071E-02  0.35337586434E-01  0.35737005818E-01  0.00000000000E+00 0.  1.
  9000001    1    1    2    0    0  0.22310446213E-04  0.53280458071E-02 -0.35337586434E-01  0.35750994182E-01  0.10000000475E-02 0. -1.
</event>
<event>
 4   0  0.2441219E-02  0.9118800E+02  0.7818609E-02  0.1379984E+01
      -11   -1    0    0    0    0  0.00000000000E+00  0.00000000000E+00  0.35740347158E-01  0.35744000000E-01  0.51099999109E-03 0. -1.
       11   -1    0    0    0    0 -0.00000000000E+00 -0.00000000000E+00 -0.35740347158E-01  0.35744000000E-01  0.51099999109E-03 0.  1.
       22    1    1    2    0    0  0.12023881136E-01  0.19687478511E-01  0.27294011379E-01  0.35737005818E-01  0.00000000000E+00 0. -1.
  9000001    1    1    2    0    0 -0.12023881136E-01 -0.19687478511E-01 -0.27294011379E-01  0.35750994182E-01  0.10000000475E-02 0.  1.
</event>
<event>
 4   0  0.2441219E-02  0.9118800E+02  0.7818609E-02  0.1379984E+01
      -11   -1    0    0    0    0  0.00000000000E+00  0.00000000000E+00  0.35740347158E-01  0.35744000000E-01  0.51099999109E-03 0. -1.
       11   -1    0    0    0    0 -0.00000000000E+00 -0.00000000000E+00 -0.35740347158E-01  0.35744000000E-01  0.51099999109E-03 0.  1.
       22    1    1    2    0    0  0.31905418166E-02  0.81491231000E-03 -0.35584967974E-01  0.35737005818E-01  0.00000000000E+00 0.  1.
  9000001    1    1    2    0    0 -0.31905418166E-02 -0.81491231000E-03  0.35584967974E-01  0.35750994182E-01  0.10000000475E-02 0. -1.
</event>
<event>
 4   0  0.2441219E-02  0.9118800E+02  0.7818609E-02  0.1379984E+01
      -11   -1    0    0    0    0  0.00000000000E+00  0.00000000000E+00  0.35740347158E-01  0.35744000000E-01  0.51099999109E-03 0. -1.
       11   -1    0    0    0    0 -0.00000000000E+00 -0.00000000000E+00 -0.35740347158E-01  0.35744000000E-01  0.51099999109E-03 0.  1.
       22    1    1    2    0    0  0.73102704894E-02  0.96017807392E-03  0.34968151056E-01  0.35737005818E-01  0.00000000000E+00 0. -1.
  9000001    1    1    2    0    0 -0.73102704894E-02 -0.96017807392E-03 -0.34968151056E-01  0.35750994182E-01  0.10000000475E-02 0.  1.
</event>
<event>
 4   0  0.2441219E-02  0.9118800E+02  0.7818609E-02  0.1379984E+01
      -11   -1    0    0    0    0  0.00000000000E+00  0.00000000000E+00  0.35740347158E-01  0.35744000000E-01  0.51099999109E-03 0. -1.
       11   -1    0    0    0    0 -0.00000000000E+00 -0.00000000000E+00 -0.35740347158E-01  0.35744000000E-01  0.51099999109E-03 0.  1.
       22    1    1    2    0    0 -0.69722118478E-02  0.58907357085E-02 -0.34551716016E-01  0.35737005818E-01  0.00000000000E+00 0.  1.
  9000001    1    1    2    0    0  0.69722118478E-02 -0.58907357085E-02  0.34551716016E-01  0.35750994182E-01  0.10000000475E-02 0. -1.
</event>
<event>
 4   0  0.2441219E-02  0.9118800E+02  0.7818609E-02  0.1379984E+01
      -11   -1    0    0    0    0  0.00000000000E+00  0.00000000000E+00  0.35740347158E-01  0.35744000000E-01  0.51099999109E-03 0.  1.
       11   -1    0    0    0    0 -0.00000000000E+00 -0.00000000000E+00 -0.35740347158E-01  0.35744000000E-01  0.51099999109E-03 0. -1.
       22    1    1    2    0    0 -0.13553966770E-02  0.53138974914E-02  0.35313722236E-01  0.35737005818E-01  0.00000000000E+00 0.  1.
  9000001    1    1    2    0    0  0.13553966770E-02 -0.53138974914E-02 -0.35313722236E-01  0.35750994182E-01  0.10000000475E-02 0. -1.
</event>
<event>
 4   0  0.2441219E-02  0.9118800E+02  0.7818609E-02  0.1379984E+01
      -11   -1    0    0    0    0  0.00000000000E+00  0.00000000000E+00  0.35740347158E-01  0.35744000000E-01  0.51099999109E-03 0.  1.
       11   -1    0    0    0    0 -0.00000000000E+00 -0.00000000000E+00 -0.35740347158E-01  0.35744000000E-01  0.51099999109E-03 0. -1.
       22    1    1    2    0    0  0.56733382951E-02 -0.15701040969E-03  0.35283454553E-01  0.35737005818E-01  0.00000000000E+00 0.  1.
  9000001    1    1    2    0    0 -0.56733382951E-02  0.15701040969E-03 -0.35283454553E-01  0.35750994182E-01  0.10000000475E-02 0. -1.
</event>
<event>
 4   0  0.2441219E-02  0.9118800E+02  0.7818609E-02  0.1379984E+01
      -11   -1    0    0    0    0  0.00000000000E+00  0.00000000000E+00  0.35740347158E-01  0.35744000000E-01  0.51099999109E-03 0.  1.
       11   -1    0    0    0    0 -0.00000000000E+00 -0.00000000000E+00 -0.35740347158E-01  0.35744000000E-01  0.51099999109E-03 0. -1.
       22    1    1    2    0    0 -0.31094326743E-02  0.63382181613E-03 -0.35595832386E-01  0.35737005818E-01  0.00000000000E+00 0. -1.
  9000001    1    1    2    0    0  0.31094326743E-02 -0.63382181613E-03  0.35595832386E-01  0.35750994182E-01  0.10000000475E-02 0.  1.
</event>
<event>
 4   0  0.2441219E-02  0.9118800E+02  0.7818609E-02  0.1379984E+01
      -11   -1    0    0    0    0  0.00000000000E+00  0.00000000000E+00  0.35740347158E-01  0.35744000000E-01  0.51099999109E-03 0.  1.
       11   -1    0    0    0    0 -0.00000000000E+00 -0.00000000000E+00 -0.35740347158E-01  0.35744000000E-01  0.51099999109E-03 0. -1.
       22    1    1    2    0    0  0.42205703336E-02  0.12620721909E-01  0.33166816993E-01  0.35737005818E-01  0.00000000000E+00 0.  1.
  9000001    1    1    2    0    0 -0.42205703336E-02 -0.12620721909E-01 -0.33166816993E-01  0.35750994182E-01  0.10000000475E-02 0. -1.
</event>
<event>
 4   0  0.2441219E-02  0.9118800E+02  0.7818609E-02  0.1379984E+01
      -11   -1    0    0    0    0  0.00000000000E+00  0.00000000000E+00  0.35740347158E-01  0.35744000000E-01  0.51099999109E-03 0. -1.
       11   -1    0    0    0    0 -0.00000000000E+00 -0.00000000000E+00 -0.35740347158E-01  0.35744000000E-01  0.51099999109E-03 0.  1.
       22    1    1    2    0    0 -0.60213019177E-03 -0.32799496808E-02  0.35581075787E-01  0.35737005818E-01  0.00000000000E+00 0. -1.
  9000001    1    1    2    0    0  0.60213019177E-03  0.32799496808E-02 -0.35581075787E-01  0.35750994182E-01  0.10000000475E-02 0.  1.
</event>
<event>
 4   0  0.2441219E-02  0.9118800E+02  0.7818609E-02  0.1379984E+01
      -11   -1    0    0    0    0  0.00000000000E+00  0.00000000000E+00  0.35740347158E-01  0.35744000000E-01  0.51099999109E-03 0.  1.
       11   -1    0    0    0    0 -0.00000000000E+00 -0.00000000000E+00 -0.35740347158E-01  0.35744000000E-01  0.51099999109E-03 0. -1.
       22    1    1    2    0    0 -0.32472967153E-01  0.55390019191E-02  0.13854943050E-01  0.35737005818E-01  0.00000000000E+00 0. -1.
  9000001    1    1    2    0    0  0.32472967153E-01 -0.55390019191E-02 -0.13854943050E-01  0.35750994182E-01  0.10000000475E-02 0.  1.
</event>
<event>
 4   0  0.2441219E-02  0.9118800E+02  0.7818609E-02  0.1379984E+01
      -11   -1    0    0    0    0  0.00000000000E+00  0.00000000000E+00  0.35740347158E-01  0.35744000000E-01  0.51099999109E-03 0. -1.
       11   -1    0    0    0    0 -0.00000000000E+00 -0.00000000000E+00 -0.35740347158E-01  0.35744000000E-01  0.51099999109E-03 0.  1.
       22    1    1    2    0    0  0.26553597136E-02 -0.51735324096E-02 -0.35260703511E-01  0.35737005818E-01  0.00000000000E+00 0.  1.
  9000001    1    1    2    0    0 -0.26553597136E-02  0.51735324096E-02  0.35260703511E-01  0.35750994182E-01  0.10000000475E-02 0. -1.
</event>
<event>
 4   0  0.2441219E-02  0.9118800E+02  0.7818609E-02  0.1379984E+01
      -11   -1    0    0    0    0  0.00000000000E+00  0.00000000000E+00  0.35740347158E-01  0.35744000000E-01  0.51099999109E-03 0.  1.
       11   -1    0    0    0    0 -0.00000000000E+00 -0.00000000000E+00 -0.35740347158E-01  0.35744000000E-01  0.51099999109E-03 0. -1.
       22    1    1    2    0    0 -0.31763171416E-02  0.40254517402E-02 -0.35367221160E-01  0.35737005818E-01  0.00000000000E+00 0. -1.
  9000001    1    1    2    0    0  0.31763171416E-02 -0.40254517402E-02  0.35367221160E-01  0.35750994182E-01  0.10000000475E-02 0.  1.
</event>
<event>
 4   0  0.2441219E-02  0.9118800E+02  0.7818609E-02  0.1379984E+01
      -11   -1    0    0    0    0  0.00000000000E+00  0.00000000000E+00  0.35740347158E-01  0.35744000000E-01  0.51099999109E-03 0.  1.
       11   -1    0    0    0    0 -0.00000000000E+00 -0.00000000000E+00 -0.35740347158E-01  0.35744000000E-01  0.51099999109E-03 0. -1.
       22    1    1    2    0    0 -0.87556152553E-02 -0.10057112310E-03 -0.34647693600E-01  0.35737005818E-01  0.00000000000E+00 0. -1.
  9000001    1    1    2    0    0  0.87556152553E-02  0.10057112310E-03  0.34647693600E-01  0.35750994182E-01  0.10000000475E-02 0.  1.
</event>
<event>
 4   0  0.2441219E-02  0.9118800E+02  0.7818609E-02  0.1379984E+01
      -11   -1    0    0    0    0  0.00000000000E+00  0.00000000000E+00  0.35740347158E-01  0.35744000000E-01  0.51099999109E-03 0. -1.
       11   -1    0    0    0    0 -0.00000000000E+00 -0.00000000000E+00 -0.35740347158E-01  0.35744000000E-01  0.51099999109E-03 0.  1.
       22    1    1    2    0    0 -0.30985445380E-02  0.24287024646E-02 -0.35519487763E-01  0.35737005818E-01  0.00000000000E+00 0.  1.
  9000001    1    1    2    0    0  0.30985445380E-02 -0.24287024646E-02  0.35519487763E-01  0.35750994182E-01  0.10000000475E-02 0. -1.
</event>
<event>
 4   0  0.2441219E-02  0.9118800E+02  0.7818609E-02  0.1379984E+01
      -11   -1    0    0    0    0  0.00000000000E+00  0.00000000000E+00  0.35740347158E-01  0.35744000000E-01  0.51099999109E-03 0. -1.
       11   -1    0    0    0    0 -0.00000000000E+00 -0.00000000000E+00 -0.35740347158E-01  0.35744000000E-01  0.51099999109E-03 0.  1.
       22    1    1    2    0    0 -0.44997937447E-02  0.32881912658E-02  0.35299762596E-01  0.35737005818E-01  0.00000000000E+00 0. -1.
  9000001    1    1    2    0    0  0.44997937447E-02 -0.32881912658E-02 -0.35299762596E-01  0.35750994182E-01  0.10000000475E-02 0.  1.
</event>
<event>
 4   0  0.2441219E-02  0.9118800E+02  0.7818609E-02  0.1379984E+01
      -11   -1    0    0    0    0  0.00000000000E+00  0.00000000000E+00  0.35740347158E-01  0.35744000000E-01  0.51099999109E-03 0.  1.
       11   -1    0    0    0    0 -0.00000000000E+00 -0.00000000000E+00 -0.35740347158E-01  0.35744000000E-01  0.51099999109E-03 0. -1.
       22    1    1    2    0    0  0.10937480767E-01 -0.10293541033E-02 -0.34006551273E-01  0.35737005818E-01  0.00000000000E+00 0. -1.
  9000001    1    1    2    0    0 -0.10937480767E-01  0.10293541033E-02  0.34006551273E-01  0.35750994182E-01  0.10000000475E-02 0.  1.
</event>
<event>
 4   0  0.2441219E-02  0.9118800E+02  0.7818609E-02  0.1379984E+01
      -11   -1    0    0    0    0  0.00000000000E+00  0.00000000000E+00  0.35740347158E-01  0.35744000000E-01  0.51099999109E-03 0. -1.
       11   -1    0    0    0    0 -0.00000000000E+00 -0.00000000000E+00 -0.35740347158E-01  0.35744000000E-01  0.51099999109E-03 0.  1.
       22    1    1    2    0    0 -0.10346754720E-01 -0.90540937697E-02  0.32986385641E-01  0.35737005818E-01  0.00000000000E+00 0. -1.
  9000001    1    1    2    0    0  0.10346754720E-01  0.90540937697E-02 -0.32986385641E-01  0.35750994182E-01  0.10000000475E-02 0.  1.
</event>
<event>
 4   0  0.2441219E-02  0.9118800E+02  0.7818609E-02  0.1379984E+01
      -11   -1    0    0    0    0  0.00000000000E+00  0.00000000000E+00  0.35740347158E-01  0.35744000000E-01  0.51099999109E-03 0.  1.
       11   -1    0    0    0    0 -0.00000000000E+00 -0.00000000000E+00 -0.35740347158E-01  0.35744000000E-01  0.51099999109E-03 0. -1.
       22    1    1    2    0    0 -0.75926752422E-02  0.79258691220E-02 -0.34009784860E-01  0.35737005818E-01  0.00000000000E+00 0. -1.
  9000001    1    1    2    0    0  0.75926752422E-02 -0.79258691220E-02  0.34009784860E-01  0.35750994182E-01  0.10000000475E-02 0.  1.
</event>
<event>
 4   0  0.2441219E-02  0.9118800E+02  0.7818609E-02  0.1379984E+01
      -11   -1    0    0    0    0  0.00000000000E+00  0.00000000000E+00  0.35740347158E-01  0.35744000000E-01  0.51099999109E-03 0.  1.
       11   -1    0    0    0    0 -0.00000000000E+00 -0.00000000000E+00 -0.35740347158E-01  0.35744000000E-01  0.51099999109E-03 0. -1.
       22    1    1    2    0    0 -0.54455167312E-02 -0.52088720192E-02 -0.34933473699E-01  0.35737005818E-01  0.00000000000E+00 0. -1.
  9000001    1    1    2    0    0  0.54455167312E-02  0.52088720192E-02  0.34933473699E-01  0.35750994182E-01  0.10000000475E-02 0.  1.
</event>
<event>
 4   0  0.2441219E-02  0.9118800E+02  0.7818609E-02  0.1379984E+01
      -11   -1    0    0    0    0  0.00000000000E+00  0.00000000000E+00  0.35740347158E-01  0.35744000000E-01  0.51099999109E-03 0.  1.
       11   -1    0    0    0    0 -0.00000000000E+00 -0.00000000000E+00 -0.35740347158E-01  0.35744000000E-01  0.51099999109E-03 0. -1.
       22    1    1    2    0    0 -0.15005326876E-01 -0.50717850086E-02 -0.32035148619E-01  0.35737005818E-01  0.00000000000E+00 0. -1.
  9000001    1    1    2    0    0  0.15005326876E-01  0.50717850086E-02  0.32035148619E-01  0.35750994182E-01  0.10000000475E-02 0.  1.
</event>
<event>
 4   0  0.2441219E-02  0.9118800E+02  0.7818609E-02  0.1379984E+01
      -11   -1    0    0    0    0  0.00000000000E+00  0.00000000000E+00  0.35740347158E-01  0.35744000000E-01  0.51099999109E-03 0. -1.
       11   -1    0    0    0    0 -0.00000000000E+00 -0.00000000000E+00 -0.35740347158E-01  0.35744000000E-01  0.51099999109E-03 0.  1.
       22    1    1    2    0    0  0.28925455225E-01 -0.90571188085E-02  0.18931989430E-01  0.35737005818E-01  0.00000000000E+00 0.  1.
  9000001    1    1    2    0    0 -0.28925455225E-01  0.90571188085E-02 -0.18931989430E-01  0.35750994182E-01  0.10000000475E-02 0. -1.
</event>
<event>
 4   0  0.2441219E-02  0.9118800E+02  0.7818609E-02  0.1379984E+01
      -11   -1    0    0    0    0  0.00000000000E+00  0.00000000000E+00  0.35740347158E-01  0.35744000000E-01  0.51099999109E-03 0.  1.
       11   -1    0    0    0    0 -0.00000000000E+00 -0.00000000000E+00 -0.35740347158E-01  0.35744000000E-01  0.51099999109E-03 0. -1.
       22    1    1    2    0    0 -0.54633523643E-02  0.42286021324E-02 -0.35062861974E-01  0.35737005818E-01  0.00000000000E+00 0. -1.
  9000001    1    1    2    0    0  0.54633523643E-02 -0.42286021324E-02  0.35062861974E-01  0.35750994182E-01  0.10000000475E-02 0.  1.
</event>
<event>
 4   0  0.2441219E-02  0.9118800E+02  0.7818609E-02  0.1379984E+01
      -11   -1    0    0    0    0  0.00000000000E+00  0.00000000000E+00  0.35740347158E-01  0.35744000000E-01  0.51099999109E-03 0. -1.
       11   -1    0    0    0    0 -0.00000000000E+00 -0.00000000000E+00 -0.35740347158E-01  0.35744000000E-01  0.51099999109E-03 0.  1.
       22    1    1    2    0    0 -0.15762791412E-01 -0.17528202374E-01 -0.26859451099E-01  0.35737005818E-01  0.00000000000E+00 0.  1.
  9000001    1    1    2    0    0  0.15762791412E-01  0.17528202374E-01  0.26859451099E-01  0.35750994182E-01  0.10000000475E-02 0. -1.
</event>
<event>
 4   0  0.2441219E-02  0.9118800E+02  0.7818609E-02  0.1379984E+01
      -11   -1    0    0    0    0  0.00000000000E+00  0.00000000000E+00  0.35740347158E-01  0.35744000000E-01  0.51099999109E-03 0. -1.
       11   -1    0    0    0    0 -0.00000000000E+00 -0.00000000000E+00 -0.35740347158E-01  0.35744000000E-01  0.51099999109E-03 0.  1.
       22    1    1    2    0    0 -0.47699841900E-02 -0.13167356776E-02  0.35392754101E-01  0.35737005818E-01  0.00000000000E+00 0. -1.
  9000001    1    1    2    0    0  0.47699841900E-02  0.13167356776E-02 -0.35392754101E-01  0.35750994182E-01  0.10000000475E-02 0.  1.
</event>
<event>
 4   0  0.2441219E-02  0.9118800E+02  0.7818609E-02  0.1379984E+01
      -11   -1    0    0    0    0  0.00000000000E+00  0.00000000000E+00  0.35740347158E-01  0.35744000000E-01  0.51099999109E-03 0. -1.
       11   -1    0    0    0    0 -0.00000000000E+00 -0.00000000000E+00 -0.35740347158E-01  0.35744000000E-01  0.51099999109E-03 0.  1.
       22    1    1    2    0    0  0.13455611060E-01 -0.80306078992E-02 -0.32118366282E-01  0.35737005818E-01  0.00000000000E+00 0.  1.
  9000001    1    1    2    0    0 -0.13455611060E-01  0.80306078992E-02  0.32118366282E-01  0.35750994182E-01  0.10000000475E-02 0. -1.
</event>
<event>
 4   0  0.2441219E-02  0.9118800E+02  0.7818609E-02  0.1379984E+01
      -11   -1    0    0    0    0  0.00000000000E+00  0.00000000000E+00  0.35740347158E-01  0.35744000000E-01  0.51099999109E-03 0. -1.
       11   -1    0    0    0    0 -0.00000000000E+00 -0.00000000000E+00 -0.35740347158E-01  0.35744000000E-01  0.51099999109E-03 0.  1.
       22    1    1    2    0    0 -0.15430969257E-01  0.17835850545E-02 -0.32184430972E-01  0.35737005818E-01  0.00000000000E+00 0.  1.
  9000001    1    1    2    0    0  0.15430969257E-01 -0.17835850545E-02  0.32184430972E-01  0.35750994182E-01  0.10000000475E-02 0. -1.
</event>
<event>
 4   0  0.2441219E-02  0.9118800E+02  0.7818609E-02  0.1379984E+01
      -11   -1    0    0    0    0  0.00000000000E+00  0.00000000000E+00  0.35740347158E-01  0.35744000000E-01  0.51099999109E-03 0.  1.
       11   -1    0    0    0    0 -0.00000000000E+00 -0.00000000000E+00 -0.35740347158E-01  0.35744000000E-01  0.51099999109E-03 0. -1.
       22    1    1    2    0    0 -0.61293931835E-02 -0.32618867383E-02 -0.35056015446E-01  0.35737005818E-01  0.00000000000E+00 0. -1.
  9000001    1    1    2    0    0  0.61293931835E-02  0.32618867383E-02  0.35056015446E-01  0.35750994182E-01  0.10000000475E-02 0.  1.
</event>
<event>
 4   0  0.2441219E-02  0.9118800E+02  0.7818609E-02  0.1379984E+01
      -11   -1    0    0    0    0  0.00000000000E+00  0.00000000000E+00  0.35740347158E-01  0.35744000000E-01  0.51099999109E-03 0.  1.
       11   -1    0    0    0    0 -0.00000000000E+00 -0.00000000000E+00 -0.35740347158E-01  0.35744000000E-01  0.51099999109E-03 0. -1.
       22    1    1    2    0    0  0.29742617421E-02  0.59957941188E-02 -0.35104669274E-01  0.35737005818E-01  0.00000000000E+00 0. -1.
  9000001    1    1    2    0    0 -0.29742617421E-02 -0.59957941188E-02  0.35104669274E-01  0.35750994182E-01  0.10000000475E-02 0.  1.
</event>
<event>
 4   0  0.2441219E-02  0.9118800E+02  0.7818609E-02  0.1379984E+01
      -11   -1    0    0    0    0  0.00000000000E+00  0.00000000000E+00  0.35740347158E-01  0.35744000000E-01  0.51099999109E-03 0. -1.
       11   -1    0    0    0    0 -0.00000000000E+00 -0.00000000000E+00 -0.35740347158E-01  0.35744000000E-01  0.51099999109E-03 0.  1.
       22    1    1    2    0    0 -0.80162686747E-02 -0.25739038964E-01 -0.23460070218E-01  0.35737005818E-01  0.00000000000E+00 0.  1.
  9000001    1    1    2    0    0  0.80162686747E-02  0.25739038964E-01  0.23460070218E-01  0.35750994182E-01  0.10000000475E-02 0. -1.
</event>
<event>
 4   0  0.2441219E-02  0.9118800E+02  0.7818609E-02  0.1379984E+01
      -11   -1    0    0    0    0  0.00000000000E+00  0.00000000000E+00  0.35740347158E-01  0.35744000000E-01  0.51099999109E-03 0. -1.
       11   -1    0    0    0    0 -0.00000000000E+00 -0.00000000000E+00 -0.35740347158E-01  0.35744000000E-01  0.51099999109E-03 0.  1.
       22    1    1    2    0    0  0.73001391523E-02 -0.19814989164E-01  0.28830673902E-01  0.35737005818E-01  0.00000000000E+00 0. -1.
  9000001    1    1    2    0    0 -0.73001391523E-02  0.19814989164E-01 -0.28830673902E-01  0.35750994182E-01  0.10000000475E-02 0.  1.
</event>
<event>
 4   0  0.2441219E-02  0.9118800E+02  0.7818609E-02  0.1379984E+01
      -11   -1    0    0    0    0  0.00000000000E+00  0.00000000000E+00  0.35740347158E-01  0.35744000000E-01  0.51099999109E-03 0. -1.
       11   -1    0    0    0    0 -0.00000000000E+00 -0.00000000000E+00 -0.35740347158E-01  0.35744000000E-01  0.51099999109E-03 0.  1.
       22    1    1    2    0    0 -0.16783084005E-02 -0.65574303860E-02 -0.35090126425E-01  0.35737005818E-01  0.00000000000E+00 0.  1.
  9000001    1    1    2    0    0  0.16783084005E-02  0.65574303860E-02  0.35090126425E-01  0.35750994182E-01  0.10000000475E-02 0. -1.
</event>
<event>
 4   0  0.2441219E-02  0.9118800E+02  0.7818609E-02  0.1379984E+01
      -11   -1    0    0    0    0  0.00000000000E+00  0.00000000000E+00  0.35740347158E-01  0.35744000000E-01  0.51099999109E-03 0.  1.
       11   -1    0    0    0    0 -0.00000000000E+00 -0.00000000000E+00 -0.35740347158E-01  0.35744000000E-01  0.51099999109E-03 0. -1.
       22    1    1    2    0    0 -0.23327118559E-02 -0.24680408219E-01 -0.25740425218E-01  0.35737005818E-01  0.00000000000E+00 0. -1.
  9000001    1    1    2    0    0  0.23327118559E-02  0.24680408219E-01  0.25740425218E-01  0.35750994182E-01  0.10000000475E-02 0.  1.
</event>
<event>
 4   0  0.2441219E-02  0.9118800E+02  0.7818609E-02  0.1379984E+01
      -11   -1    0    0    0    0  0.00000000000E+00  0.00000000000E+00  0.35740347158E-01  0.35744000000E-01  0.51099999109E-03 0.  1.
       11   -1    0    0    0    0 -0.00000000000E+00 -0.00000000000E+00 -0.35740347158E-01  0.35744000000E-01  0.51099999109E-03 0. -1.
       22    1    1    2    0    0  0.87147046930E-02 -0.99690630450E-02  0.33193452502E-01  0.35737005818E-01  0.00000000000E+00 0.  1.
  9000001    1    1    2    0    0 -0.87147046930E-02  0.99690630450E-02 -0.33193452502E-01  0.35750994182E-01  0.10000000475E-02 0. -1.
</event>
<event>
 4   0  0.2441219E-02  0.9118800E+02  0.7818609E-02  0.1379984E+01
      -11   -1    0    0    0    0  0.00000000000E+00  0.00000000000E+00  0.35740347158E-01  0.35744000000E-01  0.51099999109E-03 0. -1.
       11   -1    0    0    0    0 -0.00000000000E+00 -0.00000000000E+00 -0.35740347158E-01  0.35744000000E-01  0.51099999109E-03 0.  1.
       22    1    1    2    0    0  0.13226708834E-01  0.16066251984E-02  0.33160315345E-01  0.35737005818E-01  0.00000000000E+00 0. -1.
  9000001    1    1    2    0    0 -0.13226708834E-01 -0.16066251984E-02 -0.33160315345E-01  0.35750994182E-01  0.10000000475E-02 0.  1.
</event>
<event>
 4   0  0.2441219E-02  0.9118800E+02  0.7818609E-02  0.1379984E+01
      -11   -1    0    0    0    0  0.00000000000E+00  0.00000000000E+00  0.35740347158E-01  0.35744000000E-01  0.51099999109E-03 0.  1.
       11   -1    0    0    0    0 -0.00000000000E+00 -0.00000000000E+00 -0.35740347158E-01  0.35744000000E-01  0.51099999109E-03 0. -1.
       22    1    1    2    0    0  0.80431294801E-02  0.32430047320E-01  0.12678078870E-01  0.35737005818E-01  0.00000000000E+00 0.  1.
  9000001    1    1    2    0    0 -0.80431294801E-02 -0.32430047320E-01 -0.12678078870E-01  0.35750994182E-01  0.10000000475E-02 0. -1.
</event>
<event>
 4   0  0.2441219E-02  0.9118800E+02  0.7818609E-02  0.1379984E+01
      -11   -1    0    0    0    0  0.00000000000E+00  0.00000000000E+00  0.35740347158E-01  0.35744000000E-01  0.51099999109E-03 0.  1.
       11   -1    0    0    0    0 -0.00000000000E+00 -0.00000000000E+00 -0.35740347158E-01  0.35744000000E-01  0.51099999109E-03 0. -1.
       22    1    1    2    0    0 -0.15154071052E-02 -0.25006451479E-01  0.25485574559E-01  0.35737005818E-01  0.00000000000E+00 0.  1.
  9000001    1    1    2    0    0  0.15154071052E-02  0.25006451479E-01 -0.25485574559E-01  0.35750994182E-01  0.10000000475E-02 0. -1.
</event>
<event>
 4   0  0.2441219E-02  0.9118800E+02  0.7818609E-02  0.1379984E+01
      -11   -1    0    0    0    0  0.00000000000E+00  0.00000000000E+00  0.35740347158E-01  0.35744000000E-01  0.51099999109E-03 0.  1.
       11   -1    0    0    0    0 -0.00000000000E+00 -0.00000000000E+00 -0.35740347158E-01  0.35744000000E-01  0.51099999109E-03 0. -1.
       22    1    1    2    0    0 -0.69451875236E-02  0.16872990287E-01  0.30727840046E-01  0.35737005818E-01  0.00000000000E+00 0.  1.
  9000001    1    1    2    0    0  0.69451875236E-02 -0.16872990287E-01 -0.30727840046E-01  0.35750994182E-01  0.10000000475E-02 0. -1.
</event>
<event>
 4   0  0.2441219E-02  0.9118800E+02  0.7818609E-02  0.1379984E+01
      -11   -1    0    0    0    0  0.00000000000E+00  0.00000000000E+00  0.35740347158E-01  0.35744000000E-01  0.51099999109E-03 0.  1.
       11   -1    0    0    0    0 -0.00000000000E+00 -0.00000000000E+00 -0.35740347158E-01  0.35744000000E-01  0.51099999109E-03 0. -1.
       22    1    1    2    0    0 -0.33695035192E-01 -0.10665827514E-01  0.52932326353E-02  0.35737005818E-01  0.00000000000E+00 0.  1.
  9000001    1    1    2    0    0  0.33695035192E-01  0.10665827514E-01 -0.52932326353E-02  0.35750994182E-01  0.10000000475E-02 0. -1.
</event>
<event>
 4   0  0.2441219E-02  0.9118800E+02  0.7818609E-02  0.1379984E+01
      -11   -1    0    0    0    0  0.00000000000E+00  0.00000000000E+00  0.35740347158E-01  0.35744000000E-01  0.51099999109E-03 0.  1.
       11   -1    0    0    0    0 -0.00000000000E+00 -0.00000000000E+00 -0.35740347158E-01  0.35744000000E-01  0.51099999109E-03 0. -1.
       22    1    1    2    0    0 -0.59802853562E-02 -0.46064189811E-02 -0.34930655249E-01  0.35737005818E-01  0.00000000000E+00 0. -1.
  9000001    1    1    2    0    0  0.59802853562E-02  0.46064189811E-02  0.34930655249E-01  0.35750994182E-01  0.10000000475E-02 0.  1.
</event>
<event>
 4   0  0.2441219E-02  0.9118800E+02  0.7818609E-02  0.1379984E+01
      -11   -1    0    0    0    0  0.00000000000E+00  0.00000000000E+00  0.35740347158E-01  0.35744000000E-01  0.51099999109E-03 0.  1.
       11   -1    0    0    0    0 -0.00000000000E+00 -0.00000000000E+00 -0.35740347158E-01  0.35744000000E-01  0.51099999109E-03 0. -1.
       22    1    1    2    0    0  0.19027719598E-01 -0.22971518428E-01  0.19682195327E-01  0.35737005818E-01  0.00000000000E+00 0.  1.
  9000001    1    1    2    0    0 -0.19027719598E-01  0.22971518428E-01 -0.19682195327E-01  0.35750994182E-01  0.10000000475E-02 0. -1.
</event>
<event>
 4   0  0.2441219E-02  0.9118800E+02  0.7818609E-02  0.1379984E+01
      -11   -1    0    0    0    0  0.00000000000E+00  0.00000000000E+00  0.35740347158E-01  0.35744000000E-01  0.51099999109E-03 0. -1.
       11   -1    0    0    0    0 -0.00000000000E+00 -0.00000000000E+00 -0.35740347158E-01  0.35744000000E-01  0.51099999109E-03 0.  1.
       22    1    1    2    0    0 -0.44827442893E-02  0.58835255237E-03  0.35449857966E-01  0.35737005818E-01  0.00000000000E+00 0. -1.
  9000001    1    1    2    0    0  0.44827442893E-02 -0.58835255237E-03 -0.35449857966E-01  0.35750994182E-01  0.10000000475E-02 0.  1.
</event>
<event>
 4   0  0.2441219E-02  0.9118800E+02  0.7818609E-02  0.1379984E+01
      -11   -1    0    0    0    0  0.00000000000E+00  0.00000000000E+00  0.35740347158E-01  0.35744000000E-01  0.51099999109E-03 0. -1.
       11   -1    0    0    0    0 -0.00000000000E+00 -0.00000000000E+00 -0.35740347158E-01  0.35744000000E-01  0.51099999109E-03 0.  1.
       22    1    1    2    0    0  0.11867673634E-01 -0.32741408179E-01 -0.80182353322E-02  0.35737005818E-01  0.00000000000E+00 0. -1.
  9000001    1    1    2    0    0 -0.11867673634E-01  0.32741408179E-01  0.80182353322E-02  0.35750994182E-01  0.10000000475E-02 0.  1.
</event>
<event>
 4   0  0.2441219E-02  0.9118800E+02  0.7818609E-02  0.1379984E+01
      -11   -1    0    0    0    0  0.00000000000E+00  0.00000000000E+00  0.35740347158E-01  0.35744000000E-01  0.51099999109E-03 0. -1.
       11   -1    0    0    0    0 -0.00000000000E+00 -0.00000000000E+00 -0.35740347158E-01  0.35744000000E-01  0.51099999109E-03 0.  1.
       22    1    1    2    0    0 -0.82243347297E-02  0.84170155644E-02 -0.33743855027E-01  0.35737005818E-01  0.00000000000E+00 0.  1.
  9000001    1    1    2    0    0  0.82243347297E-02 -0.84170155644E-02  0.33743855027E-01  0.35750994182E-01  0.10000000475E-02 0. -1.
</event>
<event>
 4   0  0.2441219E-02  0.9118800E+02  0.7818609E-02  0.1379984E+01
      -11   -1    0    0    0    0  0.00000000000E+00  0.00000000000E+00  0.35740347158E-01  0.35744000000E-01  0.51099999109E-03 0.  1.
       11   -1    0    0    0    0 -0.00000000000E+00 -0.00000000000E+00 -0.35740347158E-01  0.35744000000E-01  0.51099999109E-03 0. -1.
       22    1    1    2    0    0 -0.35464040270E-01 -0.11627425517E-02  0.42524654437E-02  0.35737005818E-01  0.00000000000E+00 0.  1.
  9000001    1    1    2    0    0  0.35464040270E-01  0.11627425517E-02 -0.42524654437E-02  0.35750994182E-01  0.10000000475E-02 0. -1.
</event>
<event>
 4   0  0.2441219E-02  0.9118800E+02  0.7818609E-02  0.1379984E+01
      -11   -1    0    0    0    0  0.00000000000E+00  0.00000000000E+00  0.35740347158E-01  0.35744000000E-01  0.51099999109E-03 0. -1.
       11   -1    0    0    0    0 -0.00000000000E+00 -0.00000000000E+00 -0.35740347158E-01  0.35744000000E-01  0.51099999109E-03 0.  1.
       22    1    1    2    0    0  0.63370233630E-02 -0.62554923036E-02  0.34609890722E-01  0.35737005818E-01  0.00000000000E+00 0. -1.
  9000001    1    1    2    0    0 -0.63370233630E-02  0.62554923036E-02 -0.34609890722E-01  0.35750994182E-01  0.10000000475E-02 0.  1.
</event>
<event>
 4   0  0.2441219E-02  0.9118800E+02  0.7818609E-02  0.1379984E+01
      -11   -1    0    0    0    0  0.00000000000E+00  0.00000000000E+00  0.35740347158E-01  0.35744000000E-01  0.51099999109E-03 0. -1.
       11   -1    0    0    0    0 -0.00000000000E+00 -0.00000000000E+00 -0.35740347158E-01  0.35744000000E-01  0.51099999109E-03 0.  1.
       22    1    1    2    0    0  0.23227974688E-02 -0.25977367942E-02  0.35566697349E-01  0.35737005818E-01  0.00000000000E+00 0. -1.
  9000001    1    1    2    0    0 -0.23227974688E-02  0.25977367942E-02 -0.35566697349E-01  0.35750994182E-01  0.10000000475E-02 0.  1.
</event>
<event>
 4   0  0.2441219E-02  0.9118800E+02  0.7818609E-02  0.1379984E+01
      -11   -1    0    0    0    0  0.00000000000E+00  0.00000000000E+00  0.35740347158E-01  0.35744000000E-01  0.51099999109E-03 0. -1.
       11   -1    0    0    0    0 -0.00000000000E+00 -0.00000000000E+00 -0.35740347158E-01  0.35744000000E-01  0.51099999109E-03 0.  1.
       22    1    1    2    0    0 -0.99656100632E-02  0.34210056864E-01  0.27371902185E-02  0.35737005818E-01  0.00000000000E+00 0. -1.
  9000001    1    1    2    0    0  0.99656100632E-02 -0.34210056864E-01 -0.27371902185E-02  0.35750994182E-01  0.10000000475E-02 0.  1.
</event>
<event>
 4   0  0.2441219E-02  0.9118800E+02  0.7818609E-02  0.1379984E+01
      -11   -1    0    0    0    0  0.00000000000E+00  0.00000000000E+00  0.35740347158E-01  0.35744000000E-01  0.51099999109E-03 0.  1.
       11   -1    0    0    0    0 -0.00000000000E+00 -0.00000000000E+00 -0.35740347158E-01  0.35744000000E-01  0.51099999109E-03 0. -1.
       22    1    1    2    0    0  0.64773070621E-02  0.31667397970E-03  0.35143673623E-01  0.35737005818E-01  0.00000000000E+00 0.  1.
  9000001    1    1    2    0    0 -0.64773070621E-02 -0.31667397970E-03 -0.35143673623E-01  0.35750994182E-01  0.10000000475E-02 0. -1.
</event>
<event>
 4   0  0.2441219E-02  0.9118800E+02  0.7818609E-02  0.1379984E+01
      -11   -1    0    0    0    0  0.00000000000E+00  0.00000000000E+00  0.35740347158E-01  0.35744000000E-01  0.51099999109E-03 0. -1.
       11   -1    0    0    0    0 -0.00000000000E+00 -0.00000000000E+00 -0.35740347158E-01  0.35744000000E-01  0.51099999109E-03 0.  1.
       22    1    1    2    0    0  0.52582918063E-02  0.74044024300E-02  0.34563836257E-01  0.35737005818E-01  0.00000000000E+00 0. -1.
  9000001    1    1    2    0    0 -0.52582918063E-02 -0.74044024300E-02 -0.34563836257E-01  0.35750994182E-01  0.10000000475E-02 0.  1.
</event>
<event>
 4   0  0.2441219E-02  0.9118800E+02  0.7818609E-02  0.1379984E+01
      -11   -1    0    0    0    0  0.00000000000E+00  0.00000000000E+00  0.35740347158E-01  0.35744000000E-01  0.51099999109E-03 0. -1.
       11   -1    0    0    0    0 -0.00000000000E+00 -0.00000000000E+00 -0.35740347158E-01  0.35744000000E-01  0.51099999109E-03 0.  1.
       22    1    1    2    0    0  0.30775625346E-01  0.15034863869E-01 -0.10195456728E-01  0.35737005818E-01  0.00000000000E+00 0.  1.
  9000001    1    1    2    0    0 -0.30775625346E-01 -0.15034863869E-01  0.10195456728E-01  0.35750994182E-01  0.10000000475E-02 0. -1.
</event>
<event>
 4   0  0.2441219E-02  0.9118800E+02  0.7818609E-02  0.1379984E+01
      -11   -1    0    0    0    0  0.00000000000E+00  0.00000000000E+00  0.35740347158E-01  0.35744000000E-01  0.51099999109E-03 0.  1.
       11   -1    0    0    0    0 -0.00000000000E+00 -0.00000000000E+00 -0.35740347158E-01  0.35744000000E-01  0.51099999109E-03 0. -1.
       22    1    1    2    0    0 -0.64134446347E-02  0.33173660114E-02 -0.34999948508E-01  0.35737005818E-01  0.00000000000E+00 0. -1.
  9000001    1    1    2    0    0  0.64134446347E-02 -0.33173660114E-02  0.34999948508E-01  0.35750994182E-01  0.10000000475E-02 0.  1.
</event>
<event>
 4   0  0.2441219E-02  0.9118800E+02  0.7818609E-02  0.1379984E+01
      -11   -1    0    0    0    0  0.00000000000E+00  0.00000000000E+00  0.35740347158E-01  0.35744000000E-01  0.51099999109E-03 0. -1.
       11   -1    0    0    0    0 -0.00000000000E+00 -0.00000000000E+00 -0.35740347158E-01  0.35744000000E-01  0.51099999109E-03 0.  1.
       22    1    1    2    0    0 -0.40046753150E-02 -0.18708159808E-03  0.35511422965E-01  0.35737005818E-01  0.00000000000E+00 0. -1.
  9000001    1    1    2    0    0  0.40046753150E-02  0.18708159808E-03 -0.35511422965E-01  0.35750994182E-01  0.10000000475E-02 0.  1.
</event>
<event>
 4   0  0.2441219E-02  0.9118800E+02  0.7818609E-02  0.1379984E+01
      -11   -1    0    0    0    0  0.00000000000E+00  0.00000000000E+00  0.35740347158E-01  0.35744000000E-01  0.51099999109E-03 0.  1.
       11   -1    0    0    0    0 -0.00000000000E+00 -0.00000000000E+00 -0.35740347158E-01  0.35744000000E-01  0.51099999109E-03 0. -1.
       22    1    1    2    0    0 -0.92150789708E-03 -0.18481690480E-01 -0.30573052270E-01  0.35737005818E-01  0.00000000000E+00 0. -1.
  9000001    1    1    2    0    0  0.92150789708E-03  0.18481690480E-01  0.30573052270E-01  0.35750994182E-01  0.10000000475E-02 0.  1.
</event>
<event>
 4   0  0.2441219E-02  0.9118800E+02  0.7818609E-02  0.1379984E+01
      -11   -1    0    0    0    0  0.00000000000E+00  0.00000000000E+00  0.35740347158E-01  0.35744000000E-01  0.51099999109E-03 0. -1.
       11   -1    0    0    0    0 -0.00000000000E+00 -0.00000000000E+00 -0.35740347158E-01  0.35744000000E-01  0.51099999109E-03 0.  1.
       22    1    1    2    0    0 -0.61276030043E-02  0.77910178514E-03  0.35199134460E-01  0.35737005818E-01  0.00000000000E+00 0. -1.
  9000001    1    1    2    0    0  0.61276030043E-02 -0.77910178514E-03 -0.35199134460E-01  0.35750994182E-01  0.10000000475E-02 0.  1.
</event>
<event>
 4   0  0.2441219E-02  0.9118800E+02  0.7818609E-02  0.1379984E+01
      -11   -1    0    0    0    0  0.00000000000E+00  0.00000000000E+00  0.35740347158E-01  0.35744000000E-01  0.51099999109E-03 0. -1.
       11   -1    0    0    0    0 -0.00000000000E+00 -0.00000000000E+00 -0.35740347158E-01  0.35744000000E-01  0.51099999109E-03 0.  1.
       22    1    1    2    0    0 -0.25626346859E-01 -0.11294123075E-01 -0.22200601692E-01  0.35737005818E-01  0.00000000000E+00 0.  1.
  9000001    1    1    2    0    0  0.25626346859E-01  0.11294123075E-01  0.22200601692E-01  0.35750994182E-01  0.10000000475E-02 0. -1.
</event>
<event>
 4   0  0.2441219E-02  0.9118800E+02  0.7818609E-02  0.1379984E+01
      -11   -1    0    0    0    0  0.00000000000E+00  0.00000000000E+00  0.35740347158E-01  0.35744000000E-01  0.51099999109E-03 0. -1.
       11   -1    0    0    0    0 -0.00000000000E+00 -0.00000000000E+00 -0.35740347158E-01  0.35744000000E-01  0.51099999109E-03 0.  1.
       22    1    1    2    0    0 -0.73385419225E-02 -0.24520629078E-01  0.24940291436E-01  0.35737005818E-01  0.00000000000E+00 0. -1.
  9000001    1    1    2    0    0  0.73385419225E-02  0.24520629078E-01 -0.24940291436E-01  0.35750994182E-01  0.10000000475E-02 0.  1.
</event>
<event>
 4   0  0.2441219E-02  0.9118800E+02  0.7818609E-02  0.1379984E+01
      -11   -1    0    0    0    0  0.00000000000E+00  0.00000000000E+00  0.35740347158E-01  0.35744000000E-01  0.51099999109E-03 0.  1.
       11   -1    0    0    0    0 -0.00000000000E+00 -0.00000000000E+00 -0.35740347158E-01  0.35744000000E-01  0.51099999109E-03 0. -1.
       22    1    1    2    0    0 -0.17167048902E-01 -0.60148998868E-02  0.30761128006E-01  0.35737005818E-01  0.00000000000E+00 0.  1.
  9000001    1    1    2    0    0  0.17167048902E-01  0.60148998868E-02 -0.30761128006E-01  0.35750994182E-01  0.10000000475E-02 0. -1.
</event>
<event>
 4   0  0.2441219E-02  0.9118800E+02  0.7818609E-02  0.1379984E+01
      -11   -1    0    0    0    0  0.00000000000E+00  0.00000000000E+00  0.35740347158E-01  0.35744000000E-01  0.51099999109E-03 0.  1.
       11   -1    0    0    0    0 -0.00000000000E+00 -0.00000000000E+00 -0.35740347158E-01  0.35744000000E-01  0.51099999109E-03 0. -1.
       22    1    1    2    0    0 -0.59415385723E-02  0.15926975669E-01  0.31435062435E-01  0.35737005818E-01  0.00000000000E+00 0.  1.
  9000001    1    1    2    0    0  0.59415385723E-02 -0.15926975669E-01 -0.31435062435E-01  0.35750994182E-01  0.10000000475E-02 0. -1.
</event>
<event>
 4   0  0.2441219E-02  0.9118800E+02  0.7818609E-02  0.1379984E+01
      -11   -1    0    0    0    0  0.00000000000E+00  0.00000000000E+00  0.35740347158E-01  0.35744000000E-01  0.51099999109E-03 0.  1.
       11   -1    0    0    0    0 -0.00000000000E+00 -0.00000000000E+00 -0.35740347158E-01  0.35744000000E-01  0.51099999109E-03 0. -1.
       22    1    1    2    0    0  0.96776376392E-02 -0.22452572537E-02 -0.34328351759E-01  0.35737005818E-01  0.00000000000E+00 0. -1.
  9000001    1    1    2    0    0 -0.96776376392E-02  0.22452572537E-02  0.34328351759E-01  0.35750994182E-01  0.10000000475E-02 0.  1.
</event>
<event>
 4   0  0.2441219E-02  0.9118800E+02  0.7818609E-02  0.1379984E+01
      -11   -1    0    0    0    0  0.00000000000E+00  0.00000000000E+00  0.35740347158E-01  0.35744000000E-01  0.51099999109E-03 0. -1.
       11   -1    0    0    0    0 -0.00000000000E+00 -0.00000000000E+00 -0.35740347158E-01  0.35744000000E-01  0.51099999109E-03 0.  1.
       22    1    1    2    0    0 -0.83406602454E-02 -0.84467074336E-02  0.33707864143E-01  0.35737005818E-01  0.00000000000E+00 0. -1.
  9000001    1    1    2    0    0  0.83406602454E-02  0.84467074336E-02 -0.33707864143E-01  0.35750994182E-01  0.10000000475E-02 0.  1.
</event>
<event>
 4   0  0.2441219E-02  0.9118800E+02  0.7818609E-02  0.1379984E+01
      -11   -1    0    0    0    0  0.00000000000E+00  0.00000000000E+00  0.35740347158E-01  0.35744000000E-01  0.51099999109E-03 0. -1.
       11   -1    0    0    0    0 -0.00000000000E+00 -0.00000000000E+00 -0.35740347158E-01  0.35744000000E-01  0.51099999109E-03 0.  1.
       22    1    1    2    0    0  0.37922434354E-02 -0.15437575673E-01  0.32006776344E-01  0.35737005818E-01  0.00000000000E+00 0. -1.
  9000001    1    1    2    0    0 -0.37922434354E-02  0.15437575673E-01 -0.32006776344E-01  0.35750994182E-01  0.10000000475E-02 0.  1.
</event>
<event>
 4   0  0.2441219E-02  0.9118800E+02  0.7818609E-02  0.1379984E+01
      -11   -1    0    0    0    0  0.00000000000E+00  0.00000000000E+00  0.35740347158E-01  0.35744000000E-01  0.51099999109E-03 0.  1.
       11   -1    0    0    0    0 -0.00000000000E+00 -0.00000000000E+00 -0.35740347158E-01  0.35744000000E-01  0.51099999109E-03 0. -1.
       22    1    1    2    0    0 -0.15224150036E-01  0.91771596430E-02  0.31002235104E-01  0.35737005818E-01  0.00000000000E+00 0.  1.
  9000001    1    1    2    0    0  0.15224150036E-01 -0.91771596430E-02 -0.31002235104E-01  0.35750994182E-01  0.10000000475E-02 0. -1.
</event>
<event>
 4   0  0.2441219E-02  0.9118800E+02  0.7818609E-02  0.1379984E+01
      -11   -1    0    0    0    0  0.00000000000E+00  0.00000000000E+00  0.35740347158E-01  0.35744000000E-01  0.51099999109E-03 0. -1.
       11   -1    0    0    0    0 -0.00000000000E+00 -0.00000000000E+00 -0.35740347158E-01  0.35744000000E-01  0.51099999109E-03 0.  1.
       22    1    1    2    0    0  0.15675360956E-02 -0.49088226257E-02  0.35363538792E-01  0.35737005818E-01  0.00000000000E+00 0. -1.
  9000001    1    1    2    0    0 -0.15675360956E-02  0.49088226257E-02 -0.35363538792E-01  0.35750994182E-01  0.10000000475E-02 0.  1.
</event>
<event>
 4   0  0.2441219E-02  0.9118800E+02  0.7818609E-02  0.1379984E+01
      -11   -1    0    0    0    0  0.00000000000E+00  0.00000000000E+00  0.35740347158E-01  0.35744000000E-01  0.51099999109E-03 0.  1.
       11   -1    0    0    0    0 -0.00000000000E+00 -0.00000000000E+00 -0.35740347158E-01  0.35744000000E-01  0.51099999109E-03 0. -1.
       22    1    1    2    0    0 -0.53547040008E-02  0.15051954112E-02 -0.35301488874E-01  0.35737005818E-01  0.00000000000E+00 0. -1.
  9000001    1    1    2    0    0  0.53547040008E-02 -0.15051954112E-02  0.35301488874E-01  0.35750994182E-01  0.10000000475E-02 0.  1.
</event>
<event>
 4   0  0.2441219E-02  0.9118800E+02  0.7818609E-02  0.1379984E+01
      -11   -1    0    0    0    0  0.00000000000E+00  0.00000000000E+00  0.35740347158E-01  0.35744000000E-01  0.51099999109E-03 0.  1.
       11   -1    0    0    0    0 -0.00000000000E+00 -0.00000000000E+00 -0.35740347158E-01  0.35744000000E-01  0.51099999109E-03 0. -1.
       22    1    1    2    0    0  0.25661760140E-02 -0.13493944989E-01 -0.32991844055E-01  0.35737005818E-01  0.00000000000E+00 0. -1.
  9000001    1    1    2    0    0 -0.25661760140E-02  0.13493944989E-01  0.32991844055E-01  0.35750994182E-01  0.10000000475E-02 0.  1.
</event>
<event>
 4   0  0.2441219E-02  0.9118800E+02  0.7818609E-02  0.1379984E+01
      -11   -1    0    0    0    0  0.00000000000E+00  0.00000000000E+00  0.35740347158E-01  0.35744000000E-01  0.51099999109E-03 0.  1.
       11   -1    0    0    0    0 -0.00000000000E+00 -0.00000000000E+00 -0.35740347158E-01  0.35744000000E-01  0.51099999109E-03 0. -1.
       22    1    1    2    0    0  0.14471942583E-01 -0.88535249372E-02  0.31453323496E-01  0.35737005818E-01  0.00000000000E+00 0.  1.
  9000001    1    1    2    0    0 -0.14471942583E-01  0.88535249372E-02 -0.31453323496E-01  0.35750994182E-01  0.10000000475E-02 0. -1.
</event>
<event>
 4   0  0.2441219E-02  0.9118800E+02  0.7818609E-02  0.1379984E+01
      -11   -1    0    0    0    0  0.00000000000E+00  0.00000000000E+00  0.35740347158E-01  0.35744000000E-01  0.51099999109E-03 0. -1.
       11   -1    0    0    0    0 -0.00000000000E+00 -0.00000000000E+00 -0.35740347158E-01  0.35744000000E-01  0.51099999109E-03 0.  1.
       22    1    1    2    0    0  0.22640315698E-01  0.13301329957E-02 -0.27618479976E-01  0.35737005818E-01  0.00000000000E+00 0.  1.
  9000001    1    1    2    0    0 -0.22640315698E-01 -0.13301329957E-02  0.27618479976E-01  0.35750994182E-01  0.10000000475E-02 0. -1.
</event>
<event>
 4   0  0.2441219E-02  0.9118800E+02  0.7818609E-02  0.1379984E+01
      -11   -1    0    0    0    0  0.00000000000E+00  0.00000000000E+00  0.35740347158E-01  0.35744000000E-01  0.51099999109E-03 0.  1.
       11   -1    0    0    0    0 -0.00000000000E+00 -0.00000000000E+00 -0.35740347158E-01  0.35744000000E-01  0.51099999109E-03 0. -1.
       22    1    1    2    0    0  0.23122301407E-01 -0.26021794240E-01  0.80844905242E-02  0.35737005818E-01  0.00000000000E+00 0.  1.
  9000001    1    1    2    0    0 -0.23122301407E-01  0.26021794240E-01 -0.80844905242E-02  0.35750994182E-01  0.10000000475E-02 0. -1.
</event>
<event>
 4   0  0.2441219E-02  0.9118800E+02  0.7818609E-02  0.1379984E+01
      -11   -1    0    0    0    0  0.00000000000E+00  0.00000000000E+00  0.35740347158E-01  0.35744000000E-01  0.51099999109E-03 0.  1.
       11   -1    0    0    0    0 -0.00000000000E+00 -0.00000000000E+00 -0.35740347158E-01  0.35744000000E-01  0.51099999109E-03 0. -1.
       22    1    1    2    0    0 -0.10272907376E-01  0.38370689276E-02  0.34012907270E-01  0.35737005818E-01  0.00000000000E+00 0.  1.
  9000001    1    1    2    0    0  0.10272907376E-01 -0.38370689276E-02 -0.34012907270E-01  0.35750994182E-01  0.10000000475E-02 0. -1.
</event>
<event>
 4   0  0.2441219E-02  0.9118800E+02  0.7818609E-02  0.1379984E+01
      -11   -1    0    0    0    0  0.00000000000E+00  0.00000000000E+00  0.35740347158E-01  0.35744000000E-01  0.51099999109E-03 0. -1.
       11   -1    0    0    0    0 -0.00000000000E+00 -0.00000000000E+00 -0.35740347158E-01  0.35744000000E-01  0.51099999109E-03 0.  1.
       22    1    1    2    0    0  0.63459516898E-02 -0.21926379879E-01  0.27497206175E-01  0.35737005818E-01  0.00000000000E+00 0. -1.
  9000001    1    1    2    0    0 -0.63459516898E-02  0.21926379879E-01 -0.27497206175E-01  0.35750994182E-01  0.10000000475E-02 0.  1.
</event>
<event>
 4   0  0.2441219E-02  0.9118800E+02  0.7818609E-02  0.1379984E+01
      -11   -1    0    0    0    0  0.00000000000E+00  0.00000000000E+00  0.35740347158E-01  0.35744000000E-01  0.51099999109E-03 0. -1.
       11   -1    0    0    0    0 -0.00000000000E+00 -0.00000000000E+00 -0.35740347158E-01  0.35744000000E-01  0.51099999109E-03 0.  1.
       22    1    1    2    0    0  0.32403595694E-01  0.10262988731E-01  0.11036830763E-01  0.35737005818E-01  0.00000000000E+00 0. -1.
  9000001    1    1    2    0    0 -0.32403595694E-01 -0.10262988731E-01 -0.11036830763E-01  0.35750994182E-01  0.10000000475E-02 0.  1.
</event>
<event>
 4   0  0.2441219E-02  0.9118800E+02  0.7818609E-02  0.1379984E+01
      -11   -1    0    0    0    0  0.00000000000E+00  0.00000000000E+00  0.35740347158E-01  0.35744000000E-01  0.51099999109E-03 0. -1.
       11   -1    0    0    0    0 -0.00000000000E+00 -0.00000000000E+00 -0.35740347158E-01  0.35744000000E-01  0.51099999109E-03 0.  1.
       22    1    1    2    0    0  0.12692611731E-01  0.18459596219E-03  0.33406543021E-01  0.35737005818E-01  0.00000000000E+00 0. -1.
  9000001    1    1    2    0    0 -0.12692611731E-01 -0.18459596219E-03 -0.33406543021E-01  0.35750994182E-01  0.10000000475E-02 0.  1.
</event>
<event>
 4   0  0.2441219E-02  0.9118800E+02  0.7818609E-02  0.1379984E+01
      -11   -1    0    0    0    0  0.00000000000E+00  0.00000000000E+00  0.35740347158E-01  0.35744000000E-01  0.51099999109E-03 0. -1.
       11   -1    0    0    0    0 -0.00000000000E+00 -0.00000000000E+00 -0.35740347158E-01  0.35744000000E-01  0.51099999109E-03 0.  1.
       22    1    1    2    0    0  0.25980306429E-02  0.17834559964E-02  0.35597796369E-01  0.35737005818E-01  0.00000000000E+00 0. -1.
  9000001    1    1    2    0    0 -0.25980306429E-02 -0.17834559964E-02 -0.35597796369E-01  0.35750994182E-01  0.10000000475E-02 0.  1.
</event>
<event>
 4   0  0.2441219E-02  0.9118800E+02  0.7818609E-02  0.1379984E+01
      -11   -1    0    0    0    0  0.00000000000E+00  0.00000000000E+00  0.35740347158E-01  0.35744000000E-01  0.51099999109E-03 0. -1.
       11   -1    0    0    0    0 -0.00000000000E+00 -0.00000000000E+00 -0.35740347158E-01  0.35744000000E-01  0.51099999109E-03 0.  1.
       22    1    1    2    0    0 -0.92071570533E-02 -0.19527513511E-01 -0.28478729957E-01  0.35737005818E-01  0.00000000000E+00 0.  1.
  9000001    1    1    2    0    0  0.92071570533E-02  0.19527513511E-01  0.28478729957E-01  0.35750994182E-01  0.10000000475E-02 0. -1.
</event>
<event>
 4   0  0.2441219E-02  0.9118800E+02  0.7818609E-02  0.1379984E+01
      -11   -1    0    0    0    0  0.00000000000E+00  0.00000000000E+00  0.35740347158E-01  0.35744000000E-01  0.51099999109E-03 0.  1.
       11   -1    0    0    0    0 -0.00000000000E+00 -0.00000000000E+00 -0.35740347158E-01  0.35744000000E-01  0.51099999109E-03 0. -1.
       22    1    1    2    0    0  0.17450469057E-01 -0.11183911925E-01  0.29112451436E-01  0.35737005818E-01  0.00000000000E+00 0.  1.
  9000001    1    1    2    0    0 -0.17450469057E-01  0.11183911925E-01 -0.29112451436E-01  0.35750994182E-01  0.10000000475E-02 0. -1.
</event>
<event>
 4   0  0.2441219E-02  0.9118800E+02  0.7818609E-02  0.1379984E+01
      -11   -1    0    0    0    0  0.00000000000E+00  0.00000000000E+00  0.35740347158E-01  0.35744000000E-01  0.51099999109E-03 0. -1.
       11   -1    0    0    0    0 -0.00000000000E+00 -0.00000000000E+00 -0.35740347158E-01  0.35744000000E-01  0.51099999109E-03 0.  1.
       22    1    1    2    0    0 -0.80791595980E-02  0.61074850596E-02  0.34271845461E-01  0.35737005818E-01  0.00000000000E+00 0. -1.
  9000001    1    1    2    0    0  0.80791595980E-02 -0.61074850596E-02 -0.34271845461E-01  0.35750994182E-01  0.10000000475E-02 0.  1.
</event>
<event>
 4   0  0.2441219E-02  0.9118800E+02  0.7818609E-02  0.1379984E+01
      -11   -1    0    0    0    0  0.00000000000E+00  0.00000000000E+00  0.35740347158E-01  0.35744000000E-01  0.51099999109E-03 0. -1.
       11   -1    0    0    0    0 -0.00000000000E+00 -0.00000000000E+00 -0.35740347158E-01  0.35744000000E-01  0.51099999109E-03 0.  1.
       22    1    1    2    0    0 -0.15036095170E-01  0.10476490254E-01  0.30680491829E-01  0.35737005818E-01  0.00000000000E+00 0. -1.
  9000001    1    1    2    0    0  0.15036095170E-01 -0.10476490254E-01 -0.30680491829E-01  0.35750994182E-01  0.10000000475E-02 0.  1.
</event>
<event>
 4   0  0.2441219E-02  0.9118800E+02  0.7818609E-02  0.1379984E+01
      -11   -1    0    0    0    0  0.00000000000E+00  0.00000000000E+00  0.35740347158E-01  0.35744000000E-01  0.51099999109E-03 0.  1.
       11   -1    0    0    0    0 -0.00000000000E+00 -0.00000000000E+00 -0.35740347158E-01  0.35744000000E-01  0.51099999109E-03 0. -1.
       22    1    1    2    0    0  0.33793614350E-02 -0.19554068739E-01  0.29721236464E-01  0.35737005818E-01  0.00000000000E+00 0.  1.
  9000001    1    1    2    0    0 -0.33793614350E-02  0.19554068739E-01 -0.29721236464E-01  0.35750994182E-01  0.10000000475E-02 0. -1.
</event>
<event>
 4   0  0.2441219E-02  0.9118800E+02  0.7818609E-02  0.1379984E+01
      -11   -1    0    0    0    0  0.00000000000E+00  0.00000000000E+00  0.35740347158E-01  0.35744000000E-01  0.51099999109E-03 0. -1.
       11   -1    0    0    0    0 -0.00000000000E+00 -0.00000000000E+00 -0.35740347158E-01  0.35744000000E-01  0.51099999109E-03 0.  1.
       22    1    1    2    0    0 -0.58395190967E-03  0.75602915485E-02  0.34923266983E-01  0.35737005818E-01  0.00000000000E+00 0. -1.
  9000001    1    1    2    0    0  0.58395190967E-03 -0.75602915485E-02 -0.34923266983E-01  0.35750994182E-01  0.10000000475E-02 0.  1.
</event>
<event>
 4   0  0.2441219E-02  0.9118800E+02  0.7818609E-02  0.1379984E+01
      -11   -1    0    0    0    0  0.00000000000E+00  0.00000000000E+00  0.35740347158E-01  0.35744000000E-01  0.51099999109E-03 0.  1.
       11   -1    0    0    0    0 -0.00000000000E+00 -0.00000000000E+00 -0.35740347158E-01  0.35744000000E-01  0.51099999109E-03 0. -1.
       22    1    1    2    0    0 -0.61136016771E-02 -0.36328142786E-02  0.35022280334E-01  0.35737005818E-01  0.00000000000E+00 0.  1.
  9000001    1    1    2    0    0  0.61136016771E-02  0.36328142786E-02 -0.35022280334E-01  0.35750994182E-01  0.10000000475E-02 0. -1.
</event>
<event>
 4   0  0.2441219E-02  0.9118800E+02  0.7818609E-02  0.1379984E+01
      -11   -1    0    0    0    0  0.00000000000E+00  0.00000000000E+00  0.35740347158E-01  0.35744000000E-01  0.51099999109E-03 0. -1.
       11   -1    0    0    0    0 -0.00000000000E+00 -0.00000000000E+00 -0.35740347158E-01  0.35744000000E-01  0.51099999109E-03 0.  1.
       22    1    1    2    0    0 -0.88748162456E-02 -0.26703800714E-02 -0.34514349070E-01  0.35737005818E-01  0.00000000000E+00 0.  1.
  9000001    1    1    2    0    0  0.88748162456E-02  0.26703800714E-02  0.34514349070E-01  0.35750994182E-01  0.10000000475E-02 0. -1.
</event>
<event>
 4   0  0.2441219E-02  0.9118800E+02  0.7818609E-02  0.1379984E+01
      -11   -1    0    0    0    0  0.00000000000E+00  0.00000000000E+00  0.35740347158E-01  0.35744000000E-01  0.51099999109E-03 0.  1.
       11   -1    0    0    0    0 -0.00000000000E+00 -0.00000000000E+00 -0.35740347158E-01  0.35744000000E-01  0.51099999109E-03 0. -1.
       22    1    1    2    0    0 -0.37052631105E-02 -0.30247576387E-02  0.35415469097E-01  0.35737005818E-01  0.00000000000E+00 0.  1.
  9000001    1    1    2    0    0  0.37052631105E-02  0.30247576387E-02 -0.35415469097E-01  0.35750994182E-01  0.10000000475E-02 0. -1.
</event>
<event>
 4   0  0.2441219E-02  0.9118800E+02  0.7818609E-02  0.1379984E+01
      -11   -1    0    0    0    0  0.00000000000E+00  0.00000000000E+00  0.35740347158E-01  0.35744000000E-01  0.51099999109E-03 0.  1.
       11   -1    0    0    0    0 -0.00000000000E+00 -0.00000000000E+00 -0.35740347158E-01  0.35744000000E-01  0.51099999109E-03 0. -1.
       22    1    1    2    0    0 -0.18473121168E-01 -0.40459790668E-02  0.30323380955E-01  0.35737005818E-01  0.00000000000E+00 0.  1.
  9000001    1    1    2    0    0  0.18473121168E-01  0.40459790668E-02 -0.30323380955E-01  0.35750994182E-01  0.10000000475E-02 0. -1.
</event>
<event>
 4   0  0.2441219E-02  0.9118800E+02  0.7818609E-02  0.1379984E+01
      -11   -1    0    0    0    0  0.00000000000E+00  0.00000000000E+00  0.35740347158E-01  0.35744000000E-01  0.51099999109E-03 0. -1.
       11   -1    0    0    0    0 -0.00000000000E+00 -0.00000000000E+00 -0.35740347158E-01  0.35744000000E-01  0.51099999109E-03 0.  1.
       22    1    1    2    0    0 -0.13130808853E-01 -0.80422016657E-02  0.32249626914E-01  0.35737005818E-01  0.00000000000E+00 0. -1.
  9000001    1    1    2    0    0  0.13130808853E-01  0.80422016657E-02 -0.32249626914E-01  0.35750994182E-01  0.10000000475E-02 0.  1.
</event>
<event>
 4   0  0.2441219E-02  0.9118800E+02  0.7818609E-02  0.1379984E+01
      -11   -1    0    0    0    0  0.00000000000E+00  0.00000000000E+00  0.35740347158E-01  0.35744000000E-01  0.51099999109E-03 0.  1.
       11   -1    0    0    0    0 -0.00000000000E+00 -0.00000000000E+00 -0.35740347158E-01  0.35744000000E-01  0.51099999109E-03 0. -1.
       22    1    1    2    0    0  0.30366107487E-02  0.11425845337E-01 -0.33724807462E-01  0.35737005818E-01  0.00000000000E+00 0. -1.
  9000001    1    1    2    0    0 -0.30366107487E-02 -0.11425845337E-01  0.33724807462E-01  0.35750994182E-01  0.10000000475E-02 0.  1.
</event>
<event>
 4   0  0.2441219E-02  0.9118800E+02  0.7818609E-02  0.1379984E+01
      -11   -1    0    0    0    0  0.00000000000E+00  0.00000000000E+00  0.35740347158E-01  0.35744000000E-01  0.51099999109E-03 0. -1.
       11   -1    0    0    0    0 -0.00000000000E+00 -0.00000000000E+00 -0.35740347158E-01  0.35744000000E-01  0.51099999109E-03 0.  1.
       22    1    1    2    0    0 -0.57641963596E-02  0.14944368377E-02 -0.35237398935E-01  0.35737005818E-01  0.00000000000E+00 0.  1.
  9000001    1    1    2    0    0  0.57641963596E-02 -0.14944368377E-02  0.35237398935E-01  0.35750994182E-01  0.10000000475E-02 0. -1.
</event>
<event>
 4   0  0.2441219E-02  0.9118800E+02  0.7818609E-02  0.1379984E+01
      -11   -1    0    0    0    0  0.00000000000E+00  0.00000000000E+00  0.35740347158E-01  0.35744000000E-01  0.51099999109E-03 0.  1.
       11   -1    0    0    0    0 -0.00000000000E+00 -0.00000000000E+00 -0.35740347158E-01  0.35744000000E-01  0.51099999109E-03 0. -1.
       22    1    1    2    0    0  0.26059428679E-01  0.80985675435E-02  0.23074942374E-01  0.35737005818E-01  0.00000000000E+00 0.  1.
  9000001    1    1    2    0    0 -0.26059428679E-01 -0.80985675435E-02 -0.23074942374E-01  0.35750994182E-01  0.10000000475E-02 0. -1.
</event>
<event>
 4   0  0.2441219E-02  0.9118800E+02  0.7818609E-02  0.1379984E+01
      -11   -1    0    0    0    0  0.00000000000E+00  0.00000000000E+00  0.35740347158E-01  0.35744000000E-01  0.51099999109E-03 0. -1.
       11   -1    0    0    0    0 -0.00000000000E+00 -0.00000000000E+00 -0.35740347158E-01  0.35744000000E-01  0.51099999109E-03 0.  1.
       22    1    1    2    0    0 -0.13594367173E-01  0.11980121720E-01  0.30802653288E-01  0.35737005818E-01  0.00000000000E+00 0. -1.
  9000001    1    1    2    0    0  0.13594367173E-01 -0.11980121720E-01 -0.30802653288E-01  0.35750994182E-01  0.10000000475E-02 0.  1.
</event>
<event>
 4   0  0.2441219E-02  0.9118800E+02  0.7818609E-02  0.1379984E+01
      -11   -1    0    0    0    0  0.00000000000E+00  0.00000000000E+00  0.35740347158E-01  0.35744000000E-01  0.51099999109E-03 0. -1.
       11   -1    0    0    0    0 -0.00000000000E+00 -0.00000000000E+00 -0.35740347158E-01  0.35744000000E-01  0.51099999109E-03 0.  1.
       22    1    1    2    0    0 -0.63013870399E-02  0.29364298899E-02 -0.35054293400E-01  0.35737005818E-01  0.00000000000E+00 0.  1.
  9000001    1    1    2    0    0  0.63013870399E-02 -0.29364298899E-02  0.35054293400E-01  0.35750994182E-01  0.10000000475E-02 0. -1.
</event>
<event>
 4   0  0.2441219E-02  0.9118800E+02  0.7818609E-02  0.1379984E+01
      -11   -1    0    0    0    0  0.00000000000E+00  0.00000000000E+00  0.35740347158E-01  0.35744000000E-01  0.51099999109E-03 0.  1.
       11   -1    0    0    0    0 -0.00000000000E+00 -0.00000000000E+00 -0.35740347158E-01  0.35744000000E-01  0.51099999109E-03 0. -1.
       22    1    1    2    0    0  0.11771262772E-01 -0.23543059391E-02  0.33660484268E-01  0.35737005818E-01  0.00000000000E+00 0.  1.
  9000001    1    1    2    0    0 -0.11771262772E-01  0.23543059391E-02 -0.33660484268E-01  0.35750994182E-01  0.10000000475E-02 0. -1.
</event>
<event>
 4   0  0.2441219E-02  0.9118800E+02  0.7818609E-02  0.1379984E+01
      -11   -1    0    0    0    0  0.00000000000E+00  0.00000000000E+00  0.35740347158E-01  0.35744000000E-01  0.51099999109E-03 0. -1.
       11   -1    0    0    0    0 -0.00000000000E+00 -0.00000000000E+00 -0.35740347158E-01  0.35744000000E-01  0.51099999109E-03 0.  1.
       22    1    1    2    0    0 -0.21784670091E-02  0.42718216173E-02 -0.35413830722E-01  0.35737005818E-01  0.00000000000E+00 0.  1.
  9000001    1    1    2    0    0  0.21784670091E-02 -0.42718216173E-02  0.35413830722E-01  0.35750994182E-01  0.10000000475E-02 0. -1.
</event>
<event>
 4   0  0.2441219E-02  0.9118800E+02  0.7818609E-02  0.1379984E+01
      -11   -1    0    0    0    0  0.00000000000E+00  0.00000000000E+00  0.35740347158E-01  0.35744000000E-01  0.51099999109E-03 0.  1.
       11   -1    0    0    0    0 -0.00000000000E+00 -0.00000000000E+00 -0.35740347158E-01  0.35744000000E-01  0.51099999109E-03 0. -1.
       22    1    1    2    0    0  0.65179809618E-02  0.79955890694E-04  0.35137488756E-01  0.35737005818E-01  0.00000000000E+00 0.  1.
  9000001    1    1    2    0    0 -0.65179809618E-02 -0.79955890694E-04 -0.35137488756E-01  0.35750994182E-01  0.10000000475E-02 0. -1.
</event>
<event>
 4   0  0.2441219E-02  0.9118800E+02  0.7818609E-02  0.1379984E+01
      -11   -1    0    0    0    0  0.00000000000E+00  0.00000000000E+00  0.35740347158E-01  0.35744000000E-01  0.51099999109E-03 0. -1.
       11   -1    0    0    0    0 -0.00000000000E+00 -0.00000000000E+00 -0.35740347158E-01  0.35744000000E-01  0.51099999109E-03 0.  1.
       22    1    1    2    0    0 -0.21807841647E-01 -0.11435950787E-01  0.25899240475E-01  0.35737005818E-01  0.00000000000E+00 0. -1.
  9000001    1    1    2    0    0  0.21807841647E-01  0.11435950787E-01 -0.25899240475E-01  0.35750994182E-01  0.10000000475E-02 0.  1.
</event>
<event>
 4   0  0.2441219E-02  0.9118800E+02  0.7818609E-02  0.1379984E+01
      -11   -1    0    0    0    0  0.00000000000E+00  0.00000000000E+00  0.35740347158E-01  0.35744000000E-01  0.51099999109E-03 0.  1.
       11   -1    0    0    0    0 -0.00000000000E+00 -0.00000000000E+00 -0.35740347158E-01  0.35744000000E-01  0.51099999109E-03 0. -1.
       22    1    1    2    0    0 -0.81470556047E-04  0.39035415505E-02 -0.35523081381E-01  0.35737005818E-01  0.00000000000E+00 0. -1.
  9000001    1    1    2    0    0  0.81470556047E-04 -0.39035415505E-02  0.35523081381E-01  0.35750994182E-01  0.10000000475E-02 0.  1.
</event>
<event>
 4   0  0.2441219E-02  0.9118800E+02  0.7818609E-02  0.1379984E+01
      -11   -1    0    0    0    0  0.00000000000E+00  0.00000000000E+00  0.35740347158E-01  0.35744000000E-01  0.51099999109E-03 0. -1.
       11   -1    0    0    0    0 -0.00000000000E+00 -0.00000000000E+00 -0.35740347158E-01  0.35744000000E-01  0.51099999109E-03 0.  1.
       22    1    1    2    0    0 -0.34221462012E-02  0.79071163127E-03 -0.35563988463E-01  0.35737005818E-01  0.00000000000E+00 0.  1.
  9000001    1    1    2    0    0  0.34221462012E-02 -0.79071163127E-03  0.35563988463E-01  0.35750994182E-01  0.10000000475E-02 0. -1.
</event>
<event>
 4   0  0.2441219E-02  0.9118800E+02  0.7818609E-02  0.1379984E+01
      -11   -1    0    0    0    0  0.00000000000E+00  0.00000000000E+00  0.35740347158E-01  0.35744000000E-01  0.51099999109E-03 0. -1.
       11   -1    0    0    0    0 -0.00000000000E+00 -0.00000000000E+00 -0.35740347158E-01  0.35744000000E-01  0.51099999109E-03 0.  1.
       22    1    1    2    0    0  0.81396837055E-02 -0.61104576894E-02 -0.34256991124E-01  0.35737005818E-01  0.00000000000E+00 0.  1.
  9000001    1    1    2    0    0 -0.81396837055E-02  0.61104576894E-02  0.34256991124E-01  0.35750994182E-01  0.10000000475E-02 0. -1.
</event>
<event>
 4   0  0.2441219E-02  0.9118800E+02  0.7818609E-02  0.1379984E+01
      -11   -1    0    0    0    0  0.00000000000E+00  0.00000000000E+00  0.35740347158E-01  0.35744000000E-01  0.51099999109E-03 0.  1.
       11   -1    0    0    0    0 -0.00000000000E+00 -0.00000000000E+00 -0.35740347158E-01  0.35744000000E-01  0.51099999109E-03 0. -1.
       22    1    1    2    0    0 -0.69590728027E-02 -0.35763019582E-02 -0.34869972109E-01  0.35737005818E-01  0.00000000000E+00 0. -1.
  9000001    1    1    2    0    0  0.69590728027E-02  0.35763019582E-02  0.34869972109E-01  0.35750994182E-01  0.10000000475E-02 0.  1.
</event>
<event>
 4   0  0.2441219E-02  0.9118800E+02  0.7818609E-02  0.1379984E+01
      -11   -1    0    0    0    0  0.00000000000E+00  0.00000000000E+00  0.35740347158E-01  0.35744000000E-01  0.51099999109E-03 0. -1.
       11   -1    0    0    0    0 -0.00000000000E+00 -0.00000000000E+00 -0.35740347158E-01  0.35744000000E-01  0.51099999109E-03 0.  1.
       22    1    1    2    0    0  0.93824546082E-03 -0.42589945569E-02 -0.35469906198E-01  0.35737005818E-01  0.00000000000E+00 0.  1.
  9000001    1    1    2    0    0 -0.93824546082E-03  0.42589945569E-02  0.35469906198E-01  0.35750994182E-01  0.10000000475E-02 0. -1.
</event>
<event>
 4   0  0.2441219E-02  0.9118800E+02  0.7818609E-02  0.1379984E+01
      -11   -1    0    0    0    0  0.00000000000E+00  0.00000000000E+00  0.35740347158E-01  0.35744000000E-01  0.51099999109E-03 0.  1.
       11   -1    0    0    0    0 -0.00000000000E+00 -0.00000000000E+00 -0.35740347158E-01  0.35744000000E-01  0.51099999109E-03 0. -1.
       22    1    1    2    0    0 -0.11561453997E-01 -0.13830670459E-01 -0.30857396536E-01  0.35737005818E-01  0.00000000000E+00 0. -1.
  9000001    1    1    2    0    0  0.11561453997E-01  0.13830670459E-01  0.30857396536E-01  0.35750994182E-01  0.10000000475E-02 0.  1.
</event>
<event>
 4   0  0.2441219E-02  0.9118800E+02  0.7818609E-02  0.1379984E+01
      -11   -1    0    0    0    0  0.00000000000E+00  0.00000000000E+00  0.35740347158E-01  0.35744000000E-01  0.51099999109E-03 0. -1.
       11   -1    0    0    0    0 -0.00000000000E+00 -0.00000000000E+00 -0.35740347158E-01  0.35744000000E-01  0.51099999109E-03 0.  1.
       22    1    1    2    0    0 -0.23658408163E-01 -0.36772375543E-02  0.26530948570E-01  0.35737005818E-01  0.00000000000E+00 0. -1.
  9000001    1    1    2    0    0  0.23658408163E-01  0.36772375543E-02 -0.26530948570E-01  0.35750994182E-01  0.10000000475E-02 0.  1.
</event>
<event>
 4   0  0.2441219E-02  0.9118800E+02  0.7818609E-02  0.1379984E+01
      -11   -1    0    0    0    0  0.00000000000E+00  0.00000000000E+00  0.35740347158E-01  0.35744000000E-01  0.51099999109E-03 0. -1.
       11   -1    0    0    0    0 -0.00000000000E+00 -0.00000000000E+00 -0.35740347158E-01  0.35744000000E-01  0.51099999109E-03 0.  1.
       22    1    1    2    0    0  0.91755033295E-02  0.13241360874E-01 -0.31900001344E-01  0.35737005818E-01  0.00000000000E+00 0.  1.
  9000001    1    1    2    0    0 -0.91755033295E-02 -0.13241360874E-01  0.31900001344E-01  0.35750994182E-01  0.10000000475E-02 0. -1.
</event>
<event>
 4   0  0.2441219E-02  0.9118800E+02  0.7818609E-02  0.1379984E+01
      -11   -1    0    0    0    0  0.00000000000E+00  0.00000000000E+00  0.35740347158E-01  0.35744000000E-01  0.51099999109E-03 0.  1.
       11   -1    0    0    0    0 -0.00000000000E+00 -0.00000000000E+00 -0.35740347158E-01  0.35744000000E-01  0.51099999109E-03 0. -1.
       22    1    1    2    0    0  0.12589045835E-01  0.26490860879E-02  0.33341143543E-01  0.35737005818E-01  0.00000000000E+00 0.  1.
  9000001    1    1    2    0    0 -0.12589045835E-01 -0.26490860879E-02 -0.33341143543E-01  0.35750994182E-01  0.10000000475E-02 0. -1.
</event>
<event>
 4   0  0.2441219E-02  0.9118800E+02  0.7818609E-02  0.1379984E+01
      -11   -1    0    0    0    0  0.00000000000E+00  0.00000000000E+00  0.35740347158E-01  0.35744000000E-01  0.51099999109E-03 0.  1.
       11   -1    0    0    0    0 -0.00000000000E+00 -0.00000000000E+00 -0.35740347158E-01  0.35744000000E-01  0.51099999109E-03 0. -1.
       22    1    1    2    0    0  0.50199678072E-02 -0.41940146765E-03 -0.35380186694E-01  0.35737005818E-01  0.00000000000E+00 0. -1.
  9000001    1    1    2    0    0 -0.50199678072E-02  0.41940146765E-03  0.35380186694E-01  0.35750994182E-01  0.10000000475E-02 0.  1.
</event>
<event>
 4   0  0.2441219E-02  0.9118800E+02  0.7818609E-02  0.1379984E+01
      -11   -1    0    0    0    0  0.00000000000E+00  0.00000000000E+00  0.35740347158E-01  0.35744000000E-01  0.51099999109E-03 0. -1.
       11   -1    0    0    0    0 -0.00000000000E+00 -0.00000000000E+00 -0.35740347158E-01  0.35744000000E-01  0.51099999109E-03 0.  1.
       22    1    1    2    0    0 -0.14578092019E-01 -0.13783072990E-01 -0.29574308393E-01  0.35737005818E-01  0.00000000000E+00 0.  1.
  9000001    1    1    2    0    0  0.14578092019E-01  0.13783072990E-01  0.29574308393E-01  0.35750994182E-01  0.10000000475E-02 0. -1.
</event>
<event>
 4   0  0.2441219E-02  0.9118800E+02  0.7818609E-02  0.1379984E+01
      -11   -1    0    0    0    0  0.00000000000E+00  0.00000000000E+00  0.35740347158E-01  0.35744000000E-01  0.51099999109E-03 0. -1.
       11   -1    0    0    0    0 -0.00000000000E+00 -0.00000000000E+00 -0.35740347158E-01  0.35744000000E-01  0.51099999109E-03 0.  1.
       22    1    1    2    0    0 -0.27720123285E-02  0.54923039925E-02 -0.35203467576E-01  0.35737005818E-01  0.00000000000E+00 0.  1.
  9000001    1    1    2    0    0  0.27720123285E-02 -0.54923039925E-02  0.35203467576E-01  0.35750994182E-01  0.10000000475E-02 0. -1.
</event>
<event>
 4   0  0.2441219E-02  0.9118800E+02  0.7818609E-02  0.1379984E+01
      -11   -1    0    0    0    0  0.00000000000E+00  0.00000000000E+00  0.35740347158E-01  0.35744000000E-01  0.51099999109E-03 0. -1.
       11   -1    0    0    0    0 -0.00000000000E+00 -0.00000000000E+00 -0.35740347158E-01  0.35744000000E-01  0.51099999109E-03 0.  1.
       22    1    1    2    0    0 -0.21047072525E-01  0.12761249460E-01  0.25909551042E-01  0.35737005818E-01  0.00000000000E+00 0. -1.
  9000001    1    1    2    0    0  0.21047072525E-01 -0.12761249460E-01 -0.25909551042E-01  0.35750994182E-01  0.10000000475E-02 0.  1.
</event>
<event>
 4   0  0.2441219E-02  0.9118800E+02  0.7818609E-02  0.1379984E+01
      -11   -1    0    0    0    0  0.00000000000E+00  0.00000000000E+00  0.35740347158E-01  0.35744000000E-01  0.51099999109E-03 0. -1.
       11   -1    0    0    0    0 -0.00000000000E+00 -0.00000000000E+00 -0.35740347158E-01  0.35744000000E-01  0.51099999109E-03 0.  1.
       22    1    1    2    0    0  0.12064779159E-01 -0.15528567715E-01 -0.29840212356E-01  0.35737005818E-01  0.00000000000E+00 0.  1.
  9000001    1    1    2    0    0 -0.12064779159E-01  0.15528567715E-01  0.29840212356E-01  0.35750994182E-01  0.10000000475E-02 0. -1.
</event>
<event>
 4   0  0.2441219E-02  0.9118800E+02  0.7818609E-02  0.1379984E+01
      -11   -1    0    0    0    0  0.00000000000E+00  0.00000000000E+00  0.35740347158E-01  0.35744000000E-01  0.51099999109E-03 0.  1.
       11   -1    0    0    0    0 -0.00000000000E+00 -0.00000000000E+00 -0.35740347158E-01  0.35744000000E-01  0.51099999109E-03 0. -1.
       22    1    1    2    0    0 -0.29576781829E-02  0.14045760940E-02  0.35586695416E-01  0.35737005818E-01  0.00000000000E+00 0.  1.
  9000001    1    1    2    0    0  0.29576781829E-02 -0.14045760940E-02 -0.35586695416E-01  0.35750994182E-01  0.10000000475E-02 0. -1.
</event>
<event>
 4   0  0.2441219E-02  0.9118800E+02  0.7818609E-02  0.1379984E+01
      -11   -1    0    0    0    0  0.00000000000E+00  0.00000000000E+00  0.35740347158E-01  0.35744000000E-01  0.51099999109E-03 0.  1.
       11   -1    0    0    0    0 -0.00000000000E+00 -0.00000000000E+00 -0.35740347158E-01  0.35744000000E-01  0.51099999109E-03 0. -1.
       22    1    1    2    0    0  0.35104087614E-02 -0.54266799021E-02  0.35147713445E-01  0.35737005818E-01  0.00000000000E+00 0.  1.
  9000001    1    1    2    0    0 -0.35104087614E-02  0.54266799021E-02 -0.35147713445E-01  0.35750994182E-01  0.10000000475E-02 0. -1.
</event>
<event>
 4   0  0.2441219E-02  0.9118800E+02  0.7818609E-02  0.1379984E+01
      -11   -1    0    0    0    0  0.00000000000E+00  0.00000000000E+00  0.35740347158E-01  0.35744000000E-01  0.51099999109E-03 0. -1.
       11   -1    0    0    0    0 -0.00000000000E+00 -0.00000000000E+00 -0.35740347158E-01  0.35744000000E-01  0.51099999109E-03 0.  1.
       22    1    1    2    0    0  0.91882538326E-02 -0.19090674828E-03  0.34535099985E-01  0.35737005818E-01  0.00000000000E+00 0. -1.
  9000001    1    1    2    0    0 -0.91882538326E-02  0.19090674828E-03 -0.34535099985E-01  0.35750994182E-01  0.10000000475E-02 0.  1.
</event>
<event>
 4   0  0.2441219E-02  0.9118800E+02  0.7818609E-02  0.1379984E+01
      -11   -1    0    0    0    0  0.00000000000E+00  0.00000000000E+00  0.35740347158E-01  0.35744000000E-01  0.51099999109E-03 0.  1.
       11   -1    0    0    0    0 -0.00000000000E+00 -0.00000000000E+00 -0.35740347158E-01  0.35744000000E-01  0.51099999109E-03 0. -1.
       22    1    1    2    0    0 -0.10926115194E-01 -0.10650233969E-01 -0.32316034844E-01  0.35737005818E-01  0.00000000000E+00 0. -1.
  9000001    1    1    2    0    0  0.10926115194E-01  0.10650233969E-01  0.32316034844E-01  0.35750994182E-01  0.10000000475E-02 0.  1.
</event>
<event>
 4   0  0.2441219E-02  0.9118800E+02  0.7818609E-02  0.1379984E+01
      -11   -1    0    0    0    0  0.00000000000E+00  0.00000000000E+00  0.35740347158E-01  0.35744000000E-01  0.51099999109E-03 0.  1.
       11   -1    0    0    0    0 -0.00000000000E+00 -0.00000000000E+00 -0.35740347158E-01  0.35744000000E-01  0.51099999109E-03 0. -1.
       22    1    1    2    0    0 -0.16243194773E-02  0.28964904406E-02  0.35582376456E-01  0.35737005818E-01  0.00000000000E+00 0.  1.
  9000001    1    1    2    0    0  0.16243194773E-02 -0.28964904406E-02 -0.35582376456E-01  0.35750994182E-01  0.10000000475E-02 0. -1.
</event>
<event>
 4   0  0.2441219E-02  0.9118800E+02  0.7818609E-02  0.1379984E+01
      -11   -1    0    0    0    0  0.00000000000E+00  0.00000000000E+00  0.35740347158E-01  0.35744000000E-01  0.51099999109E-03 0. -1.
       11   -1    0    0    0    0 -0.00000000000E+00 -0.00000000000E+00 -0.35740347158E-01  0.35744000000E-01  0.51099999109E-03 0.  1.
       22    1    1    2    0    0 -0.25284866802E-02 -0.60023648459E-02 -0.35138468325E-01  0.35737005818E-01  0.00000000000E+00 0.  1.
  9000001    1    1    2    0    0  0.25284866802E-02  0.60023648459E-02  0.35138468325E-01  0.35750994182E-01  0.10000000475E-02 0. -1.
</event>
<event>
 4   0  0.2441219E-02  0.9118800E+02  0.7818609E-02  0.1379984E+01
      -11   -1    0    0    0    0  0.00000000000E+00  0.00000000000E+00  0.35740347158E-01  0.35744000000E-01  0.51099999109E-03 0. -1.
       11   -1    0    0    0    0 -0.00000000000E+00 -0.00000000000E+00 -0.35740347158E-01  0.35744000000E-01  0.51099999109E-03 0.  1.
       22    1    1    2    0    0  0.11284485389E-01  0.10794843083E-01 -0.32144444888E-01  0.35737005818E-01  0.00000000000E+00 0.  1.
  9000001    1    1    2    0    0 -0.11284485389E-01 -0.10794843083E-01  0.32144444888E-01  0.35750994182E-01  0.10000000475E-02 0. -1.
</event>
<event>
 4   0  0.2441219E-02  0.9118800E+02  0.7818609E-02  0.1379984E+01
      -11   -1    0    0    0    0  0.00000000000E+00  0.00000000000E+00  0.35740347158E-01  0.35744000000E-01  0.51099999109E-03 0. -1.
       11   -1    0    0    0    0 -0.00000000000E+00 -0.00000000000E+00 -0.35740347158E-01  0.35744000000E-01  0.51099999109E-03 0.  1.
       22    1    1    2    0    0  0.60053745669E-02  0.20234952776E-02  0.35170648672E-01  0.35737005818E-01  0.00000000000E+00 0. -1.
  9000001    1    1    2    0    0 -0.60053745669E-02 -0.20234952776E-02 -0.35170648672E-01  0.35750994182E-01  0.10000000475E-02 0.  1.
</event>
<event>
 4   0  0.2441219E-02  0.9118800E+02  0.7818609E-02  0.1379984E+01
      -11   -1    0    0    0    0  0.00000000000E+00  0.00000000000E+00  0.35740347158E-01  0.35744000000E-01  0.51099999109E-03 0.  1.
       11   -1    0    0    0    0 -0.00000000000E+00 -0.00000000000E+00 -0.35740347158E-01  0.35744000000E-01  0.51099999109E-03 0. -1.
       22    1    1    2    0    0  0.19106609854E-01  0.14895754001E-01  0.26271420926E-01  0.35737005818E-01  0.00000000000E+00 0.  1.
  9000001    1    1    2    0    0 -0.19106609854E-01 -0.14895754001E-01 -0.26271420926E-01  0.35750994182E-01  0.10000000475E-02 0. -1.
</event>
<event>
 4   0  0.2441219E-02  0.9118800E+02  0.7818609E-02  0.1379984E+01
      -11   -1    0    0    0    0  0.00000000000E+00  0.00000000000E+00  0.35740347158E-01  0.35744000000E-01  0.51099999109E-03 0.  1.
       11   -1    0    0    0    0 -0.00000000000E+00 -0.00000000000E+00 -0.35740347158E-01  0.35744000000E-01  0.51099999109E-03 0. -1.
       22    1    1    2    0    0 -0.68119722928E-02  0.32515353338E-02  0.34930762035E-01  0.35737005818E-01  0.00000000000E+00 0.  1.
  9000001    1    1    2    0    0  0.68119722928E-02 -0.32515353338E-02 -0.34930762035E-01  0.35750994182E-01  0.10000000475E-02 0. -1.
</event>
<event>
 4   0  0.2441219E-02  0.9118800E+02  0.7818609E-02  0.1379984E+01
      -11   -1    0    0    0    0  0.00000000000E+00  0.00000000000E+00  0.35740347158E-01  0.35744000000E-01  0.51099999109E-03 0.  1.
       11   -1    0    0    0    0 -0.00000000000E+00 -0.00000000000E+00 -0.35740347158E-01  0.35744000000E-01  0.51099999109E-03 0. -1.
       22    1    1    2    0    0  0.34554770340E-01 -0.89456048703E-02  0.17543047370E-02  0.35737005818E-01  0.00000000000E+00 0.  1.
  9000001    1    1    2    0    0 -0.34554770340E-01  0.89456048703E-02 -0.17543047370E-02  0.35750994182E-01  0.10000000475E-02 0. -1.
</event>
<event>
 4   0  0.2441219E-02  0.9118800E+02  0.7818609E-02  0.1379984E+01
      -11   -1    0    0    0    0  0.00000000000E+00  0.00000000000E+00  0.35740347158E-01  0.35744000000E-01  0.51099999109E-03 0. -1.
       11   -1    0    0    0    0 -0.00000000000E+00 -0.00000000000E+00 -0.35740347158E-01  0.35744000000E-01  0.51099999109E-03 0.  1.
       22    1    1    2    0    0 -0.46577976649E-02 -0.40915578760E-02 -0.35195136879E-01  0.35737005818E-01  0.00000000000E+00 0.  1.
  9000001    1    1    2    0    0  0.46577976649E-02  0.40915578760E-02  0.35195136879E-01  0.35750994182E-01  0.10000000475E-02 0. -1.
</event>
<event>
 4   0  0.2441219E-02  0.9118800E+02  0.7818609E-02  0.1379984E+01
      -11   -1    0    0    0    0  0.00000000000E+00  0.00000000000E+00  0.35740347158E-01  0.35744000000E-01  0.51099999109E-03 0.  1.
       11   -1    0    0    0    0 -0.00000000000E+00 -0.00000000000E+00 -0.35740347158E-01  0.35744000000E-01  0.51099999109E-03 0. -1.
       22    1    1    2    0    0  0.34947747523E-01 -0.68589982739E-02  0.29568007418E-02  0.35737005818E-01  0.00000000000E+00 0. -1.
  9000001    1    1    2    0    0 -0.34947747523E-01  0.68589982739E-02 -0.29568007418E-02  0.35750994182E-01  0.10000000475E-02 0.  1.
</event>
<event>
 4   0  0.2441219E-02  0.9118800E+02  0.7818609E-02  0.1379984E+01
      -11   -1    0    0    0    0  0.00000000000E+00  0.00000000000E+00  0.35740347158E-01  0.35744000000E-01  0.51099999109E-03 0.  1.
       11   -1    0    0    0    0 -0.00000000000E+00 -0.00000000000E+00 -0.35740347158E-01  0.35744000000E-01  0.51099999109E-03 0. -1.
       22    1    1    2    0    0 -0.33818684574E-01 -0.65780701051E-03  0.11532451972E-01  0.35737005818E-01  0.00000000000E+00 0.  1.
  9000001    1    1    2    0    0  0.33818684574E-01  0.65780701051E-03 -0.11532451972E-01  0.35750994182E-01  0.10000000475E-02 0. -1.
</event>
<event>
 4   0  0.2441219E-02  0.9118800E+02  0.7818609E-02  0.1379984E+01
      -11   -1    0    0    0    0  0.00000000000E+00  0.00000000000E+00  0.35740347158E-01  0.35744000000E-01  0.51099999109E-03 0.  1.
       11   -1    0    0    0    0 -0.00000000000E+00 -0.00000000000E+00 -0.35740347158E-01  0.35744000000E-01  0.51099999109E-03 0. -1.
       22    1    1    2    0    0 -0.15773111459E-01 -0.18913244362E-01 -0.25896558217E-01  0.35737005818E-01  0.00000000000E+00 0. -1.
  9000001    1    1    2    0    0  0.15773111459E-01  0.18913244362E-01  0.25896558217E-01  0.35750994182E-01  0.10000000475E-02 0.  1.
</event>
<event>
 4   0  0.2441219E-02  0.9118800E+02  0.7818609E-02  0.1379984E+01
      -11   -1    0    0    0    0  0.00000000000E+00  0.00000000000E+00  0.35740347158E-01  0.35744000000E-01  0.51099999109E-03 0.  1.
       11   -1    0    0    0    0 -0.00000000000E+00 -0.00000000000E+00 -0.35740347158E-01  0.35744000000E-01  0.51099999109E-03 0. -1.
       22    1    1    2    0    0  0.43211239124E-02 -0.53906796310E-03  0.35470704514E-01  0.35737005818E-01  0.00000000000E+00 0.  1.
  9000001    1    1    2    0    0 -0.43211239124E-02  0.53906796310E-03 -0.35470704514E-01  0.35750994182E-01  0.10000000475E-02 0. -1.
</event>
<event>
 4   0  0.2441219E-02  0.9118800E+02  0.7818609E-02  0.1379984E+01
      -11   -1    0    0    0    0  0.00000000000E+00  0.00000000000E+00  0.35740347158E-01  0.35744000000E-01  0.51099999109E-03 0. -1.
       11   -1    0    0    0    0 -0.00000000000E+00 -0.00000000000E+00 -0.35740347158E-01  0.35744000000E-01  0.51099999109E-03 0.  1.
       22    1    1    2    0    0 -0.40540666475E-02  0.10537280912E-01  0.33906693137E-01  0.35737005818E-01  0.00000000000E+00 0. -1.
  9000001    1    1    2    0    0  0.40540666475E-02 -0.10537280912E-01 -0.33906693137E-01  0.35750994182E-01  0.10000000475E-02 0.  1.
</event>
<event>
 4   0  0.2441219E-02  0.9118800E+02  0.7818609E-02  0.1379984E+01
      -11   -1    0    0    0    0  0.00000000000E+00  0.00000000000E+00  0.35740347158E-01  0.35744000000E-01  0.51099999109E-03 0.  1.
       11   -1    0    0    0    0 -0.00000000000E+00 -0.00000000000E+00 -0.35740347158E-01  0.35744000000E-01  0.51099999109E-03 0. -1.
       22    1    1    2    0    0  0.19990719754E-01  0.11171980599E-01 -0.27435224768E-01  0.35737005818E-01  0.00000000000E+00 0. -1.
  9000001    1    1    2    0    0 -0.19990719754E-01 -0.11171980599E-01  0.27435224768E-01  0.35750994182E-01  0.10000000475E-02 0.  1.
</event>
<event>
 4   0  0.2441219E-02  0.9118800E+02  0.7818609E-02  0.1379984E+01
      -11   -1    0    0    0    0  0.00000000000E+00  0.00000000000E+00  0.35740347158E-01  0.35744000000E-01  0.51099999109E-03 0. -1.
       11   -1    0    0    0    0 -0.00000000000E+00 -0.00000000000E+00 -0.35740347158E-01  0.35744000000E-01  0.51099999109E-03 0.  1.
       22    1    1    2    0    0  0.39278773442E-02 -0.29405796699E-02  0.35398564316E-01  0.35737005818E-01  0.00000000000E+00 0. -1.
  9000001    1    1    2    0    0 -0.39278773442E-02  0.29405796699E-02 -0.35398564316E-01  0.35750994182E-01  0.10000000475E-02 0.  1.
</event>
<event>
 4   0  0.2441219E-02  0.9118800E+02  0.7818609E-02  0.1379984E+01
      -11   -1    0    0    0    0  0.00000000000E+00  0.00000000000E+00  0.35740347158E-01  0.35744000000E-01  0.51099999109E-03 0. -1.
       11   -1    0    0    0    0 -0.00000000000E+00 -0.00000000000E+00 -0.35740347158E-01  0.35744000000E-01  0.51099999109E-03 0.  1.
       22    1    1    2    0    0 -0.82810070202E-03  0.74032152881E-02  0.34951970438E-01  0.35737005818E-01  0.00000000000E+00 0. -1.
  9000001    1    1    2    0    0  0.82810070202E-03 -0.74032152881E-02 -0.34951970438E-01  0.35750994182E-01  0.10000000475E-02 0.  1.
</event>
<event>
 4   0  0.2441219E-02  0.9118800E+02  0.7818609E-02  0.1379984E+01
      -11   -1    0    0    0    0  0.00000000000E+00  0.00000000000E+00  0.35740347158E-01  0.35744000000E-01  0.51099999109E-03 0.  1.
       11   -1    0    0    0    0 -0.00000000000E+00 -0.00000000000E+00 -0.35740347158E-01  0.35744000000E-01  0.51099999109E-03 0. -1.
       22    1    1    2    0    0  0.82646282491E-02 -0.32893654150E-02  0.34612274989E-01  0.35737005818E-01  0.00000000000E+00 0.  1.
  9000001    1    1    2    0    0 -0.82646282491E-02  0.32893654150E-02 -0.34612274989E-01  0.35750994182E-01  0.10000000475E-02 0. -1.
</event>
<event>
 4   0  0.2441219E-02  0.9118800E+02  0.7818609E-02  0.1379984E+01
      -11   -1    0    0    0    0  0.00000000000E+00  0.00000000000E+00  0.35740347158E-01  0.35744000000E-01  0.51099999109E-03 0.  1.
       11   -1    0    0    0    0 -0.00000000000E+00 -0.00000000000E+00 -0.35740347158E-01  0.35744000000E-01  0.51099999109E-03 0. -1.
       22    1    1    2    0    0 -0.10231565484E-01 -0.26134270410E-01  0.22123484417E-01  0.35737005818E-01  0.00000000000E+00 0.  1.
  9000001    1    1    2    0    0  0.10231565484E-01  0.26134270410E-01 -0.22123484417E-01  0.35750994182E-01  0.10000000475E-02 0. -1.
</event>
<event>
 4   0  0.2441219E-02  0.9118800E+02  0.7818609E-02  0.1379984E+01
      -11   -1    0    0    0    0  0.00000000000E+00  0.00000000000E+00  0.35740347158E-01  0.35744000000E-01  0.51099999109E-03 0. -1.
       11   -1    0    0    0    0 -0.00000000000E+00 -0.00000000000E+00 -0.35740347158E-01  0.35744000000E-01  0.51099999109E-03 0.  1.
       22    1    1    2    0    0 -0.88316914861E-03  0.14121618551E-01 -0.32816664770E-01  0.35737005818E-01  0.00000000000E+00 0.  1.
  9000001    1    1    2    0    0  0.88316914861E-03 -0.14121618551E-01  0.32816664770E-01  0.35750994182E-01  0.10000000475E-02 0. -1.
</event>
<event>
 4   0  0.2441219E-02  0.9118800E+02  0.7818609E-02  0.1379984E+01
      -11   -1    0    0    0    0  0.00000000000E+00  0.00000000000E+00  0.35740347158E-01  0.35744000000E-01  0.51099999109E-03 0.  1.
       11   -1    0    0    0    0 -0.00000000000E+00 -0.00000000000E+00 -0.35740347158E-01  0.35744000000E-01  0.51099999109E-03 0. -1.
       22    1    1    2    0    0 -0.70606801443E-02  0.17003691135E-02  0.34991272135E-01  0.35737005818E-01  0.00000000000E+00 0.  1.
  9000001    1    1    2    0    0  0.70606801443E-02 -0.17003691135E-02 -0.34991272135E-01  0.35750994182E-01  0.10000000475E-02 0. -1.
</event>
<event>
 4   0  0.2441219E-02  0.9118800E+02  0.7818609E-02  0.1379984E+01
      -11   -1    0    0    0    0  0.00000000000E+00  0.00000000000E+00  0.35740347158E-01  0.35744000000E-01  0.51099999109E-03 0.  1.
       11   -1    0    0    0    0 -0.00000000000E+00 -0.00000000000E+00 -0.35740347158E-01  0.35744000000E-01  0.51099999109E-03 0. -1.
       22    1    1    2    0    0  0.41463660777E-02  0.31088523148E-02  0.35359245898E-01  0.35737005818E-01  0.00000000000E+00 0.  1.
  9000001    1    1    2    0    0 -0.41463660777E-02 -0.31088523148E-02 -0.35359245898E-01  0.35750994182E-01  0.10000000475E-02 0. -1.
</event>
<event>
 4   0  0.2441219E-02  0.9118800E+02  0.7818609E-02  0.1379984E+01
      -11   -1    0    0    0    0  0.00000000000E+00  0.00000000000E+00  0.35740347158E-01  0.35744000000E-01  0.51099999109E-03 0. -1.
       11   -1    0    0    0    0 -0.00000000000E+00 -0.00000000000E+00 -0.35740347158E-01  0.35744000000E-01  0.51099999109E-03 0.  1.
       22    1    1    2    0    0 -0.83753230207E-02 -0.15083575459E-01  0.31296538156E-01  0.35737005818E-01  0.00000000000E+00 0. -1.
  9000001    1    1    2    0    0  0.83753230207E-02  0.15083575459E-01 -0.31296538156E-01  0.35750994182E-01  0.10000000475E-02 0.  1.
</event>
<event>
 4   0  0.2441219E-02  0.9118800E+02  0.7818609E-02  0.1379984E+01
      -11   -1    0    0    0    0  0.00000000000E+00  0.00000000000E+00  0.35740347158E-01  0.35744000000E-01  0.51099999109E-03 0.  1.
       11   -1    0    0    0    0 -0.00000000000E+00 -0.00000000000E+00 -0.35740347158E-01  0.35744000000E-01  0.51099999109E-03 0. -1.
       22    1    1    2    0    0  0.15272327478E-01  0.11634903529E-02 -0.32288324337E-01  0.35737005818E-01  0.00000000000E+00 0. -1.
  9000001    1    1    2    0    0 -0.15272327478E-01 -0.11634903529E-02  0.32288324337E-01  0.35750994182E-01  0.10000000475E-02 0.  1.
</event>
<event>
 4   0  0.2441219E-02  0.9118800E+02  0.7818609E-02  0.1379984E+01
      -11   -1    0    0    0    0  0.00000000000E+00  0.00000000000E+00  0.35740347158E-01  0.35744000000E-01  0.51099999109E-03 0. -1.
       11   -1    0    0    0    0 -0.00000000000E+00 -0.00000000000E+00 -0.35740347158E-01  0.35744000000E-01  0.51099999109E-03 0.  1.
       22    1    1    2    0    0 -0.11214368752E-01  0.25057217868E-02  0.33839220982E-01  0.35737005818E-01  0.00000000000E+00 0. -1.
  9000001    1    1    2    0    0  0.11214368752E-01 -0.25057217868E-02 -0.33839220982E-01  0.35750994182E-01  0.10000000475E-02 0.  1.
</event>
<event>
 4   0  0.2441219E-02  0.9118800E+02  0.7818609E-02  0.1379984E+01
      -11   -1    0    0    0    0  0.00000000000E+00  0.00000000000E+00  0.35740347158E-01  0.35744000000E-01  0.51099999109E-03 0.  1.
       11   -1    0    0    0    0 -0.00000000000E+00 -0.00000000000E+00 -0.35740347158E-01  0.35744000000E-01  0.51099999109E-03 0. -1.
       22    1    1    2    0    0 -0.39916874502E-02 -0.28698113081E-02  0.35397234344E-01  0.35737005818E-01  0.00000000000E+00 0.  1.
  9000001    1    1    2    0    0  0.39916874502E-02  0.28698113081E-02 -0.35397234344E-01  0.35750994182E-01  0.10000000475E-02 0. -1.
</event>
<event>
 4   0  0.2441219E-02  0.9118800E+02  0.7818609E-02  0.1379984E+01
      -11   -1    0    0    0    0  0.00000000000E+00  0.00000000000E+00  0.35740347158E-01  0.35744000000E-01  0.51099999109E-03 0. -1.
       11   -1    0    0    0    0 -0.00000000000E+00 -0.00000000000E+00 -0.35740347158E-01  0.35744000000E-01  0.51099999109E-03 0.  1.
       22    1    1    2    0    0  0.31419577763E-01 -0.16106883662E-01 -0.55237683458E-02  0.35737005818E-01  0.00000000000E+00 0. -1.
  9000001    1    1    2    0    0 -0.31419577763E-01  0.16106883662E-01  0.55237683458E-02  0.35750994182E-01  0.10000000475E-02 0.  1.
</event>
<event>
 4   0  0.2441219E-02  0.9118800E+02  0.7818609E-02  0.1379984E+01
      -11   -1    0    0    0    0  0.00000000000E+00  0.00000000000E+00  0.35740347158E-01  0.35744000000E-01  0.51099999109E-03 0.  1.
       11   -1    0    0    0    0 -0.00000000000E+00 -0.00000000000E+00 -0.35740347158E-01  0.35744000000E-01  0.51099999109E-03 0. -1.
       22    1    1    2    0    0 -0.12731096827E-02 -0.58178726433E-02 -0.35237269113E-01  0.35737005818E-01  0.00000000000E+00 0. -1.
  9000001    1    1    2    0    0  0.12731096827E-02  0.58178726433E-02  0.35237269113E-01  0.35750994182E-01  0.10000000475E-02 0.  1.
</event>
<event>
 4   0  0.2441219E-02  0.9118800E+02  0.7818609E-02  0.1379984E+01
      -11   -1    0    0    0    0  0.00000000000E+00  0.00000000000E+00  0.35740347158E-01  0.35744000000E-01  0.51099999109E-03 0.  1.
       11   -1    0    0    0    0 -0.00000000000E+00 -0.00000000000E+00 -0.35740347158E-01  0.35744000000E-01  0.51099999109E-03 0. -1.
       22    1    1    2    0    0 -0.51309653215E-02  0.11800114841E-01 -0.33340127017E-01  0.35737005818E-01  0.00000000000E+00 0. -1.
  9000001    1    1    2    0    0  0.51309653215E-02 -0.11800114841E-01  0.33340127017E-01  0.35750994182E-01  0.10000000475E-02 0.  1.
</event>
<event>
 4   0  0.2441219E-02  0.9118800E+02  0.7818609E-02  0.1379984E+01
      -11   -1    0    0    0    0  0.00000000000E+00  0.00000000000E+00  0.35740347158E-01  0.35744000000E-01  0.51099999109E-03 0. -1.
       11   -1    0    0    0    0 -0.00000000000E+00 -0.00000000000E+00 -0.35740347158E-01  0.35744000000E-01  0.51099999109E-03 0.  1.
       22    1    1    2    0    0 -0.21144104240E-02  0.84550912611E-02 -0.34657961354E-01  0.35737005818E-01  0.00000000000E+00 0.  1.
  9000001    1    1    2    0    0  0.21144104240E-02 -0.84550912611E-02  0.34657961354E-01  0.35750994182E-01  0.10000000475E-02 0. -1.
</event>
<event>
 4   0  0.2441219E-02  0.9118800E+02  0.7818609E-02  0.1379984E+01
      -11   -1    0    0    0    0  0.00000000000E+00  0.00000000000E+00  0.35740347158E-01  0.35744000000E-01  0.51099999109E-03 0. -1.
       11   -1    0    0    0    0 -0.00000000000E+00 -0.00000000000E+00 -0.35740347158E-01  0.35744000000E-01  0.51099999109E-03 0.  1.
       22    1    1    2    0    0 -0.30713259336E-01 -0.17664748097E-01  0.46675433032E-02  0.35737005818E-01  0.00000000000E+00 0.  1.
  9000001    1    1    2    0    0  0.30713259336E-01  0.17664748097E-01 -0.46675433032E-02  0.35750994182E-01  0.10000000475E-02 0. -1.
</event>
<event>
 4   0  0.2441219E-02  0.9118800E+02  0.7818609E-02  0.1379984E+01
      -11   -1    0    0    0    0  0.00000000000E+00  0.00000000000E+00  0.35740347158E-01  0.35744000000E-01  0.51099999109E-03 0. -1.
       11   -1    0    0    0    0 -0.00000000000E+00 -0.00000000000E+00 -0.35740347158E-01  0.35744000000E-01  0.51099999109E-03 0.  1.
       22    1    1    2    0    0 -0.84613066269E-02  0.12970283566E-01 -0.32207322448E-01  0.35737005818E-01  0.00000000000E+00 0.  1.
  9000001    1    1    2    0    0  0.84613066269E-02 -0.12970283566E-01  0.32207322448E-01  0.35750994182E-01  0.10000000475E-02 0. -1.
</event>
<event>
 4   0  0.2441219E-02  0.9118800E+02  0.7818609E-02  0.1379984E+01
      -11   -1    0    0    0    0  0.00000000000E+00  0.00000000000E+00  0.35740347158E-01  0.35744000000E-01  0.51099999109E-03 0.  1.
       11   -1    0    0    0    0 -0.00000000000E+00 -0.00000000000E+00 -0.35740347158E-01  0.35744000000E-01  0.51099999109E-03 0. -1.
       22    1    1    2    0    0 -0.45135866237E-02 -0.22045112697E-01 -0.27762819144E-01  0.35737005818E-01  0.00000000000E+00 0. -1.
  9000001    1    1    2    0    0  0.45135866237E-02  0.22045112697E-01  0.27762819144E-01  0.35750994182E-01  0.10000000475E-02 0.  1.
</event>
<event>
 4   0  0.2441219E-02  0.9118800E+02  0.7818609E-02  0.1379984E+01
      -11   -1    0    0    0    0  0.00000000000E+00  0.00000000000E+00  0.35740347158E-01  0.35744000000E-01  0.51099999109E-03 0.  1.
       11   -1    0    0    0    0 -0.00000000000E+00 -0.00000000000E+00 -0.35740347158E-01  0.35744000000E-01  0.51099999109E-03 0. -1.
       22    1    1    2    0    0 -0.74930205286E-02  0.33639437834E-01 -0.94539119107E-02  0.35737005818E-01  0.00000000000E+00 0. -1.
  9000001    1    1    2    0    0  0.74930205286E-02 -0.33639437834E-01  0.94539119107E-02  0.35750994182E-01  0.10000000475E-02 0.  1.
</event>
<event>
 4   0  0.2441219E-02  0.9118800E+02  0.7818609E-02  0.1379984E+01
      -11   -1    0    0    0    0  0.00000000000E+00  0.00000000000E+00  0.35740347158E-01  0.35744000000E-01  0.51099999109E-03 0. -1.
       11   -1    0    0    0    0 -0.00000000000E+00 -0.00000000000E+00 -0.35740347158E-01  0.35744000000E-01  0.51099999109E-03 0.  1.
       22    1    1    2    0    0 -0.10183882281E-01  0.25971185480E-01 -0.22336509380E-01  0.35737005818E-01  0.00000000000E+00 0.  1.
  9000001    1    1    2    0    0  0.10183882281E-01 -0.25971185480E-01  0.22336509380E-01  0.35750994182E-01  0.10000000475E-02 0. -1.
</event>
<event>
 4   0  0.2441219E-02  0.9118800E+02  0.7818609E-02  0.1379984E+01
      -11   -1    0    0    0    0  0.00000000000E+00  0.00000000000E+00  0.35740347158E-01  0.35744000000E-01  0.51099999109E-03 0. -1.
       11   -1    0    0    0    0 -0.00000000000E+00 -0.00000000000E+00 -0.35740347158E-01  0.35744000000E-01  0.51099999109E-03 0.  1.
       22    1    1    2    0    0 -0.70328340261E-02  0.10212147375E-01  0.33516934174E-01  0.35737005818E-01  0.00000000000E+00 0. -1.
  9000001    1    1    2    0    0  0.70328340261E-02 -0.10212147375E-01 -0.33516934174E-01  0.35750994182E-01  0.10000000475E-02 0.  1.
</event>
<event>
 4   0  0.2441219E-02  0.9118800E+02  0.7818609E-02  0.1379984E+01
      -11   -1    0    0    0    0  0.00000000000E+00  0.00000000000E+00  0.35740347158E-01  0.35744000000E-01  0.51099999109E-03 0. -1.
       11   -1    0    0    0    0 -0.00000000000E+00 -0.00000000000E+00 -0.35740347158E-01  0.35744000000E-01  0.51099999109E-03 0.  1.
       22    1    1    2    0    0  0.26715752026E-02  0.25548920473E-02 -0.35545306264E-01  0.35737005818E-01  0.00000000000E+00 0.  1.
  9000001    1    1    2    0    0 -0.26715752026E-02 -0.25548920473E-02  0.35545306264E-01  0.35750994182E-01  0.10000000475E-02 0. -1.
</event>
<event>
 4   0  0.2441219E-02  0.9118800E+02  0.7818609E-02  0.1379984E+01
      -11   -1    0    0    0    0  0.00000000000E+00  0.00000000000E+00  0.35740347158E-01  0.35744000000E-01  0.51099999109E-03 0.  1.
       11   -1    0    0    0    0 -0.00000000000E+00 -0.00000000000E+00 -0.35740347158E-01  0.35744000000E-01  0.51099999109E-03 0. -1.
       22    1    1    2    0    0  0.20846422960E-02  0.48896398339E-02 -0.35339486041E-01  0.35737005818E-01  0.00000000000E+00 0. -1.
  9000001    1    1    2    0    0 -0.20846422960E-02 -0.48896398339E-02  0.35339486041E-01  0.35750994182E-01  0.10000000475E-02 0.  1.
</event>
<event>
 4   0  0.2441219E-02  0.9118800E+02  0.7818609E-02  0.1379984E+01
      -11   -1    0    0    0    0  0.00000000000E+00  0.00000000000E+00  0.35740347158E-01  0.35744000000E-01  0.51099999109E-03 0.  1.
       11   -1    0    0    0    0 -0.00000000000E+00 -0.00000000000E+00 -0.35740347158E-01  0.35744000000E-01  0.51099999109E-03 0. -1.
       22    1    1    2    0    0  0.28280822423E-02 -0.27239654298E-01  0.22959459259E-01  0.35737005818E-01  0.00000000000E+00 0.  1.
  9000001    1    1    2    0    0 -0.28280822423E-02  0.27239654298E-01 -0.22959459259E-01  0.35750994182E-01  0.10000000475E-02 0. -1.
</event>
<event>
 4   0  0.2441219E-02  0.9118800E+02  0.7818609E-02  0.1379984E+01
      -11   -1    0    0    0    0  0.00000000000E+00  0.00000000000E+00  0.35740347158E-01  0.35744000000E-01  0.51099999109E-03 0.  1.
       11   -1    0    0    0    0 -0.00000000000E+00 -0.00000000000E+00 -0.35740347158E-01  0.35744000000E-01  0.51099999109E-03 0. -1.
       22    1    1    2    0    0 -0.39534595205E-02 -0.13046121051E-02 -0.35493685776E-01  0.35737005818E-01  0.00000000000E+00 0. -1.
  9000001    1    1    2    0    0  0.39534595205E-02  0.13046121051E-02  0.35493685776E-01  0.35750994182E-01  0.10000000475E-02 0.  1.
</event>
<event>
 4   0  0.2441219E-02  0.9118800E+02  0.7818609E-02  0.1379984E+01
      -11   -1    0    0    0    0  0.00000000000E+00  0.00000000000E+00  0.35740347158E-01  0.35744000000E-01  0.51099999109E-03 0.  1.
       11   -1    0    0    0    0 -0.00000000000E+00 -0.00000000000E+00 -0.35740347158E-01  0.35744000000E-01  0.51099999109E-03 0. -1.
       22    1    1    2    0    0  0.39751672438E-02  0.29566354574E-02  0.35391947347E-01  0.35737005818E-01  0.00000000000E+00 0.  1.
  9000001    1    1    2    0    0 -0.39751672438E-02 -0.29566354574E-02 -0.35391947347E-01  0.35750994182E-01  0.10000000475E-02 0. -1.
</event>
<event>
 4   0  0.2441219E-02  0.9118800E+02  0.7818609E-02  0.1379984E+01
      -11   -1    0    0    0    0  0.00000000000E+00  0.00000000000E+00  0.35740347158E-01  0.35744000000E-01  0.51099999109E-03 0.  1.
       11   -1    0    0    0    0 -0.00000000000E+00 -0.00000000000E+00 -0.35740347158E-01  0.35744000000E-01  0.51099999109E-03 0. -1.
       22    1    1    2    0    0 -0.67020696856E-02  0.43899019012E-02 -0.34827354308E-01  0.35737005818E-01  0.00000000000E+00 0. -1.
  9000001    1    1    2    0    0  0.67020696856E-02 -0.43899019012E-02  0.34827354308E-01  0.35750994182E-01  0.10000000475E-02 0.  1.
</event>
<event>
 4   0  0.2441219E-02  0.9118800E+02  0.7818609E-02  0.1379984E+01
      -11   -1    0    0    0    0  0.00000000000E+00  0.00000000000E+00  0.35740347158E-01  0.35744000000E-01  0.51099999109E-03 0.  1.
       11   -1    0    0    0    0 -0.00000000000E+00 -0.00000000000E+00 -0.35740347158E-01  0.35744000000E-01  0.51099999109E-03 0. -1.
       22    1    1    2    0    0  0.95953269454E-02  0.36510453836E-02  0.34230587978E-01  0.35737005818E-01  0.00000000000E+00 0.  1.
  9000001    1    1    2    0    0 -0.95953269454E-02 -0.36510453836E-02 -0.34230587978E-01  0.35750994182E-01  0.10000000475E-02 0. -1.
</event>
<event>
 4   0  0.2441219E-02  0.9118800E+02  0.7818609E-02  0.1379984E+01
      -11   -1    0    0    0    0  0.00000000000E+00  0.00000000000E+00  0.35740347158E-01  0.35744000000E-01  0.51099999109E-03 0. -1.
       11   -1    0    0    0    0 -0.00000000000E+00 -0.00000000000E+00 -0.35740347158E-01  0.35744000000E-01  0.51099999109E-03 0.  1.
       22    1    1    2    0    0  0.31743904370E-02  0.20694659245E-03 -0.35595140165E-01  0.35737005818E-01  0.00000000000E+00 0.  1.
  9000001    1    1    2    0    0 -0.31743904370E-02 -0.20694659245E-03  0.35595140165E-01  0.35750994182E-01  0.10000000475E-02 0. -1.
</event>
<event>
 4   0  0.2441219E-02  0.9118800E+02  0.7818609E-02  0.1379984E+01
      -11   -1    0    0    0    0  0.00000000000E+00  0.00000000000E+00  0.35740347158E-01  0.35744000000E-01  0.51099999109E-03 0.  1.
       11   -1    0    0    0    0 -0.00000000000E+00 -0.00000000000E+00 -0.35740347158E-01  0.35744000000E-01  0.51099999109E-03 0. -1.
       22    1    1    2    0    0 -0.37733588558E-02 -0.15107526112E-02 -0.35505111947E-01  0.35737005818E-01  0.00000000000E+00 0. -1.
  9000001    1    1    2    0    0  0.37733588558E-02  0.15107526112E-02  0.35505111947E-01  0.35750994182E-01  0.10000000475E-02 0.  1.
</event>
<event>
 4   0  0.2441219E-02  0.9118800E+02  0.7818609E-02  0.1379984E+01
      -11   -1    0    0    0    0  0.00000000000E+00  0.00000000000E+00  0.35740347158E-01  0.35744000000E-01  0.51099999109E-03 0. -1.
       11   -1    0    0    0    0 -0.00000000000E+00 -0.00000000000E+00 -0.35740347158E-01  0.35744000000E-01  0.51099999109E-03 0.  1.
       22    1    1    2    0    0 -0.12879756273E-01 -0.65798743958E-02 -0.32679515238E-01  0.35737005818E-01  0.00000000000E+00 0.  1.
  9000001    1    1    2    0    0  0.12879756273E-01  0.65798743958E-02  0.32679515238E-01  0.35750994182E-01  0.10000000475E-02 0. -1.
</event>
<event>
 4   0  0.2441219E-02  0.9118800E+02  0.7818609E-02  0.1379984E+01
      -11   -1    0    0    0    0  0.00000000000E+00  0.00000000000E+00  0.35740347158E-01  0.35744000000E-01  0.51099999109E-03 0.  1.
       11   -1    0    0    0    0 -0.00000000000E+00 -0.00000000000E+00 -0.35740347158E-01  0.35744000000E-01  0.51099999109E-03 0. -1.
       22    1    1    2    0    0 -0.40934389997E-02 -0.46183739019E-02  0.35200113132E-01  0.35737005818E-01  0.00000000000E+00 0.  1.
  9000001    1    1    2    0    0  0.40934389997E-02  0.46183739019E-02 -0.35200113132E-01  0.35750994182E-01  0.10000000475E-02 0. -1.
</event>
<event>
 4   0  0.2441219E-02  0.9118800E+02  0.7818609E-02  0.1379984E+01
      -11   -1    0    0    0    0  0.00000000000E+00  0.00000000000E+00  0.35740347158E-01  0.35744000000E-01  0.51099999109E-03 0. -1.
       11   -1    0    0    0    0 -0.00000000000E+00 -0.00000000000E+00 -0.35740347158E-01  0.35744000000E-01  0.51099999109E-03 0.  1.
       22    1    1    2    0    0 -0.23104039103E-02  0.75750958409E-02  0.34848436717E-01  0.35737005818E-01  0.00000000000E+00 0. -1.
  9000001    1    1    2    0    0  0.23104039103E-02 -0.75750958409E-02 -0.34848436717E-01  0.35750994182E-01  0.10000000475E-02 0.  1.
</event>
<event>
 4   0  0.2441219E-02  0.9118800E+02  0.7818609E-02  0.1379984E+01
      -11   -1    0    0    0    0  0.00000000000E+00  0.00000000000E+00  0.35740347158E-01  0.35744000000E-01  0.51099999109E-03 0.  1.
       11   -1    0    0    0    0 -0.00000000000E+00 -0.00000000000E+00 -0.35740347158E-01  0.35744000000E-01  0.51099999109E-03 0. -1.
       22    1    1    2    0    0  0.89083538487E-02 -0.28353190176E-02  0.34492546770E-01  0.35737005818E-01  0.00000000000E+00 0.  1.
  9000001    1    1    2    0    0 -0.89083538487E-02  0.28353190176E-02 -0.34492546770E-01  0.35750994182E-01  0.10000000475E-02 0. -1.
</event>
<event>
 4   0  0.2441219E-02  0.9118800E+02  0.7818609E-02  0.1379984E+01
      -11   -1    0    0    0    0  0.00000000000E+00  0.00000000000E+00  0.35740347158E-01  0.35744000000E-01  0.51099999109E-03 0.  1.
       11   -1    0    0    0    0 -0.00000000000E+00 -0.00000000000E+00 -0.35740347158E-01  0.35744000000E-01  0.51099999109E-03 0. -1.
       22    1    1    2    0    0 -0.30826499516E-02  0.94683872781E-02  0.34321720477E-01  0.35737005818E-01  0.00000000000E+00 0.  1.
  9000001    1    1    2    0    0  0.30826499516E-02 -0.94683872781E-02 -0.34321720477E-01  0.35750994182E-01  0.10000000475E-02 0. -1.
</event>
<event>
 4   0  0.2441219E-02  0.9118800E+02  0.7818609E-02  0.1379984E+01
      -11   -1    0    0    0    0  0.00000000000E+00  0.00000000000E+00  0.35740347158E-01  0.35744000000E-01  0.51099999109E-03 0.  1.
       11   -1    0    0    0    0 -0.00000000000E+00 -0.00000000000E+00 -0.35740347158E-01  0.35744000000E-01  0.51099999109E-03 0. -1.
       22    1    1    2    0    0  0.34596101892E-02 -0.25816077704E-03 -0.35568216644E-01  0.35737005818E-01  0.00000000000E+00 0. -1.
  9000001    1    1    2    0    0 -0.34596101892E-02  0.25816077704E-03  0.35568216644E-01  0.35750994182E-01  0.10000000475E-02 0.  1.
</event>
<event>
 4   0  0.2441219E-02  0.9118800E+02  0.7818609E-02  0.1379984E+01
      -11   -1    0    0    0    0  0.00000000000E+00  0.00000000000E+00  0.35740347158E-01  0.35744000000E-01  0.51099999109E-03 0.  1.
       11   -1    0    0    0    0 -0.00000000000E+00 -0.00000000000E+00 -0.35740347158E-01  0.35744000000E-01  0.51099999109E-03 0. -1.
       22    1    1    2    0    0 -0.60241450167E-02  0.29330304555E-01  0.19508369906E-01  0.35737005818E-01  0.00000000000E+00 0.  1.
  9000001    1    1    2    0    0  0.60241450167E-02 -0.29330304555E-01 -0.19508369906E-01  0.35750994182E-01  0.10000000475E-02 0. -1.
</event>
<event>
 4   0  0.2441219E-02  0.9118800E+02  0.7818609E-02  0.1379984E+01
      -11   -1    0    0    0    0  0.00000000000E+00  0.00000000000E+00  0.35740347158E-01  0.35744000000E-01  0.51099999109E-03 0.  1.
       11   -1    0    0    0    0 -0.00000000000E+00 -0.00000000000E+00 -0.35740347158E-01  0.35744000000E-01  0.51099999109E-03 0. -1.
       22    1    1    2    0    0  0.46833705855E-02  0.37464502645E-02 -0.35230153778E-01  0.35737005818E-01  0.00000000000E+00 0. -1.
  9000001    1    1    2    0    0 -0.46833705855E-02 -0.37464502645E-02  0.35230153778E-01  0.35750994182E-01  0.10000000475E-02 0.  1.
</event>
<event>
 4   0  0.2441219E-02  0.9118800E+02  0.7818609E-02  0.1379984E+01
      -11   -1    0    0    0    0  0.00000000000E+00  0.00000000000E+00  0.35740347158E-01  0.35744000000E-01  0.51099999109E-03 0. -1.
       11   -1    0    0    0    0 -0.00000000000E+00 -0.00000000000E+00 -0.35740347158E-01  0.35744000000E-01  0.51099999109E-03 0.  1.
       22    1    1    2    0    0 -0.16996723868E-01 -0.30466257574E-01  0.77493297833E-02  0.35737005818E-01  0.00000000000E+00 0. -1.
  9000001    1    1    2    0    0  0.16996723868E-01  0.30466257574E-01 -0.77493297833E-02  0.35750994182E-01  0.10000000475E-02 0.  1.
</event>
<event>
 4   0  0.2441219E-02  0.9118800E+02  0.7818609E-02  0.1379984E+01
      -11   -1    0    0    0    0  0.00000000000E+00  0.00000000000E+00  0.35740347158E-01  0.35744000000E-01  0.51099999109E-03 0.  1.
       11   -1    0    0    0    0 -0.00000000000E+00 -0.00000000000E+00 -0.35740347158E-01  0.35744000000E-01  0.51099999109E-03 0. -1.
       22    1    1    2    0    0  0.61971563192E-03 -0.43417505785E-02  0.35466868192E-01  0.35737005818E-01  0.00000000000E+00 0.  1.
  9000001    1    1    2    0    0 -0.61971563192E-03  0.43417505785E-02 -0.35466868192E-01  0.35750994182E-01  0.10000000475E-02 0. -1.
</event>
<event>
 4   0  0.2441219E-02  0.9118800E+02  0.7818609E-02  0.1379984E+01
      -11   -1    0    0    0    0  0.00000000000E+00  0.00000000000E+00  0.35740347158E-01  0.35744000000E-01  0.51099999109E-03 0. -1.
       11   -1    0    0    0    0 -0.00000000000E+00 -0.00000000000E+00 -0.35740347158E-01  0.35744000000E-01  0.51099999109E-03 0.  1.
       22    1    1    2    0    0 -0.76948668430E-02  0.14391954717E-01  0.31792990557E-01  0.35737005818E-01  0.00000000000E+00 0. -1.
  9000001    1    1    2    0    0  0.76948668430E-02 -0.14391954717E-01 -0.31792990557E-01  0.35750994182E-01  0.10000000475E-02 0.  1.
</event>
<event>
 4   0  0.2441219E-02  0.9118800E+02  0.7818609E-02  0.1379984E+01
      -11   -1    0    0    0    0  0.00000000000E+00  0.00000000000E+00  0.35740347158E-01  0.35744000000E-01  0.51099999109E-03 0.  1.
       11   -1    0    0    0    0 -0.00000000000E+00 -0.00000000000E+00 -0.35740347158E-01  0.35744000000E-01  0.51099999109E-03 0. -1.
       22    1    1    2    0    0  0.34801779431E-02  0.31442441850E-01  0.16625125469E-01  0.35737005818E-01  0.00000000000E+00 0.  1.
  9000001    1    1    2    0    0 -0.34801779431E-02 -0.31442441850E-01 -0.16625125469E-01  0.35750994182E-01  0.10000000475E-02 0. -1.
</event>
<event>
 4   0  0.2441219E-02  0.9118800E+02  0.7818609E-02  0.1379984E+01
      -11   -1    0    0    0    0  0.00000000000E+00  0.00000000000E+00  0.35740347158E-01  0.35744000000E-01  0.51099999109E-03 0.  1.
       11   -1    0    0    0    0 -0.00000000000E+00 -0.00000000000E+00 -0.35740347158E-01  0.35744000000E-01  0.51099999109E-03 0. -1.
       22    1    1    2    0    0 -0.32308302511E-02  0.40643050022E-02  0.35357838531E-01  0.35737005818E-01  0.00000000000E+00 0.  1.
  9000001    1    1    2    0    0  0.32308302511E-02 -0.40643050022E-02 -0.35357838531E-01  0.35750994182E-01  0.10000000475E-02 0. -1.
</event>
<event>
 4   0  0.2441219E-02  0.9118800E+02  0.7818609E-02  0.1379984E+01
      -11   -1    0    0    0    0  0.00000000000E+00  0.00000000000E+00  0.35740347158E-01  0.35744000000E-01  0.51099999109E-03 0. -1.
       11   -1    0    0    0    0 -0.00000000000E+00 -0.00000000000E+00 -0.35740347158E-01  0.35744000000E-01  0.51099999109E-03 0.  1.
       22    1    1    2    0    0  0.20901669416E-01  0.55940481606E-03 -0.28981733329E-01  0.35737005818E-01  0.00000000000E+00 0.  1.
  9000001    1    1    2    0    0 -0.20901669416E-01 -0.55940481606E-03  0.28981733329E-01  0.35750994182E-01  0.10000000475E-02 0. -1.
</event>
<event>
 4   0  0.2441219E-02  0.9118800E+02  0.7818609E-02  0.1379984E+01
      -11   -1    0    0    0    0  0.00000000000E+00  0.00000000000E+00  0.35740347158E-01  0.35744000000E-01  0.51099999109E-03 0.  1.
       11   -1    0    0    0    0 -0.00000000000E+00 -0.00000000000E+00 -0.35740347158E-01  0.35744000000E-01  0.51099999109E-03 0. -1.
       22    1    1    2    0    0 -0.30922334829E-01  0.17687860749E-01  0.28429519390E-02  0.35737005818E-01  0.00000000000E+00 0.  1.
  9000001    1    1    2    0    0  0.30922334829E-01 -0.17687860749E-01 -0.28429519390E-02  0.35750994182E-01  0.10000000475E-02 0. -1.
</event>
<event>
 4   0  0.2441219E-02  0.9118800E+02  0.7818609E-02  0.1379984E+01
      -11   -1    0    0    0    0  0.00000000000E+00  0.00000000000E+00  0.35740347158E-01  0.35744000000E-01  0.51099999109E-03 0.  1.
       11   -1    0    0    0    0 -0.00000000000E+00 -0.00000000000E+00 -0.35740347158E-01  0.35744000000E-01  0.51099999109E-03 0. -1.
       22    1    1    2    0    0 -0.14354870324E-01 -0.66798752168E-02 -0.32038266962E-01  0.35737005818E-01  0.00000000000E+00 0. -1.
  9000001    1    1    2    0    0  0.14354870324E-01  0.66798752168E-02  0.32038266962E-01  0.35750994182E-01  0.10000000475E-02 0.  1.
</event>
<event>
 4   0  0.2441219E-02  0.9118800E+02  0.7818609E-02  0.1379984E+01
      -11   -1    0    0    0    0  0.00000000000E+00  0.00000000000E+00  0.35740347158E-01  0.35744000000E-01  0.51099999109E-03 0. -1.
       11   -1    0    0    0    0 -0.00000000000E+00 -0.00000000000E+00 -0.35740347158E-01  0.35744000000E-01  0.51099999109E-03 0.  1.
       22    1    1    2    0    0 -0.60107550049E-02  0.29175359880E-01 -0.19743423843E-01  0.35737005818E-01  0.00000000000E+00 0.  1.
  9000001    1    1    2    0    0  0.60107550049E-02 -0.29175359880E-01  0.19743423843E-01  0.35750994182E-01  0.10000000475E-02 0. -1.
</event>
<event>
 4   0  0.2441219E-02  0.9118800E+02  0.7818609E-02  0.1379984E+01
      -11   -1    0    0    0    0  0.00000000000E+00  0.00000000000E+00  0.35740347158E-01  0.35744000000E-01  0.51099999109E-03 0.  1.
       11   -1    0    0    0    0 -0.00000000000E+00 -0.00000000000E+00 -0.35740347158E-01  0.35744000000E-01  0.51099999109E-03 0. -1.
       22    1    1    2    0    0 -0.78956218654E-02 -0.72634531274E-02  0.34088634307E-01  0.35737005818E-01  0.00000000000E+00 0.  1.
  9000001    1    1    2    0    0  0.78956218654E-02  0.72634531274E-02 -0.34088634307E-01  0.35750994182E-01  0.10000000475E-02 0. -1.
</event>
<event>
 4   0  0.2441219E-02  0.9118800E+02  0.7818609E-02  0.1379984E+01
      -11   -1    0    0    0    0  0.00000000000E+00  0.00000000000E+00  0.35740347158E-01  0.35744000000E-01  0.51099999109E-03 0. -1.
       11   -1    0    0    0    0 -0.00000000000E+00 -0.00000000000E+00 -0.35740347158E-01  0.35744000000E-01  0.51099999109E-03 0.  1.
       22    1    1    2    0    0 -0.17827915857E-02  0.32005620573E-01 -0.15798591417E-01  0.35737005818E-01  0.00000000000E+00 0.  1.
  9000001    1    1    2    0    0  0.17827915857E-02 -0.32005620573E-01  0.15798591417E-01  0.35750994182E-01  0.10000000475E-02 0. -1.
</event>
<event>
 4   0  0.2441219E-02  0.9118800E+02  0.7818609E-02  0.1379984E+01
      -11   -1    0    0    0    0  0.00000000000E+00  0.00000000000E+00  0.35740347158E-01  0.35744000000E-01  0.51099999109E-03 0. -1.
       11   -1    0    0    0    0 -0.00000000000E+00 -0.00000000000E+00 -0.35740347158E-01  0.35744000000E-01  0.51099999109E-03 0.  1.
       22    1    1    2    0    0  0.31913910042E-01  0.14949229089E-01 -0.59292900346E-02  0.35737005818E-01  0.00000000000E+00 0.  1.
  9000001    1    1    2    0    0 -0.31913910042E-01 -0.14949229089E-01  0.59292900346E-02  0.35750994182E-01  0.10000000475E-02 0. -1.
</event>
<event>
 4   0  0.2441219E-02  0.9118800E+02  0.7818609E-02  0.1379984E+01
      -11   -1    0    0    0    0  0.00000000000E+00  0.00000000000E+00  0.35740347158E-01  0.35744000000E-01  0.51099999109E-03 0. -1.
       11   -1    0    0    0    0 -0.00000000000E+00 -0.00000000000E+00 -0.35740347158E-01  0.35744000000E-01  0.51099999109E-03 0.  1.
       22    1    1    2    0    0  0.11556676839E-01 -0.28195447629E-01  0.18670659825E-01  0.35737005818E-01  0.00000000000E+00 0. -1.
  9000001    1    1    2    0    0 -0.11556676839E-01  0.28195447629E-01 -0.18670659825E-01  0.35750994182E-01  0.10000000475E-02 0.  1.
</event>
<event>
 4   0  0.2441219E-02  0.9118800E+02  0.7818609E-02  0.1379984E+01
      -11   -1    0    0    0    0  0.00000000000E+00  0.00000000000E+00  0.35740347158E-01  0.35744000000E-01  0.51099999109E-03 0. -1.
       11   -1    0    0    0    0 -0.00000000000E+00 -0.00000000000E+00 -0.35740347158E-01  0.35744000000E-01  0.51099999109E-03 0.  1.
       22    1    1    2    0    0  0.43157385829E-03 -0.59052488485E-02  0.35243089605E-01  0.35737005818E-01  0.00000000000E+00 0. -1.
  9000001    1    1    2    0    0 -0.43157385829E-03  0.59052488485E-02 -0.35243089605E-01  0.35750994182E-01  0.10000000475E-02 0.  1.
</event>
<event>
 4   0  0.2441219E-02  0.9118800E+02  0.7818609E-02  0.1379984E+01
      -11   -1    0    0    0    0  0.00000000000E+00  0.00000000000E+00  0.35740347158E-01  0.35744000000E-01  0.51099999109E-03 0. -1.
       11   -1    0    0    0    0 -0.00000000000E+00 -0.00000000000E+00 -0.35740347158E-01  0.35744000000E-01  0.51099999109E-03 0.  1.
       22    1    1    2    0    0 -0.19920093064E-01  0.37464308745E-02 -0.29432766314E-01  0.35737005818E-01  0.00000000000E+00 0.  1.
  9000001    1    1    2    0    0  0.19920093064E-01 -0.37464308745E-02  0.29432766314E-01  0.35750994182E-01  0.10000000475E-02 0. -1.
</event>
<event>
 4   0  0.2441219E-02  0.9118800E+02  0.7818609E-02  0.1379984E+01
      -11   -1    0    0    0    0  0.00000000000E+00  0.00000000000E+00  0.35740347158E-01  0.35744000000E-01  0.51099999109E-03 0.  1.
       11   -1    0    0    0    0 -0.00000000000E+00 -0.00000000000E+00 -0.35740347158E-01  0.35744000000E-01  0.51099999109E-03 0. -1.
       22    1    1    2    0    0  0.15264942353E-01 -0.76582244793E-02 -0.31392144203E-01  0.35737005818E-01  0.00000000000E+00 0. -1.
  9000001    1    1    2    0    0 -0.15264942353E-01  0.76582244793E-02  0.31392144203E-01  0.35750994182E-01  0.10000000475E-02 0.  1.
</event>
<event>
 4   0  0.2441219E-02  0.9118800E+02  0.7818609E-02  0.1379984E+01
      -11   -1    0    0    0    0  0.00000000000E+00  0.00000000000E+00  0.35740347158E-01  0.35744000000E-01  0.51099999109E-03 0.  1.
       11   -1    0    0    0    0 -0.00000000000E+00 -0.00000000000E+00 -0.35740347158E-01  0.35744000000E-01  0.51099999109E-03 0. -1.
       22    1    1    2    0    0 -0.11557122953E-01 -0.49138619626E-02  0.33457741324E-01  0.35737005818E-01  0.00000000000E+00 0.  1.
  9000001    1    1    2    0    0  0.11557122953E-01  0.49138619626E-02 -0.33457741324E-01  0.35750994182E-01  0.10000000475E-02 0. -1.
</event>
<event>
 4   0  0.2441219E-02  0.9118800E+02  0.7818609E-02  0.1379984E+01
      -11   -1    0    0    0    0  0.00000000000E+00  0.00000000000E+00  0.35740347158E-01  0.35744000000E-01  0.51099999109E-03 0.  1.
       11   -1    0    0    0    0 -0.00000000000E+00 -0.00000000000E+00 -0.35740347158E-01  0.35744000000E-01  0.51099999109E-03 0. -1.
       22    1    1    2    0    0 -0.30924305563E-03 -0.67520299439E-02  0.35091994033E-01  0.35737005818E-01  0.00000000000E+00 0.  1.
  9000001    1    1    2    0    0  0.30924305563E-03  0.67520299439E-02 -0.35091994033E-01  0.35750994182E-01  0.10000000475E-02 0. -1.
</event>
<event>
 4   0  0.2441219E-02  0.9118800E+02  0.7818609E-02  0.1379984E+01
      -11   -1    0    0    0    0  0.00000000000E+00  0.00000000000E+00  0.35740347158E-01  0.35744000000E-01  0.51099999109E-03 0.  1.
       11   -1    0    0    0    0 -0.00000000000E+00 -0.00000000000E+00 -0.35740347158E-01  0.35744000000E-01  0.51099999109E-03 0. -1.
       22    1    1    2    0    0  0.49503953272E-02 -0.69318150462E-02  0.34707018183E-01  0.35737005818E-01  0.00000000000E+00 0.  1.
  9000001    1    1    2    0    0 -0.49503953272E-02  0.69318150462E-02 -0.34707018183E-01  0.35750994182E-01  0.10000000475E-02 0. -1.
</event>
<event>
 4   0  0.2441219E-02  0.9118800E+02  0.7818609E-02  0.1379984E+01
      -11   -1    0    0    0    0  0.00000000000E+00  0.00000000000E+00  0.35740347158E-01  0.35744000000E-01  0.51099999109E-03 0.  1.
       11   -1    0    0    0    0 -0.00000000000E+00 -0.00000000000E+00 -0.35740347158E-01  0.35744000000E-01  0.51099999109E-03 0. -1.
       22    1    1    2    0    0 -0.38916647128E-02 -0.31239988013E-02  0.35386850130E-01  0.35737005818E-01  0.00000000000E+00 0.  1.
  9000001    1    1    2    0    0  0.38916647128E-02  0.31239988013E-02 -0.35386850130E-01  0.35750994182E-01  0.10000000475E-02 0. -1.
</event>
<event>
 4   0  0.2441219E-02  0.9118800E+02  0.7818609E-02  0.1379984E+01
      -11   -1    0    0    0    0  0.00000000000E+00  0.00000000000E+00  0.35740347158E-01  0.35744000000E-01  0.51099999109E-03 0.  1.
       11   -1    0    0    0    0 -0.00000000000E+00 -0.00000000000E+00 -0.35740347158E-01  0.35744000000E-01  0.51099999109E-03 0. -1.
       22    1    1    2    0    0  0.65589795797E-02 -0.21589914814E-01 -0.27712613556E-01  0.35737005818E-01  0.00000000000E+00 0. -1.
  9000001    1    1    2    0    0 -0.65589795797E-02  0.21589914814E-01  0.27712613556E-01  0.35750994182E-01  0.10000000475E-02 0.  1.
</event>
<event>
 4   0  0.2441219E-02  0.9118800E+02  0.7818609E-02  0.1379984E+01
      -11   -1    0    0    0    0  0.00000000000E+00  0.00000000000E+00  0.35740347158E-01  0.35744000000E-01  0.51099999109E-03 0.  1.
       11   -1    0    0    0    0 -0.00000000000E+00 -0.00000000000E+00 -0.35740347158E-01  0.35744000000E-01  0.51099999109E-03 0. -1.
       22    1    1    2    0    0  0.18244481140E-02 -0.35577304300E-02  0.35512638991E-01  0.35737005818E-01  0.00000000000E+00 0.  1.
  9000001    1    1    2    0    0 -0.18244481140E-02  0.35577304300E-02 -0.35512638991E-01  0.35750994182E-01  0.10000000475E-02 0. -1.
</event>
<event>
 4   0  0.2441219E-02  0.9118800E+02  0.7818609E-02  0.1379984E+01
      -11   -1    0    0    0    0  0.00000000000E+00  0.00000000000E+00  0.35740347158E-01  0.35744000000E-01  0.51099999109E-03 0.  1.
       11   -1    0    0    0    0 -0.00000000000E+00 -0.00000000000E+00 -0.35740347158E-01  0.35744000000E-01  0.51099999109E-03 0. -1.
       22    1    1    2    0    0 -0.82171921156E-02 -0.66544513078E-02 -0.34136924530E-01  0.35737005818E-01  0.00000000000E+00 0. -1.
  9000001    1    1    2    0    0  0.82171921156E-02  0.66544513078E-02  0.34136924530E-01  0.35750994182E-01  0.10000000475E-02 0.  1.
</event>
<event>
 4   0  0.2441219E-02  0.9118800E+02  0.7818609E-02  0.1379984E+01
      -11   -1    0    0    0    0  0.00000000000E+00  0.00000000000E+00  0.35740347158E-01  0.35744000000E-01  0.51099999109E-03 0.  1.
       11   -1    0    0    0    0 -0.00000000000E+00 -0.00000000000E+00 -0.35740347158E-01  0.35744000000E-01  0.51099999109E-03 0. -1.
       22    1    1    2    0    0 -0.22173538325E-02 -0.34936987258E-02  0.35496633588E-01  0.35737005818E-01  0.00000000000E+00 0.  1.
  9000001    1    1    2    0    0  0.22173538325E-02  0.34936987258E-02 -0.35496633588E-01  0.35750994182E-01  0.10000000475E-02 0. -1.
</event>
<event>
 4   0  0.2441219E-02  0.9118800E+02  0.7818609E-02  0.1379984E+01
      -11   -1    0    0    0    0  0.00000000000E+00  0.00000000000E+00  0.35740347158E-01  0.35744000000E-01  0.51099999109E-03 0.  1.
       11   -1    0    0    0    0 -0.00000000000E+00 -0.00000000000E+00 -0.35740347158E-01  0.35744000000E-01  0.51099999109E-03 0. -1.
       22    1    1    2    0    0  0.35981500745E-02 -0.45569241157E-02  0.35262180073E-01  0.35737005818E-01  0.00000000000E+00 0.  1.
  9000001    1    1    2    0    0 -0.35981500745E-02  0.45569241157E-02 -0.35262180073E-01  0.35750994182E-01  0.10000000475E-02 0. -1.
</event>
<event>
 4   0  0.2441219E-02  0.9118800E+02  0.7818609E-02  0.1379984E+01
      -11   -1    0    0    0    0  0.00000000000E+00  0.00000000000E+00  0.35740347158E-01  0.35744000000E-01  0.51099999109E-03 0.  1.
       11   -1    0    0    0    0 -0.00000000000E+00 -0.00000000000E+00 -0.35740347158E-01  0.35744000000E-01  0.51099999109E-03 0. -1.
       22    1    1    2    0    0 -0.54216073013E-02 -0.13099196455E-01  0.32804737636E-01  0.35737005818E-01  0.00000000000E+00 0.  1.
  9000001    1    1    2    0    0  0.54216073013E-02  0.13099196455E-01 -0.32804737636E-01  0.35750994182E-01  0.10000000475E-02 0. -1.
</event>
<event>
 4   0  0.2441219E-02  0.9118800E+02  0.7818609E-02  0.1379984E+01
      -11   -1    0    0    0    0  0.00000000000E+00  0.00000000000E+00  0.35740347158E-01  0.35744000000E-01  0.51099999109E-03 0. -1.
       11   -1    0    0    0    0 -0.00000000000E+00 -0.00000000000E+00 -0.35740347158E-01  0.35744000000E-01  0.51099999109E-03 0.  1.
       22    1    1    2    0    0 -0.28801967030E-02 -0.13236760826E-02 -0.35596150543E-01  0.35737005818E-01  0.00000000000E+00 0.  1.
  9000001    1    1    2    0    0  0.28801967030E-02  0.13236760826E-02  0.35596150543E-01  0.35750994182E-01  0.10000000475E-02 0. -1.
</event>
<event>
 4   0  0.2441219E-02  0.9118800E+02  0.7818609E-02  0.1379984E+01
      -11   -1    0    0    0    0  0.00000000000E+00  0.00000000000E+00  0.35740347158E-01  0.35744000000E-01  0.51099999109E-03 0. -1.
       11   -1    0    0    0    0 -0.00000000000E+00 -0.00000000000E+00 -0.35740347158E-01  0.35744000000E-01  0.51099999109E-03 0.  1.
       22    1    1    2    0    0  0.35697215450E-02  0.21419315426E-02  0.35493700881E-01  0.35737005818E-01  0.00000000000E+00 0. -1.
  9000001    1    1    2    0    0 -0.35697215450E-02 -0.21419315426E-02 -0.35493700881E-01  0.35750994182E-01  0.10000000475E-02 0.  1.
</event>
<event>
 4   0  0.2441219E-02  0.9118800E+02  0.7818609E-02  0.1379984E+01
      -11   -1    0    0    0    0  0.00000000000E+00  0.00000000000E+00  0.35740347158E-01  0.35744000000E-01  0.51099999109E-03 0. -1.
       11   -1    0    0    0    0 -0.00000000000E+00 -0.00000000000E+00 -0.35740347158E-01  0.35744000000E-01  0.51099999109E-03 0.  1.
       22    1    1    2    0    0  0.43934936200E-02  0.30431670818E-04 -0.35465897318E-01  0.35737005818E-01  0.00000000000E+00 0.  1.
  9000001    1    1    2    0    0 -0.43934936200E-02 -0.30431670818E-04  0.35465897318E-01  0.35750994182E-01  0.10000000475E-02 0. -1.
</event>
<event>
 4   0  0.2441219E-02  0.9118800E+02  0.7818609E-02  0.1379984E+01
      -11   -1    0    0    0    0  0.00000000000E+00  0.00000000000E+00  0.35740347158E-01  0.35744000000E-01  0.51099999109E-03 0.  1.
       11   -1    0    0    0    0 -0.00000000000E+00 -0.00000000000E+00 -0.35740347158E-01  0.35744000000E-01  0.51099999109E-03 0. -1.
       22    1    1    2    0    0  0.21434774847E-02 -0.62769859782E-02  0.35116072334E-01  0.35737005818E-01  0.00000000000E+00 0.  1.
  9000001    1    1    2    0    0 -0.21434774847E-02  0.62769859782E-02 -0.35116072334E-01  0.35750994182E-01  0.10000000475E-02 0. -1.
</event>
<event>
 4   0  0.2441219E-02  0.9118800E+02  0.7818609E-02  0.1379984E+01
      -11   -1    0    0    0    0  0.00000000000E+00  0.00000000000E+00  0.35740347158E-01  0.35744000000E-01  0.51099999109E-03 0. -1.
       11   -1    0    0    0    0 -0.00000000000E+00 -0.00000000000E+00 -0.35740347158E-01  0.35744000000E-01  0.51099999109E-03 0.  1.
       22    1    1    2    0    0 -0.87806877044E-02 -0.74142674034E-02 -0.33838761017E-01  0.35737005818E-01  0.00000000000E+00 0.  1.
  9000001    1    1    2    0    0  0.87806877044E-02  0.74142674034E-02  0.33838761017E-01  0.35750994182E-01  0.10000000475E-02 0. -1.
</event>
<event>
 4   0  0.2441219E-02  0.9118800E+02  0.7818609E-02  0.1379984E+01
      -11   -1    0    0    0    0  0.00000000000E+00  0.00000000000E+00  0.35740347158E-01  0.35744000000E-01  0.51099999109E-03 0. -1.
       11   -1    0    0    0    0 -0.00000000000E+00 -0.00000000000E+00 -0.35740347158E-01  0.35744000000E-01  0.51099999109E-03 0.  1.
       22    1    1    2    0    0  0.85951835641E-02  0.46547707696E-02 -0.34374256551E-01  0.35737005818E-01  0.00000000000E+00 0.  1.
  9000001    1    1    2    0    0 -0.85951835641E-02 -0.46547707696E-02  0.34374256551E-01  0.35750994182E-01  0.10000000475E-02 0. -1.
</event>
<event>
 4   0  0.2441219E-02  0.9118800E+02  0.7818609E-02  0.1379984E+01
      -11   -1    0    0    0    0  0.00000000000E+00  0.00000000000E+00  0.35740347158E-01  0.35744000000E-01  0.51099999109E-03 0.  1.
       11   -1    0    0    0    0 -0.00000000000E+00 -0.00000000000E+00 -0.35740347158E-01  0.35744000000E-01  0.51099999109E-03 0. -1.
       22    1    1    2    0    0  0.35678098795E-01 -0.11834162991E-02  0.16752244849E-02  0.35737005818E-01  0.00000000000E+00 0. -1.
  9000001    1    1    2    0    0 -0.35678098795E-01  0.11834162991E-02 -0.16752244849E-02  0.35750994182E-01  0.10000000475E-02 0.  1.
</event>
<event>
 4   0  0.2441219E-02  0.9118800E+02  0.7818609E-02  0.1379984E+01
      -11   -1    0    0    0    0  0.00000000000E+00  0.00000000000E+00  0.35740347158E-01  0.35744000000E-01  0.51099999109E-03 0.  1.
       11   -1    0    0    0    0 -0.00000000000E+00 -0.00000000000E+00 -0.35740347158E-01  0.35744000000E-01  0.51099999109E-03 0. -1.
       22    1    1    2    0    0  0.72342689573E-02  0.18456486176E-03 -0.34996640886E-01  0.35737005818E-01  0.00000000000E+00 0. -1.
  9000001    1    1    2    0    0 -0.72342689573E-02 -0.18456486176E-03  0.34996640886E-01  0.35750994182E-01  0.10000000475E-02 0.  1.
</event>
<event>
 4   0  0.2441219E-02  0.9118800E+02  0.7818609E-02  0.1379984E+01
      -11   -1    0    0    0    0  0.00000000000E+00  0.00000000000E+00  0.35740347158E-01  0.35744000000E-01  0.51099999109E-03 0. -1.
       11   -1    0    0    0    0 -0.00000000000E+00 -0.00000000000E+00 -0.35740347158E-01  0.35744000000E-01  0.51099999109E-03 0.  1.
       22    1    1    2    0    0  0.50032974123E-02  0.29975648086E-02 -0.35257838917E-01  0.35737005818E-01  0.00000000000E+00 0.  1.
  9000001    1    1    2    0    0 -0.50032974123E-02 -0.29975648086E-02  0.35257838917E-01  0.35750994182E-01  0.10000000475E-02 0. -1.
</event>
<event>
 4   0  0.2441219E-02  0.9118800E+02  0.7818609E-02  0.1379984E+01
      -11   -1    0    0    0    0  0.00000000000E+00  0.00000000000E+00  0.35740347158E-01  0.35744000000E-01  0.51099999109E-03 0.  1.
       11   -1    0    0    0    0 -0.00000000000E+00 -0.00000000000E+00 -0.35740347158E-01  0.35744000000E-01  0.51099999109E-03 0. -1.
       22    1    1    2    0    0  0.18300775010E-01  0.18824498068E-02 -0.30637747986E-01  0.35737005818E-01  0.00000000000E+00 0. -1.
  9000001    1    1    2    0    0 -0.18300775010E-01 -0.18824498068E-02  0.30637747986E-01  0.35750994182E-01  0.10000000475E-02 0.  1.
</event>
<event>
 4   0  0.2441219E-02  0.9118800E+02  0.7818609E-02  0.1379984E+01
      -11   -1    0    0    0    0  0.00000000000E+00  0.00000000000E+00  0.35740347158E-01  0.35744000000E-01  0.51099999109E-03 0. -1.
       11   -1    0    0    0    0 -0.00000000000E+00 -0.00000000000E+00 -0.35740347158E-01  0.35744000000E-01  0.51099999109E-03 0.  1.
       22    1    1    2    0    0  0.17244925484E-01 -0.15863085183E-03  0.31300494664E-01  0.35737005818E-01  0.00000000000E+00 0. -1.
  9000001    1    1    2    0    0 -0.17244925484E-01  0.15863085183E-03 -0.31300494664E-01  0.35750994182E-01  0.10000000475E-02 0.  1.
</event>
<event>
 4   0  0.2441219E-02  0.9118800E+02  0.7818609E-02  0.1379984E+01
      -11   -1    0    0    0    0  0.00000000000E+00  0.00000000000E+00  0.35740347158E-01  0.35744000000E-01  0.51099999109E-03 0. -1.
       11   -1    0    0    0    0 -0.00000000000E+00 -0.00000000000E+00 -0.35740347158E-01  0.35744000000E-01  0.51099999109E-03 0.  1.
       22    1    1    2    0    0  0.19742626462E-02 -0.22886527508E-02  0.35608958711E-01  0.35737005818E-01  0.00000000000E+00 0. -1.
  9000001    1    1    2    0    0 -0.19742626462E-02  0.22886527508E-02 -0.35608958711E-01  0.35750994182E-01  0.10000000475E-02 0.  1.
</event>
<event>
 4   0  0.2441219E-02  0.9118800E+02  0.7818609E-02  0.1379984E+01
      -11   -1    0    0    0    0  0.00000000000E+00  0.00000000000E+00  0.35740347158E-01  0.35744000000E-01  0.51099999109E-03 0. -1.
       11   -1    0    0    0    0 -0.00000000000E+00 -0.00000000000E+00 -0.35740347158E-01  0.35744000000E-01  0.51099999109E-03 0.  1.
       22    1    1    2    0    0  0.10261107684E-01 -0.11241572582E-01  0.32333733157E-01  0.35737005818E-01  0.00000000000E+00 0. -1.
  9000001    1    1    2    0    0 -0.10261107684E-01  0.11241572582E-01 -0.32333733157E-01  0.35750994182E-01  0.10000000475E-02 0.  1.
</event>
<event>
 4   0  0.2441219E-02  0.9118800E+02  0.7818609E-02  0.1379984E+01
      -11   -1    0    0    0    0  0.00000000000E+00  0.00000000000E+00  0.35740347158E-01  0.35744000000E-01  0.51099999109E-03 0.  1.
       11   -1    0    0    0    0 -0.00000000000E+00 -0.00000000000E+00 -0.35740347158E-01  0.35744000000E-01  0.51099999109E-03 0. -1.
       22    1    1    2    0    0 -0.12273990020E-01 -0.60853925030E-02 -0.33006828868E-01  0.35737005818E-01  0.00000000000E+00 0. -1.
  9000001    1    1    2    0    0  0.12273990020E-01  0.60853925030E-02  0.33006828868E-01  0.35750994182E-01  0.10000000475E-02 0.  1.
</event>
<event>
 4   0  0.2441219E-02  0.9118800E+02  0.7818609E-02  0.1379984E+01
      -11   -1    0    0    0    0  0.00000000000E+00  0.00000000000E+00  0.35740347158E-01  0.35744000000E-01  0.51099999109E-03 0.  1.
       11   -1    0    0    0    0 -0.00000000000E+00 -0.00000000000E+00 -0.35740347158E-01  0.35744000000E-01  0.51099999109E-03 0. -1.
       22    1    1    2    0    0  0.28903362943E-02  0.21654782989E-02  0.35554046812E-01  0.35737005818E-01  0.00000000000E+00 0.  1.
  9000001    1    1    2    0    0 -0.28903362943E-02 -0.21654782989E-02 -0.35554046812E-01  0.35750994182E-01  0.10000000475E-02 0. -1.
</event>
<event>
 4   0  0.2441219E-02  0.9118800E+02  0.7818609E-02  0.1379984E+01
      -11   -1    0    0    0    0  0.00000000000E+00  0.00000000000E+00  0.35740347158E-01  0.35744000000E-01  0.51099999109E-03 0. -1.
       11   -1    0    0    0    0 -0.00000000000E+00 -0.00000000000E+00 -0.35740347158E-01  0.35744000000E-01  0.51099999109E-03 0.  1.
       22    1    1    2    0    0 -0.18262902862E-01 -0.55426190227E-04  0.30718022265E-01  0.35737005818E-01  0.00000000000E+00 0. -1.
  9000001    1    1    2    0    0  0.18262902862E-01  0.55426190227E-04 -0.30718022265E-01  0.35750994182E-01  0.10000000475E-02 0.  1.
</event>
<event>
 4   0  0.2441219E-02  0.9118800E+02  0.7818609E-02  0.1379984E+01
      -11   -1    0    0    0    0  0.00000000000E+00  0.00000000000E+00  0.35740347158E-01  0.35744000000E-01  0.51099999109E-03 0. -1.
       11   -1    0    0    0    0 -0.00000000000E+00 -0.00000000000E+00 -0.35740347158E-01  0.35744000000E-01  0.51099999109E-03 0.  1.
       22    1    1    2    0    0 -0.12558597649E-01  0.26180107590E-01  0.20833078902E-01  0.35737005818E-01  0.00000000000E+00 0.  1.
  9000001    1    1    2    0    0  0.12558597649E-01 -0.26180107590E-01 -0.20833078902E-01  0.35750994182E-01  0.10000000475E-02 0. -1.
</event>
<event>
 4   0  0.2441219E-02  0.9118800E+02  0.7818609E-02  0.1379984E+01
      -11   -1    0    0    0    0  0.00000000000E+00  0.00000000000E+00  0.35740347158E-01  0.35744000000E-01  0.51099999109E-03 0. -1.
       11   -1    0    0    0    0 -0.00000000000E+00 -0.00000000000E+00 -0.35740347158E-01  0.35744000000E-01  0.51099999109E-03 0.  1.
       22    1    1    2    0    0  0.14891868883E-02  0.35163207994E-01 -0.62019924904E-02  0.35737005818E-01  0.00000000000E+00 0. -1.
  9000001    1    1    2    0    0 -0.14891868883E-02 -0.35163207994E-01  0.62019924904E-02  0.35750994182E-01  0.10000000475E-02 0.  1.
</event>
<event>
 4   0  0.2441219E-02  0.9118800E+02  0.7818609E-02  0.1379984E+01
      -11   -1    0    0    0    0  0.00000000000E+00  0.00000000000E+00  0.35740347158E-01  0.35744000000E-01  0.51099999109E-03 0. -1.
       11   -1    0    0    0    0 -0.00000000000E+00 -0.00000000000E+00 -0.35740347158E-01  0.35744000000E-01  0.51099999109E-03 0.  1.
       22    1    1    2    0    0 -0.58951560334E-03  0.75795287389E-02  0.34919003427E-01  0.35737005818E-01  0.00000000000E+00 0. -1.
  9000001    1    1    2    0    0  0.58951560334E-03 -0.75795287389E-02 -0.34919003427E-01  0.35750994182E-01  0.10000000475E-02 0.  1.
</event>
<event>
 4   0  0.2441219E-02  0.9118800E+02  0.7818609E-02  0.1379984E+01
      -11   -1    0    0    0    0  0.00000000000E+00  0.00000000000E+00  0.35740347158E-01  0.35744000000E-01  0.51099999109E-03 0. -1.
       11   -1    0    0    0    0 -0.00000000000E+00 -0.00000000000E+00 -0.35740347158E-01  0.35744000000E-01  0.51099999109E-03 0. -1.
       22    1    1    2    0    0  0.17349311922E-03  0.36352835259E-02 -0.35551205306E-01  0.35737005818E-01  0.00000000000E+00 0. -1.
  9000001    1    1    2    0    0 -0.17349311922E-03 -0.36352835259E-02  0.35551205306E-01  0.35750994182E-01  0.10000000475E-02 0. -1.
</event>
<event>
 4   0  0.2441219E-02  0.9118800E+02  0.7818609E-02  0.1379984E+01
      -11   -1    0    0    0    0  0.00000000000E+00  0.00000000000E+00  0.35740347158E-01  0.35744000000E-01  0.51099999109E-03 0. -1.
       11   -1    0    0    0    0 -0.00000000000E+00 -0.00000000000E+00 -0.35740347158E-01  0.35744000000E-01  0.51099999109E-03 0.  1.
       22    1    1    2    0    0 -0.69729134319E-02  0.29874718611E-02  0.34922586889E-01  0.35737005818E-01  0.00000000000E+00 0. -1.
  9000001    1    1    2    0    0  0.69729134319E-02 -0.29874718611E-02 -0.34922586889E-01  0.35750994182E-01  0.10000000475E-02 0.  1.
</event>
<event>
 4   0  0.2441219E-02  0.9118800E+02  0.7818609E-02  0.1379984E+01
      -11   -1    0    0    0    0  0.00000000000E+00  0.00000000000E+00  0.35740347158E-01  0.35744000000E-01  0.51099999109E-03 0. -1.
       11   -1    0    0    0    0 -0.00000000000E+00 -0.00000000000E+00 -0.35740347158E-01  0.35744000000E-01  0.51099999109E-03 0.  1.
       22    1    1    2    0    0 -0.10782208127E-01  0.14337169677E-01  0.30908302095E-01  0.35737005818E-01  0.00000000000E+00 0. -1.
  9000001    1    1    2    0    0  0.10782208127E-01 -0.14337169677E-01 -0.30908302095E-01  0.35750994182E-01  0.10000000475E-02 0.  1.
</event>
<event>
 4   0  0.2441219E-02  0.9118800E+02  0.7818609E-02  0.1379984E+01
      -11   -1    0    0    0    0  0.00000000000E+00  0.00000000000E+00  0.35740347158E-01  0.35744000000E-01  0.51099999109E-03 0.  1.
       11   -1    0    0    0    0 -0.00000000000E+00 -0.00000000000E+00 -0.35740347158E-01  0.35744000000E-01  0.51099999109E-03 0. -1.
       22    1    1    2    0    0  0.10006174377E-01 -0.55956531115E-02  0.33848171671E-01  0.35737005818E-01  0.00000000000E+00 0.  1.
  9000001    1    1    2    0    0 -0.10006174377E-01  0.55956531115E-02 -0.33848171671E-01  0.35750994182E-01  0.10000000475E-02 0. -1.
</event>
<event>
 4   0  0.2441219E-02  0.9118800E+02  0.7818609E-02  0.1379984E+01
      -11   -1    0    0    0    0  0.00000000000E+00  0.00000000000E+00  0.35740347158E-01  0.35744000000E-01  0.51099999109E-03 0. -1.
       11   -1    0    0    0    0 -0.00000000000E+00 -0.00000000000E+00 -0.35740347158E-01  0.35744000000E-01  0.51099999109E-03 0.  1.
       22    1    1    2    0    0 -0.56517444735E-02  0.12136196238E-01 -0.33134636110E-01  0.35737005818E-01  0.00000000000E+00 0.  1.
  9000001    1    1    2    0    0  0.56517444735E-02 -0.12136196238E-01  0.33134636110E-01  0.35750994182E-01  0.10000000475E-02 0. -1.
</event>
<event>
 4   0  0.2441219E-02  0.9118800E+02  0.7818609E-02  0.1379984E+01
      -11   -1    0    0    0    0  0.00000000000E+00  0.00000000000E+00  0.35740347158E-01  0.35744000000E-01  0.51099999109E-03 0. -1.
       11   -1    0    0    0    0 -0.00000000000E+00 -0.00000000000E+00 -0.35740347158E-01  0.35744000000E-01  0.51099999109E-03 0.  1.
       22    1    1    2    0    0 -0.96990258737E-02 -0.49080606580E-02 -0.34043698720E-01  0.35737005818E-01  0.00000000000E+00 0.  1.
  9000001    1    1    2    0    0  0.96990258737E-02  0.49080606580E-02  0.34043698720E-01  0.35750994182E-01  0.10000000475E-02 0. -1.
</event>
<event>
 4   0  0.2441219E-02  0.9118800E+02  0.7818609E-02  0.1379984E+01
      -11   -1    0    0    0    0  0.00000000000E+00  0.00000000000E+00  0.35740347158E-01  0.35744000000E-01  0.51099999109E-03 0. -1.
       11   -1    0    0    0    0 -0.00000000000E+00 -0.00000000000E+00 -0.35740347158E-01  0.35744000000E-01  0.51099999109E-03 0.  1.
       22    1    1    2    0    0 -0.17749331723E-01  0.20999668693E-02  0.30946485219E-01  0.35737005818E-01  0.00000000000E+00 0. -1.
  9000001    1    1    2    0    0  0.17749331723E-01 -0.20999668693E-02 -0.30946485219E-01  0.35750994182E-01  0.10000000475E-02 0.  1.
</event>
<event>
 4   0  0.2441219E-02  0.9118800E+02  0.7818609E-02  0.1379984E+01
      -11   -1    0    0    0    0  0.00000000000E+00  0.00000000000E+00  0.35740347158E-01  0.35744000000E-01  0.51099999109E-03 0.  1.
       11   -1    0    0    0    0 -0.00000000000E+00 -0.00000000000E+00 -0.35740347158E-01  0.35744000000E-01  0.51099999109E-03 0. -1.
       22    1    1    2    0    0  0.20554780799E-01 -0.19787884408E-01 -0.21519158948E-01  0.35737005818E-01  0.00000000000E+00 0. -1.
  9000001    1    1    2    0    0 -0.20554780799E-01  0.19787884408E-01  0.21519158948E-01  0.35750994182E-01  0.10000000475E-02 0.  1.
</event>
<event>
 4   0  0.2441219E-02  0.9118800E+02  0.7818609E-02  0.1379984E+01
      -11   -1    0    0    0    0  0.00000000000E+00  0.00000000000E+00  0.35740347158E-01  0.35744000000E-01  0.51099999109E-03 0.  1.
       11   -1    0    0    0    0 -0.00000000000E+00 -0.00000000000E+00 -0.35740347158E-01  0.35744000000E-01  0.51099999109E-03 0. -1.
       22    1    1    2    0    0 -0.82431537219E-02 -0.51218642302E-02  0.34394047572E-01  0.35737005818E-01  0.00000000000E+00 0.  1.
  9000001    1    1    2    0    0  0.82431537219E-02  0.51218642302E-02 -0.34394047572E-01  0.35750994182E-01  0.10000000475E-02 0. -1.
</event>
<event>
 4   0  0.2441219E-02  0.9118800E+02  0.7818609E-02  0.1379984E+01
      -11   -1    0    0    0    0  0.00000000000E+00  0.00000000000E+00  0.35740347158E-01  0.35744000000E-01  0.51099999109E-03 0.  1.
       11   -1    0    0    0    0 -0.00000000000E+00 -0.00000000000E+00 -0.35740347158E-01  0.35744000000E-01  0.51099999109E-03 0. -1.
       22    1    1    2    0    0  0.56620048090E-02  0.98477646073E-02  0.33883577418E-01  0.35737005818E-01  0.00000000000E+00 0.  1.
  9000001    1    1    2    0    0 -0.56620048090E-02 -0.98477646073E-02 -0.33883577418E-01  0.35750994182E-01  0.10000000475E-02 0. -1.
</event>
<event>
 4   0  0.2441219E-02  0.9118800E+02  0.7818609E-02  0.1379984E+01
      -11   -1    0    0    0    0  0.00000000000E+00  0.00000000000E+00  0.35740347158E-01  0.35744000000E-01  0.51099999109E-03 0.  1.
       11   -1    0    0    0    0 -0.00000000000E+00 -0.00000000000E+00 -0.35740347158E-01  0.35744000000E-01  0.51099999109E-03 0. -1.
       22    1    1    2    0    0  0.16152800766E-02 -0.27464214426E-02  0.35594685339E-01  0.35737005818E-01  0.00000000000E+00 0.  1.
  9000001    1    1    2    0    0 -0.16152800766E-02  0.27464214426E-02 -0.35594685339E-01  0.35750994182E-01  0.10000000475E-02 0. -1.
</event>
<event>
 4   0  0.2441219E-02  0.9118800E+02  0.7818609E-02  0.1379984E+01
      -11   -1    0    0    0    0  0.00000000000E+00  0.00000000000E+00  0.35740347158E-01  0.35744000000E-01  0.51099999109E-03 0.  1.
       11   -1    0    0    0    0 -0.00000000000E+00 -0.00000000000E+00 -0.35740347158E-01  0.35744000000E-01  0.51099999109E-03 0. -1.
       22    1    1    2    0    0  0.25078628964E-01 -0.14810134098E-03 -0.25459261972E-01  0.35737005818E-01  0.00000000000E+00 0. -1.
  9000001    1    1    2    0    0 -0.25078628964E-01  0.14810134098E-03  0.25459261972E-01  0.35750994182E-01  0.10000000475E-02 0.  1.
</event>
<event>
 4   0  0.2441219E-02  0.9118800E+02  0.7818609E-02  0.1379984E+01
      -11   -1    0    0    0    0  0.00000000000E+00  0.00000000000E+00  0.35740347158E-01  0.35744000000E-01  0.51099999109E-03 0. -1.
       11   -1    0    0    0    0 -0.00000000000E+00 -0.00000000000E+00 -0.35740347158E-01  0.35744000000E-01  0.51099999109E-03 0.  1.
       22    1    1    2    0    0 -0.21334415368E-01  0.80948795205E-02  0.27503622149E-01  0.35737005818E-01  0.00000000000E+00 0. -1.
  9000001    1    1    2    0    0  0.21334415368E-01 -0.80948795205E-02 -0.27503622149E-01  0.35750994182E-01  0.10000000475E-02 0.  1.
</event>
<event>
 4   0  0.2441219E-02  0.9118800E+02  0.7818609E-02  0.1379984E+01
      -11   -1    0    0    0    0  0.00000000000E+00  0.00000000000E+00  0.35740347158E-01  0.35744000000E-01  0.51099999109E-03 0.  1.
       11   -1    0    0    0    0 -0.00000000000E+00 -0.00000000000E+00 -0.35740347158E-01  0.35744000000E-01  0.51099999109E-03 0. -1.
       22    1    1    2    0    0  0.22341101729E-01  0.43913003280E-02  0.27544967595E-01  0.35737005818E-01  0.00000000000E+00 0.  1.
  9000001    1    1    2    0    0 -0.22341101729E-01 -0.43913003280E-02 -0.27544967595E-01  0.35750994182E-01  0.10000000475E-02 0. -1.
</event>
<event>
 4   0  0.2441219E-02  0.9118800E+02  0.7818609E-02  0.1379984E+01
      -11   -1    0    0    0    0  0.00000000000E+00  0.00000000000E+00  0.35740347158E-01  0.35744000000E-01  0.51099999109E-03 0.  1.
       11   -1    0    0    0    0 -0.00000000000E+00 -0.00000000000E+00 -0.35740347158E-01  0.35744000000E-01  0.51099999109E-03 0. -1.
       22    1    1    2    0    0 -0.30980729831E-01 -0.15683821584E-01  0.84466386530E-02  0.35737005818E-01  0.00000000000E+00 0.  1.
  9000001    1    1    2    0    0  0.30980729831E-01  0.15683821584E-01 -0.84466386530E-02  0.35750994182E-01  0.10000000475E-02 0. -1.
</event>
<event>
 4   0  0.2441219E-02  0.9118800E+02  0.7818609E-02  0.1379984E+01
      -11   -1    0    0    0    0  0.00000000000E+00  0.00000000000E+00  0.35740347158E-01  0.35744000000E-01  0.51099999109E-03 0.  1.
       11   -1    0    0    0    0 -0.00000000000E+00 -0.00000000000E+00 -0.35740347158E-01  0.35744000000E-01  0.51099999109E-03 0. -1.
       22    1    1    2    0    0 -0.11818892684E-01  0.22685383438E-01 -0.24956376718E-01  0.35737005818E-01  0.00000000000E+00 0. -1.
  9000001    1    1    2    0    0  0.11818892684E-01 -0.22685383438E-01  0.24956376718E-01  0.35750994182E-01  0.10000000475E-02 0.  1.
</event>
<event>
 4   0  0.2441219E-02  0.9118800E+02  0.7818609E-02  0.1379984E+01
      -11   -1    0    0    0    0  0.00000000000E+00  0.00000000000E+00  0.35740347158E-01  0.35744000000E-01  0.51099999109E-03 0. -1.
       11   -1    0    0    0    0 -0.00000000000E+00 -0.00000000000E+00 -0.35740347158E-01  0.35744000000E-01  0.51099999109E-03 0.  1.
       22    1    1    2    0    0  0.32585607349E-01  0.56188596617E-02 -0.13555080032E-01  0.35737005818E-01  0.00000000000E+00 0. -1.
  9000001    1    1    2    0    0 -0.32585607349E-01 -0.56188596617E-02  0.13555080032E-01  0.35750994182E-01  0.10000000475E-02 0.  1.
</event>
<event>
 4   0  0.2441219E-02  0.9118800E+02  0.7818609E-02  0.1379984E+01
      -11   -1    0    0    0    0  0.00000000000E+00  0.00000000000E+00  0.35740347158E-01  0.35744000000E-01  0.51099999109E-03 0. -1.
       11   -1    0    0    0    0 -0.00000000000E+00 -0.00000000000E+00 -0.35740347158E-01  0.35744000000E-01  0.51099999109E-03 0.  1.
       22    1    1    2    0    0  0.98377446665E-02 -0.54833510832E-02 -0.33915855078E-01  0.35737005818E-01  0.00000000000E+00 0.  1.
  9000001    1    1    2    0    0 -0.98377446665E-02  0.54833510832E-02  0.33915855078E-01  0.35750994182E-01  0.10000000475E-02 0. -1.
</event>
<event>
 4   0  0.2441219E-02  0.9118800E+02  0.7818609E-02  0.1379984E+01
      -11   -1    0    0    0    0  0.00000000000E+00  0.00000000000E+00  0.35740347158E-01  0.35744000000E-01  0.51099999109E-03 0. -1.
       11   -1    0    0    0    0 -0.00000000000E+00 -0.00000000000E+00 -0.35740347158E-01  0.35744000000E-01  0.51099999109E-03 0.  1.
       22    1    1    2    0    0  0.82381157728E-03  0.45160461016E-02  0.35440940266E-01  0.35737005818E-01  0.00000000000E+00 0. -1.
  9000001    1    1    2    0    0 -0.82381157728E-03 -0.45160461016E-02 -0.35440940266E-01  0.35750994182E-01  0.10000000475E-02 0.  1.
</event>
<event>
 4   0  0.2441219E-02  0.9118800E+02  0.7818609E-02  0.1379984E+01
      -11   -1    0    0    0    0  0.00000000000E+00  0.00000000000E+00  0.35740347158E-01  0.35744000000E-01  0.51099999109E-03 0. -1.
       11   -1    0    0    0    0 -0.00000000000E+00 -0.00000000000E+00 -0.35740347158E-01  0.35744000000E-01  0.51099999109E-03 0.  1.
       22    1    1    2    0    0 -0.10011409590E-01  0.17987343929E-01  0.29212338511E-01  0.35737005818E-01  0.00000000000E+00 0. -1.
  9000001    1    1    2    0    0  0.10011409590E-01 -0.17987343929E-01 -0.29212338511E-01  0.35750994182E-01  0.10000000475E-02 0.  1.
</event>
<event>
 4   0  0.2441219E-02  0.9118800E+02  0.7818609E-02  0.1379984E+01
      -11   -1    0    0    0    0  0.00000000000E+00  0.00000000000E+00  0.35740347158E-01  0.35744000000E-01  0.51099999109E-03 0. -1.
       11   -1    0    0    0    0 -0.00000000000E+00 -0.00000000000E+00 -0.35740347158E-01  0.35744000000E-01  0.51099999109E-03 0.  1.
       22    1    1    2    0    0  0.14928493003E-01 -0.38768389214E-02  0.32237304501E-01  0.35737005818E-01  0.00000000000E+00 0. -1.
  9000001    1    1    2    0    0 -0.14928493003E-01  0.38768389214E-02 -0.32237304501E-01  0.35750994182E-01  0.10000000475E-02 0.  1.
</event>
<event>
 4   0  0.2441219E-02  0.9118800E+02  0.7818609E-02  0.1379984E+01
      -11   -1    0    0    0    0  0.00000000000E+00  0.00000000000E+00  0.35740347158E-01  0.35744000000E-01  0.51099999109E-03 0.  1.
       11   -1    0    0    0    0 -0.00000000000E+00 -0.00000000000E+00 -0.35740347158E-01  0.35744000000E-01  0.51099999109E-03 0. -1.
       22    1    1    2    0    0 -0.11936614137E-02 -0.37757483674E-02  0.35516932322E-01  0.35737005818E-01  0.00000000000E+00 0.  1.
  9000001    1    1    2    0    0  0.11936614137E-02  0.37757483674E-02 -0.35516932322E-01  0.35750994182E-01  0.10000000475E-02 0. -1.
</event>
<event>
 4   0  0.2441219E-02  0.9118800E+02  0.7818609E-02  0.1379984E+01
      -11   -1    0    0    0    0  0.00000000000E+00  0.00000000000E+00  0.35740347158E-01  0.35744000000E-01  0.51099999109E-03 0. -1.
       11   -1    0    0    0    0 -0.00000000000E+00 -0.00000000000E+00 -0.35740347158E-01  0.35744000000E-01  0.51099999109E-03 0.  1.
       22    1    1    2    0    0  0.50393592791E-02  0.87107715832E-02  0.34290828240E-01  0.35737005818E-01  0.00000000000E+00 0. -1.
  9000001    1    1    2    0    0 -0.50393592791E-02 -0.87107715832E-02 -0.34290828240E-01  0.35750994182E-01  0.10000000475E-02 0.  1.
</event>
<event>
 4   0  0.2441219E-02  0.9118800E+02  0.7818609E-02  0.1379984E+01
      -11   -1    0    0    0    0  0.00000000000E+00  0.00000000000E+00  0.35740347158E-01  0.35744000000E-01  0.51099999109E-03 0. -1.
       11   -1    0    0    0    0 -0.00000000000E+00 -0.00000000000E+00 -0.35740347158E-01  0.35744000000E-01  0.51099999109E-03 0.  1.
       22    1    1    2    0    0  0.74258257263E-02 -0.86882216308E-03 -0.34946184988E-01  0.35737005818E-01  0.00000000000E+00 0.  1.
  9000001    1    1    2    0    0 -0.74258257263E-02  0.86882216308E-03  0.34946184988E-01  0.35750994182E-01  0.10000000475E-02 0. -1.
</event>
<event>
 4   0  0.2441219E-02  0.9118800E+02  0.7818609E-02  0.1379984E+01
      -11   -1    0    0    0    0  0.00000000000E+00  0.00000000000E+00  0.35740347158E-01  0.35744000000E-01  0.51099999109E-03 0.  1.
       11   -1    0    0    0    0 -0.00000000000E+00 -0.00000000000E+00 -0.35740347158E-01  0.35744000000E-01  0.51099999109E-03 0. -1.
       22    1    1    2    0    0 -0.16124373496E-01 -0.27920417133E-02 -0.31770153719E-01  0.35737005818E-01  0.00000000000E+00 0. -1.
  9000001    1    1    2    0    0  0.16124373496E-01  0.27920417133E-02  0.31770153719E-01  0.35750994182E-01  0.10000000475E-02 0.  1.
</event>
<event>
 4   0  0.2441219E-02  0.9118800E+02  0.7818609E-02  0.1379984E+01
      -11   -1    0    0    0    0  0.00000000000E+00  0.00000000000E+00  0.35740347158E-01  0.35744000000E-01  0.51099999109E-03 0.  1.
       11   -1    0    0    0    0 -0.00000000000E+00 -0.00000000000E+00 -0.35740347158E-01  0.35744000000E-01  0.51099999109E-03 0. -1.
       22    1    1    2    0    0 -0.12690969987E-02 -0.33326868896E-02  0.35558630117E-01  0.35737005818E-01  0.00000000000E+00 0.  1.
  9000001    1    1    2    0    0  0.12690969987E-02  0.33326868896E-02 -0.35558630117E-01  0.35750994182E-01  0.10000000475E-02 0. -1.
</event>
<event>
 4   0  0.2441219E-02  0.9118800E+02  0.7818609E-02  0.1379984E+01
      -11   -1    0    0    0    0  0.00000000000E+00  0.00000000000E+00  0.35740347158E-01  0.35744000000E-01  0.51099999109E-03 0.  1.
       11   -1    0    0    0    0 -0.00000000000E+00 -0.00000000000E+00 -0.35740347158E-01  0.35744000000E-01  0.51099999109E-03 0. -1.
       22    1    1    2    0    0  0.21252114893E-02  0.71921401140E-02  0.34941238982E-01  0.35737005818E-01  0.00000000000E+00 0.  1.
  9000001    1    1    2    0    0 -0.21252114893E-02 -0.71921401140E-02 -0.34941238982E-01  0.35750994182E-01  0.10000000475E-02 0. -1.
</event>
<event>
 4   0  0.2441219E-02  0.9118800E+02  0.7818609E-02  0.1379984E+01
      -11   -1    0    0    0    0  0.00000000000E+00  0.00000000000E+00  0.35740347158E-01  0.35744000000E-01  0.51099999109E-03 0.  1.
       11   -1    0    0    0    0 -0.00000000000E+00 -0.00000000000E+00 -0.35740347158E-01  0.35744000000E-01  0.51099999109E-03 0. -1.
       22    1    1    2    0    0  0.16855715892E-01 -0.31461960996E-01  0.17786053369E-02  0.35737005818E-01  0.00000000000E+00 0. -1.
  9000001    1    1    2    0    0 -0.16855715892E-01  0.31461960996E-01 -0.17786053369E-02  0.35750994182E-01  0.10000000475E-02 0.  1.
</event>
<event>
 4   0  0.2441219E-02  0.9118800E+02  0.7818609E-02  0.1379984E+01
      -11   -1    0    0    0    0  0.00000000000E+00  0.00000000000E+00  0.35740347158E-01  0.35744000000E-01  0.51099999109E-03 0. -1.
       11   -1    0    0    0    0 -0.00000000000E+00 -0.00000000000E+00 -0.35740347158E-01  0.35744000000E-01  0.51099999109E-03 0.  1.
       22    1    1    2    0    0  0.11238848151E-01 -0.20207530032E-03  0.33923163807E-01  0.35737005818E-01  0.00000000000E+00 0. -1.
  9000001    1    1    2    0    0 -0.11238848151E-01  0.20207530032E-03 -0.33923163807E-01  0.35750994182E-01  0.10000000475E-02 0.  1.
</event>
<event>
 4   0  0.2441219E-02  0.9118800E+02  0.7818609E-02  0.1379984E+01
      -11   -1    0    0    0    0  0.00000000000E+00  0.00000000000E+00  0.35740347158E-01  0.35744000000E-01  0.51099999109E-03 0.  1.
       11   -1    0    0    0    0 -0.00000000000E+00 -0.00000000000E+00 -0.35740347158E-01  0.35744000000E-01  0.51099999109E-03 0. -1.
       22    1    1    2    0    0 -0.32977770374E-02 -0.29482027291E-02 -0.35462181999E-01  0.35737005818E-01  0.00000000000E+00 0. -1.
  9000001    1    1    2    0    0  0.32977770374E-02  0.29482027291E-02  0.35462181999E-01  0.35750994182E-01  0.10000000475E-02 0.  1.
</event>
<event>
 4   0  0.2441219E-02  0.9118800E+02  0.7818609E-02  0.1379984E+01
      -11   -1    0    0    0    0  0.00000000000E+00  0.00000000000E+00  0.35740347158E-01  0.35744000000E-01  0.51099999109E-03 0.  1.
       11   -1    0    0    0    0 -0.00000000000E+00 -0.00000000000E+00 -0.35740347158E-01  0.35744000000E-01  0.51099999109E-03 0. -1.
       22    1    1    2    0    0 -0.23746858915E-01  0.22946899393E-01  0.13662360147E-01  0.35737005818E-01  0.00000000000E+00 0.  1.
  9000001    1    1    2    0    0  0.23746858915E-01 -0.22946899393E-01 -0.13662360147E-01  0.35750994182E-01  0.10000000475E-02 0. -1.
</event>
<event>
 4   0  0.2441219E-02  0.9118800E+02  0.7818609E-02  0.1379984E+01
      -11   -1    0    0    0    0  0.00000000000E+00  0.00000000000E+00  0.35740347158E-01  0.35744000000E-01  0.51099999109E-03 0. -1.
       11   -1    0    0    0    0 -0.00000000000E+00 -0.00000000000E+00 -0.35740347158E-01  0.35744000000E-01  0.51099999109E-03 0.  1.
       22    1    1    2    0    0  0.16645566379E-01 -0.97246611773E-02  0.30091355400E-01  0.35737005818E-01  0.00000000000E+00 0. -1.
  9000001    1    1    2    0    0 -0.16645566379E-01  0.97246611773E-02 -0.30091355400E-01  0.35750994182E-01  0.10000000475E-02 0.  1.
</event>
<event>
 4   0  0.2441219E-02  0.9118800E+02  0.7818609E-02  0.1379984E+01
      -11   -1    0    0    0    0  0.00000000000E+00  0.00000000000E+00  0.35740347158E-01  0.35744000000E-01  0.51099999109E-03 0. -1.
       11   -1    0    0    0    0 -0.00000000000E+00 -0.00000000000E+00 -0.35740347158E-01  0.35744000000E-01  0.51099999109E-03 0.  1.
       22    1    1    2    0    0  0.14217736502E-01  0.13214226989E-02  0.32760393705E-01  0.35737005818E-01  0.00000000000E+00 0. -1.
  9000001    1    1    2    0    0 -0.14217736502E-01 -0.13214226989E-02 -0.32760393705E-01  0.35750994182E-01  0.10000000475E-02 0.  1.
</event>
<event>
 4   0  0.2441219E-02  0.9118800E+02  0.7818609E-02  0.1379984E+01
      -11   -1    0    0    0    0  0.00000000000E+00  0.00000000000E+00  0.35740347158E-01  0.35744000000E-01  0.51099999109E-03 0.  1.
       11   -1    0    0    0    0 -0.00000000000E+00 -0.00000000000E+00 -0.35740347158E-01  0.35744000000E-01  0.51099999109E-03 0. -1.
       22    1    1    2    0    0 -0.13862686677E-01 -0.91683813002E-02 -0.31637008191E-01  0.35737005818E-01  0.00000000000E+00 0. -1.
  9000001    1    1    2    0    0  0.13862686677E-01  0.91683813002E-02  0.31637008191E-01  0.35750994182E-01  0.10000000475E-02 0.  1.
</event>
<event>
 4   0  0.2441219E-02  0.9118800E+02  0.7818609E-02  0.1379984E+01
      -11   -1    0    0    0    0  0.00000000000E+00  0.00000000000E+00  0.35740347158E-01  0.35744000000E-01  0.51099999109E-03 0. -1.
       11   -1    0    0    0    0 -0.00000000000E+00 -0.00000000000E+00 -0.35740347158E-01  0.35744000000E-01  0.51099999109E-03 0.  1.
       22    1    1    2    0    0  0.27144806230E-02  0.14370834744E-01  0.32607426893E-01  0.35737005818E-01  0.00000000000E+00 0. -1.
  9000001    1    1    2    0    0 -0.27144806230E-02 -0.14370834744E-01 -0.32607426893E-01  0.35750994182E-01  0.10000000475E-02 0.  1.
</event>
<event>
 4   0  0.2441219E-02  0.9118800E+02  0.7818609E-02  0.1379984E+01
      -11   -1    0    0    0    0  0.00000000000E+00  0.00000000000E+00  0.35740347158E-01  0.35744000000E-01  0.51099999109E-03 0. -1.
       11   -1    0    0    0    0 -0.00000000000E+00 -0.00000000000E+00 -0.35740347158E-01  0.35744000000E-01  0.51099999109E-03 0.  1.
       22    1    1    2    0    0  0.47013809980E-03  0.11243841263E-01 -0.33918852998E-01  0.35737005818E-01  0.00000000000E+00 0.  1.
  9000001    1    1    2    0    0 -0.47013809980E-03 -0.11243841263E-01  0.33918852998E-01  0.35750994182E-01  0.10000000475E-02 0. -1.
</event>
<event>
 4   0  0.2441219E-02  0.9118800E+02  0.7818609E-02  0.1379984E+01
      -11   -1    0    0    0    0  0.00000000000E+00  0.00000000000E+00  0.35740347158E-01  0.35744000000E-01  0.51099999109E-03 0.  1.
       11   -1    0    0    0    0 -0.00000000000E+00 -0.00000000000E+00 -0.35740347158E-01  0.35744000000E-01  0.51099999109E-03 0. -1.
       22    1    1    2    0    0 -0.49340302249E-02 -0.21161221895E-02 -0.35331444316E-01  0.35737005818E-01  0.00000000000E+00 0. -1.
  9000001    1    1    2    0    0  0.49340302249E-02  0.21161221895E-02  0.35331444316E-01  0.35750994182E-01  0.10000000475E-02 0.  1.
</event>
<event>
 4   0  0.2441219E-02  0.9118800E+02  0.7818609E-02  0.1379984E+01
      -11   -1    0    0    0    0  0.00000000000E+00  0.00000000000E+00  0.35740347158E-01  0.35744000000E-01  0.51099999109E-03 0. -1.
       11   -1    0    0    0    0 -0.00000000000E+00 -0.00000000000E+00 -0.35740347158E-01  0.35744000000E-01  0.51099999109E-03 0.  1.
       22    1    1    2    0    0 -0.10912300933E-01 -0.11054045741E-02  0.34012252997E-01  0.35737005818E-01  0.00000000000E+00 0. -1.
  9000001    1    1    2    0    0  0.10912300933E-01  0.11054045741E-02 -0.34012252997E-01  0.35750994182E-01  0.10000000475E-02 0.  1.
</event>
<event>
 4   0  0.2441219E-02  0.9118800E+02  0.7818609E-02  0.1379984E+01
      -11   -1    0    0    0    0  0.00000000000E+00  0.00000000000E+00  0.35740347158E-01  0.35744000000E-01  0.51099999109E-03 0.  1.
       11   -1    0    0    0    0 -0.00000000000E+00 -0.00000000000E+00 -0.35740347158E-01  0.35744000000E-01  0.51099999109E-03 0. -1.
       22    1    1    2    0    0 -0.12937859953E-01 -0.16799793196E-01 -0.28766513749E-01  0.35737005818E-01  0.00000000000E+00 0. -1.
  9000001    1    1    2    0    0  0.12937859953E-01  0.16799793196E-01  0.28766513749E-01  0.35750994182E-01  0.10000000475E-02 0.  1.
</event>
<event>
 4   0  0.2441219E-02  0.9118800E+02  0.7818609E-02  0.1379984E+01
      -11   -1    0    0    0    0  0.00000000000E+00  0.00000000000E+00  0.35740347158E-01  0.35744000000E-01  0.51099999109E-03 0.  1.
       11   -1    0    0    0    0 -0.00000000000E+00 -0.00000000000E+00 -0.35740347158E-01  0.35744000000E-01  0.51099999109E-03 0. -1.
       22    1    1    2    0    0 -0.44124129232E-02  0.18156168140E-01 -0.30463383849E-01  0.35737005818E-01  0.00000000000E+00 0. -1.
  9000001    1    1    2    0    0  0.44124129232E-02 -0.18156168140E-01  0.30463383849E-01  0.35750994182E-01  0.10000000475E-02 0.  1.
</event>
<event>
 4   0  0.2441219E-02  0.9118800E+02  0.7818609E-02  0.1379984E+01
      -11   -1    0    0    0    0  0.00000000000E+00  0.00000000000E+00  0.35740347158E-01  0.35744000000E-01  0.51099999109E-03 0.  1.
       11   -1    0    0    0    0 -0.00000000000E+00 -0.00000000000E+00 -0.35740347158E-01  0.35744000000E-01  0.51099999109E-03 0. -1.
       22    1    1    2    0    0 -0.27382202706E-02 -0.45624849460E-02  0.35338639840E-01  0.35737005818E-01  0.00000000000E+00 0.  1.
  9000001    1    1    2    0    0  0.27382202706E-02  0.45624849460E-02 -0.35338639840E-01  0.35750994182E-01  0.10000000475E-02 0. -1.
</event>
<event>
 4   0  0.2441219E-02  0.9118800E+02  0.7818609E-02  0.1379984E+01
      -11   -1    0    0    0    0  0.00000000000E+00  0.00000000000E+00  0.35740347158E-01  0.35744000000E-01  0.51099999109E-03 0.  1.
       11   -1    0    0    0    0 -0.00000000000E+00 -0.00000000000E+00 -0.35740347158E-01  0.35744000000E-01  0.51099999109E-03 0. -1.
       22    1    1    2    0    0  0.68672870862E-02 -0.14696248851E-01  0.31843275941E-01  0.35737005818E-01  0.00000000000E+00 0.  1.
  9000001    1    1    2    0    0 -0.68672870862E-02  0.14696248851E-01 -0.31843275941E-01  0.35750994182E-01  0.10000000475E-02 0. -1.
</event>
<event>
 4   0  0.2441219E-02  0.9118800E+02  0.7818609E-02  0.1379984E+01
      -11   -1    0    0    0    0  0.00000000000E+00  0.00000000000E+00  0.35740347158E-01  0.35744000000E-01  0.51099999109E-03 0.  1.
       11   -1    0    0    0    0 -0.00000000000E+00 -0.00000000000E+00 -0.35740347158E-01  0.35744000000E-01  0.51099999109E-03 0. -1.
       22    1    1    2    0    0  0.37896451401E-02 -0.35607653922E-02 -0.35356656013E-01  0.35737005818E-01  0.00000000000E+00 0. -1.
  9000001    1    1    2    0    0 -0.37896451401E-02  0.35607653922E-02  0.35356656013E-01  0.35750994182E-01  0.10000000475E-02 0.  1.
</event>
<event>
 4   0  0.2441219E-02  0.9118800E+02  0.7818609E-02  0.1379984E+01
      -11   -1    0    0    0    0  0.00000000000E+00  0.00000000000E+00  0.35740347158E-01  0.35744000000E-01  0.51099999109E-03 0. -1.
       11   -1    0    0    0    0 -0.00000000000E+00 -0.00000000000E+00 -0.35740347158E-01  0.35744000000E-01  0.51099999109E-03 0.  1.
       22    1    1    2    0    0  0.15176938503E-01 -0.77143031506E-02  0.31421070151E-01  0.35737005818E-01  0.00000000000E+00 0. -1.
  9000001    1    1    2    0    0 -0.15176938503E-01  0.77143031506E-02 -0.31421070151E-01  0.35750994182E-01  0.10000000475E-02 0.  1.
</event>
<event>
 4   0  0.2441219E-02  0.9118800E+02  0.7818609E-02  0.1379984E+01
      -11   -1    0    0    0    0  0.00000000000E+00  0.00000000000E+00  0.35740347158E-01  0.35744000000E-01  0.51099999109E-03 0. -1.
       11   -1    0    0    0    0 -0.00000000000E+00 -0.00000000000E+00 -0.35740347158E-01  0.35744000000E-01  0.51099999109E-03 0.  1.
       22    1    1    2    0    0 -0.60156502708E-02 -0.73116332696E-02 -0.34459912299E-01  0.35737005818E-01  0.00000000000E+00 0.  1.
  9000001    1    1    2    0    0  0.60156502708E-02  0.73116332696E-02  0.34459912299E-01  0.35750994182E-01  0.10000000475E-02 0. -1.
</event>
<event>
 4   0  0.2441219E-02  0.9118800E+02  0.7818609E-02  0.1379984E+01
      -11   -1    0    0    0    0  0.00000000000E+00  0.00000000000E+00  0.35740347158E-01  0.35744000000E-01  0.51099999109E-03 0. -1.
       11   -1    0    0    0    0 -0.00000000000E+00 -0.00000000000E+00 -0.35740347158E-01  0.35744000000E-01  0.51099999109E-03 0.  1.
       22    1    1    2    0    0 -0.55282061087E-02 -0.27525344627E-02  0.35199376076E-01  0.35737005818E-01  0.00000000000E+00 0. -1.
  9000001    1    1    2    0    0  0.55282061087E-02  0.27525344627E-02 -0.35199376076E-01  0.35750994182E-01  0.10000000475E-02 0.  1.
</event>
<event>
 4   0  0.2441219E-02  0.9118800E+02  0.7818609E-02  0.1379984E+01
      -11   -1    0    0    0    0  0.00000000000E+00  0.00000000000E+00  0.35740347158E-01  0.35744000000E-01  0.51099999109E-03 0. -1.
       11   -1    0    0    0    0 -0.00000000000E+00 -0.00000000000E+00 -0.35740347158E-01  0.35744000000E-01  0.51099999109E-03 0.  1.
       22    1    1    2    0    0  0.45628034715E-02  0.15595881745E-02  0.35410197600E-01  0.35737005818E-01  0.00000000000E+00 0. -1.
  9000001    1    1    2    0    0 -0.45628034715E-02 -0.15595881745E-02 -0.35410197600E-01  0.35750994182E-01  0.10000000475E-02 0.  1.
</event>
<event>
 4   0  0.2441219E-02  0.9118800E+02  0.7818609E-02  0.1379984E+01
      -11   -1    0    0    0    0  0.00000000000E+00  0.00000000000E+00  0.35740347158E-01  0.35744000000E-01  0.51099999109E-03 0. -1.
       11   -1    0    0    0    0 -0.00000000000E+00 -0.00000000000E+00 -0.35740347158E-01  0.35744000000E-01  0.51099999109E-03 0.  1.
       22    1    1    2    0    0 -0.16683851819E-01 -0.29788671918E-01  0.10555458244E-01  0.35737005818E-01  0.00000000000E+00 0.  1.
  9000001    1    1    2    0    0  0.16683851819E-01  0.29788671918E-01 -0.10555458244E-01  0.35750994182E-01  0.10000000475E-02 0. -1.
</event>
<event>
 4   0  0.2441219E-02  0.9118800E+02  0.7818609E-02  0.1379984E+01
      -11   -1    0    0    0    0  0.00000000000E+00  0.00000000000E+00  0.35740347158E-01  0.35744000000E-01  0.51099999109E-03 0.  1.
       11   -1    0    0    0    0 -0.00000000000E+00 -0.00000000000E+00 -0.35740347158E-01  0.35744000000E-01  0.51099999109E-03 0. -1.
       22    1    1    2    0    0  0.30453586155E-01  0.12409085486E-01 -0.13990256343E-01  0.35737005818E-01  0.00000000000E+00 0. -1.
  9000001    1    1    2    0    0 -0.30453586155E-01 -0.12409085486E-01  0.13990256343E-01  0.35750994182E-01  0.10000000475E-02 0.  1.
</event>
<event>
 4   0  0.2441219E-02  0.9118800E+02  0.7818609E-02  0.1379984E+01
      -11   -1    0    0    0    0  0.00000000000E+00  0.00000000000E+00  0.35740347158E-01  0.35744000000E-01  0.51099999109E-03 0. -1.
       11   -1    0    0    0    0 -0.00000000000E+00 -0.00000000000E+00 -0.35740347158E-01  0.35744000000E-01  0.51099999109E-03 0.  1.
       22    1    1    2    0    0 -0.64783312407E-03 -0.20656220360E-01  0.29155350411E-01  0.35737005818E-01  0.00000000000E+00 0. -1.
  9000001    1    1    2    0    0  0.64783312407E-03  0.20656220360E-01 -0.29155350411E-01  0.35750994182E-01  0.10000000475E-02 0.  1.
</event>
<event>
 4   0  0.2441219E-02  0.9118800E+02  0.7818609E-02  0.1379984E+01
      -11   -1    0    0    0    0  0.00000000000E+00  0.00000000000E+00  0.35740347158E-01  0.35744000000E-01  0.51099999109E-03 0. -1.
       11   -1    0    0    0    0 -0.00000000000E+00 -0.00000000000E+00 -0.35740347158E-01  0.35744000000E-01  0.51099999109E-03 0.  1.
       22    1    1    2    0    0 -0.23055475063E-02 -0.21071567140E-01 -0.28771636968E-01  0.35737005818E-01  0.00000000000E+00 0.  1.
  9000001    1    1    2    0    0  0.23055475063E-02  0.21071567140E-01  0.28771636968E-01  0.35750994182E-01  0.10000000475E-02 0. -1.
</event>
<event>
 4   0  0.2441219E-02  0.9118800E+02  0.7818609E-02  0.1379984E+01
      -11   -1    0    0    0    0  0.00000000000E+00  0.00000000000E+00  0.35740347158E-01  0.35744000000E-01  0.51099999109E-03 0. -1.
       11   -1    0    0    0    0 -0.00000000000E+00 -0.00000000000E+00 -0.35740347158E-01  0.35744000000E-01  0.51099999109E-03 0.  1.
       22    1    1    2    0    0  0.71535194373E-02 -0.13912470909E-02  0.34986071172E-01  0.35737005818E-01  0.00000000000E+00 0. -1.
  9000001    1    1    2    0    0 -0.71535194373E-02  0.13912470909E-02 -0.34986071172E-01  0.35750994182E-01  0.10000000475E-02 0.  1.
</event>
<event>
 4   0  0.2441219E-02  0.9118800E+02  0.7818609E-02  0.1379984E+01
      -11   -1    0    0    0    0  0.00000000000E+00  0.00000000000E+00  0.35740347158E-01  0.35744000000E-01  0.51099999109E-03 0.  1.
       11   -1    0    0    0    0 -0.00000000000E+00 -0.00000000000E+00 -0.35740347158E-01  0.35744000000E-01  0.51099999109E-03 0. -1.
       22    1    1    2    0    0  0.48987185307E-03 -0.42083604984E-02 -0.35484973050E-01  0.35737005818E-01  0.00000000000E+00 0. -1.
  9000001    1    1    2    0    0 -0.48987185307E-03  0.42083604984E-02  0.35484973050E-01  0.35750994182E-01  0.10000000475E-02 0.  1.
</event>
<event>
 4   0  0.2441219E-02  0.9118800E+02  0.7818609E-02  0.1379984E+01
      -11   -1    0    0    0    0  0.00000000000E+00  0.00000000000E+00  0.35740347158E-01  0.35744000000E-01  0.51099999109E-03 0. -1.
       11   -1    0    0    0    0 -0.00000000000E+00 -0.00000000000E+00 -0.35740347158E-01  0.35744000000E-01  0.51099999109E-03 0.  1.
       22    1    1    2    0    0  0.80625631353E-02 -0.25592409434E-02 -0.34721447930E-01  0.35737005818E-01  0.00000000000E+00 0.  1.
  9000001    1    1    2    0    0 -0.80625631353E-02  0.25592409434E-02  0.34721447930E-01  0.35750994182E-01  0.10000000475E-02 0. -1.
</event>
<event>
 4   0  0.2441219E-02  0.9118800E+02  0.7818609E-02  0.1379984E+01
      -11   -1    0    0    0    0  0.00000000000E+00  0.00000000000E+00  0.35740347158E-01  0.35744000000E-01  0.51099999109E-03 0.  1.
       11   -1    0    0    0    0 -0.00000000000E+00 -0.00000000000E+00 -0.35740347158E-01  0.35744000000E-01  0.51099999109E-03 0. -1.
       22    1    1    2    0    0  0.33166050921E-02 -0.30660684654E-02 -0.35450429330E-01  0.35737005818E-01  0.00000000000E+00 0. -1.
  9000001    1    1    2    0    0 -0.33166050921E-02  0.30660684654E-02  0.35450429330E-01  0.35750994182E-01  0.10000000475E-02 0.  1.
</event>
<event>
 4   0  0.2441219E-02  0.9118800E+02  0.7818609E-02  0.1379984E+01
      -11   -1    0    0    0    0  0.00000000000E+00  0.00000000000E+00  0.35740347158E-01  0.35744000000E-01  0.51099999109E-03 0. -1.
       11   -1    0    0    0    0 -0.00000000000E+00 -0.00000000000E+00 -0.35740347158E-01  0.35744000000E-01  0.51099999109E-03 0.  1.
       22    1    1    2    0    0 -0.16735955635E-01  0.53623352504E-02  0.31117306029E-01  0.35737005818E-01  0.00000000000E+00 0. -1.
  9000001    1    1    2    0    0  0.16735955635E-01 -0.53623352504E-02 -0.31117306029E-01  0.35750994182E-01  0.10000000475E-02 0.  1.
</event>
<event>
 4   0  0.2441219E-02  0.9118800E+02  0.7818609E-02  0.1379984E+01
      -11   -1    0    0    0    0  0.00000000000E+00  0.00000000000E+00  0.35740347158E-01  0.35744000000E-01  0.51099999109E-03 0. -1.
       11   -1    0    0    0    0 -0.00000000000E+00 -0.00000000000E+00 -0.35740347158E-01  0.35744000000E-01  0.51099999109E-03 0.  1.
       22    1    1    2    0    0  0.29179011052E-02 -0.67463640474E-02 -0.34972932536E-01  0.35737005818E-01  0.00000000000E+00 0.  1.
  9000001    1    1    2    0    0 -0.29179011052E-02  0.67463640474E-02  0.34972932536E-01  0.35750994182E-01  0.10000000475E-02 0. -1.
</event>
<event>
 4   0  0.2441219E-02  0.9118800E+02  0.7818609E-02  0.1379984E+01
      -11   -1    0    0    0    0  0.00000000000E+00  0.00000000000E+00  0.35740347158E-01  0.35744000000E-01  0.51099999109E-03 0.  1.
       11   -1    0    0    0    0 -0.00000000000E+00 -0.00000000000E+00 -0.35740347158E-01  0.35744000000E-01  0.51099999109E-03 0. -1.
       22    1    1    2    0    0 -0.71353008249E-02  0.30895833114E-02 -0.34880876451E-01  0.35737005818E-01  0.00000000000E+00 0. -1.
  9000001    1    1    2    0    0  0.71353008249E-02 -0.30895833114E-02  0.34880876451E-01  0.35750994182E-01  0.10000000475E-02 0.  1.
</event>
<event>
 4   0  0.2441219E-02  0.9118800E+02  0.7818609E-02  0.1379984E+01
      -11   -1    0    0    0    0  0.00000000000E+00  0.00000000000E+00  0.35740347158E-01  0.35744000000E-01  0.51099999109E-03 0.  1.
       11   -1    0    0    0    0 -0.00000000000E+00 -0.00000000000E+00 -0.35740347158E-01  0.35744000000E-01  0.51099999109E-03 0. -1.
       22    1    1    2    0    0 -0.23744160115E-01  0.19716247941E-01 -0.18017158833E-01  0.35737005818E-01  0.00000000000E+00 0.  1.
  9000001    1    1    2    0    0  0.23744160115E-01 -0.19716247941E-01  0.18017158833E-01  0.35750994182E-01  0.10000000475E-02 0. -1.
</event>
<event>
 4   0  0.2441219E-02  0.9118800E+02  0.7818609E-02  0.1379984E+01
      -11   -1    0    0    0    0  0.00000000000E+00  0.00000000000E+00  0.35740347158E-01  0.35744000000E-01  0.51099999109E-03 0. -1.
       11   -1    0    0    0    0 -0.00000000000E+00 -0.00000000000E+00 -0.35740347158E-01  0.35744000000E-01  0.51099999109E-03 0.  1.
       22    1    1    2    0    0 -0.45719682084E-02  0.10839052891E-01  0.33745305214E-01  0.35737005818E-01  0.00000000000E+00 0. -1.
  9000001    1    1    2    0    0  0.45719682084E-02 -0.10839052891E-01 -0.33745305214E-01  0.35750994182E-01  0.10000000475E-02 0.  1.
</event>
<event>
 4   0  0.2441219E-02  0.9118800E+02  0.7818609E-02  0.1379984E+01
      -11   -1    0    0    0    0  0.00000000000E+00  0.00000000000E+00  0.35740347158E-01  0.35744000000E-01  0.51099999109E-03 0. -1.
       11   -1    0    0    0    0 -0.00000000000E+00 -0.00000000000E+00 -0.35740347158E-01  0.35744000000E-01  0.51099999109E-03 0.  1.
       22    1    1    2    0    0 -0.12306421712E-01 -0.21265898869E-01  0.25950859616E-01  0.35737005818E-01  0.00000000000E+00 0. -1.
  9000001    1    1    2    0    0  0.12306421712E-01  0.21265898869E-01 -0.25950859616E-01  0.35750994182E-01  0.10000000475E-02 0.  1.
</event>
<event>
 4   0  0.2441219E-02  0.9118800E+02  0.7818609E-02  0.1379984E+01
      -11   -1    0    0    0    0  0.00000000000E+00  0.00000000000E+00  0.35740347158E-01  0.35744000000E-01  0.51099999109E-03 0. -1.
       11   -1    0    0    0    0 -0.00000000000E+00 -0.00000000000E+00 -0.35740347158E-01  0.35744000000E-01  0.51099999109E-03 0.  1.
       22    1    1    2    0    0  0.87344710568E-02 -0.16400776337E-01 -0.30526335118E-01  0.35737005818E-01  0.00000000000E+00 0.  1.
  9000001    1    1    2    0    0 -0.87344710568E-02  0.16400776337E-01  0.30526335118E-01  0.35750994182E-01  0.10000000475E-02 0. -1.
</event>
<event>
 4   0  0.2441219E-02  0.9118800E+02  0.7818609E-02  0.1379984E+01
      -11   -1    0    0    0    0  0.00000000000E+00  0.00000000000E+00  0.35740347158E-01  0.35744000000E-01  0.51099999109E-03 0.  1.
       11   -1    0    0    0    0 -0.00000000000E+00 -0.00000000000E+00 -0.35740347158E-01  0.35744000000E-01  0.51099999109E-03 0. -1.
       22    1    1    2    0    0  0.65466496088E-02 -0.26881867613E-02 -0.35029253713E-01  0.35737005818E-01  0.00000000000E+00 0. -1.
  9000001    1    1    2    0    0 -0.65466496088E-02  0.26881867613E-02  0.35029253713E-01  0.35750994182E-01  0.10000000475E-02 0.  1.
</event>
<event>
 4   0  0.2441219E-02  0.9118800E+02  0.7818609E-02  0.1379984E+01
      -11   -1    0    0    0    0  0.00000000000E+00  0.00000000000E+00  0.35740347158E-01  0.35744000000E-01  0.51099999109E-03 0.  1.
       11   -1    0    0    0    0 -0.00000000000E+00 -0.00000000000E+00 -0.35740347158E-01  0.35744000000E-01  0.51099999109E-03 0. -1.
       22    1    1    2    0    0  0.66646640401E-02  0.49801209734E-03  0.35106521076E-01  0.35737005818E-01  0.00000000000E+00 0.  1.
  9000001    1    1    2    0    0 -0.66646640401E-02 -0.49801209734E-03 -0.35106521076E-01  0.35750994182E-01  0.10000000475E-02 0. -1.
</event>
<event>
 4   0  0.2441219E-02  0.9118800E+02  0.7818609E-02  0.1379984E+01
      -11   -1    0    0    0    0  0.00000000000E+00  0.00000000000E+00  0.35740347158E-01  0.35744000000E-01  0.51099999109E-03 0. -1.
       11   -1    0    0    0    0 -0.00000000000E+00 -0.00000000000E+00 -0.35740347158E-01  0.35744000000E-01  0.51099999109E-03 0.  1.
       22    1    1    2    0    0  0.14771314300E-01  0.87723580746E-02  0.31336681262E-01  0.35737005818E-01  0.00000000000E+00 0. -1.
  9000001    1    1    2    0    0 -0.14771314300E-01 -0.87723580746E-02 -0.31336681262E-01  0.35750994182E-01  0.10000000475E-02 0.  1.
</event>
<event>
 4   0  0.2441219E-02  0.9118800E+02  0.7818609E-02  0.1379984E+01
      -11   -1    0    0    0    0  0.00000000000E+00  0.00000000000E+00  0.35740347158E-01  0.35744000000E-01  0.51099999109E-03 0. -1.
       11   -1    0    0    0    0 -0.00000000000E+00 -0.00000000000E+00 -0.35740347158E-01  0.35744000000E-01  0.51099999109E-03 0.  1.
       22    1    1    2    0    0 -0.30770051668E-01 -0.93239738447E-03  0.18151257266E-01  0.35737005818E-01  0.00000000000E+00 0. -1.
  9000001    1    1    2    0    0  0.30770051668E-01  0.93239738447E-03 -0.18151257266E-01  0.35750994182E-01  0.10000000475E-02 0.  1.
</event>
<event>
 4   0  0.2441219E-02  0.9118800E+02  0.7818609E-02  0.1379984E+01
      -11   -1    0    0    0    0  0.00000000000E+00  0.00000000000E+00  0.35740347158E-01  0.35744000000E-01  0.51099999109E-03 0.  1.
       11   -1    0    0    0    0 -0.00000000000E+00 -0.00000000000E+00 -0.35740347158E-01  0.35744000000E-01  0.51099999109E-03 0.  1.
       22    1    1    2    0    0  0.10190960159E-01  0.18539169323E-02  0.34202937124E-01  0.35737005818E-01  0.00000000000E+00 0.  1.
  9000001    1    1    2    0    0 -0.10190960159E-01 -0.18539169323E-02 -0.34202937124E-01  0.35750994182E-01  0.10000000475E-02 0.  1.
</event>
<event>
 4   0  0.2441219E-02  0.9118800E+02  0.7818609E-02  0.1379984E+01
      -11   -1    0    0    0    0  0.00000000000E+00  0.00000000000E+00  0.35740347158E-01  0.35744000000E-01  0.51099999109E-03 0.  1.
       11   -1    0    0    0    0 -0.00000000000E+00 -0.00000000000E+00 -0.35740347158E-01  0.35744000000E-01  0.51099999109E-03 0. -1.
       22    1    1    2    0    0 -0.50397135921E-02 -0.25058998096E-02  0.35291009307E-01  0.35737005818E-01  0.00000000000E+00 0.  1.
  9000001    1    1    2    0    0  0.50397135921E-02  0.25058998096E-02 -0.35291009307E-01  0.35750994182E-01  0.10000000475E-02 0. -1.
</event>
<event>
 4   0  0.2441219E-02  0.9118800E+02  0.7818609E-02  0.1379984E+01
      -11   -1    0    0    0    0  0.00000000000E+00  0.00000000000E+00  0.35740347158E-01  0.35744000000E-01  0.51099999109E-03 0. -1.
       11   -1    0    0    0    0 -0.00000000000E+00 -0.00000000000E+00 -0.35740347158E-01  0.35744000000E-01  0.51099999109E-03 0.  1.
       22    1    1    2    0    0  0.23156292769E-01 -0.17801919095E-01 -0.20591536285E-01  0.35737005818E-01  0.00000000000E+00 0.  1.
  9000001    1    1    2    0    0 -0.23156292769E-01  0.17801919095E-01  0.20591536285E-01  0.35750994182E-01  0.10000000475E-02 0. -1.
</event>
<event>
 4   0  0.2441219E-02  0.9118800E+02  0.7818609E-02  0.1379984E+01
      -11   -1    0    0    0    0  0.00000000000E+00  0.00000000000E+00  0.35740347158E-01  0.35744000000E-01  0.51099999109E-03 0. -1.
       11   -1    0    0    0    0 -0.00000000000E+00 -0.00000000000E+00 -0.35740347158E-01  0.35744000000E-01  0.51099999109E-03 0.  1.
       22    1    1    2    0    0  0.20450110837E-01 -0.24710352863E-01 -0.15758331543E-01  0.35737005818E-01  0.00000000000E+00 0.  1.
  9000001    1    1    2    0    0 -0.20450110837E-01  0.24710352863E-01  0.15758331543E-01  0.35750994182E-01  0.10000000475E-02 0. -1.
</event>
<event>
 4   0  0.2441219E-02  0.9118800E+02  0.7818609E-02  0.1379984E+01
      -11   -1    0    0    0    0  0.00000000000E+00  0.00000000000E+00  0.35740347158E-01  0.35744000000E-01  0.51099999109E-03 0.  1.
       11   -1    0    0    0    0 -0.00000000000E+00 -0.00000000000E+00 -0.35740347158E-01  0.35744000000E-01  0.51099999109E-03 0. -1.
       22    1    1    2    0    0 -0.53011699097E-02 -0.15078215889E-02  0.35309455625E-01  0.35737005818E-01  0.00000000000E+00 0.  1.
  9000001    1    1    2    0    0  0.53011699097E-02  0.15078215889E-02 -0.35309455625E-01  0.35750994182E-01  0.10000000475E-02 0. -1.
</event>
<event>
 4   0  0.2441219E-02  0.9118800E+02  0.7818609E-02  0.1379984E+01
      -11   -1    0    0    0    0  0.00000000000E+00  0.00000000000E+00  0.35740347158E-01  0.35744000000E-01  0.51099999109E-03 0.  1.
       11   -1    0    0    0    0 -0.00000000000E+00 -0.00000000000E+00 -0.35740347158E-01  0.35744000000E-01  0.51099999109E-03 0. -1.
       22    1    1    2    0    0 -0.41101733320E-02 -0.26486730503E-01  0.23636691125E-01  0.35737005818E-01  0.00000000000E+00 0.  1.
  9000001    1    1    2    0    0  0.41101733320E-02  0.26486730503E-01 -0.23636691125E-01  0.35750994182E-01  0.10000000475E-02 0. -1.
</event>
<event>
 4   0  0.2441219E-02  0.9118800E+02  0.7818609E-02  0.1379984E+01
      -11   -1    0    0    0    0  0.00000000000E+00  0.00000000000E+00  0.35740347158E-01  0.35744000000E-01  0.51099999109E-03 0. -1.
       11   -1    0    0    0    0 -0.00000000000E+00 -0.00000000000E+00 -0.35740347158E-01  0.35744000000E-01  0.51099999109E-03 0.  1.
       22    1    1    2    0    0  0.46846815501E-02 -0.47048951846E-02  0.35114830271E-01  0.35737005818E-01  0.00000000000E+00 0. -1.
  9000001    1    1    2    0    0 -0.46846815501E-02  0.47048951846E-02 -0.35114830271E-01  0.35750994182E-01  0.10000000475E-02 0.  1.
</event>
<event>
 4   0  0.2441219E-02  0.9118800E+02  0.7818609E-02  0.1379984E+01
      -11   -1    0    0    0    0  0.00000000000E+00  0.00000000000E+00  0.35740347158E-01  0.35744000000E-01  0.51099999109E-03 0.  1.
       11   -1    0    0    0    0 -0.00000000000E+00 -0.00000000000E+00 -0.35740347158E-01  0.35744000000E-01  0.51099999109E-03 0. -1.
       22    1    1    2    0    0  0.13487078972E-02 -0.33614734443E-02 -0.35552989581E-01  0.35737005818E-01  0.00000000000E+00 0. -1.
  9000001    1    1    2    0    0 -0.13487078972E-02  0.33614734443E-02  0.35552989581E-01  0.35750994182E-01  0.10000000475E-02 0.  1.
</event>
<event>
 4   0  0.2441219E-02  0.9118800E+02  0.7818609E-02  0.1379984E+01
      -11   -1    0    0    0    0  0.00000000000E+00  0.00000000000E+00  0.35740347158E-01  0.35744000000E-01  0.51099999109E-03 0.  1.
       11   -1    0    0    0    0 -0.00000000000E+00 -0.00000000000E+00 -0.35740347158E-01  0.35744000000E-01  0.51099999109E-03 0. -1.
       22    1    1    2    0    0  0.31965020141E-02  0.12885222433E-02  0.35570432527E-01  0.35737005818E-01  0.00000000000E+00 0.  1.
  9000001    1    1    2    0    0 -0.31965020141E-02 -0.12885222433E-02 -0.35570432527E-01  0.35750994182E-01  0.10000000475E-02 0. -1.
</event>
<event>
 4   0  0.2441219E-02  0.9118800E+02  0.7818609E-02  0.1379984E+01
      -11   -1    0    0    0    0  0.00000000000E+00  0.00000000000E+00  0.35740347158E-01  0.35744000000E-01  0.51099999109E-03 0. -1.
       11   -1    0    0    0    0 -0.00000000000E+00 -0.00000000000E+00 -0.35740347158E-01  0.35744000000E-01  0.51099999109E-03 0.  1.
       22    1    1    2    0    0 -0.37910596385E-02 -0.30784005499E-02 -0.35401764105E-01  0.35737005818E-01  0.00000000000E+00 0.  1.
  9000001    1    1    2    0    0  0.37910596385E-02  0.30784005499E-02  0.35401764105E-01  0.35750994182E-01  0.10000000475E-02 0. -1.
</event>
<event>
 4   0  0.2441219E-02  0.9118800E+02  0.7818609E-02  0.1379984E+01
      -11   -1    0    0    0    0  0.00000000000E+00  0.00000000000E+00  0.35740347158E-01  0.35744000000E-01  0.51099999109E-03 0.  1.
       11   -1    0    0    0    0 -0.00000000000E+00 -0.00000000000E+00 -0.35740347158E-01  0.35744000000E-01  0.51099999109E-03 0. -1.
       22    1    1    2    0    0  0.35821596798E-02  0.48669444659E-02 -0.35222358928E-01  0.35737005818E-01  0.00000000000E+00 0. -1.
  9000001    1    1    2    0    0 -0.35821596798E-02 -0.48669444659E-02  0.35222358928E-01  0.35750994182E-01  0.10000000475E-02 0.  1.
</event>
<event>
 4   0  0.2441219E-02  0.9118800E+02  0.7818609E-02  0.1379984E+01
      -11   -1    0    0    0    0  0.00000000000E+00  0.00000000000E+00  0.35740347158E-01  0.35744000000E-01  0.51099999109E-03 0. -1.
       11   -1    0    0    0    0 -0.00000000000E+00 -0.00000000000E+00 -0.35740347158E-01  0.35744000000E-01  0.51099999109E-03 0.  1.
       22    1    1    2    0    0  0.33674085454E-02  0.69296462230E-02 -0.34896620865E-01  0.35737005818E-01  0.00000000000E+00 0.  1.
  9000001    1    1    2    0    0 -0.33674085454E-02 -0.69296462230E-02  0.34896620865E-01  0.35750994182E-01  0.10000000475E-02 0. -1.
</event>
<event>
 4   0  0.2441219E-02  0.9118800E+02  0.7818609E-02  0.1379984E+01
      -11   -1    0    0    0    0  0.00000000000E+00  0.00000000000E+00  0.35740347158E-01  0.35744000000E-01  0.51099999109E-03 0.  1.
       11   -1    0    0    0    0 -0.00000000000E+00 -0.00000000000E+00 -0.35740347158E-01  0.35744000000E-01  0.51099999109E-03 0. -1.
       22    1    1    2    0    0 -0.21870567545E-01 -0.17044911513E-01 -0.22545129222E-01  0.35737005818E-01  0.00000000000E+00 0. -1.
  9000001    1    1    2    0    0  0.21870567545E-01  0.17044911513E-01  0.22545129222E-01  0.35750994182E-01  0.10000000475E-02 0.  1.
</event>
<event>
 4   0  0.2441219E-02  0.9118800E+02  0.7818609E-02  0.1379984E+01
      -11   -1    0    0    0    0  0.00000000000E+00  0.00000000000E+00  0.35740347158E-01  0.35744000000E-01  0.51099999109E-03 0. -1.
       11   -1    0    0    0    0 -0.00000000000E+00 -0.00000000000E+00 -0.35740347158E-01  0.35744000000E-01  0.51099999109E-03 0.  1.
       22    1    1    2    0    0  0.36069146756E-02  0.26580637294E-02  0.35455020076E-01  0.35737005818E-01  0.00000000000E+00 0. -1.
  9000001    1    1    2    0    0 -0.36069146756E-02 -0.26580637294E-02 -0.35455020076E-01  0.35750994182E-01  0.10000000475E-02 0.  1.
</event>
<event>
 4   0  0.2441219E-02  0.9118800E+02  0.7818609E-02  0.1379984E+01
      -11   -1    0    0    0    0  0.00000000000E+00  0.00000000000E+00  0.35740347158E-01  0.35744000000E-01  0.51099999109E-03 0.  1.
       11   -1    0    0    0    0 -0.00000000000E+00 -0.00000000000E+00 -0.35740347158E-01  0.35744000000E-01  0.51099999109E-03 0. -1.
       22    1    1    2    0    0 -0.13805266248E-02 -0.17412260843E-01  0.31177570519E-01  0.35737005818E-01  0.00000000000E+00 0.  1.
  9000001    1    1    2    0    0  0.13805266248E-02  0.17412260843E-01 -0.31177570519E-01  0.35750994182E-01  0.10000000475E-02 0. -1.
</event>
<event>
 4   0  0.2441219E-02  0.9118800E+02  0.7818609E-02  0.1379984E+01
      -11   -1    0    0    0    0  0.00000000000E+00  0.00000000000E+00  0.35740347158E-01  0.35744000000E-01  0.51099999109E-03 0. -1.
       11   -1    0    0    0    0 -0.00000000000E+00 -0.00000000000E+00 -0.35740347158E-01  0.35744000000E-01  0.51099999109E-03 0.  1.
       22    1    1    2    0    0 -0.10164187452E-01  0.31610606577E-01  0.13213342883E-01  0.35737005818E-01  0.00000000000E+00 0.  1.
  9000001    1    1    2    0    0  0.10164187452E-01 -0.31610606577E-01 -0.13213342883E-01  0.35750994182E-01  0.10000000475E-02 0. -1.
</event>
<event>
 4   0  0.2441219E-02  0.9118800E+02  0.7818609E-02  0.1379984E+01
      -11   -1    0    0    0    0  0.00000000000E+00  0.00000000000E+00  0.35740347158E-01  0.35744000000E-01  0.51099999109E-03 0.  1.
       11   -1    0    0    0    0 -0.00000000000E+00 -0.00000000000E+00 -0.35740347158E-01  0.35744000000E-01  0.51099999109E-03 0. -1.
       22    1    1    2    0    0 -0.33519117398E-02  0.57753813628E-03 -0.35574776489E-01  0.35737005818E-01  0.00000000000E+00 0. -1.
  9000001    1    1    2    0    0  0.33519117398E-02 -0.57753813628E-03  0.35574776489E-01  0.35750994182E-01  0.10000000475E-02 0.  1.
</event>
<event>
 4   0  0.2441219E-02  0.9118800E+02  0.7818609E-02  0.1379984E+01
      -11   -1    0    0    0    0  0.00000000000E+00  0.00000000000E+00  0.35740347158E-01  0.35744000000E-01  0.51099999109E-03 0. -1.
       11   -1    0    0    0    0 -0.00000000000E+00 -0.00000000000E+00 -0.35740347158E-01  0.35744000000E-01  0.51099999109E-03 0.  1.
       22    1    1    2    0    0  0.17890074034E-01 -0.29540929770E-02 -0.30795327091E-01  0.35737005818E-01  0.00000000000E+00 0.  1.
  9000001    1    1    2    0    0 -0.17890074034E-01  0.29540929770E-02  0.30795327091E-01  0.35750994182E-01  0.10000000475E-02 0. -1.
</event>
<event>
 4   0  0.2441219E-02  0.9118800E+02  0.7818609E-02  0.1379984E+01
      -11   -1    0    0    0    0  0.00000000000E+00  0.00000000000E+00  0.35740347158E-01  0.35744000000E-01  0.51099999109E-03 0. -1.
       11   -1    0    0    0    0 -0.00000000000E+00 -0.00000000000E+00 -0.35740347158E-01  0.35744000000E-01  0.51099999109E-03 0.  1.
       22    1    1    2    0    0  0.85021527435E-03 -0.29841441032E-01 -0.19644315106E-01  0.35737005818E-01  0.00000000000E+00 0.  1.
  9000001    1    1    2    0    0 -0.85021527435E-03  0.29841441032E-01  0.19644315106E-01  0.35750994182E-01  0.10000000475E-02 0. -1.
</event>
<event>
 4   0  0.2441219E-02  0.9118800E+02  0.7818609E-02  0.1379984E+01
      -11   -1    0    0    0    0  0.00000000000E+00  0.00000000000E+00  0.35740347158E-01  0.35744000000E-01  0.51099999109E-03 0.  1.
       11   -1    0    0    0    0 -0.00000000000E+00 -0.00000000000E+00 -0.35740347158E-01  0.35744000000E-01  0.51099999109E-03 0. -1.
       22    1    1    2    0    0  0.10320870727E-01  0.21553245545E-02 -0.34146270490E-01  0.35737005818E-01  0.00000000000E+00 0. -1.
  9000001    1    1    2    0    0 -0.10320870727E-01 -0.21553245545E-02  0.34146270490E-01  0.35750994182E-01  0.10000000475E-02 0.  1.
</event>
<event>
 4   0  0.2441219E-02  0.9118800E+02  0.7818609E-02  0.1379984E+01
      -11   -1    0    0    0    0  0.00000000000E+00  0.00000000000E+00  0.35740347158E-01  0.35744000000E-01  0.51099999109E-03 0.  1.
       11   -1    0    0    0    0 -0.00000000000E+00 -0.00000000000E+00 -0.35740347158E-01  0.35744000000E-01  0.51099999109E-03 0. -1.
       22    1    1    2    0    0  0.15038884671E-01 -0.29128013616E-01 -0.14231105212E-01  0.35737005818E-01  0.00000000000E+00 0. -1.
  9000001    1    1    2    0    0 -0.15038884671E-01  0.29128013616E-01  0.14231105212E-01  0.35750994182E-01  0.10000000475E-02 0.  1.
</event>
<event>
 4   0  0.2441219E-02  0.9118800E+02  0.7818609E-02  0.1379984E+01
      -11   -1    0    0    0    0  0.00000000000E+00  0.00000000000E+00  0.35740347158E-01  0.35744000000E-01  0.51099999109E-03 0.  1.
       11   -1    0    0    0    0 -0.00000000000E+00 -0.00000000000E+00 -0.35740347158E-01  0.35744000000E-01  0.51099999109E-03 0. -1.
       22    1    1    2    0    0  0.15482856692E-01  0.15258521654E-01 -0.28365335366E-01  0.35737005818E-01  0.00000000000E+00 0. -1.
  9000001    1    1    2    0    0 -0.15482856692E-01 -0.15258521654E-01  0.28365335366E-01  0.35750994182E-01  0.10000000475E-02 0.  1.
</event>
<event>
 4   0  0.2441219E-02  0.9118800E+02  0.7818609E-02  0.1379984E+01
      -11   -1    0    0    0    0  0.00000000000E+00  0.00000000000E+00  0.35740347158E-01  0.35744000000E-01  0.51099999109E-03 0.  1.
       11   -1    0    0    0    0 -0.00000000000E+00 -0.00000000000E+00 -0.35740347158E-01  0.35744000000E-01  0.51099999109E-03 0. -1.
       22    1    1    2    0    0 -0.74341495638E-03 -0.21397454682E-01  0.28613455789E-01  0.35737005818E-01  0.00000000000E+00 0.  1.
  9000001    1    1    2    0    0  0.74341495638E-03  0.21397454682E-01 -0.28613455789E-01  0.35750994182E-01  0.10000000475E-02 0. -1.
</event>
<event>
 4   0  0.2441219E-02  0.9118800E+02  0.7818609E-02  0.1379984E+01
      -11   -1    0    0    0    0  0.00000000000E+00  0.00000000000E+00  0.35740347158E-01  0.35744000000E-01  0.51099999109E-03 0. -1.
       11   -1    0    0    0    0 -0.00000000000E+00 -0.00000000000E+00 -0.35740347158E-01  0.35744000000E-01  0.51099999109E-03 0.  1.
       22    1    1    2    0    0  0.48539124417E-02 -0.16383286651E-02 -0.35367909156E-01  0.35737005818E-01  0.00000000000E+00 0.  1.
  9000001    1    1    2    0    0 -0.48539124417E-02  0.16383286651E-02  0.35367909156E-01  0.35750994182E-01  0.10000000475E-02 0. -1.
</event>
<event>
 4   0  0.2441219E-02  0.9118800E+02  0.7818609E-02  0.1379984E+01
      -11   -1    0    0    0    0  0.00000000000E+00  0.00000000000E+00  0.35740347158E-01  0.35744000000E-01  0.51099999109E-03 0. -1.
       11   -1    0    0    0    0 -0.00000000000E+00 -0.00000000000E+00 -0.35740347158E-01  0.35744000000E-01  0.51099999109E-03 0.  1.
       22    1    1    2    0    0 -0.15238459662E-02  0.34467537894E-02 -0.35537745661E-01  0.35737005818E-01  0.00000000000E+00 0.  1.
  9000001    1    1    2    0    0  0.15238459662E-02 -0.34467537894E-02  0.35537745661E-01  0.35750994182E-01  0.10000000475E-02 0. -1.
</event>
<event>
 4   0  0.2441219E-02  0.9118800E+02  0.7818609E-02  0.1379984E+01
      -11   -1    0    0    0    0  0.00000000000E+00  0.00000000000E+00  0.35740347158E-01  0.35744000000E-01  0.51099999109E-03 0.  1.
       11   -1    0    0    0    0 -0.00000000000E+00 -0.00000000000E+00 -0.35740347158E-01  0.35744000000E-01  0.51099999109E-03 0. -1.
       22    1    1    2    0    0  0.36943169369E-02  0.17120834749E-03  0.35545130397E-01  0.35737005818E-01  0.00000000000E+00 0.  1.
  9000001    1    1    2    0    0 -0.36943169369E-02 -0.17120834749E-03 -0.35545130397E-01  0.35750994182E-01  0.10000000475E-02 0. -1.
</event>
<event>
 4   0  0.2441219E-02  0.9118800E+02  0.7818609E-02  0.1379984E+01
      -11   -1    0    0    0    0  0.00000000000E+00  0.00000000000E+00  0.35740347158E-01  0.35744000000E-01  0.51099999109E-03 0. -1.
       11   -1    0    0    0    0 -0.00000000000E+00 -0.00000000000E+00 -0.35740347158E-01  0.35744000000E-01  0.51099999109E-03 0.  1.
       22    1    1    2    0    0 -0.16821259891E-01  0.16546397709E-03 -0.31530166860E-01  0.35737005818E-01  0.00000000000E+00 0.  1.
  9000001    1    1    2    0    0  0.16821259891E-01 -0.16546397709E-03  0.31530166860E-01  0.35750994182E-01  0.10000000475E-02 0. -1.
</event>
<event>
 4   0  0.2441219E-02  0.9118800E+02  0.7818609E-02  0.1379984E+01
      -11   -1    0    0    0    0  0.00000000000E+00  0.00000000000E+00  0.35740347158E-01  0.35744000000E-01  0.51099999109E-03 0.  1.
       11   -1    0    0    0    0 -0.00000000000E+00 -0.00000000000E+00 -0.35740347158E-01  0.35744000000E-01  0.51099999109E-03 0. -1.
       22    1    1    2    0    0 -0.66171316871E-03 -0.51176037532E-02  0.35362492169E-01  0.35737005818E-01  0.00000000000E+00 0.  1.
  9000001    1    1    2    0    0  0.66171316871E-03  0.51176037532E-02 -0.35362492169E-01  0.35750994182E-01  0.10000000475E-02 0. -1.
</event>
<event>
 4   0  0.2441219E-02  0.9118800E+02  0.7818609E-02  0.1379984E+01
      -11   -1    0    0    0    0  0.00000000000E+00  0.00000000000E+00  0.35740347158E-01  0.35744000000E-01  0.51099999109E-03 0.  1.
       11   -1    0    0    0    0 -0.00000000000E+00 -0.00000000000E+00 -0.35740347158E-01  0.35744000000E-01  0.51099999109E-03 0. -1.
       22    1    1    2    0    0 -0.69466557478E-02  0.21286544692E-02  0.34990661453E-01  0.35737005818E-01  0.00000000000E+00 0.  1.
  9000001    1    1    2    0    0  0.69466557478E-02 -0.21286544692E-02 -0.34990661453E-01  0.35750994182E-01  0.10000000475E-02 0. -1.
</event>
<event>
 4   0  0.2441219E-02  0.9118800E+02  0.7818609E-02  0.1379984E+01
      -11   -1    0    0    0    0  0.00000000000E+00  0.00000000000E+00  0.35740347158E-01  0.35744000000E-01  0.51099999109E-03 0.  1.
       11   -1    0    0    0    0 -0.00000000000E+00 -0.00000000000E+00 -0.35740347158E-01  0.35744000000E-01  0.51099999109E-03 0. -1.
       22    1    1    2    0    0 -0.13951043693E-01 -0.27533104651E-01 -0.18011943621E-01  0.35737005818E-01  0.00000000000E+00 0. -1.
  9000001    1    1    2    0    0  0.13951043693E-01  0.27533104651E-01  0.18011943621E-01  0.35750994182E-01  0.10000000475E-02 0.  1.
</event>
<event>
 4   0  0.2441219E-02  0.9118800E+02  0.7818609E-02  0.1379984E+01
      -11   -1    0    0    0    0  0.00000000000E+00  0.00000000000E+00  0.35740347158E-01  0.35744000000E-01  0.51099999109E-03 0. -1.
       11   -1    0    0    0    0 -0.00000000000E+00 -0.00000000000E+00 -0.35740347158E-01  0.35744000000E-01  0.51099999109E-03 0.  1.
       22    1    1    2    0    0  0.30760852177E-02  0.45576924264E-02 -0.35311453161E-01  0.35737005818E-01  0.00000000000E+00 0.  1.
  9000001    1    1    2    0    0 -0.30760852177E-02 -0.45576924264E-02  0.35311453161E-01  0.35750994182E-01  0.10000000475E-02 0. -1.
</event>
<event>
 4   0  0.2441219E-02  0.9118800E+02  0.7818609E-02  0.1379984E+01
      -11   -1    0    0    0    0  0.00000000000E+00  0.00000000000E+00  0.35740347158E-01  0.35744000000E-01  0.51099999109E-03 0.  1.
       11   -1    0    0    0    0 -0.00000000000E+00 -0.00000000000E+00 -0.35740347158E-01  0.35744000000E-01  0.51099999109E-03 0. -1.
       22    1    1    2    0    0 -0.39536465927E-02 -0.13936602927E-01  0.32669150009E-01  0.35737005818E-01  0.00000000000E+00 0.  1.
  9000001    1    1    2    0    0  0.39536465927E-02  0.13936602927E-01 -0.32669150009E-01  0.35750994182E-01  0.10000000475E-02 0. -1.
</event>
<event>
 4   0  0.2441219E-02  0.9118800E+02  0.7818609E-02  0.1379984E+01
      -11   -1    0    0    0    0  0.00000000000E+00  0.00000000000E+00  0.35740347158E-01  0.35744000000E-01  0.51099999109E-03 0.  1.
       11   -1    0    0    0    0 -0.00000000000E+00 -0.00000000000E+00 -0.35740347158E-01  0.35744000000E-01  0.51099999109E-03 0. -1.
       22    1    1    2    0    0 -0.13760793904E-01  0.40550711050E-02 -0.32731185960E-01  0.35737005818E-01  0.00000000000E+00 0. -1.
  9000001    1    1    2    0    0  0.13760793904E-01 -0.40550711050E-02  0.32731185960E-01  0.35750994182E-01  0.10000000475E-02 0.  1.
</event>
<event>
 4   0  0.2441219E-02  0.9118800E+02  0.7818609E-02  0.1379984E+01
      -11   -1    0    0    0    0  0.00000000000E+00  0.00000000000E+00  0.35740347158E-01  0.35744000000E-01  0.51099999109E-03 0.  1.
       11   -1    0    0    0    0 -0.00000000000E+00 -0.00000000000E+00 -0.35740347158E-01  0.35744000000E-01  0.51099999109E-03 0. -1.
       22    1    1    2    0    0  0.47579070295E-02  0.25020030959E-01 -0.25069781738E-01  0.35737005818E-01  0.00000000000E+00 0. -1.
  9000001    1    1    2    0    0 -0.47579070295E-02 -0.25020030959E-01  0.25069781738E-01  0.35750994182E-01  0.10000000475E-02 0.  1.
</event>
<event>
 4   0  0.2441219E-02  0.9118800E+02  0.7818609E-02  0.1379984E+01
      -11   -1    0    0    0    0  0.00000000000E+00  0.00000000000E+00  0.35740347158E-01  0.35744000000E-01  0.51099999109E-03 0. -1.
       11   -1    0    0    0    0 -0.00000000000E+00 -0.00000000000E+00 -0.35740347158E-01  0.35744000000E-01  0.51099999109E-03 0.  1.
       22    1    1    2    0    0 -0.90200187141E-03  0.57604772116E-02  0.35258146290E-01  0.35737005818E-01  0.00000000000E+00 0. -1.
  9000001    1    1    2    0    0  0.90200187141E-03 -0.57604772116E-02 -0.35258146290E-01  0.35750994182E-01  0.10000000475E-02 0.  1.
</event>
<event>
 4   0  0.2441219E-02  0.9118800E+02  0.7818609E-02  0.1379984E+01
      -11   -1    0    0    0    0  0.00000000000E+00  0.00000000000E+00  0.35740347158E-01  0.35744000000E-01  0.51099999109E-03 0. -1.
       11   -1    0    0    0    0 -0.00000000000E+00 -0.00000000000E+00 -0.35740347158E-01  0.35744000000E-01  0.51099999109E-03 0.  1.
       22    1    1    2    0    0  0.12806239711E-01  0.50442759706E-02 -0.32980131735E-01  0.35737005818E-01  0.00000000000E+00 0.  1.
  9000001    1    1    2    0    0 -0.12806239711E-01 -0.50442759706E-02  0.32980131735E-01  0.35750994182E-01  0.10000000475E-02 0. -1.
</event>
<event>
 4   0  0.2441219E-02  0.9118800E+02  0.7818609E-02  0.1379984E+01
      -11   -1    0    0    0    0  0.00000000000E+00  0.00000000000E+00  0.35740347158E-01  0.35744000000E-01  0.51099999109E-03 0. -1.
       11   -1    0    0    0    0 -0.00000000000E+00 -0.00000000000E+00 -0.35740347158E-01  0.35744000000E-01  0.51099999109E-03 0.  1.
       22    1    1    2    0    0  0.10241001500E-01  0.67385572693E-02 -0.33568546574E-01  0.35737005818E-01  0.00000000000E+00 0.  1.
  9000001    1    1    2    0    0 -0.10241001500E-01 -0.67385572693E-02  0.33568546574E-01  0.35750994182E-01  0.10000000475E-02 0. -1.
</event>
<event>
 4   0  0.2441219E-02  0.9118800E+02  0.7818609E-02  0.1379984E+01
      -11   -1    0    0    0    0  0.00000000000E+00  0.00000000000E+00  0.35740347158E-01  0.35744000000E-01  0.51099999109E-03 0.  1.
       11   -1    0    0    0    0 -0.00000000000E+00 -0.00000000000E+00 -0.35740347158E-01  0.35744000000E-01  0.51099999109E-03 0. -1.
       22    1    1    2    0    0  0.25180469971E-01 -0.10282054389E-01 -0.23180959308E-01  0.35737005818E-01  0.00000000000E+00 0. -1.
  9000001    1    1    2    0    0 -0.25180469971E-01  0.10282054389E-01  0.23180959308E-01  0.35750994182E-01  0.10000000475E-02 0.  1.
</event>
<event>
 4   0  0.2441219E-02  0.9118800E+02  0.7818609E-02  0.1379984E+01
      -11   -1    0    0    0    0  0.00000000000E+00  0.00000000000E+00  0.35740347158E-01  0.35744000000E-01  0.51099999109E-03 0. -1.
       11   -1    0    0    0    0 -0.00000000000E+00 -0.00000000000E+00 -0.35740347158E-01  0.35744000000E-01  0.51099999109E-03 0.  1.
       22    1    1    2    0    0 -0.70500367756E-03 -0.11913196118E-01 -0.33685491134E-01  0.35737005818E-01  0.00000000000E+00 0.  1.
  9000001    1    1    2    0    0  0.70500367756E-03  0.11913196118E-01  0.33685491134E-01  0.35750994182E-01  0.10000000475E-02 0. -1.
</event>
<event>
 4   0  0.2441219E-02  0.9118800E+02  0.7818609E-02  0.1379984E+01
      -11   -1    0    0    0    0  0.00000000000E+00  0.00000000000E+00  0.35740347158E-01  0.35744000000E-01  0.51099999109E-03 0.  1.
       11   -1    0    0    0    0 -0.00000000000E+00 -0.00000000000E+00 -0.35740347158E-01  0.35744000000E-01  0.51099999109E-03 0. -1.
       22    1    1    2    0    0 -0.77510826486E-03 -0.44658257152E-02  0.35448401836E-01  0.35737005818E-01  0.00000000000E+00 0.  1.
  9000001    1    1    2    0    0  0.77510826486E-03  0.44658257152E-02 -0.35448401836E-01  0.35750994182E-01  0.10000000475E-02 0. -1.
</event>
<event>
 4   0  0.2441219E-02  0.9118800E+02  0.7818609E-02  0.1379984E+01
      -11   -1    0    0    0    0  0.00000000000E+00  0.00000000000E+00  0.35740347158E-01  0.35744000000E-01  0.51099999109E-03 0. -1.
       11   -1    0    0    0    0 -0.00000000000E+00 -0.00000000000E+00 -0.35740347158E-01  0.35744000000E-01  0.51099999109E-03 0.  1.
       22    1    1    2    0    0 -0.34677916113E-02 -0.45372643471E-02 -0.35277772584E-01  0.35737005818E-01  0.00000000000E+00 0.  1.
  9000001    1    1    2    0    0  0.34677916113E-02  0.45372643471E-02  0.35277772584E-01  0.35750994182E-01  0.10000000475E-02 0. -1.
</event>
<event>
 4   0  0.2441219E-02  0.9118800E+02  0.7818609E-02  0.1379984E+01
      -11   -1    0    0    0    0  0.00000000000E+00  0.00000000000E+00  0.35740347158E-01  0.35744000000E-01  0.51099999109E-03 0.  1.
       11   -1    0    0    0    0 -0.00000000000E+00 -0.00000000000E+00 -0.35740347158E-01  0.35744000000E-01  0.51099999109E-03 0. -1.
       22    1    1    2    0    0  0.47710790188E-02  0.37662392817E-02 -0.35216272255E-01  0.35737005818E-01  0.00000000000E+00 0. -1.
  9000001    1    1    2    0    0 -0.47710790188E-02 -0.37662392817E-02  0.35216272255E-01  0.35750994182E-01  0.10000000475E-02 0.  1.
</event>
<event>
 4   0  0.2441219E-02  0.9118800E+02  0.7818609E-02  0.1379984E+01
      -11   -1    0    0    0    0  0.00000000000E+00  0.00000000000E+00  0.35740347158E-01  0.35744000000E-01  0.51099999109E-03 0. -1.
       11   -1    0    0    0    0 -0.00000000000E+00 -0.00000000000E+00 -0.35740347158E-01  0.35744000000E-01  0.51099999109E-03 0.  1.
       22    1    1    2    0    0  0.18291057263E-01 -0.26095587298E-01 -0.16173779171E-01  0.35737005818E-01  0.00000000000E+00 0.  1.
  9000001    1    1    2    0    0 -0.18291057263E-01  0.26095587298E-01  0.16173779171E-01  0.35750994182E-01  0.10000000475E-02 0. -1.
</event>
<event>
 4   0  0.2441219E-02  0.9118800E+02  0.7818609E-02  0.1379984E+01
      -11   -1    0    0    0    0  0.00000000000E+00  0.00000000000E+00  0.35740347158E-01  0.35744000000E-01  0.51099999109E-03 0. -1.
       11   -1    0    0    0    0 -0.00000000000E+00 -0.00000000000E+00 -0.35740347158E-01  0.35744000000E-01  0.51099999109E-03 0.  1.
       22    1    1    2    0    0 -0.42395370862E-02 -0.24058275414E-02 -0.35402992868E-01  0.35737005818E-01  0.00000000000E+00 0.  1.
  9000001    1    1    2    0    0  0.42395370862E-02  0.24058275414E-02  0.35402992868E-01  0.35750994182E-01  0.10000000475E-02 0. -1.
</event>
<event>
 4   0  0.2441219E-02  0.9118800E+02  0.7818609E-02  0.1379984E+01
      -11   -1    0    0    0    0  0.00000000000E+00  0.00000000000E+00  0.35740347158E-01  0.35744000000E-01  0.51099999109E-03 0. -1.
       11   -1    0    0    0    0 -0.00000000000E+00 -0.00000000000E+00 -0.35740347158E-01  0.35744000000E-01  0.51099999109E-03 0.  1.
       22    1    1    2    0    0 -0.10651173664E-01 -0.72190538601E-02 -0.33340236139E-01  0.35737005818E-01  0.00000000000E+00 0.  1.
  9000001    1    1    2    0    0  0.10651173664E-01  0.72190538601E-02  0.33340236139E-01  0.35750994182E-01  0.10000000475E-02 0. -1.
</event>
<event>
 4   0  0.2441219E-02  0.9118800E+02  0.7818609E-02  0.1379984E+01
      -11   -1    0    0    0    0  0.00000000000E+00  0.00000000000E+00  0.35740347158E-01  0.35744000000E-01  0.51099999109E-03 0.  1.
       11   -1    0    0    0    0 -0.00000000000E+00 -0.00000000000E+00 -0.35740347158E-01  0.35744000000E-01  0.51099999109E-03 0. -1.
       22    1    1    2    0    0 -0.65984115472E-02 -0.15398272093E-01 -0.31567194466E-01  0.35737005818E-01  0.00000000000E+00 0. -1.
  9000001    1    1    2    0    0  0.65984115472E-02  0.15398272093E-01  0.31567194466E-01  0.35750994182E-01  0.10000000475E-02 0.  1.
</event>
<event>
 4   0  0.2441219E-02  0.9118800E+02  0.7818609E-02  0.1379984E+01
      -11   -1    0    0    0    0  0.00000000000E+00  0.00000000000E+00  0.35740347158E-01  0.35744000000E-01  0.51099999109E-03 0. -1.
       11   -1    0    0    0    0 -0.00000000000E+00 -0.00000000000E+00 -0.35740347158E-01  0.35744000000E-01  0.51099999109E-03 0.  1.
       22    1    1    2    0    0  0.46912919349E-03  0.47991281210E-02 -0.35410194464E-01  0.35737005818E-01  0.00000000000E+00 0.  1.
  9000001    1    1    2    0    0 -0.46912919349E-03 -0.47991281210E-02  0.35410194464E-01  0.35750994182E-01  0.10000000475E-02 0. -1.
</event>
<event>
 4   0  0.2441219E-02  0.9118800E+02  0.7818609E-02  0.1379984E+01
      -11   -1    0    0    0    0  0.00000000000E+00  0.00000000000E+00  0.35740347158E-01  0.35744000000E-01  0.51099999109E-03 0.  1.
       11   -1    0    0    0    0 -0.00000000000E+00 -0.00000000000E+00 -0.35740347158E-01  0.35744000000E-01  0.51099999109E-03 0. -1.
       22    1    1    2    0    0 -0.31279559213E-02  0.57995778310E-02 -0.35124270435E-01  0.35737005818E-01  0.00000000000E+00 0. -1.
  9000001    1    1    2    0    0  0.31279559213E-02 -0.57995778310E-02  0.35124270435E-01  0.35750994182E-01  0.10000000475E-02 0.  1.
</event>
<event>
 4   0  0.2441219E-02  0.9118800E+02  0.7818609E-02  0.1379984E+01
      -11   -1    0    0    0    0  0.00000000000E+00  0.00000000000E+00  0.35740347158E-01  0.35744000000E-01  0.51099999109E-03 0. -1.
       11   -1    0    0    0    0 -0.00000000000E+00 -0.00000000000E+00 -0.35740347158E-01  0.35744000000E-01  0.51099999109E-03 0.  1.
       22    1    1    2    0    0  0.71778203533E-02  0.72143300051E-02 -0.34257348444E-01  0.35737005818E-01  0.00000000000E+00 0.  1.
  9000001    1    1    2    0    0 -0.71778203533E-02 -0.72143300051E-02  0.34257348444E-01  0.35750994182E-01  0.10000000475E-02 0. -1.
</event>
<event>
 4   0  0.2441219E-02  0.9118800E+02  0.7818609E-02  0.1379984E+01
      -11   -1    0    0    0    0  0.00000000000E+00  0.00000000000E+00  0.35740347158E-01  0.35744000000E-01  0.51099999109E-03 0.  1.
       11   -1    0    0    0    0 -0.00000000000E+00 -0.00000000000E+00 -0.35740347158E-01  0.35744000000E-01  0.51099999109E-03 0. -1.
       22    1    1    2    0    0 -0.87870291537E-02 -0.33199737741E-01  0.98842863906E-02  0.35737005818E-01  0.00000000000E+00 0.  1.
  9000001    1    1    2    0    0  0.87870291537E-02  0.33199737741E-01 -0.98842863906E-02  0.35750994182E-01  0.10000000475E-02 0. -1.
</event>
<event>
 4   0  0.2441219E-02  0.9118800E+02  0.7818609E-02  0.1379984E+01
      -11   -1    0    0    0    0  0.00000000000E+00  0.00000000000E+00  0.35740347158E-01  0.35744000000E-01  0.51099999109E-03 0.  1.
       11   -1    0    0    0    0 -0.00000000000E+00 -0.00000000000E+00 -0.35740347158E-01  0.35744000000E-01  0.51099999109E-03 0. -1.
       22    1    1    2    0    0 -0.29172278036E-02 -0.10564086367E-01  0.34015047347E-01  0.35737005818E-01  0.00000000000E+00 0.  1.
  9000001    1    1    2    0    0  0.29172278036E-02  0.10564086367E-01 -0.34015047347E-01  0.35750994182E-01  0.10000000475E-02 0. -1.
</event>
<event>
 4   0  0.2441219E-02  0.9118800E+02  0.7818609E-02  0.1379984E+01
      -11   -1    0    0    0    0  0.00000000000E+00  0.00000000000E+00  0.35740347158E-01  0.35744000000E-01  0.51099999109E-03 0.  1.
       11   -1    0    0    0    0 -0.00000000000E+00 -0.00000000000E+00 -0.35740347158E-01  0.35744000000E-01  0.51099999109E-03 0. -1.
       22    1    1    2    0    0  0.33613753237E-02 -0.70346282661E-02 -0.34876191678E-01  0.35737005818E-01  0.00000000000E+00 0. -1.
  9000001    1    1    2    0    0 -0.33613753237E-02  0.70346282661E-02  0.34876191678E-01  0.35750994182E-01  0.10000000475E-02 0.  1.
</event>
<event>
 4   0  0.2441219E-02  0.9118800E+02  0.7818609E-02  0.1379984E+01
      -11   -1    0    0    0    0  0.00000000000E+00  0.00000000000E+00  0.35740347158E-01  0.35744000000E-01  0.51099999109E-03 0.  1.
       11   -1    0    0    0    0 -0.00000000000E+00 -0.00000000000E+00 -0.35740347158E-01  0.35744000000E-01  0.51099999109E-03 0. -1.
       22    1    1    2    0    0 -0.11982396891E-01 -0.10835760605E-02 -0.33650878333E-01  0.35737005818E-01  0.00000000000E+00 0. -1.
  9000001    1    1    2    0    0  0.11982396891E-01  0.10835760605E-02  0.33650878333E-01  0.35750994182E-01  0.10000000475E-02 0.  1.
</event>
<event>
 4   0  0.2441219E-02  0.9118800E+02  0.7818609E-02  0.1379984E+01
      -11   -1    0    0    0    0  0.00000000000E+00  0.00000000000E+00  0.35740347158E-01  0.35744000000E-01  0.51099999109E-03 0.  1.
       11   -1    0    0    0    0 -0.00000000000E+00 -0.00000000000E+00 -0.35740347158E-01  0.35744000000E-01  0.51099999109E-03 0. -1.
       22    1    1    2    0    0 -0.13006983437E-01  0.15510584125E-01 -0.29451209599E-01  0.35737005818E-01  0.00000000000E+00 0. -1.
  9000001    1    1    2    0    0  0.13006983437E-01 -0.15510584125E-01  0.29451209599E-01  0.35750994182E-01  0.10000000475E-02 0.  1.
</event>
<event>
 4   0  0.2441219E-02  0.9118800E+02  0.7818609E-02  0.1379984E+01
      -11   -1    0    0    0    0  0.00000000000E+00  0.00000000000E+00  0.35740347158E-01  0.35744000000E-01  0.51099999109E-03 0. -1.
       11   -1    0    0    0    0 -0.00000000000E+00 -0.00000000000E+00 -0.35740347158E-01  0.35744000000E-01  0.51099999109E-03 0.  1.
       22    1    1    2    0    0 -0.11767260873E-01  0.99618061750E-02 -0.32240154685E-01  0.35737005818E-01  0.00000000000E+00 0.  1.
  9000001    1    1    2    0    0  0.11767260873E-01 -0.99618061750E-02  0.32240154685E-01  0.35750994182E-01  0.10000000475E-02 0. -1.
</event>
<event>
 4   0  0.2441219E-02  0.9118800E+02  0.7818609E-02  0.1379984E+01
      -11   -1    0    0    0    0  0.00000000000E+00  0.00000000000E+00  0.35740347158E-01  0.35744000000E-01  0.51099999109E-03 0.  1.
       11   -1    0    0    0    0 -0.00000000000E+00 -0.00000000000E+00 -0.35740347158E-01  0.35744000000E-01  0.51099999109E-03 0. -1.
       22    1    1    2    0    0  0.54323479011E-02 -0.75330965231E-02 -0.34509066025E-01  0.35737005818E-01  0.00000000000E+00 0. -1.
  9000001    1    1    2    0    0 -0.54323479011E-02  0.75330965231E-02  0.34509066025E-01  0.35750994182E-01  0.10000000475E-02 0.  1.
</event>
<event>
 4   0  0.2441219E-02  0.9118800E+02  0.7818609E-02  0.1379984E+01
      -11   -1    0    0    0    0  0.00000000000E+00  0.00000000000E+00  0.35740347158E-01  0.35744000000E-01  0.51099999109E-03 0.  1.
       11   -1    0    0    0    0 -0.00000000000E+00 -0.00000000000E+00 -0.35740347158E-01  0.35744000000E-01  0.51099999109E-03 0. -1.
       22    1    1    2    0    0  0.20374973291E-01  0.67496769846E-02  0.28573342627E-01  0.35737005818E-01  0.00000000000E+00 0.  1.
  9000001    1    1    2    0    0 -0.20374973291E-01 -0.67496769846E-02 -0.28573342627E-01  0.35750994182E-01  0.10000000475E-02 0. -1.
</event>
<event>
 4   0  0.2441219E-02  0.9118800E+02  0.7818609E-02  0.1379984E+01
      -11   -1    0    0    0    0  0.00000000000E+00  0.00000000000E+00  0.35740347158E-01  0.35744000000E-01  0.51099999109E-03 0.  1.
       11   -1    0    0    0    0 -0.00000000000E+00 -0.00000000000E+00 -0.35740347158E-01  0.35744000000E-01  0.51099999109E-03 0. -1.
       22    1    1    2    0    0 -0.13766970147E-01  0.18810973547E-01 -0.27087845836E-01  0.35737005818E-01  0.00000000000E+00 0. -1.
  9000001    1    1    2    0    0  0.13766970147E-01 -0.18810973547E-01  0.27087845836E-01  0.35750994182E-01  0.10000000475E-02 0.  1.
</event>
<event>
 4   0  0.2441219E-02  0.9118800E+02  0.7818609E-02  0.1379984E+01
      -11   -1    0    0    0    0  0.00000000000E+00  0.00000000000E+00  0.35740347158E-01  0.35744000000E-01  0.51099999109E-03 0. -1.
       11   -1    0    0    0    0 -0.00000000000E+00 -0.00000000000E+00 -0.35740347158E-01  0.35744000000E-01  0.51099999109E-03 0.  1.
       22    1    1    2    0    0 -0.16567005700E-01  0.12015129459E-01 -0.29296835513E-01  0.35737005818E-01  0.00000000000E+00 0.  1.
  9000001    1    1    2    0    0  0.16567005700E-01 -0.12015129459E-01  0.29296835513E-01  0.35750994182E-01  0.10000000475E-02 0. -1.
</event>
<event>
 4   0  0.2441219E-02  0.9118800E+02  0.7818609E-02  0.1379984E+01
      -11   -1    0    0    0    0  0.00000000000E+00  0.00000000000E+00  0.35740347158E-01  0.35744000000E-01  0.51099999109E-03 0.  1.
       11   -1    0    0    0    0 -0.00000000000E+00 -0.00000000000E+00 -0.35740347158E-01  0.35744000000E-01  0.51099999109E-03 0. -1.
       22    1    1    2    0    0  0.10589418215E-01 -0.18054943962E-01 -0.28965786805E-01  0.35737005818E-01  0.00000000000E+00 0. -1.
  9000001    1    1    2    0    0 -0.10589418215E-01  0.18054943962E-01  0.28965786805E-01  0.35750994182E-01  0.10000000475E-02 0.  1.
</event>
<event>
 4   0  0.2441219E-02  0.9118800E+02  0.7818609E-02  0.1379984E+01
      -11   -1    0    0    0    0  0.00000000000E+00  0.00000000000E+00  0.35740347158E-01  0.35744000000E-01  0.51099999109E-03 0. -1.
       11   -1    0    0    0    0 -0.00000000000E+00 -0.00000000000E+00 -0.35740347158E-01  0.35744000000E-01  0.51099999109E-03 0.  1.
       22    1    1    2    0    0  0.22330970232E-01 -0.19502025621E-01  0.19953254122E-01  0.35737005818E-01  0.00000000000E+00 0. -1.
  9000001    1    1    2    0    0 -0.22330970232E-01  0.19502025621E-01 -0.19953254122E-01  0.35750994182E-01  0.10000000475E-02 0.  1.
</event>
<event>
 4   0  0.2441219E-02  0.9118800E+02  0.7818609E-02  0.1379984E+01
      -11   -1    0    0    0    0  0.00000000000E+00  0.00000000000E+00  0.35740347158E-01  0.35744000000E-01  0.51099999109E-03 0.  1.
       11   -1    0    0    0    0 -0.00000000000E+00 -0.00000000000E+00 -0.35740347158E-01  0.35744000000E-01  0.51099999109E-03 0. -1.
       22    1    1    2    0    0 -0.60530147275E-02  0.35573332354E-02 -0.35040547625E-01  0.35737005818E-01  0.00000000000E+00 0. -1.
  9000001    1    1    2    0    0  0.60530147275E-02 -0.35573332354E-02  0.35040547625E-01  0.35750994182E-01  0.10000000475E-02 0.  1.
</event>
<event>
 4   0  0.2441219E-02  0.9118800E+02  0.7818609E-02  0.1379984E+01
      -11   -1    0    0    0    0  0.00000000000E+00  0.00000000000E+00  0.35740347158E-01  0.35744000000E-01  0.51099999109E-03 0. -1.
       11   -1    0    0    0    0 -0.00000000000E+00 -0.00000000000E+00 -0.35740347158E-01  0.35744000000E-01  0.51099999109E-03 0.  1.
       22    1    1    2    0    0 -0.31398982107E-02  0.33660881787E-02  0.35439301270E-01  0.35737005818E-01  0.00000000000E+00 0. -1.
  9000001    1    1    2    0    0  0.31398982107E-02 -0.33660881787E-02 -0.35439301270E-01  0.35750994182E-01  0.10000000475E-02 0.  1.
</event>
<event>
 4   0  0.2441219E-02  0.9118800E+02  0.7818609E-02  0.1379984E+01
      -11   -1    0    0    0    0  0.00000000000E+00  0.00000000000E+00  0.35740347158E-01  0.35744000000E-01  0.51099999109E-03 0.  1.
       11   -1    0    0    0    0 -0.00000000000E+00 -0.00000000000E+00 -0.35740347158E-01  0.35744000000E-01  0.51099999109E-03 0. -1.
       22    1    1    2    0    0 -0.93667495769E-02 -0.60413561499E-03  0.34482352115E-01  0.35737005818E-01  0.00000000000E+00 0.  1.
  9000001    1    1    2    0    0  0.93667495769E-02  0.60413561499E-03 -0.34482352115E-01  0.35750994182E-01  0.10000000475E-02 0. -1.
</event>
<event>
 4   0  0.2441219E-02  0.9118800E+02  0.7818609E-02  0.1379984E+01
      -11   -1    0    0    0    0  0.00000000000E+00  0.00000000000E+00  0.35740347158E-01  0.35744000000E-01  0.51099999109E-03 0.  1.
       11   -1    0    0    0    0 -0.00000000000E+00 -0.00000000000E+00 -0.35740347158E-01  0.35744000000E-01  0.51099999109E-03 0. -1.
       22    1    1    2    0    0  0.34809425547E-02 -0.17337080562E-02 -0.35524792472E-01  0.35737005818E-01  0.00000000000E+00 0. -1.
  9000001    1    1    2    0    0 -0.34809425547E-02  0.17337080562E-02  0.35524792472E-01  0.35750994182E-01  0.10000000475E-02 0.  1.
</event>
<event>
 4   0  0.2441219E-02  0.9118800E+02  0.7818609E-02  0.1379984E+01
      -11   -1    0    0    0    0  0.00000000000E+00  0.00000000000E+00  0.35740347158E-01  0.35744000000E-01  0.51099999109E-03 0.  1.
       11   -1    0    0    0    0 -0.00000000000E+00 -0.00000000000E+00 -0.35740347158E-01  0.35744000000E-01  0.51099999109E-03 0. -1.
       22    1    1    2    0    0 -0.57068328554E-02  0.34832231115E-02  0.35106022281E-01  0.35737005818E-01  0.00000000000E+00 0.  1.
  9000001    1    1    2    0    0  0.57068328554E-02 -0.34832231115E-02 -0.35106022281E-01  0.35750994182E-01  0.10000000475E-02 0. -1.
</event>
<event>
 4   0  0.2441219E-02  0.9118800E+02  0.7818609E-02  0.1379984E+01
      -11   -1    0    0    0    0  0.00000000000E+00  0.00000000000E+00  0.35740347158E-01  0.35744000000E-01  0.51099999109E-03 0.  1.
       11   -1    0    0    0    0 -0.00000000000E+00 -0.00000000000E+00 -0.35740347158E-01  0.35744000000E-01  0.51099999109E-03 0. -1.
       22    1    1    2    0    0 -0.41883903801E-02  0.40550289252E-03 -0.35488400053E-01  0.35737005818E-01  0.00000000000E+00 0. -1.
  9000001    1    1    2    0    0  0.41883903801E-02 -0.40550289252E-03  0.35488400053E-01  0.35750994182E-01  0.10000000475E-02 0.  1.
</event>
<event>
 4   0  0.2441219E-02  0.9118800E+02  0.7818609E-02  0.1379984E+01
      -11   -1    0    0    0    0  0.00000000000E+00  0.00000000000E+00  0.35740347158E-01  0.35744000000E-01  0.51099999109E-03 0.  1.
       11   -1    0    0    0    0 -0.00000000000E+00 -0.00000000000E+00 -0.35740347158E-01  0.35744000000E-01  0.51099999109E-03 0. -1.
       22    1    1    2    0    0 -0.96700300764E-02  0.13397114125E-02 -0.34377743913E-01  0.35737005818E-01  0.00000000000E+00 0. -1.
  9000001    1    1    2    0    0  0.96700300764E-02 -0.13397114125E-02  0.34377743913E-01  0.35750994182E-01  0.10000000475E-02 0.  1.
</event>
<event>
 4   0  0.2441219E-02  0.9118800E+02  0.7818609E-02  0.1379984E+01
      -11   -1    0    0    0    0  0.00000000000E+00  0.00000000000E+00  0.35740347158E-01  0.35744000000E-01  0.51099999109E-03 0.  1.
       11   -1    0    0    0    0 -0.00000000000E+00 -0.00000000000E+00 -0.35740347158E-01  0.35744000000E-01  0.51099999109E-03 0. -1.
       22    1    1    2    0    0 -0.21367196271E-02  0.22013592457E-01 -0.28070799084E-01  0.35737005818E-01  0.00000000000E+00 0. -1.
  9000001    1    1    2    0    0  0.21367196271E-02 -0.22013592457E-01  0.28070799084E-01  0.35750994182E-01  0.10000000475E-02 0.  1.
</event>
<event>
 4   0  0.2441219E-02  0.9118800E+02  0.7818609E-02  0.1379984E+01
      -11   -1    0    0    0    0  0.00000000000E+00  0.00000000000E+00  0.35740347158E-01  0.35744000000E-01  0.51099999109E-03 0. -1.
       11   -1    0    0    0    0 -0.00000000000E+00 -0.00000000000E+00 -0.35740347158E-01  0.35744000000E-01  0.51099999109E-03 0.  1.
       22    1    1    2    0    0  0.79450509589E-02  0.55206861188E-02 -0.34402496638E-01  0.35737005818E-01  0.00000000000E+00 0.  1.
  9000001    1    1    2    0    0 -0.79450509589E-02 -0.55206861188E-02  0.34402496638E-01  0.35750994182E-01  0.10000000475E-02 0. -1.
</event>
<event>
 4   0  0.2441219E-02  0.9118800E+02  0.7818609E-02  0.1379984E+01
      -11   -1    0    0    0    0  0.00000000000E+00  0.00000000000E+00  0.35740347158E-01  0.35744000000E-01  0.51099999109E-03 0.  1.
       11   -1    0    0    0    0 -0.00000000000E+00 -0.00000000000E+00 -0.35740347158E-01  0.35744000000E-01  0.51099999109E-03 0. -1.
       22    1    1    2    0    0 -0.14506998653E-01  0.23723333677E-01 -0.22447360963E-01  0.35737005818E-01  0.00000000000E+00 0. -1.
  9000001    1    1    2    0    0  0.14506998653E-01 -0.23723333677E-01  0.22447360963E-01  0.35750994182E-01  0.10000000475E-02 0.  1.
</event>
<event>
 4   0  0.2441219E-02  0.9118800E+02  0.7818609E-02  0.1379984E+01
      -11   -1    0    0    0    0  0.00000000000E+00  0.00000000000E+00  0.35740347158E-01  0.35744000000E-01  0.51099999109E-03 0.  1.
       11   -1    0    0    0    0 -0.00000000000E+00 -0.00000000000E+00 -0.35740347158E-01  0.35744000000E-01  0.51099999109E-03 0. -1.
       22    1    1    2    0    0 -0.10837129916E-01 -0.14721695532E-02 -0.34022388465E-01  0.35737005818E-01  0.00000000000E+00 0. -1.
  9000001    1    1    2    0    0  0.10837129916E-01  0.14721695532E-02  0.34022388465E-01  0.35750994182E-01  0.10000000475E-02 0.  1.
</event>
<event>
 4   0  0.2441219E-02  0.9118800E+02  0.7818609E-02  0.1379984E+01
      -11   -1    0    0    0    0  0.00000000000E+00  0.00000000000E+00  0.35740347158E-01  0.35744000000E-01  0.51099999109E-03 0. -1.
       11   -1    0    0    0    0 -0.00000000000E+00 -0.00000000000E+00 -0.35740347158E-01  0.35744000000E-01  0.51099999109E-03 0.  1.
       22    1    1    2    0    0 -0.25400641182E-01  0.10301907492E-01 -0.22930584695E-01  0.35737005818E-01  0.00000000000E+00 0.  1.
  9000001    1    1    2    0    0  0.25400641182E-01 -0.10301907492E-01  0.22930584695E-01  0.35750994182E-01  0.10000000475E-02 0. -1.
</event>
<event>
 4   0  0.2441219E-02  0.9118800E+02  0.7818609E-02  0.1379984E+01
      -11   -1    0    0    0    0  0.00000000000E+00  0.00000000000E+00  0.35740347158E-01  0.35744000000E-01  0.51099999109E-03 0.  1.
       11   -1    0    0    0    0 -0.00000000000E+00 -0.00000000000E+00 -0.35740347158E-01  0.35744000000E-01  0.51099999109E-03 0. -1.
       22    1    1    2    0    0 -0.19347430584E-01 -0.24251279024E-01  0.17739390644E-01  0.35737005818E-01  0.00000000000E+00 0.  1.
  9000001    1    1    2    0    0  0.19347430584E-01  0.24251279024E-01 -0.17739390644E-01  0.35750994182E-01  0.10000000475E-02 0. -1.
</event>
<event>
 4   0  0.2441219E-02  0.9118800E+02  0.7818609E-02  0.1379984E+01
      -11   -1    0    0    0    0  0.00000000000E+00  0.00000000000E+00  0.35740347158E-01  0.35744000000E-01  0.51099999109E-03 0.  1.
       11   -1    0    0    0    0 -0.00000000000E+00 -0.00000000000E+00 -0.35740347158E-01  0.35744000000E-01  0.51099999109E-03 0. -1.
       22    1    1    2    0    0  0.10995154598E-01  0.74358704790E-02  0.33180536320E-01  0.35737005818E-01  0.00000000000E+00 0.  1.
  9000001    1    1    2    0    0 -0.10995154598E-01 -0.74358704790E-02 -0.33180536320E-01  0.35750994182E-01  0.10000000475E-02 0. -1.
</event>
<event>
 4   0  0.2441219E-02  0.9118800E+02  0.7818609E-02  0.1379984E+01
      -11   -1    0    0    0    0  0.00000000000E+00  0.00000000000E+00  0.35740347158E-01  0.35744000000E-01  0.51099999109E-03 0. -1.
       11   -1    0    0    0    0 -0.00000000000E+00 -0.00000000000E+00 -0.35740347158E-01  0.35744000000E-01  0.51099999109E-03 0.  1.
       22    1    1    2    0    0 -0.21326719312E-02  0.21790945886E-02  0.35606696590E-01  0.35737005818E-01  0.00000000000E+00 0. -1.
  9000001    1    1    2    0    0  0.21326719312E-02 -0.21790945886E-02 -0.35606696590E-01  0.35750994182E-01  0.10000000475E-02 0.  1.
</event>
<event>
 4   0  0.2441219E-02  0.9118800E+02  0.7818609E-02  0.1379984E+01
      -11   -1    0    0    0    0  0.00000000000E+00  0.00000000000E+00  0.35740347158E-01  0.35744000000E-01  0.51099999109E-03 0. -1.
       11   -1    0    0    0    0 -0.00000000000E+00 -0.00000000000E+00 -0.35740347158E-01  0.35744000000E-01  0.51099999109E-03 0.  1.
       22    1    1    2    0    0  0.67822121185E-02  0.47735291283E-02 -0.34761308999E-01  0.35737005818E-01  0.00000000000E+00 0.  1.
  9000001    1    1    2    0    0 -0.67822121185E-02 -0.47735291283E-02  0.34761308999E-01  0.35750994182E-01  0.10000000475E-02 0. -1.
</event>
<event>
 4   0  0.2441219E-02  0.9118800E+02  0.7818609E-02  0.1379984E+01
      -11   -1    0    0    0    0  0.00000000000E+00  0.00000000000E+00  0.35740347158E-01  0.35744000000E-01  0.51099999109E-03 0.  1.
       11   -1    0    0    0    0 -0.00000000000E+00 -0.00000000000E+00 -0.35740347158E-01  0.35744000000E-01  0.51099999109E-03 0. -1.
       22    1    1    2    0    0  0.70697055422E-02  0.10929132435E-01 -0.33282231185E-01  0.35737005818E-01  0.00000000000E+00 0. -1.
  9000001    1    1    2    0    0 -0.70697055422E-02 -0.10929132435E-01  0.33282231185E-01  0.35750994182E-01  0.10000000475E-02 0.  1.
</event>
<event>
 4   0  0.2441219E-02  0.9118800E+02  0.7818609E-02  0.1379984E+01
      -11   -1    0    0    0    0  0.00000000000E+00  0.00000000000E+00  0.35740347158E-01  0.35744000000E-01  0.51099999109E-03 0. -1.
       11   -1    0    0    0    0 -0.00000000000E+00 -0.00000000000E+00 -0.35740347158E-01  0.35744000000E-01  0.51099999109E-03 0.  1.
       22    1    1    2    0    0  0.19596474244E-02  0.59754130646E-02 -0.35179366190E-01  0.35737005818E-01  0.00000000000E+00 0.  1.
  9000001    1    1    2    0    0 -0.19596474244E-02 -0.59754130646E-02  0.35179366190E-01  0.35750994182E-01  0.10000000475E-02 0. -1.
</event>
<event>
 4   0  0.2441219E-02  0.9118800E+02  0.7818609E-02  0.1379984E+01
      -11   -1    0    0    0    0  0.00000000000E+00  0.00000000000E+00  0.35740347158E-01  0.35744000000E-01  0.51099999109E-03 0. -1.
       11   -1    0    0    0    0 -0.00000000000E+00 -0.00000000000E+00 -0.35740347158E-01  0.35744000000E-01  0.51099999109E-03 0.  1.
       22    1    1    2    0    0 -0.69760377138E-03  0.36603392586E-02 -0.35542212232E-01  0.35737005818E-01  0.00000000000E+00 0.  1.
  9000001    1    1    2    0    0  0.69760377138E-03 -0.36603392586E-02  0.35542212232E-01  0.35750994182E-01  0.10000000475E-02 0. -1.
</event>
<event>
 4   0  0.2441219E-02  0.9118800E+02  0.7818609E-02  0.1379984E+01
      -11   -1    0    0    0    0  0.00000000000E+00  0.00000000000E+00  0.35740347158E-01  0.35744000000E-01  0.51099999109E-03 0. -1.
       11   -1    0    0    0    0 -0.00000000000E+00 -0.00000000000E+00 -0.35740347158E-01  0.35744000000E-01  0.51099999109E-03 0.  1.
       22    1    1    2    0    0 -0.67158276075E-02 -0.21886579898E-01  0.27441006993E-01  0.35737005818E-01  0.00000000000E+00 0. -1.
  9000001    1    1    2    0    0  0.67158276075E-02  0.21886579898E-01 -0.27441006993E-01  0.35750994182E-01  0.10000000475E-02 0.  1.
</event>
<event>
 4   0  0.2441219E-02  0.9118800E+02  0.7818609E-02  0.1379984E+01
      -11   -1    0    0    0    0  0.00000000000E+00  0.00000000000E+00  0.35740347158E-01  0.35744000000E-01  0.51099999109E-03 0.  1.
       11   -1    0    0    0    0 -0.00000000000E+00 -0.00000000000E+00 -0.35740347158E-01  0.35744000000E-01  0.51099999109E-03 0. -1.
       22    1    1    2    0    0  0.11827294926E-01  0.20656133174E-02 -0.33659796809E-01  0.35737005818E-01  0.00000000000E+00 0. -1.
  9000001    1    1    2    0    0 -0.11827294926E-01 -0.20656133174E-02  0.33659796809E-01  0.35750994182E-01  0.10000000475E-02 0.  1.
</event>
<event>
 4   0  0.2441219E-02  0.9118800E+02  0.7818609E-02  0.1379984E+01
      -11   -1    0    0    0    0  0.00000000000E+00  0.00000000000E+00  0.35740347158E-01  0.35744000000E-01  0.51099999109E-03 0.  1.
       11   -1    0    0    0    0 -0.00000000000E+00 -0.00000000000E+00 -0.35740347158E-01  0.35744000000E-01  0.51099999109E-03 0. -1.
       22    1    1    2    0    0  0.44370946808E-02  0.99876870783E-02  0.34024871528E-01  0.35737005818E-01  0.00000000000E+00 0.  1.
  9000001    1    1    2    0    0 -0.44370946808E-02 -0.99876870783E-02 -0.34024871528E-01  0.35750994182E-01  0.10000000475E-02 0. -1.
</event>
<event>
 4   0  0.2441219E-02  0.9118800E+02  0.7818609E-02  0.1379984E+01
      -11   -1    0    0    0    0  0.00000000000E+00  0.00000000000E+00  0.35740347158E-01  0.35744000000E-01  0.51099999109E-03 0.  1.
       11   -1    0    0    0    0 -0.00000000000E+00 -0.00000000000E+00 -0.35740347158E-01  0.35744000000E-01  0.51099999109E-03 0. -1.
       22    1    1    2    0    0  0.95939461805E-03  0.68079713440E-02 -0.35069426471E-01  0.35737005818E-01  0.00000000000E+00 0. -1.
  9000001    1    1    2    0    0 -0.95939461805E-03 -0.68079713440E-02  0.35069426471E-01  0.35750994182E-01  0.10000000475E-02 0.  1.
</event>
<event>
 4   0  0.2441219E-02  0.9118800E+02  0.7818609E-02  0.1379984E+01
      -11   -1    0    0    0    0  0.00000000000E+00  0.00000000000E+00  0.35740347158E-01  0.35744000000E-01  0.51099999109E-03 0.  1.
       11   -1    0    0    0    0 -0.00000000000E+00 -0.00000000000E+00 -0.35740347158E-01  0.35744000000E-01  0.51099999109E-03 0. -1.
       22    1    1    2    0    0  0.84395892816E-02 -0.32737916258E-03 -0.34724627291E-01  0.35737005818E-01  0.00000000000E+00 0. -1.
  9000001    1    1    2    0    0 -0.84395892816E-02  0.32737916258E-03  0.34724627291E-01  0.35750994182E-01  0.10000000475E-02 0.  1.
</event>
<event>
 4   0  0.2441219E-02  0.9118800E+02  0.7818609E-02  0.1379984E+01
      -11   -1    0    0    0    0  0.00000000000E+00  0.00000000000E+00  0.35740347158E-01  0.35744000000E-01  0.51099999109E-03 0. -1.
       11   -1    0    0    0    0 -0.00000000000E+00 -0.00000000000E+00 -0.35740347158E-01  0.35744000000E-01  0.51099999109E-03 0. -1.
       22    1    1    2    0    0 -0.40476422664E-02 -0.11241867784E-02  0.35489243174E-01  0.35737005818E-01  0.00000000000E+00 0. -1.
  9000001    1    1    2    0    0  0.40476422664E-02  0.11241867784E-02 -0.35489243174E-01  0.35750994182E-01  0.10000000475E-02 0. -1.
</event>
<event>
 4   0  0.2441219E-02  0.9118800E+02  0.7818609E-02  0.1379984E+01
      -11   -1    0    0    0    0  0.00000000000E+00  0.00000000000E+00  0.35740347158E-01  0.35744000000E-01  0.51099999109E-03 0. -1.
       11   -1    0    0    0    0 -0.00000000000E+00 -0.00000000000E+00 -0.35740347158E-01  0.35744000000E-01  0.51099999109E-03 0.  1.
       22    1    1    2    0    0  0.21695610930E-01  0.13876900517E-01 -0.24776312948E-01  0.35737005818E-01  0.00000000000E+00 0.  1.
  9000001    1    1    2    0    0 -0.21695610930E-01 -0.13876900517E-01  0.24776312948E-01  0.35750994182E-01  0.10000000475E-02 0. -1.
</event>
<event>
 4   0  0.2441219E-02  0.9118800E+02  0.7818609E-02  0.1379984E+01
      -11   -1    0    0    0    0  0.00000000000E+00  0.00000000000E+00  0.35740347158E-01  0.35744000000E-01  0.51099999109E-03 0. -1.
       11   -1    0    0    0    0 -0.00000000000E+00 -0.00000000000E+00 -0.35740347158E-01  0.35744000000E-01  0.51099999109E-03 0.  1.
       22    1    1    2    0    0 -0.13358106554E-01  0.39170136611E-02  0.32914306588E-01  0.35737005818E-01  0.00000000000E+00 0. -1.
  9000001    1    1    2    0    0  0.13358106554E-01 -0.39170136611E-02 -0.32914306588E-01  0.35750994182E-01  0.10000000475E-02 0.  1.
</event>
<event>
 4   0  0.2441219E-02  0.9118800E+02  0.7818609E-02  0.1379984E+01
      -11   -1    0    0    0    0  0.00000000000E+00  0.00000000000E+00  0.35740347158E-01  0.35744000000E-01  0.51099999109E-03 0. -1.
       11   -1    0    0    0    0 -0.00000000000E+00 -0.00000000000E+00 -0.35740347158E-01  0.35744000000E-01  0.51099999109E-03 0.  1.
       22    1    1    2    0    0 -0.31704563353E-01  0.12059421111E-02  0.16446882716E-01  0.35737005818E-01  0.00000000000E+00 0. -1.
  9000001    1    1    2    0    0  0.31704563353E-01 -0.12059421111E-02 -0.16446882716E-01  0.35750994182E-01  0.10000000475E-02 0.  1.
</event>
<event>
 4   0  0.2441219E-02  0.9118800E+02  0.7818609E-02  0.1379984E+01
      -11   -1    0    0    0    0  0.00000000000E+00  0.00000000000E+00  0.35740347158E-01  0.35744000000E-01  0.51099999109E-03 0.  1.
       11   -1    0    0    0    0 -0.00000000000E+00 -0.00000000000E+00 -0.35740347158E-01  0.35744000000E-01  0.51099999109E-03 0. -1.
       22    1    1    2    0    0 -0.78121062975E-02 -0.95615237740E-02  0.33536276525E-01  0.35737005818E-01  0.00000000000E+00 0.  1.
  9000001    1    1    2    0    0  0.78121062975E-02  0.95615237740E-02 -0.33536276525E-01  0.35750994182E-01  0.10000000475E-02 0. -1.
</event>
<event>
 4   0  0.2441219E-02  0.9118800E+02  0.7818609E-02  0.1379984E+01
      -11   -1    0    0    0    0  0.00000000000E+00  0.00000000000E+00  0.35740347158E-01  0.35744000000E-01  0.51099999109E-03 0.  1.
       11   -1    0    0    0    0 -0.00000000000E+00 -0.00000000000E+00 -0.35740347158E-01  0.35744000000E-01  0.51099999109E-03 0. -1.
       22    1    1    2    0    0 -0.31084721241E-01 -0.16838213323E-01  0.52295566079E-02  0.35737005818E-01  0.00000000000E+00 0. -1.
  9000001    1    1    2    0    0  0.31084721241E-01  0.16838213323E-01 -0.52295566079E-02  0.35750994182E-01  0.10000000475E-02 0.  1.
</event>
<event>
 4   0  0.2441219E-02  0.9118800E+02  0.7818609E-02  0.1379984E+01
      -11   -1    0    0    0    0  0.00000000000E+00  0.00000000000E+00  0.35740347158E-01  0.35744000000E-01  0.51099999109E-03 0. -1.
       11   -1    0    0    0    0 -0.00000000000E+00 -0.00000000000E+00 -0.35740347158E-01  0.35744000000E-01  0.51099999109E-03 0.  1.
       22    1    1    2    0    0 -0.12952651574E-01  0.24535194049E-01 -0.22525244839E-01  0.35737005818E-01  0.00000000000E+00 0. -1.
  9000001    1    1    2    0    0  0.12952651574E-01 -0.24535194049E-01  0.22525244839E-01  0.35750994182E-01  0.10000000475E-02 0.  1.
</event>
<event>
 4   0  0.2441219E-02  0.9118800E+02  0.7818609E-02  0.1379984E+01
      -11   -1    0    0    0    0  0.00000000000E+00  0.00000000000E+00  0.35740347158E-01  0.35744000000E-01  0.51099999109E-03 0.  1.
       11   -1    0    0    0    0 -0.00000000000E+00 -0.00000000000E+00 -0.35740347158E-01  0.35744000000E-01  0.51099999109E-03 0. -1.
       22    1    1    2    0    0 -0.31385481334E-01 -0.16725675645E-01 -0.35123952651E-02  0.35737005818E-01  0.00000000000E+00 0. -1.
  9000001    1    1    2    0    0  0.31385481334E-01  0.16725675645E-01  0.35123952651E-02  0.35750994182E-01  0.10000000475E-02 0.  1.
</event>
<event>
 4   0  0.2441219E-02  0.9118800E+02  0.7818609E-02  0.1379984E+01
      -11   -1    0    0    0    0  0.00000000000E+00  0.00000000000E+00  0.35740347158E-01  0.35744000000E-01  0.51099999109E-03 0. -1.
       11   -1    0    0    0    0 -0.00000000000E+00 -0.00000000000E+00 -0.35740347158E-01  0.35744000000E-01  0.51099999109E-03 0.  1.
       22    1    1    2    0    0  0.32188696348E-02 -0.14102078522E-02  0.35563798686E-01  0.35737005818E-01  0.00000000000E+00 0. -1.
  9000001    1    1    2    0    0 -0.32188696348E-02  0.14102078522E-02 -0.35563798686E-01  0.35750994182E-01  0.10000000475E-02 0.  1.
</event>
<event>
 4   0  0.2441219E-02  0.9118800E+02  0.7818609E-02  0.1379984E+01
      -11   -1    0    0    0    0  0.00000000000E+00  0.00000000000E+00  0.35740347158E-01  0.35744000000E-01  0.51099999109E-03 0.  1.
       11   -1    0    0    0    0 -0.00000000000E+00 -0.00000000000E+00 -0.35740347158E-01  0.35744000000E-01  0.51099999109E-03 0. -1.
       22    1    1    2    0    0 -0.76193840292E-02 -0.11890821872E-01  0.32828142303E-01  0.35737005818E-01  0.00000000000E+00 0.  1.
  9000001    1    1    2    0    0  0.76193840292E-02  0.11890821872E-01 -0.32828142303E-01  0.35750994182E-01  0.10000000475E-02 0. -1.
</event>
<event>
 4   0  0.2441219E-02  0.9118800E+02  0.7818609E-02  0.1379984E+01
      -11   -1    0    0    0    0  0.00000000000E+00  0.00000000000E+00  0.35740347158E-01  0.35744000000E-01  0.51099999109E-03 0.  1.
       11   -1    0    0    0    0 -0.00000000000E+00 -0.00000000000E+00 -0.35740347158E-01  0.35744000000E-01  0.51099999109E-03 0. -1.
       22    1    1    2    0    0  0.18834300719E-01  0.10912347957E-01 -0.28342959679E-01  0.35737005818E-01  0.00000000000E+00 0. -1.
  9000001    1    1    2    0    0 -0.18834300719E-01 -0.10912347957E-01  0.28342959679E-01  0.35750994182E-01  0.10000000475E-02 0.  1.
</event>
<event>
 4   0  0.2441219E-02  0.9118800E+02  0.7818609E-02  0.1379984E+01
      -11   -1    0    0    0    0  0.00000000000E+00  0.00000000000E+00  0.35740347158E-01  0.35744000000E-01  0.51099999109E-03 0.  1.
       11   -1    0    0    0    0 -0.00000000000E+00 -0.00000000000E+00 -0.35740347158E-01  0.35744000000E-01  0.51099999109E-03 0. -1.
       22    1    1    2    0    0  0.64156666255E-02  0.54854037210E-02 -0.34725828322E-01  0.35737005818E-01  0.00000000000E+00 0. -1.
  9000001    1    1    2    0    0 -0.64156666255E-02 -0.54854037210E-02  0.34725828322E-01  0.35750994182E-01  0.10000000475E-02 0.  1.
</event>
<event>
 4   0  0.2441219E-02  0.9118800E+02  0.7818609E-02  0.1379984E+01
      -11   -1    0    0    0    0  0.00000000000E+00  0.00000000000E+00  0.35740347158E-01  0.35744000000E-01  0.51099999109E-03 0.  1.
       11   -1    0    0    0    0 -0.00000000000E+00 -0.00000000000E+00 -0.35740347158E-01  0.35744000000E-01  0.51099999109E-03 0. -1.
       22    1    1    2    0    0  0.29925070183E-01  0.81313603513E-02  0.17762453048E-01  0.35737005818E-01  0.00000000000E+00 0.  1.
  9000001    1    1    2    0    0 -0.29925070183E-01 -0.81313603513E-02 -0.17762453048E-01  0.35750994182E-01  0.10000000475E-02 0. -1.
</event>
<event>
 4   0  0.2441219E-02  0.9118800E+02  0.7818609E-02  0.1379984E+01
      -11   -1    0    0    0    0  0.00000000000E+00  0.00000000000E+00  0.35740347158E-01  0.35744000000E-01  0.51099999109E-03 0.  1.
       11   -1    0    0    0    0 -0.00000000000E+00 -0.00000000000E+00 -0.35740347158E-01  0.35744000000E-01  0.51099999109E-03 0. -1.
       22    1    1    2    0    0 -0.21548142826E-01 -0.14741489077E-02  0.28471705439E-01  0.35737005818E-01  0.00000000000E+00 0.  1.
  9000001    1    1    2    0    0  0.21548142826E-01  0.14741489077E-02 -0.28471705439E-01  0.35750994182E-01  0.10000000475E-02 0. -1.
</event>
<event>
 4   0  0.2441219E-02  0.9118800E+02  0.7818609E-02  0.1379984E+01
      -11   -1    0    0    0    0  0.00000000000E+00  0.00000000000E+00  0.35740347158E-01  0.35744000000E-01  0.51099999109E-03 0. -1.
       11   -1    0    0    0    0 -0.00000000000E+00 -0.00000000000E+00 -0.35740347158E-01  0.35744000000E-01  0.51099999109E-03 0.  1.
       22    1    1    2    0    0 -0.80091515603E-02 -0.16084966564E-01  0.30891114042E-01  0.35737005818E-01  0.00000000000E+00 0. -1.
  9000001    1    1    2    0    0  0.80091515603E-02  0.16084966564E-01 -0.30891114042E-01  0.35750994182E-01  0.10000000475E-02 0.  1.
</event>
<event>
 4   0  0.2441219E-02  0.9118800E+02  0.7818609E-02  0.1379984E+01
      -11   -1    0    0    0    0  0.00000000000E+00  0.00000000000E+00  0.35740347158E-01  0.35744000000E-01  0.51099999109E-03 0.  1.
       11   -1    0    0    0    0 -0.00000000000E+00 -0.00000000000E+00 -0.35740347158E-01  0.35744000000E-01  0.51099999109E-03 0. -1.
       22    1    1    2    0    0  0.16137947714E-01  0.31077222699E-01  0.71348761553E-02  0.35737005818E-01  0.00000000000E+00 0.  1.
  9000001    1    1    2    0    0 -0.16137947714E-01 -0.31077222699E-01 -0.71348761553E-02  0.35750994182E-01  0.10000000475E-02 0. -1.
</event>
<event>
 4   0  0.2441219E-02  0.9118800E+02  0.7818609E-02  0.1379984E+01
      -11   -1    0    0    0    0  0.00000000000E+00  0.00000000000E+00  0.35740347158E-01  0.35744000000E-01  0.51099999109E-03 0.  1.
       11   -1    0    0    0    0 -0.00000000000E+00 -0.00000000000E+00 -0.35740347158E-01  0.35744000000E-01  0.51099999109E-03 0. -1.
       22    1    1    2    0    0  0.63360162104E-02  0.13561415349E-01 -0.32451140152E-01  0.35737005818E-01  0.00000000000E+00 0. -1.
  9000001    1    1    2    0    0 -0.63360162104E-02 -0.13561415349E-01  0.32451140152E-01  0.35750994182E-01  0.10000000475E-02 0.  1.
</event>
<event>
 4   0  0.2441219E-02  0.9118800E+02  0.7818609E-02  0.1379984E+01
      -11   -1    0    0    0    0  0.00000000000E+00  0.00000000000E+00  0.35740347158E-01  0.35744000000E-01  0.51099999109E-03 0.  1.
       11   -1    0    0    0    0 -0.00000000000E+00 -0.00000000000E+00 -0.35740347158E-01  0.35744000000E-01  0.51099999109E-03 0.  1.
       22    1    1    2    0    0 -0.77936675776E-03  0.41872114111E-02  0.35482297458E-01  0.35737005818E-01  0.00000000000E+00 0.  1.
  9000001    1    1    2    0    0  0.77936675776E-03 -0.41872114111E-02 -0.35482297458E-01  0.35750994182E-01  0.10000000475E-02 0.  1.
</event>
<event>
 4   0  0.2441219E-02  0.9118800E+02  0.7818609E-02  0.1379984E+01
      -11   -1    0    0    0    0  0.00000000000E+00  0.00000000000E+00  0.35740347158E-01  0.35744000000E-01  0.51099999109E-03 0.  1.
       11   -1    0    0    0    0 -0.00000000000E+00 -0.00000000000E+00 -0.35740347158E-01  0.35744000000E-01  0.51099999109E-03 0. -1.
       22    1    1    2    0    0 -0.98520027351E-02 -0.34288028668E-01 -0.20982652417E-02  0.35737005818E-01  0.00000000000E+00 0.  1.
  9000001    1    1    2    0    0  0.98520027351E-02  0.34288028668E-01  0.20982652417E-02  0.35750994182E-01  0.10000000475E-02 0. -1.
</event>
<event>
 4   0  0.2441219E-02  0.9118800E+02  0.7818609E-02  0.1379984E+01
      -11   -1    0    0    0    0  0.00000000000E+00  0.00000000000E+00  0.35740347158E-01  0.35744000000E-01  0.51099999109E-03 0. -1.
       11   -1    0    0    0    0 -0.00000000000E+00 -0.00000000000E+00 -0.35740347158E-01  0.35744000000E-01  0.51099999109E-03 0.  1.
       22    1    1    2    0    0 -0.83383061557E-02  0.27140491124E-01  0.21702533881E-01  0.35737005818E-01  0.00000000000E+00 0.  1.
  9000001    1    1    2    0    0  0.83383061557E-02 -0.27140491124E-01 -0.21702533881E-01  0.35750994182E-01  0.10000000475E-02 0. -1.
</event>
<event>
 4   0  0.2441219E-02  0.9118800E+02  0.7818609E-02  0.1379984E+01
      -11   -1    0    0    0    0  0.00000000000E+00  0.00000000000E+00  0.35740347158E-01  0.35744000000E-01  0.51099999109E-03 0.  1.
       11   -1    0    0    0    0 -0.00000000000E+00 -0.00000000000E+00 -0.35740347158E-01  0.35744000000E-01  0.51099999109E-03 0. -1.
       22    1    1    2    0    0 -0.19568379687E-02  0.37223163336E-02  0.35488712729E-01  0.35737005818E-01  0.00000000000E+00 0.  1.
  9000001    1    1    2    0    0  0.19568379687E-02 -0.37223163336E-02 -0.35488712729E-01  0.35750994182E-01  0.10000000475E-02 0. -1.
</event>
<event>
 4   0  0.2441219E-02  0.9118800E+02  0.7818609E-02  0.1379984E+01
      -11   -1    0    0    0    0  0.00000000000E+00  0.00000000000E+00  0.35740347158E-01  0.35744000000E-01  0.51099999109E-03 0. -1.
       11   -1    0    0    0    0 -0.00000000000E+00 -0.00000000000E+00 -0.35740347158E-01  0.35744000000E-01  0.51099999109E-03 0.  1.
       22    1    1    2    0    0 -0.16240422265E-01  0.43832438839E-02  0.31530452623E-01  0.35737005818E-01  0.00000000000E+00 0. -1.
  9000001    1    1    2    0    0  0.16240422265E-01 -0.43832438839E-02 -0.31530452623E-01  0.35750994182E-01  0.10000000475E-02 0.  1.
</event>
<event>
 4   0  0.2441219E-02  0.9118800E+02  0.7818609E-02  0.1379984E+01
      -11   -1    0    0    0    0  0.00000000000E+00  0.00000000000E+00  0.35740347158E-01  0.35744000000E-01  0.51099999109E-03 0.  1.
       11   -1    0    0    0    0 -0.00000000000E+00 -0.00000000000E+00 -0.35740347158E-01  0.35744000000E-01  0.51099999109E-03 0. -1.
       22    1    1    2    0    0 -0.60700048479E-02  0.16378522775E-01  0.31177437639E-01  0.35737005818E-01  0.00000000000E+00 0.  1.
  9000001    1    1    2    0    0  0.60700048479E-02 -0.16378522775E-01 -0.31177437639E-01  0.35750994182E-01  0.10000000475E-02 0. -1.
</event>
<event>
 4   0  0.2441219E-02  0.9118800E+02  0.7818609E-02  0.1379984E+01
      -11   -1    0    0    0    0  0.00000000000E+00  0.00000000000E+00  0.35740347158E-01  0.35744000000E-01  0.51099999109E-03 0. -1.
       11   -1    0    0    0    0 -0.00000000000E+00 -0.00000000000E+00 -0.35740347158E-01  0.35744000000E-01  0.51099999109E-03 0.  1.
       22    1    1    2    0    0 -0.27255584942E-02 -0.61861107600E-02 -0.35091835937E-01  0.35737005818E-01  0.00000000000E+00 0.  1.
  9000001    1    1    2    0    0  0.27255584942E-02  0.61861107600E-02  0.35091835937E-01  0.35750994182E-01  0.10000000475E-02 0. -1.
</event>
<event>
 4   0  0.2441219E-02  0.9118800E+02  0.7818609E-02  0.1379984E+01
      -11   -1    0    0    0    0  0.00000000000E+00  0.00000000000E+00  0.35740347158E-01  0.35744000000E-01  0.51099999109E-03 0.  1.
       11   -1    0    0    0    0 -0.00000000000E+00 -0.00000000000E+00 -0.35740347158E-01  0.35744000000E-01  0.51099999109E-03 0. -1.
       22    1    1    2    0    0 -0.16245573113E-01  0.15732201922E-02  0.31792136093E-01  0.35737005818E-01  0.00000000000E+00 0.  1.
  9000001    1    1    2    0    0  0.16245573113E-01 -0.15732201922E-02 -0.31792136093E-01  0.35750994182E-01  0.10000000475E-02 0. -1.
</event>
<event>
 4   0  0.2441219E-02  0.9118800E+02  0.7818609E-02  0.1379984E+01
      -11   -1    0    0    0    0  0.00000000000E+00  0.00000000000E+00  0.35740347158E-01  0.35744000000E-01  0.51099999109E-03 0. -1.
       11   -1    0    0    0    0 -0.00000000000E+00 -0.00000000000E+00 -0.35740347158E-01  0.35744000000E-01  0.51099999109E-03 0.  1.
       22    1    1    2    0    0  0.14713291395E-01  0.10767847326E-02 -0.32549856772E-01  0.35737005818E-01  0.00000000000E+00 0.  1.
  9000001    1    1    2    0    0 -0.14713291395E-01 -0.10767847326E-02  0.32549856772E-01  0.35750994182E-01  0.10000000475E-02 0. -1.
</event>
<event>
 4   0  0.2441219E-02  0.9118800E+02  0.7818609E-02  0.1379984E+01
      -11   -1    0    0    0    0  0.00000000000E+00  0.00000000000E+00  0.35740347158E-01  0.35744000000E-01  0.51099999109E-03 0.  1.
       11   -1    0    0    0    0 -0.00000000000E+00 -0.00000000000E+00 -0.35740347158E-01  0.35744000000E-01  0.51099999109E-03 0. -1.
       22    1    1    2    0    0  0.10054550973E-02  0.42254302500E-02  0.35472078937E-01  0.35737005818E-01  0.00000000000E+00 0.  1.
  9000001    1    1    2    0    0 -0.10054550973E-02 -0.42254302500E-02 -0.35472078937E-01  0.35750994182E-01  0.10000000475E-02 0. -1.
</event>
<event>
 4   0  0.2441219E-02  0.9118800E+02  0.7818609E-02  0.1379984E+01
      -11   -1    0    0    0    0  0.00000000000E+00  0.00000000000E+00  0.35740347158E-01  0.35744000000E-01  0.51099999109E-03 0.  1.
       11   -1    0    0    0    0 -0.00000000000E+00 -0.00000000000E+00 -0.35740347158E-01  0.35744000000E-01  0.51099999109E-03 0. -1.
       22    1    1    2    0    0  0.13469279184E-01 -0.26265885395E-02  0.32997168602E-01  0.35737005818E-01  0.00000000000E+00 0.  1.
  9000001    1    1    2    0    0 -0.13469279184E-01  0.26265885395E-02 -0.32997168602E-01  0.35750994182E-01  0.10000000475E-02 0. -1.
</event>
<event>
 4   0  0.2441219E-02  0.9118800E+02  0.7818609E-02  0.1379984E+01
      -11   -1    0    0    0    0  0.00000000000E+00  0.00000000000E+00  0.35740347158E-01  0.35744000000E-01  0.51099999109E-03 0.  1.
       11   -1    0    0    0    0 -0.00000000000E+00 -0.00000000000E+00 -0.35740347158E-01  0.35744000000E-01  0.51099999109E-03 0. -1.
       22    1    1    2    0    0  0.23660539203E-01  0.51174741338E-03  0.26777800210E-01  0.35737005818E-01  0.00000000000E+00 0.  1.
  9000001    1    1    2    0    0 -0.23660539203E-01 -0.51174741338E-03 -0.26777800210E-01  0.35750994182E-01  0.10000000475E-02 0. -1.
</event>
<event>
 4   0  0.2441219E-02  0.9118800E+02  0.7818609E-02  0.1379984E+01
      -11   -1    0    0    0    0  0.00000000000E+00  0.00000000000E+00  0.35740347158E-01  0.35744000000E-01  0.51099999109E-03 0. -1.
       11   -1    0    0    0    0 -0.00000000000E+00 -0.00000000000E+00 -0.35740347158E-01  0.35744000000E-01  0.51099999109E-03 0.  1.
       22    1    1    2    0    0 -0.15610129910E-02  0.43396128222E-02  0.35438179748E-01  0.35737005818E-01  0.00000000000E+00 0. -1.
  9000001    1    1    2    0    0  0.15610129910E-02 -0.43396128222E-02 -0.35438179748E-01  0.35750994182E-01  0.10000000475E-02 0.  1.
</event>
<event>
 4   0  0.2441219E-02  0.9118800E+02  0.7818609E-02  0.1379984E+01
      -11   -1    0    0    0    0  0.00000000000E+00  0.00000000000E+00  0.35740347158E-01  0.35744000000E-01  0.51099999109E-03 0. -1.
       11   -1    0    0    0    0 -0.00000000000E+00 -0.00000000000E+00 -0.35740347158E-01  0.35744000000E-01  0.51099999109E-03 0.  1.
       22    1    1    2    0    0 -0.24912763976E-01 -0.77501153350E-02  0.24421783068E-01  0.35737005818E-01  0.00000000000E+00 0. -1.
  9000001    1    1    2    0    0  0.24912763976E-01  0.77501153350E-02 -0.24421783068E-01  0.35750994182E-01  0.10000000475E-02 0.  1.
</event>
<event>
 4   0  0.2441219E-02  0.9118800E+02  0.7818609E-02  0.1379984E+01
      -11   -1    0    0    0    0  0.00000000000E+00  0.00000000000E+00  0.35740347158E-01  0.35744000000E-01  0.51099999109E-03 0. -1.
       11   -1    0    0    0    0 -0.00000000000E+00 -0.00000000000E+00 -0.35740347158E-01  0.35744000000E-01  0.51099999109E-03 0.  1.
       22    1    1    2    0    0 -0.12649018753E-01 -0.32891701267E-02  0.33261347978E-01  0.35737005818E-01  0.00000000000E+00 0. -1.
  9000001    1    1    2    0    0  0.12649018753E-01  0.32891701267E-02 -0.33261347978E-01  0.35750994182E-01  0.10000000475E-02 0.  1.
</event>
<event>
 4   0  0.2441219E-02  0.9118800E+02  0.7818609E-02  0.1379984E+01
      -11   -1    0    0    0    0  0.00000000000E+00  0.00000000000E+00  0.35740347158E-01  0.35744000000E-01  0.51099999109E-03 0. -1.
       11   -1    0    0    0    0 -0.00000000000E+00 -0.00000000000E+00 -0.35740347158E-01  0.35744000000E-01  0.51099999109E-03 0.  1.
       22    1    1    2    0    0  0.65447555304E-02  0.11493733960E-01 -0.33199304806E-01  0.35737005818E-01  0.00000000000E+00 0.  1.
  9000001    1    1    2    0    0 -0.65447555304E-02 -0.11493733960E-01  0.33199304806E-01  0.35750994182E-01  0.10000000475E-02 0. -1.
</event>
<event>
 4   0  0.2441219E-02  0.9118800E+02  0.7818609E-02  0.1379984E+01
      -11   -1    0    0    0    0  0.00000000000E+00  0.00000000000E+00  0.35740347158E-01  0.35744000000E-01  0.51099999109E-03 0.  1.
       11   -1    0    0    0    0 -0.00000000000E+00 -0.00000000000E+00 -0.35740347158E-01  0.35744000000E-01  0.51099999109E-03 0. -1.
       22    1    1    2    0    0  0.44262011509E-03  0.25971495560E-01  0.24544227237E-01  0.35737005818E-01  0.00000000000E+00 0.  1.
  9000001    1    1    2    0    0 -0.44262011509E-03 -0.25971495560E-01 -0.24544227237E-01  0.35750994182E-01  0.10000000475E-02 0. -1.
</event>
<event>
 4   0  0.2441219E-02  0.9118800E+02  0.7818609E-02  0.1379984E+01
      -11   -1    0    0    0    0  0.00000000000E+00  0.00000000000E+00  0.35740347158E-01  0.35744000000E-01  0.51099999109E-03 0.  1.
       11   -1    0    0    0    0 -0.00000000000E+00 -0.00000000000E+00 -0.35740347158E-01  0.35744000000E-01  0.51099999109E-03 0. -1.
       22    1    1    2    0    0 -0.53366019880E-02  0.32734455201E-03  0.35334786113E-01  0.35737005818E-01  0.00000000000E+00 0.  1.
  9000001    1    1    2    0    0  0.53366019880E-02 -0.32734455201E-03 -0.35334786113E-01  0.35750994182E-01  0.10000000475E-02 0. -1.
</event>
<event>
 4   0  0.2441219E-02  0.9118800E+02  0.7818609E-02  0.1379984E+01
      -11   -1    0    0    0    0  0.00000000000E+00  0.00000000000E+00  0.35740347158E-01  0.35744000000E-01  0.51099999109E-03 0.  1.
       11   -1    0    0    0    0 -0.00000000000E+00 -0.00000000000E+00 -0.35740347158E-01  0.35744000000E-01  0.51099999109E-03 0. -1.
       22    1    1    2    0    0 -0.12101574713E-01  0.66470074166E-02 -0.32962141416E-01  0.35737005818E-01  0.00000000000E+00 0. -1.
  9000001    1    1    2    0    0  0.12101574713E-01 -0.66470074166E-02  0.32962141416E-01  0.35750994182E-01  0.10000000475E-02 0.  1.
</event>
<event>
 4   0  0.2441219E-02  0.9118800E+02  0.7818609E-02  0.1379984E+01
      -11   -1    0    0    0    0  0.00000000000E+00  0.00000000000E+00  0.35740347158E-01  0.35744000000E-01  0.51099999109E-03 0.  1.
       11   -1    0    0    0    0 -0.00000000000E+00 -0.00000000000E+00 -0.35740347158E-01  0.35744000000E-01  0.51099999109E-03 0. -1.
       22    1    1    2    0    0  0.14683979408E-01  0.25548134738E-01 -0.20218979821E-01  0.35737005818E-01  0.00000000000E+00 0. -1.
  9000001    1    1    2    0    0 -0.14683979408E-01 -0.25548134738E-01  0.20218979821E-01  0.35750994182E-01  0.10000000475E-02 0.  1.
</event>
<event>
 4   0  0.2441219E-02  0.9118800E+02  0.7818609E-02  0.1379984E+01
      -11   -1    0    0    0    0  0.00000000000E+00  0.00000000000E+00  0.35740347158E-01  0.35744000000E-01  0.51099999109E-03 0. -1.
       11   -1    0    0    0    0 -0.00000000000E+00 -0.00000000000E+00 -0.35740347158E-01  0.35744000000E-01  0.51099999109E-03 0.  1.
       22    1    1    2    0    0 -0.33087955653E-01 -0.92344234536E-02 -0.98512029250E-02  0.35737005818E-01  0.00000000000E+00 0.  1.
  9000001    1    1    2    0    0  0.33087955653E-01  0.92344234536E-02  0.98512029250E-02  0.35750994182E-01  0.10000000475E-02 0. -1.
</event>
<event>
 4   0  0.2441219E-02  0.9118800E+02  0.7818609E-02  0.1379984E+01
      -11   -1    0    0    0    0  0.00000000000E+00  0.00000000000E+00  0.35740347158E-01  0.35744000000E-01  0.51099999109E-03 0. -1.
       11   -1    0    0    0    0 -0.00000000000E+00 -0.00000000000E+00 -0.35740347158E-01  0.35744000000E-01  0.51099999109E-03 0.  1.
       22    1    1    2    0    0  0.43268296148E-03  0.34145002409E-02  0.35570880765E-01  0.35737005818E-01  0.00000000000E+00 0. -1.
  9000001    1    1    2    0    0 -0.43268296148E-03 -0.34145002409E-02 -0.35570880765E-01  0.35750994182E-01  0.10000000475E-02 0.  1.
</event>
<event>
 4   0  0.2441219E-02  0.9118800E+02  0.7818609E-02  0.1379984E+01
      -11   -1    0    0    0    0  0.00000000000E+00  0.00000000000E+00  0.35740347158E-01  0.35744000000E-01  0.51099999109E-03 0.  1.
       11   -1    0    0    0    0 -0.00000000000E+00 -0.00000000000E+00 -0.35740347158E-01  0.35744000000E-01  0.51099999109E-03 0. -1.
       22    1    1    2    0    0  0.73326568010E-02 -0.10027146758E-02 -0.34962269554E-01  0.35737005818E-01  0.00000000000E+00 0. -1.
  9000001    1    1    2    0    0 -0.73326568010E-02  0.10027146758E-02  0.34962269554E-01  0.35750994182E-01  0.10000000475E-02 0.  1.
</event>
<event>
 4   0  0.2441219E-02  0.9118800E+02  0.7818609E-02  0.1379984E+01
      -11   -1    0    0    0    0  0.00000000000E+00  0.00000000000E+00  0.35740347158E-01  0.35744000000E-01  0.51099999109E-03 0.  1.
       11   -1    0    0    0    0 -0.00000000000E+00 -0.00000000000E+00 -0.35740347158E-01  0.35744000000E-01  0.51099999109E-03 0. -1.
       22    1    1    2    0    0 -0.63779620475E-02 -0.11341544666E-02 -0.35144969464E-01  0.35737005818E-01  0.00000000000E+00 0. -1.
  9000001    1    1    2    0    0  0.63779620475E-02  0.11341544666E-02  0.35144969464E-01  0.35750994182E-01  0.10000000475E-02 0.  1.
</event>
<event>
 4   0  0.2441219E-02  0.9118800E+02  0.7818609E-02  0.1379984E+01
      -11   -1    0    0    0    0  0.00000000000E+00  0.00000000000E+00  0.35740347158E-01  0.35744000000E-01  0.51099999109E-03 0. -1.
       11   -1    0    0    0    0 -0.00000000000E+00 -0.00000000000E+00 -0.35740347158E-01  0.35744000000E-01  0.51099999109E-03 0.  1.
       22    1    1    2    0    0  0.73758087045E-02 -0.82192375439E-04 -0.34967474533E-01  0.35737005818E-01  0.00000000000E+00 0.  1.
  9000001    1    1    2    0    0 -0.73758087045E-02  0.82192375439E-04  0.34967474533E-01  0.35750994182E-01  0.10000000475E-02 0. -1.
</event>
<event>
 4   0  0.2441219E-02  0.9118800E+02  0.7818609E-02  0.1379984E+01
      -11   -1    0    0    0    0  0.00000000000E+00  0.00000000000E+00  0.35740347158E-01  0.35744000000E-01  0.51099999109E-03 0.  1.
       11   -1    0    0    0    0 -0.00000000000E+00 -0.00000000000E+00 -0.35740347158E-01  0.35744000000E-01  0.51099999109E-03 0. -1.
       22    1    1    2    0    0  0.69181244566E-02 -0.72540926103E-02 -0.34302350929E-01  0.35737005818E-01  0.00000000000E+00 0. -1.
  9000001    1    1    2    0    0 -0.69181244566E-02  0.72540926103E-02  0.34302350929E-01  0.35750994182E-01  0.10000000475E-02 0.  1.
</event>
<event>
 4   0  0.2441219E-02  0.9118800E+02  0.7818609E-02  0.1379984E+01
      -11   -1    0    0    0    0  0.00000000000E+00  0.00000000000E+00  0.35740347158E-01  0.35744000000E-01  0.51099999109E-03 0. -1.
       11   -1    0    0    0    0 -0.00000000000E+00 -0.00000000000E+00 -0.35740347158E-01  0.35744000000E-01  0.51099999109E-03 0.  1.
       22    1    1    2    0    0  0.25177278621E-01  0.12189400012E-01  0.22240880232E-01  0.35737005818E-01  0.00000000000E+00 0. -1.
  9000001    1    1    2    0    0 -0.25177278621E-01 -0.12189400012E-01 -0.22240880232E-01  0.35750994182E-01  0.10000000475E-02 0.  1.
</event>
<event>
 4   0  0.2441219E-02  0.9118800E+02  0.7818609E-02  0.1379984E+01
      -11   -1    0    0    0    0  0.00000000000E+00  0.00000000000E+00  0.35740347158E-01  0.35744000000E-01  0.51099999109E-03 0.  1.
       11   -1    0    0    0    0 -0.00000000000E+00 -0.00000000000E+00 -0.35740347158E-01  0.35744000000E-01  0.51099999109E-03 0. -1.
       22    1    1    2    0    0 -0.23863337542E-02  0.49480366946E-02  0.35312263153E-01  0.35737005818E-01  0.00000000000E+00 0.  1.
  9000001    1    1    2    0    0  0.23863337542E-02 -0.49480366946E-02 -0.35312263153E-01  0.35750994182E-01  0.10000000475E-02 0. -1.
</event>
<event>
 4   0  0.2441219E-02  0.9118800E+02  0.7818609E-02  0.1379984E+01
      -11   -1    0    0    0    0  0.00000000000E+00  0.00000000000E+00  0.35740347158E-01  0.35744000000E-01  0.51099999109E-03 0.  1.
       11   -1    0    0    0    0 -0.00000000000E+00 -0.00000000000E+00 -0.35740347158E-01  0.35744000000E-01  0.51099999109E-03 0. -1.
       22    1    1    2    0    0  0.11582897905E-01 -0.11601299390E-01 -0.31754998244E-01  0.35737005818E-01  0.00000000000E+00 0. -1.
  9000001    1    1    2    0    0 -0.11582897905E-01  0.11601299390E-01  0.31754998244E-01  0.35750994182E-01  0.10000000475E-02 0.  1.
</event>
<event>
 4   0  0.2441219E-02  0.9118800E+02  0.7818609E-02  0.1379984E+01
      -11   -1    0    0    0    0  0.00000000000E+00  0.00000000000E+00  0.35740347158E-01  0.35744000000E-01  0.51099999109E-03 0.  1.
       11   -1    0    0    0    0 -0.00000000000E+00 -0.00000000000E+00 -0.35740347158E-01  0.35744000000E-01  0.51099999109E-03 0. -1.
       22    1    1    2    0    0 -0.16366109098E-02 -0.86705626106E-02  0.34630570795E-01  0.35737005818E-01  0.00000000000E+00 0.  1.
  9000001    1    1    2    0    0  0.16366109098E-02  0.86705626106E-02 -0.34630570795E-01  0.35750994182E-01  0.10000000475E-02 0. -1.
</event>
<event>
 4   0  0.2441219E-02  0.9118800E+02  0.7818609E-02  0.1379984E+01
      -11   -1    0    0    0    0  0.00000000000E+00  0.00000000000E+00  0.35740347158E-01  0.35744000000E-01  0.51099999109E-03 0. -1.
       11   -1    0    0    0    0 -0.00000000000E+00 -0.00000000000E+00 -0.35740347158E-01  0.35744000000E-01  0.51099999109E-03 0.  1.
       22    1    1    2    0    0  0.16053489560E-01 -0.89151341373E-03 -0.31915893559E-01  0.35737005818E-01  0.00000000000E+00 0.  1.
  9000001    1    1    2    0    0 -0.16053489560E-01  0.89151341373E-03  0.31915893559E-01  0.35750994182E-01  0.10000000475E-02 0. -1.
</event>
<event>
 4   0  0.2441219E-02  0.9118800E+02  0.7818609E-02  0.1379984E+01
      -11   -1    0    0    0    0  0.00000000000E+00  0.00000000000E+00  0.35740347158E-01  0.35744000000E-01  0.51099999109E-03 0. -1.
       11   -1    0    0    0    0 -0.00000000000E+00 -0.00000000000E+00 -0.35740347158E-01  0.35744000000E-01  0.51099999109E-03 0.  1.
       22    1    1    2    0    0  0.57263620641E-03 -0.34522625320E-02 -0.35565257711E-01  0.35737005818E-01  0.00000000000E+00 0.  1.
  9000001    1    1    2    0    0 -0.57263620641E-03  0.34522625320E-02  0.35565257711E-01  0.35750994182E-01  0.10000000475E-02 0. -1.
</event>
<event>
 4   0  0.2441219E-02  0.9118800E+02  0.7818609E-02  0.1379984E+01
      -11   -1    0    0    0    0  0.00000000000E+00  0.00000000000E+00  0.35740347158E-01  0.35744000000E-01  0.51099999109E-03 0.  1.
       11   -1    0    0    0    0 -0.00000000000E+00 -0.00000000000E+00 -0.35740347158E-01  0.35744000000E-01  0.51099999109E-03 0. -1.
       22    1    1    2    0    0 -0.72700540674E-02 -0.63916036180E-02  0.34400978212E-01  0.35737005818E-01  0.00000000000E+00 0.  1.
  9000001    1    1    2    0    0  0.72700540674E-02  0.63916036180E-02 -0.34400978212E-01  0.35750994182E-01  0.10000000475E-02 0. -1.
</event>
<event>
 4   0  0.2441219E-02  0.9118800E+02  0.7818609E-02  0.1379984E+01
      -11   -1    0    0    0    0  0.00000000000E+00  0.00000000000E+00  0.35740347158E-01  0.35744000000E-01  0.51099999109E-03 0.  1.
       11   -1    0    0    0    0 -0.00000000000E+00 -0.00000000000E+00 -0.35740347158E-01  0.35744000000E-01  0.51099999109E-03 0. -1.
       22    1    1    2    0    0 -0.86601932501E-02 -0.26744125076E-03 -0.34670781833E-01  0.35737005818E-01  0.00000000000E+00 0. -1.
  9000001    1    1    2    0    0  0.86601932501E-02  0.26744125076E-03  0.34670781833E-01  0.35750994182E-01  0.10000000475E-02 0.  1.
</event>
<event>
 4   0  0.2441219E-02  0.9118800E+02  0.7818609E-02  0.1379984E+01
      -11   -1    0    0    0    0  0.00000000000E+00  0.00000000000E+00  0.35740347158E-01  0.35744000000E-01  0.51099999109E-03 0. -1.
       11   -1    0    0    0    0 -0.00000000000E+00 -0.00000000000E+00 -0.35740347158E-01  0.35744000000E-01  0.51099999109E-03 0.  1.
       22    1    1    2    0    0  0.12006641127E-01  0.93060766084E-02 -0.32347659759E-01  0.35737005818E-01  0.00000000000E+00 0.  1.
  9000001    1    1    2    0    0 -0.12006641127E-01 -0.93060766084E-02  0.32347659759E-01  0.35750994182E-01  0.10000000475E-02 0. -1.
</event>
<event>
 4   0  0.2441219E-02  0.9118800E+02  0.7818609E-02  0.1379984E+01
      -11   -1    0    0    0    0  0.00000000000E+00  0.00000000000E+00  0.35740347158E-01  0.35744000000E-01  0.51099999109E-03 0.  1.
       11   -1    0    0    0    0 -0.00000000000E+00 -0.00000000000E+00 -0.35740347158E-01  0.35744000000E-01  0.51099999109E-03 0. -1.
       22    1    1    2    0    0  0.48899031937E-02  0.62039044239E-02  0.34853034323E-01  0.35737005818E-01  0.00000000000E+00 0.  1.
  9000001    1    1    2    0    0 -0.48899031937E-02 -0.62039044239E-02 -0.34853034323E-01  0.35750994182E-01  0.10000000475E-02 0. -1.
</event>
<event>
 4   0  0.2441219E-02  0.9118800E+02  0.7818609E-02  0.1379984E+01
      -11   -1    0    0    0    0  0.00000000000E+00  0.00000000000E+00  0.35740347158E-01  0.35744000000E-01  0.51099999109E-03 0.  1.
       11   -1    0    0    0    0 -0.00000000000E+00 -0.00000000000E+00 -0.35740347158E-01  0.35744000000E-01  0.51099999109E-03 0. -1.
       22    1    1    2    0    0  0.17699645703E-02 -0.15367534949E-01  0.32215519240E-01  0.35737005818E-01  0.00000000000E+00 0.  1.
  9000001    1    1    2    0    0 -0.17699645703E-02  0.15367534949E-01 -0.32215519240E-01  0.35750994182E-01  0.10000000475E-02 0. -1.
</event>
<event>
 4   0  0.2441219E-02  0.9118800E+02  0.7818609E-02  0.1379984E+01
      -11   -1    0    0    0    0  0.00000000000E+00  0.00000000000E+00  0.35740347158E-01  0.35744000000E-01  0.51099999109E-03 0. -1.
       11   -1    0    0    0    0 -0.00000000000E+00 -0.00000000000E+00 -0.35740347158E-01  0.35744000000E-01  0.51099999109E-03 0.  1.
       22    1    1    2    0    0 -0.89556431840E-02  0.33063092156E-01 -0.10186362310E-01  0.35737005818E-01  0.00000000000E+00 0. -1.
  9000001    1    1    2    0    0  0.89556431840E-02 -0.33063092156E-01  0.10186362310E-01  0.35750994182E-01  0.10000000475E-02 0.  1.
</event>
<event>
 4   0  0.2441219E-02  0.9118800E+02  0.7818609E-02  0.1379984E+01
      -11   -1    0    0    0    0  0.00000000000E+00  0.00000000000E+00  0.35740347158E-01  0.35744000000E-01  0.51099999109E-03 0.  1.
       11   -1    0    0    0    0 -0.00000000000E+00 -0.00000000000E+00 -0.35740347158E-01  0.35744000000E-01  0.51099999109E-03 0. -1.
       22    1    1    2    0    0  0.14751997631E-01  0.24585129941E-02  0.32457169695E-01  0.35737005818E-01  0.00000000000E+00 0.  1.
  9000001    1    1    2    0    0 -0.14751997631E-01 -0.24585129941E-02 -0.32457169695E-01  0.35750994182E-01  0.10000000475E-02 0. -1.
</event>
<event>
 4   0  0.2441219E-02  0.9118800E+02  0.7818609E-02  0.1379984E+01
      -11   -1    0    0    0    0  0.00000000000E+00  0.00000000000E+00  0.35740347158E-01  0.35744000000E-01  0.51099999109E-03 0.  1.
       11   -1    0    0    0    0 -0.00000000000E+00 -0.00000000000E+00 -0.35740347158E-01  0.35744000000E-01  0.51099999109E-03 0. -1.
       22    1    1    2    0    0 -0.11651213416E-01  0.50708545087E-02  0.33401635369E-01  0.35737005818E-01  0.00000000000E+00 0.  1.
  9000001    1    1    2    0    0  0.11651213416E-01 -0.50708545087E-02 -0.33401635369E-01  0.35750994182E-01  0.10000000475E-02 0. -1.
</event>
<event>
 4   0  0.2441219E-02  0.9118800E+02  0.7818609E-02  0.1379984E+01
      -11   -1    0    0    0    0  0.00000000000E+00  0.00000000000E+00  0.35740347158E-01  0.35744000000E-01  0.51099999109E-03 0.  1.
       11   -1    0    0    0    0 -0.00000000000E+00 -0.00000000000E+00 -0.35740347158E-01  0.35744000000E-01  0.51099999109E-03 0. -1.
       22    1    1    2    0    0 -0.61901783203E-02  0.28281137755E-02 -0.35083002290E-01  0.35737005818E-01  0.00000000000E+00 0. -1.
  9000001    1    1    2    0    0  0.61901783203E-02 -0.28281137755E-02  0.35083002290E-01  0.35750994182E-01  0.10000000475E-02 0.  1.
</event>
<event>
 4   0  0.2441219E-02  0.9118800E+02  0.7818609E-02  0.1379984E+01
      -11   -1    0    0    0    0  0.00000000000E+00  0.00000000000E+00  0.35740347158E-01  0.35744000000E-01  0.51099999109E-03 0. -1.
       11   -1    0    0    0    0 -0.00000000000E+00 -0.00000000000E+00 -0.35740347158E-01  0.35744000000E-01  0.51099999109E-03 0.  1.
       22    1    1    2    0    0 -0.34241240216E-02 -0.50243040672E-03  0.35569038829E-01  0.35737005818E-01  0.00000000000E+00 0. -1.
  9000001    1    1    2    0    0  0.34241240216E-02  0.50243040672E-03 -0.35569038829E-01  0.35750994182E-01  0.10000000475E-02 0.  1.
</event>
<event>
 4   0  0.2441219E-02  0.9118800E+02  0.7818609E-02  0.1379984E+01
      -11   -1    0    0    0    0  0.00000000000E+00  0.00000000000E+00  0.35740347158E-01  0.35744000000E-01  0.51099999109E-03 0. -1.
       11   -1    0    0    0    0 -0.00000000000E+00 -0.00000000000E+00 -0.35740347158E-01  0.35744000000E-01  0.51099999109E-03 0.  1.
       22    1    1    2    0    0  0.16626561859E-02 -0.19933009538E-01 -0.29614933564E-01  0.35737005818E-01  0.00000000000E+00 0.  1.
  9000001    1    1    2    0    0 -0.16626561859E-02  0.19933009538E-01  0.29614933564E-01  0.35750994182E-01  0.10000000475E-02 0. -1.
</event>
<event>
 4   0  0.2441219E-02  0.9118800E+02  0.7818609E-02  0.1379984E+01
      -11   -1    0    0    0    0  0.00000000000E+00  0.00000000000E+00  0.35740347158E-01  0.35744000000E-01  0.51099999109E-03 0.  1.
       11   -1    0    0    0    0 -0.00000000000E+00 -0.00000000000E+00 -0.35740347158E-01  0.35744000000E-01  0.51099999109E-03 0. -1.
       22    1    1    2    0    0 -0.16158219352E-01  0.12908419154E-01 -0.29144780788E-01  0.35737005818E-01  0.00000000000E+00 0. -1.
  9000001    1    1    2    0    0  0.16158219352E-01 -0.12908419154E-01  0.29144780788E-01  0.35750994182E-01  0.10000000475E-02 0.  1.
</event>
<event>
 4   0  0.2441219E-02  0.9118800E+02  0.7818609E-02  0.1379984E+01
      -11   -1    0    0    0    0  0.00000000000E+00  0.00000000000E+00  0.35740347158E-01  0.35744000000E-01  0.51099999109E-03 0.  1.
       11   -1    0    0    0    0 -0.00000000000E+00 -0.00000000000E+00 -0.35740347158E-01  0.35744000000E-01  0.51099999109E-03 0. -1.
       22    1    1    2    0    0 -0.14233093523E-02  0.15002267275E-01  0.32404316873E-01  0.35737005818E-01  0.00000000000E+00 0.  1.
  9000001    1    1    2    0    0  0.14233093523E-02 -0.15002267275E-01 -0.32404316873E-01  0.35750994182E-01  0.10000000475E-02 0. -1.
</event>
<event>
 4   0  0.2441219E-02  0.9118800E+02  0.7818609E-02  0.1379984E+01
      -11   -1    0    0    0    0  0.00000000000E+00  0.00000000000E+00  0.35740347158E-01  0.35744000000E-01  0.51099999109E-03 0.  1.
       11   -1    0    0    0    0 -0.00000000000E+00 -0.00000000000E+00 -0.35740347158E-01  0.35744000000E-01  0.51099999109E-03 0. -1.
       22    1    1    2    0    0  0.32755731744E-02 -0.33430631986E-02 -0.35429198886E-01  0.35737005818E-01  0.00000000000E+00 0. -1.
  9000001    1    1    2    0    0 -0.32755731744E-02  0.33430631986E-02  0.35429198886E-01  0.35750994182E-01  0.10000000475E-02 0.  1.
</event>
<event>
 4   0  0.2441219E-02  0.9118800E+02  0.7818609E-02  0.1379984E+01
      -11   -1    0    0    0    0  0.00000000000E+00  0.00000000000E+00  0.35740347158E-01  0.35744000000E-01  0.51099999109E-03 0.  1.
       11   -1    0    0    0    0 -0.00000000000E+00 -0.00000000000E+00 -0.35740347158E-01  0.35744000000E-01  0.51099999109E-03 0. -1.
       22    1    1    2    0    0  0.31629264552E-02  0.14065939009E-02 -0.35568960833E-01  0.35737005818E-01  0.00000000000E+00 0. -1.
  9000001    1    1    2    0    0 -0.31629264552E-02 -0.14065939009E-02  0.35568960833E-01  0.35750994182E-01  0.10000000475E-02 0.  1.
</event>
<event>
 4   0  0.2441219E-02  0.9118800E+02  0.7818609E-02  0.1379984E+01
      -11   -1    0    0    0    0  0.00000000000E+00  0.00000000000E+00  0.35740347158E-01  0.35744000000E-01  0.51099999109E-03 0.  1.
       11   -1    0    0    0    0 -0.00000000000E+00 -0.00000000000E+00 -0.35740347158E-01  0.35744000000E-01  0.51099999109E-03 0. -1.
       22    1    1    2    0    0 -0.43029076728E-02 -0.44857352132E-03  0.35474178669E-01  0.35737005818E-01  0.00000000000E+00 0.  1.
  9000001    1    1    2    0    0  0.43029076728E-02  0.44857352132E-03 -0.35474178669E-01  0.35750994182E-01  0.10000000475E-02 0. -1.
</event>
<event>
 4   0  0.2441219E-02  0.9118800E+02  0.7818609E-02  0.1379984E+01
      -11   -1    0    0    0    0  0.00000000000E+00  0.00000000000E+00  0.35740347158E-01  0.35744000000E-01  0.51099999109E-03 0.  1.
       11   -1    0    0    0    0 -0.00000000000E+00 -0.00000000000E+00 -0.35740347158E-01  0.35744000000E-01  0.51099999109E-03 0. -1.
       22    1    1    2    0    0  0.12843486579E-02 -0.31390760660E-01  0.17032444880E-01  0.35737005818E-01  0.00000000000E+00 0.  1.
  9000001    1    1    2    0    0 -0.12843486579E-02  0.31390760660E-01 -0.17032444880E-01  0.35750994182E-01  0.10000000475E-02 0. -1.
</event>
<event>
 4   0  0.2441219E-02  0.9118800E+02  0.7818609E-02  0.1379984E+01
      -11   -1    0    0    0    0  0.00000000000E+00  0.00000000000E+00  0.35740347158E-01  0.35744000000E-01  0.51099999109E-03 0.  1.
       11   -1    0    0    0    0 -0.00000000000E+00 -0.00000000000E+00 -0.35740347158E-01  0.35744000000E-01  0.51099999109E-03 0. -1.
       22    1    1    2    0    0  0.22362642617E-01  0.12320237714E-01 -0.25005150325E-01  0.35737005818E-01  0.00000000000E+00 0. -1.
  9000001    1    1    2    0    0 -0.22362642617E-01 -0.12320237714E-01  0.25005150325E-01  0.35750994182E-01  0.10000000475E-02 0.  1.
</event>
<event>
 4   0  0.2441219E-02  0.9118800E+02  0.7818609E-02  0.1379984E+01
      -11   -1    0    0    0    0  0.00000000000E+00  0.00000000000E+00  0.35740347158E-01  0.35744000000E-01  0.51099999109E-03 0.  1.
       11   -1    0    0    0    0 -0.00000000000E+00 -0.00000000000E+00 -0.35740347158E-01  0.35744000000E-01  0.51099999109E-03 0. -1.
       22    1    1    2    0    0 -0.97549628648E-02 -0.90790915828E-03 -0.34367862682E-01  0.35737005818E-01  0.00000000000E+00 0. -1.
  9000001    1    1    2    0    0  0.97549628648E-02  0.90790915828E-03  0.34367862682E-01  0.35750994182E-01  0.10000000475E-02 0.  1.
</event>
<event>
 4   0  0.2441219E-02  0.9118800E+02  0.7818609E-02  0.1379984E+01
      -11   -1    0    0    0    0  0.00000000000E+00  0.00000000000E+00  0.35740347158E-01  0.35744000000E-01  0.51099999109E-03 0. -1.
       11   -1    0    0    0    0 -0.00000000000E+00 -0.00000000000E+00 -0.35740347158E-01  0.35744000000E-01  0.51099999109E-03 0.  1.
       22    1    1    2    0    0 -0.10271171274E-03  0.95480395895E-02 -0.34437740564E-01  0.35737005818E-01  0.00000000000E+00 0.  1.
  9000001    1    1    2    0    0  0.10271171274E-03 -0.95480395895E-02  0.34437740564E-01  0.35750994182E-01  0.10000000475E-02 0. -1.
</event>
<event>
 4   0  0.2441219E-02  0.9118800E+02  0.7818609E-02  0.1379984E+01
      -11   -1    0    0    0    0  0.00000000000E+00  0.00000000000E+00  0.35740347158E-01  0.35744000000E-01  0.51099999109E-03 0.  1.
       11   -1    0    0    0    0 -0.00000000000E+00 -0.00000000000E+00 -0.35740347158E-01  0.35744000000E-01  0.51099999109E-03 0. -1.
       22    1    1    2    0    0 -0.91963287168E-03  0.41614500308E-02  0.35481969983E-01  0.35737005818E-01  0.00000000000E+00 0.  1.
  9000001    1    1    2    0    0  0.91963287168E-03 -0.41614500308E-02 -0.35481969983E-01  0.35750994182E-01  0.10000000475E-02 0. -1.
</event>
<event>
 4   0  0.2441219E-02  0.9118800E+02  0.7818609E-02  0.1379984E+01
      -11   -1    0    0    0    0  0.00000000000E+00  0.00000000000E+00  0.35740347158E-01  0.35744000000E-01  0.51099999109E-03 0. -1.
       11   -1    0    0    0    0 -0.00000000000E+00 -0.00000000000E+00 -0.35740347158E-01  0.35744000000E-01  0.51099999109E-03 0.  1.
       22    1    1    2    0    0  0.11636494720E-02  0.50023744914E-02  0.35366025423E-01  0.35737005818E-01  0.00000000000E+00 0. -1.
  9000001    1    1    2    0    0 -0.11636494720E-02 -0.50023744914E-02 -0.35366025423E-01  0.35750994182E-01  0.10000000475E-02 0.  1.
</event>
<event>
 4   0  0.2441219E-02  0.9118800E+02  0.7818609E-02  0.1379984E+01
      -11   -1    0    0    0    0  0.00000000000E+00  0.00000000000E+00  0.35740347158E-01  0.35744000000E-01  0.51099999109E-03 0. -1.
       11   -1    0    0    0    0 -0.00000000000E+00 -0.00000000000E+00 -0.35740347158E-01  0.35744000000E-01  0.51099999109E-03 0.  1.
       22    1    1    2    0    0  0.12521002596E-01  0.21823465789E-01 -0.25379015344E-01  0.35737005818E-01  0.00000000000E+00 0.  1.
  9000001    1    1    2    0    0 -0.12521002596E-01 -0.21823465789E-01  0.25379015344E-01  0.35750994182E-01  0.10000000475E-02 0. -1.
</event>
<event>
 4   0  0.2441219E-02  0.9118800E+02  0.7818609E-02  0.1379984E+01
      -11   -1    0    0    0    0  0.00000000000E+00  0.00000000000E+00  0.35740347158E-01  0.35744000000E-01  0.51099999109E-03 0. -1.
       11   -1    0    0    0    0 -0.00000000000E+00 -0.00000000000E+00 -0.35740347158E-01  0.35744000000E-01  0.51099999109E-03 0.  1.
       22    1    1    2    0    0 -0.45333456449E-02 -0.11499771138E-02  0.35429647398E-01  0.35737005818E-01  0.00000000000E+00 0. -1.
  9000001    1    1    2    0    0  0.45333456449E-02  0.11499771138E-02 -0.35429647398E-01  0.35750994182E-01  0.10000000475E-02 0.  1.
</event>
<event>
 4   0  0.2441219E-02  0.9118800E+02  0.7818609E-02  0.1379984E+01
      -11   -1    0    0    0    0  0.00000000000E+00  0.00000000000E+00  0.35740347158E-01  0.35744000000E-01  0.51099999109E-03 0.  1.
       11   -1    0    0    0    0 -0.00000000000E+00 -0.00000000000E+00 -0.35740347158E-01  0.35744000000E-01  0.51099999109E-03 0. -1.
       22    1    1    2    0    0  0.82474831050E-02  0.17018802187E-02  0.34730623533E-01  0.35737005818E-01  0.00000000000E+00 0.  1.
  9000001    1    1    2    0    0 -0.82474831050E-02 -0.17018802187E-02 -0.34730623533E-01  0.35750994182E-01  0.10000000475E-02 0. -1.
</event>
<event>
 4   0  0.2441219E-02  0.9118800E+02  0.7818609E-02  0.1379984E+01
      -11   -1    0    0    0    0  0.00000000000E+00  0.00000000000E+00  0.35740347158E-01  0.35744000000E-01  0.51099999109E-03 0.  1.
       11   -1    0    0    0    0 -0.00000000000E+00 -0.00000000000E+00 -0.35740347158E-01  0.35744000000E-01  0.51099999109E-03 0. -1.
       22    1    1    2    0    0 -0.13623317723E-01 -0.91463513246E-02  0.31747173993E-01  0.35737005818E-01  0.00000000000E+00 0.  1.
  9000001    1    1    2    0    0  0.13623317723E-01  0.91463513246E-02 -0.31747173993E-01  0.35750994182E-01  0.10000000475E-02 0. -1.
</event>
<event>
 4   0  0.2441219E-02  0.9118800E+02  0.7818609E-02  0.1379984E+01
      -11   -1    0    0    0    0  0.00000000000E+00  0.00000000000E+00  0.35740347158E-01  0.35744000000E-01  0.51099999109E-03 0.  1.
       11   -1    0    0    0    0 -0.00000000000E+00 -0.00000000000E+00 -0.35740347158E-01  0.35744000000E-01  0.51099999109E-03 0. -1.
       22    1    1    2    0    0  0.16338120913E-01 -0.92084881438E-02 -0.30420439445E-01  0.35737005818E-01  0.00000000000E+00 0. -1.
  9000001    1    1    2    0    0 -0.16338120913E-01  0.92084881438E-02  0.30420439445E-01  0.35750994182E-01  0.10000000475E-02 0.  1.
</event>
<event>
 4   0  0.2441219E-02  0.9118800E+02  0.7818609E-02  0.1379984E+01
      -11   -1    0    0    0    0  0.00000000000E+00  0.00000000000E+00  0.35740347158E-01  0.35744000000E-01  0.51099999109E-03 0.  1.
       11   -1    0    0    0    0 -0.00000000000E+00 -0.00000000000E+00 -0.35740347158E-01  0.35744000000E-01  0.51099999109E-03 0. -1.
       22    1    1    2    0    0  0.19723655786E-02 -0.24847194102E-02 -0.35595920108E-01  0.35737005818E-01  0.00000000000E+00 0. -1.
  9000001    1    1    2    0    0 -0.19723655786E-02  0.24847194102E-02  0.35595920108E-01  0.35750994182E-01  0.10000000475E-02 0.  1.
</event>
<event>
 4   0  0.2441219E-02  0.9118800E+02  0.7818609E-02  0.1379984E+01
      -11   -1    0    0    0    0  0.00000000000E+00  0.00000000000E+00  0.35740347158E-01  0.35744000000E-01  0.51099999109E-03 0. -1.
       11   -1    0    0    0    0 -0.00000000000E+00 -0.00000000000E+00 -0.35740347158E-01  0.35744000000E-01  0.51099999109E-03 0.  1.
       22    1    1    2    0    0  0.24133177378E-02  0.18676669693E-02 -0.35606478378E-01  0.35737005818E-01  0.00000000000E+00 0.  1.
  9000001    1    1    2    0    0 -0.24133177378E-02 -0.18676669693E-02  0.35606478378E-01  0.35750994182E-01  0.10000000475E-02 0. -1.
</event>
<event>
 4   0  0.2441219E-02  0.9118800E+02  0.7818609E-02  0.1379984E+01
      -11   -1    0    0    0    0  0.00000000000E+00  0.00000000000E+00  0.35740347158E-01  0.35744000000E-01  0.51099999109E-03 0.  1.
       11   -1    0    0    0    0 -0.00000000000E+00 -0.00000000000E+00 -0.35740347158E-01  0.35744000000E-01  0.51099999109E-03 0. -1.
       22    1    1    2    0    0  0.21633419731E-01 -0.25549813732E-01 -0.12503429684E-01  0.35737005818E-01  0.00000000000E+00 0. -1.
  9000001    1    1    2    0    0 -0.21633419731E-01  0.25549813732E-01  0.12503429684E-01  0.35750994182E-01  0.10000000475E-02 0.  1.
</event>
<event>
 4   0  0.2441219E-02  0.9118800E+02  0.7818609E-02  0.1379984E+01
      -11   -1    0    0    0    0  0.00000000000E+00  0.00000000000E+00  0.35740347158E-01  0.35744000000E-01  0.51099999109E-03 0.  1.
       11   -1    0    0    0    0 -0.00000000000E+00 -0.00000000000E+00 -0.35740347158E-01  0.35744000000E-01  0.51099999109E-03 0. -1.
       22    1    1    2    0    0  0.19470359265E-01  0.80717506810E-02 -0.28859756338E-01  0.35737005818E-01  0.00000000000E+00 0. -1.
  9000001    1    1    2    0    0 -0.19470359265E-01 -0.80717506810E-02  0.28859756338E-01  0.35750994182E-01  0.10000000475E-02 0.  1.
</event>
<event>
 4   0  0.2441219E-02  0.9118800E+02  0.7818609E-02  0.1379984E+01
      -11   -1    0    0    0    0  0.00000000000E+00  0.00000000000E+00  0.35740347158E-01  0.35744000000E-01  0.51099999109E-03 0.  1.
       11   -1    0    0    0    0 -0.00000000000E+00 -0.00000000000E+00 -0.35740347158E-01  0.35744000000E-01  0.51099999109E-03 0. -1.
       22    1    1    2    0    0 -0.81180260566E-02  0.12161327654E-01 -0.32608792488E-01  0.35737005818E-01  0.00000000000E+00 0. -1.
  9000001    1    1    2    0    0  0.81180260566E-02 -0.12161327654E-01  0.32608792488E-01  0.35750994182E-01  0.10000000475E-02 0.  1.
</event>
<event>
 4   0  0.2441219E-02  0.9118800E+02  0.7818609E-02  0.1379984E+01
      -11   -1    0    0    0    0  0.00000000000E+00  0.00000000000E+00  0.35740347158E-01  0.35744000000E-01  0.51099999109E-03 0.  1.
       11   -1    0    0    0    0 -0.00000000000E+00 -0.00000000000E+00 -0.35740347158E-01  0.35744000000E-01  0.51099999109E-03 0. -1.
       22    1    1    2    0    0 -0.17519937596E-01  0.65866724977E-02  0.30443408431E-01  0.35737005818E-01  0.00000000000E+00 0.  1.
  9000001    1    1    2    0    0  0.17519937596E-01 -0.65866724977E-02 -0.30443408431E-01  0.35750994182E-01  0.10000000475E-02 0. -1.
</event>
<event>
 4   0  0.2441219E-02  0.9118800E+02  0.7818609E-02  0.1379984E+01
      -11   -1    0    0    0    0  0.00000000000E+00  0.00000000000E+00  0.35740347158E-01  0.35744000000E-01  0.51099999109E-03 0.  1.
       11   -1    0    0    0    0 -0.00000000000E+00 -0.00000000000E+00 -0.35740347158E-01  0.35744000000E-01  0.51099999109E-03 0. -1.
       22    1    1    2    0    0  0.42597943018E-02 -0.80952985685E-02  0.34546401816E-01  0.35737005818E-01  0.00000000000E+00 0.  1.
  9000001    1    1    2    0    0 -0.42597943018E-02  0.80952985685E-02 -0.34546401816E-01  0.35750994182E-01  0.10000000475E-02 0. -1.
</event>
<event>
 4   0  0.2441219E-02  0.9118800E+02  0.7818609E-02  0.1379984E+01
      -11   -1    0    0    0    0  0.00000000000E+00  0.00000000000E+00  0.35740347158E-01  0.35744000000E-01  0.51099999109E-03 0. -1.
       11   -1    0    0    0    0 -0.00000000000E+00 -0.00000000000E+00 -0.35740347158E-01  0.35744000000E-01  0.51099999109E-03 0.  1.
       22    1    1    2    0    0  0.73846835771E-02  0.15581064957E-01 -0.31302243500E-01  0.35737005818E-01  0.00000000000E+00 0.  1.
  9000001    1    1    2    0    0 -0.73846835771E-02 -0.15581064957E-01  0.31302243500E-01  0.35750994182E-01  0.10000000475E-02 0. -1.
</event>
<event>
 4   0  0.2441219E-02  0.9118800E+02  0.7818609E-02  0.1379984E+01
      -11   -1    0    0    0    0  0.00000000000E+00  0.00000000000E+00  0.35740347158E-01  0.35744000000E-01  0.51099999109E-03 0.  1.
       11   -1    0    0    0    0 -0.00000000000E+00 -0.00000000000E+00 -0.35740347158E-01  0.35744000000E-01  0.51099999109E-03 0. -1.
       22    1    1    2    0    0 -0.33638880158E-02 -0.14829813305E-02 -0.35547413530E-01  0.35737005818E-01  0.00000000000E+00 0. -1.
  9000001    1    1    2    0    0  0.33638880158E-02  0.14829813305E-02  0.35547413530E-01  0.35750994182E-01  0.10000000475E-02 0.  1.
</event>
<event>
 4   0  0.2441219E-02  0.9118800E+02  0.7818609E-02  0.1379984E+01
      -11   -1    0    0    0    0  0.00000000000E+00  0.00000000000E+00  0.35740347158E-01  0.35744000000E-01  0.51099999109E-03 0.  1.
       11   -1    0    0    0    0 -0.00000000000E+00 -0.00000000000E+00 -0.35740347158E-01  0.35744000000E-01  0.51099999109E-03 0. -1.
       22    1    1    2    0    0  0.96418536038E-02  0.18497654956E-02  0.34361993708E-01  0.35737005818E-01  0.00000000000E+00 0.  1.
  9000001    1    1    2    0    0 -0.96418536038E-02 -0.18497654956E-02 -0.34361993708E-01  0.35750994182E-01  0.10000000475E-02 0. -1.
</event>
<event>
 4   0  0.2441219E-02  0.9118800E+02  0.7818609E-02  0.1379984E+01
      -11   -1    0    0    0    0  0.00000000000E+00  0.00000000000E+00  0.35740347158E-01  0.35744000000E-01  0.51099999109E-03 0. -1.
       11   -1    0    0    0    0 -0.00000000000E+00 -0.00000000000E+00 -0.35740347158E-01  0.35744000000E-01  0.51099999109E-03 0.  1.
       22    1    1    2    0    0 -0.49827798050E-02  0.11397884757E-02 -0.35369568453E-01  0.35737005818E-01  0.00000000000E+00 0.  1.
  9000001    1    1    2    0    0  0.49827798050E-02 -0.11397884757E-02  0.35369568453E-01  0.35750994182E-01  0.10000000475E-02 0. -1.
</event>
<event>
 4   0  0.2441219E-02  0.9118800E+02  0.7818609E-02  0.1379984E+01
      -11   -1    0    0    0    0  0.00000000000E+00  0.00000000000E+00  0.35740347158E-01  0.35744000000E-01  0.51099999109E-03 0. -1.
       11   -1    0    0    0    0 -0.00000000000E+00 -0.00000000000E+00 -0.35740347158E-01  0.35744000000E-01  0.51099999109E-03 0.  1.
       22    1    1    2    0    0 -0.65152589793E-02  0.57847422798E-02 -0.34658645993E-01  0.35737005818E-01  0.00000000000E+00 0.  1.
  9000001    1    1    2    0    0  0.65152589793E-02 -0.57847422798E-02  0.34658645993E-01  0.35750994182E-01  0.10000000475E-02 0. -1.
</event>
<event>
 4   0  0.2441219E-02  0.9118800E+02  0.7818609E-02  0.1379984E+01
      -11   -1    0    0    0    0  0.00000000000E+00  0.00000000000E+00  0.35740347158E-01  0.35744000000E-01  0.51099999109E-03 0. -1.
       11   -1    0    0    0    0 -0.00000000000E+00 -0.00000000000E+00 -0.35740347158E-01  0.35744000000E-01  0.51099999109E-03 0.  1.
       22    1    1    2    0    0 -0.61393043578E-02  0.45002364969E-02  0.34916907056E-01  0.35737005818E-01  0.00000000000E+00 0. -1.
  9000001    1    1    2    0    0  0.61393043578E-02 -0.45002364969E-02 -0.34916907056E-01  0.35750994182E-01  0.10000000475E-02 0.  1.
</event>
<event>
 4   0  0.2441219E-02  0.9118800E+02  0.7818609E-02  0.1379984E+01
      -11   -1    0    0    0    0  0.00000000000E+00  0.00000000000E+00  0.35740347158E-01  0.35744000000E-01  0.51099999109E-03 0. -1.
       11   -1    0    0    0    0 -0.00000000000E+00 -0.00000000000E+00 -0.35740347158E-01  0.35744000000E-01  0.51099999109E-03 0.  1.
       22    1    1    2    0    0 -0.23266903335E-01 -0.84357818316E-02  0.25780271119E-01  0.35737005818E-01  0.00000000000E+00 0. -1.
  9000001    1    1    2    0    0  0.23266903335E-01  0.84357818316E-02 -0.25780271119E-01  0.35750994182E-01  0.10000000475E-02 0.  1.
</event>
<event>
 4   0  0.2441219E-02  0.9118800E+02  0.7818609E-02  0.1379984E+01
      -11   -1    0    0    0    0  0.00000000000E+00  0.00000000000E+00  0.35740347158E-01  0.35744000000E-01  0.51099999109E-03 0.  1.
       11   -1    0    0    0    0 -0.00000000000E+00 -0.00000000000E+00 -0.35740347158E-01  0.35744000000E-01  0.51099999109E-03 0. -1.
       22    1    1    2    0    0 -0.13645671698E-02  0.78925225438E-02 -0.34827857086E-01  0.35737005818E-01  0.00000000000E+00 0. -1.
  9000001    1    1    2    0    0  0.13645671698E-02 -0.78925225438E-02  0.34827857086E-01  0.35750994182E-01  0.10000000475E-02 0.  1.
</event>
<event>
 4   0  0.2441219E-02  0.9118800E+02  0.7818609E-02  0.1379984E+01
      -11   -1    0    0    0    0  0.00000000000E+00  0.00000000000E+00  0.35740347158E-01  0.35744000000E-01  0.51099999109E-03 0. -1.
       11   -1    0    0    0    0 -0.00000000000E+00 -0.00000000000E+00 -0.35740347158E-01  0.35744000000E-01  0.51099999109E-03 0.  1.
       22    1    1    2    0    0  0.13915681585E-01  0.10783826882E-01  0.31099782454E-01  0.35737005818E-01  0.00000000000E+00 0. -1.
  9000001    1    1    2    0    0 -0.13915681585E-01 -0.10783826882E-01 -0.31099782454E-01  0.35750994182E-01  0.10000000475E-02 0.  1.
</event>
<event>
 4   0  0.2441219E-02  0.9118800E+02  0.7818609E-02  0.1379984E+01
      -11   -1    0    0    0    0  0.00000000000E+00  0.00000000000E+00  0.35740347158E-01  0.35744000000E-01  0.51099999109E-03 0.  1.
       11   -1    0    0    0    0 -0.00000000000E+00 -0.00000000000E+00 -0.35740347158E-01  0.35744000000E-01  0.51099999109E-03 0. -1.
       22    1    1    2    0    0 -0.39026106261E-02  0.58963080502E-02 -0.35030511937E-01  0.35737005818E-01  0.00000000000E+00 0. -1.
  9000001    1    1    2    0    0  0.39026106261E-02 -0.58963080502E-02  0.35030511937E-01  0.35750994182E-01  0.10000000475E-02 0.  1.
</event>
<event>
 4   0  0.2441219E-02  0.9118800E+02  0.7818609E-02  0.1379984E+01
      -11   -1    0    0    0    0  0.00000000000E+00  0.00000000000E+00  0.35740347158E-01  0.35744000000E-01  0.51099999109E-03 0. -1.
       11   -1    0    0    0    0 -0.00000000000E+00 -0.00000000000E+00 -0.35740347158E-01  0.35744000000E-01  0.51099999109E-03 0.  1.
       22    1    1    2    0    0 -0.23966971972E-02  0.28207671738E-02  0.35544798494E-01  0.35737005818E-01  0.00000000000E+00 0. -1.
  9000001    1    1    2    0    0  0.23966971972E-02 -0.28207671738E-02 -0.35544798494E-01  0.35750994182E-01  0.10000000475E-02 0.  1.
</event>
<event>
 4   0  0.2441219E-02  0.9118800E+02  0.7818609E-02  0.1379984E+01
      -11   -1    0    0    0    0  0.00000000000E+00  0.00000000000E+00  0.35740347158E-01  0.35744000000E-01  0.51099999109E-03 0.  1.
       11   -1    0    0    0    0 -0.00000000000E+00 -0.00000000000E+00 -0.35740347158E-01  0.35744000000E-01  0.51099999109E-03 0.  1.
       22    1    1    2    0    0 -0.28543987697E-02  0.21536226210E-02  0.35557670089E-01  0.35737005818E-01  0.00000000000E+00 0.  1.
  9000001    1    1    2    0    0  0.28543987697E-02 -0.21536226210E-02 -0.35557670089E-01  0.35750994182E-01  0.10000000475E-02 0.  1.
</event>
<event>
 4   0  0.2441219E-02  0.9118800E+02  0.7818609E-02  0.1379984E+01
      -11   -1    0    0    0    0  0.00000000000E+00  0.00000000000E+00  0.35740347158E-01  0.35744000000E-01  0.51099999109E-03 0.  1.
       11   -1    0    0    0    0 -0.00000000000E+00 -0.00000000000E+00 -0.35740347158E-01  0.35744000000E-01  0.51099999109E-03 0. -1.
       22    1    1    2    0    0  0.67928087834E-02 -0.30263106734E-01 -0.17752061979E-01  0.35737005818E-01  0.00000000000E+00 0. -1.
  9000001    1    1    2    0    0 -0.67928087834E-02  0.30263106734E-01  0.17752061979E-01  0.35750994182E-01  0.10000000475E-02 0.  1.
</event>
<event>
 4   0  0.2441219E-02  0.9118800E+02  0.7818609E-02  0.1379984E+01
      -11   -1    0    0    0    0  0.00000000000E+00  0.00000000000E+00  0.35740347158E-01  0.35744000000E-01  0.51099999109E-03 0. -1.
       11   -1    0    0    0    0 -0.00000000000E+00 -0.00000000000E+00 -0.35740347158E-01  0.35744000000E-01  0.51099999109E-03 0.  1.
       22    1    1    2    0    0  0.93344501292E-02 -0.39358502963E-02  0.34271135203E-01  0.35737005818E-01  0.00000000000E+00 0. -1.
  9000001    1    1    2    0    0 -0.93344501292E-02  0.39358502963E-02 -0.34271135203E-01  0.35750994182E-01  0.10000000475E-02 0.  1.
</event>
<event>
 4   0  0.2441219E-02  0.9118800E+02  0.7818609E-02  0.1379984E+01
      -11   -1    0    0    0    0  0.00000000000E+00  0.00000000000E+00  0.35740347158E-01  0.35744000000E-01  0.51099999109E-03 0.  1.
       11   -1    0    0    0    0 -0.00000000000E+00 -0.00000000000E+00 -0.35740347158E-01  0.35744000000E-01  0.51099999109E-03 0. -1.
       22    1    1    2    0    0 -0.20511461016E-01  0.29826811152E-02  0.29112148070E-01  0.35737005818E-01  0.00000000000E+00 0.  1.
  9000001    1    1    2    0    0  0.20511461016E-01 -0.29826811152E-02 -0.29112148070E-01  0.35750994182E-01  0.10000000475E-02 0. -1.
</event>
<event>
 4   0  0.2441219E-02  0.9118800E+02  0.7818609E-02  0.1379984E+01
      -11   -1    0    0    0    0  0.00000000000E+00  0.00000000000E+00  0.35740347158E-01  0.35744000000E-01  0.51099999109E-03 0. -1.
       11   -1    0    0    0    0 -0.00000000000E+00 -0.00000000000E+00 -0.35740347158E-01  0.35744000000E-01  0.51099999109E-03 0.  1.
       22    1    1    2    0    0 -0.28716414757E-01 -0.52806396437E-02 -0.20606211522E-01  0.35737005818E-01  0.00000000000E+00 0.  1.
  9000001    1    1    2    0    0  0.28716414757E-01  0.52806396437E-02  0.20606211522E-01  0.35750994182E-01  0.10000000475E-02 0. -1.
</event>
<event>
 4   0  0.2441219E-02  0.9118800E+02  0.7818609E-02  0.1379984E+01
      -11   -1    0    0    0    0  0.00000000000E+00  0.00000000000E+00  0.35740347158E-01  0.35744000000E-01  0.51099999109E-03 0. -1.
       11   -1    0    0    0    0 -0.00000000000E+00 -0.00000000000E+00 -0.35740347158E-01  0.35744000000E-01  0.51099999109E-03 0.  1.
       22    1    1    2    0    0 -0.21087724369E-02 -0.49924514128E-02 -0.35323676091E-01  0.35737005818E-01  0.00000000000E+00 0.  1.
  9000001    1    1    2    0    0  0.21087724369E-02  0.49924514128E-02  0.35323676091E-01  0.35750994182E-01  0.10000000475E-02 0. -1.
</event>
<event>
 4   0  0.2441219E-02  0.9118800E+02  0.7818609E-02  0.1379984E+01
      -11   -1    0    0    0    0  0.00000000000E+00  0.00000000000E+00  0.35740347158E-01  0.35744000000E-01  0.51099999109E-03 0. -1.
       11   -1    0    0    0    0 -0.00000000000E+00 -0.00000000000E+00 -0.35740347158E-01  0.35744000000E-01  0.51099999109E-03 0.  1.
       22    1    1    2    0    0  0.39454245707E-02 -0.66427657241E-02 -0.34891845371E-01  0.35737005818E-01  0.00000000000E+00 0.  1.
  9000001    1    1    2    0    0 -0.39454245707E-02  0.66427657241E-02  0.34891845371E-01  0.35750994182E-01  0.10000000475E-02 0. -1.
</event>
<event>
 4   0  0.2441219E-02  0.9118800E+02  0.7818609E-02  0.1379984E+01
      -11   -1    0    0    0    0  0.00000000000E+00  0.00000000000E+00  0.35740347158E-01  0.35744000000E-01  0.51099999109E-03 0. -1.
       11   -1    0    0    0    0 -0.00000000000E+00 -0.00000000000E+00 -0.35740347158E-01  0.35744000000E-01  0.51099999109E-03 0.  1.
       22    1    1    2    0    0 -0.52937870970E-02  0.14100066217E-01  0.32408294243E-01  0.35737005818E-01  0.00000000000E+00 0. -1.
  9000001    1    1    2    0    0  0.52937870970E-02 -0.14100066217E-01 -0.32408294243E-01  0.35750994182E-01  0.10000000475E-02 0.  1.
</event>
<event>
 4   0  0.2441219E-02  0.9118800E+02  0.7818609E-02  0.1379984E+01
      -11   -1    0    0    0    0  0.00000000000E+00  0.00000000000E+00  0.35740347158E-01  0.35744000000E-01  0.51099999109E-03 0. -1.
       11   -1    0    0    0    0 -0.00000000000E+00 -0.00000000000E+00 -0.35740347158E-01  0.35744000000E-01  0.51099999109E-03 0.  1.
       22    1    1    2    0    0  0.28189207648E-02 -0.99810703181E-02 -0.34198910888E-01  0.35737005818E-01  0.00000000000E+00 0.  1.
  9000001    1    1    2    0    0 -0.28189207648E-02  0.99810703181E-02  0.34198910888E-01  0.35750994182E-01  0.10000000475E-02 0. -1.
</event>
<event>
 4   0  0.2441219E-02  0.9118800E+02  0.7818609E-02  0.1379984E+01
      -11   -1    0    0    0    0  0.00000000000E+00  0.00000000000E+00  0.35740347158E-01  0.35744000000E-01  0.51099999109E-03 0. -1.
       11   -1    0    0    0    0 -0.00000000000E+00 -0.00000000000E+00 -0.35740347158E-01  0.35744000000E-01  0.51099999109E-03 0.  1.
       22    1    1    2    0    0  0.49508651279E-02 -0.96729484974E-03 -0.35379186820E-01  0.35737005818E-01  0.00000000000E+00 0.  1.
  9000001    1    1    2    0    0 -0.49508651279E-02  0.96729484974E-03  0.35379186820E-01  0.35750994182E-01  0.10000000475E-02 0. -1.
</event>
<event>
 4   0  0.2441219E-02  0.9118800E+02  0.7818609E-02  0.1379984E+01
      -11   -1    0    0    0    0  0.00000000000E+00  0.00000000000E+00  0.35740347158E-01  0.35744000000E-01  0.51099999109E-03 0. -1.
       11   -1    0    0    0    0 -0.00000000000E+00 -0.00000000000E+00 -0.35740347158E-01  0.35744000000E-01  0.51099999109E-03 0.  1.
       22    1    1    2    0    0  0.64376946774E-02 -0.12770216489E-02 -0.35129174312E-01  0.35737005818E-01  0.00000000000E+00 0.  1.
  9000001    1    1    2    0    0 -0.64376946774E-02  0.12770216489E-02  0.35129174312E-01  0.35750994182E-01  0.10000000475E-02 0. -1.
</event>
<event>
 4   0  0.2441219E-02  0.9118800E+02  0.7818609E-02  0.1379984E+01
      -11   -1    0    0    0    0  0.00000000000E+00  0.00000000000E+00  0.35740347158E-01  0.35744000000E-01  0.51099999109E-03 0. -1.
       11   -1    0    0    0    0 -0.00000000000E+00 -0.00000000000E+00 -0.35740347158E-01  0.35744000000E-01  0.51099999109E-03 0.  1.
       22    1    1    2    0    0  0.15138164453E-01 -0.10494283833E-01 -0.30624166416E-01  0.35737005818E-01  0.00000000000E+00 0.  1.
  9000001    1    1    2    0    0 -0.15138164453E-01  0.10494283833E-01  0.30624166416E-01  0.35750994182E-01  0.10000000475E-02 0. -1.
</event>
<event>
 4   0  0.2441219E-02  0.9118800E+02  0.7818609E-02  0.1379984E+01
      -11   -1    0    0    0    0  0.00000000000E+00  0.00000000000E+00  0.35740347158E-01  0.35744000000E-01  0.51099999109E-03 0. -1.
       11   -1    0    0    0    0 -0.00000000000E+00 -0.00000000000E+00 -0.35740347158E-01  0.35744000000E-01  0.51099999109E-03 0.  1.
       22    1    1    2    0    0  0.26235195279E-02  0.59025272162E-02 -0.35148412519E-01  0.35737005818E-01  0.00000000000E+00 0.  1.
  9000001    1    1    2    0    0 -0.26235195279E-02 -0.59025272162E-02  0.35148412519E-01  0.35750994182E-01  0.10000000475E-02 0. -1.
</event>
<event>
 4   0  0.2441219E-02  0.9118800E+02  0.7818609E-02  0.1379984E+01
      -11   -1    0    0    0    0  0.00000000000E+00  0.00000000000E+00  0.35740347158E-01  0.35744000000E-01  0.51099999109E-03 0.  1.
       11   -1    0    0    0    0 -0.00000000000E+00 -0.00000000000E+00 -0.35740347158E-01  0.35744000000E-01  0.51099999109E-03 0. -1.
       22    1    1    2    0    0 -0.13477320712E-01 -0.20045798406E-01  0.26337451995E-01  0.35737005818E-01  0.00000000000E+00 0.  1.
  9000001    1    1    2    0    0  0.13477320712E-01  0.20045798406E-01 -0.26337451995E-01  0.35750994182E-01  0.10000000475E-02 0. -1.
</event>
<event>
 4   0  0.2441219E-02  0.9118800E+02  0.7818609E-02  0.1379984E+01
      -11   -1    0    0    0    0  0.00000000000E+00  0.00000000000E+00  0.35740347158E-01  0.35744000000E-01  0.51099999109E-03 0. -1.
       11   -1    0    0    0    0 -0.00000000000E+00 -0.00000000000E+00 -0.35740347158E-01  0.35744000000E-01  0.51099999109E-03 0.  1.
       22    1    1    2    0    0  0.34834214961E-02 -0.10282472337E-02  0.35551962916E-01  0.35737005818E-01  0.00000000000E+00 0. -1.
  9000001    1    1    2    0    0 -0.34834214961E-02  0.10282472337E-02 -0.35551962916E-01  0.35750994182E-01  0.10000000475E-02 0.  1.
</event>
<event>
 4   0  0.2441219E-02  0.9118800E+02  0.7818609E-02  0.1379984E+01
      -11   -1    0    0    0    0  0.00000000000E+00  0.00000000000E+00  0.35740347158E-01  0.35744000000E-01  0.51099999109E-03 0.  1.
       11   -1    0    0    0    0 -0.00000000000E+00 -0.00000000000E+00 -0.35740347158E-01  0.35744000000E-01  0.51099999109E-03 0. -1.
       22    1    1    2    0    0  0.46754470169E-03 -0.18156535073E-01  0.30777511611E-01  0.35737005818E-01  0.00000000000E+00 0.  1.
  9000001    1    1    2    0    0 -0.46754470169E-03  0.18156535073E-01 -0.30777511611E-01  0.35750994182E-01  0.10000000475E-02 0. -1.
</event>
<event>
 4   0  0.2441219E-02  0.9118800E+02  0.7818609E-02  0.1379984E+01
      -11   -1    0    0    0    0  0.00000000000E+00  0.00000000000E+00  0.35740347158E-01  0.35744000000E-01  0.51099999109E-03 0.  1.
       11   -1    0    0    0    0 -0.00000000000E+00 -0.00000000000E+00 -0.35740347158E-01  0.35744000000E-01  0.51099999109E-03 0. -1.
       22    1    1    2    0    0 -0.22774386635E-01  0.11784507165E-01  0.24891490296E-01  0.35737005818E-01  0.00000000000E+00 0.  1.
  9000001    1    1    2    0    0  0.22774386635E-01 -0.11784507165E-01 -0.24891490296E-01  0.35750994182E-01  0.10000000475E-02 0. -1.
</event>
<event>
 4   0  0.2441219E-02  0.9118800E+02  0.7818609E-02  0.1379984E+01
      -11   -1    0    0    0    0  0.00000000000E+00  0.00000000000E+00  0.35740347158E-01  0.35744000000E-01  0.51099999109E-03 0. -1.
       11   -1    0    0    0    0 -0.00000000000E+00 -0.00000000000E+00 -0.35740347158E-01  0.35744000000E-01  0.51099999109E-03 0.  1.
       22    1    1    2    0    0 -0.29186868550E-02 -0.14833612285E-02  0.35586717907E-01  0.35737005818E-01  0.00000000000E+00 0. -1.
  9000001    1    1    2    0    0  0.29186868550E-02  0.14833612285E-02 -0.35586717907E-01  0.35750994182E-01  0.10000000475E-02 0.  1.
</event>
<event>
 4   0  0.2441219E-02  0.9118800E+02  0.7818609E-02  0.1379984E+01
      -11   -1    0    0    0    0  0.00000000000E+00  0.00000000000E+00  0.35740347158E-01  0.35744000000E-01  0.51099999109E-03 0.  1.
       11   -1    0    0    0    0 -0.00000000000E+00 -0.00000000000E+00 -0.35740347158E-01  0.35744000000E-01  0.51099999109E-03 0. -1.
       22    1    1    2    0    0 -0.27993505698E-01  0.20858281248E-01 -0.76439078373E-02  0.35737005818E-01  0.00000000000E+00 0. -1.
  9000001    1    1    2    0    0  0.27993505698E-01 -0.20858281248E-01  0.76439078373E-02  0.35750994182E-01  0.10000000475E-02 0.  1.
</event>
<event>
 4   0  0.2441219E-02  0.9118800E+02  0.7818609E-02  0.1379984E+01
      -11   -1    0    0    0    0  0.00000000000E+00  0.00000000000E+00  0.35740347158E-01  0.35744000000E-01  0.51099999109E-03 0.  1.
       11   -1    0    0    0    0 -0.00000000000E+00 -0.00000000000E+00 -0.35740347158E-01  0.35744000000E-01  0.51099999109E-03 0. -1.
       22    1    1    2    0    0  0.12997432353E-02 -0.29138233396E-02  0.35594295694E-01  0.35737005818E-01  0.00000000000E+00 0.  1.
  9000001    1    1    2    0    0 -0.12997432353E-02  0.29138233396E-02 -0.35594295694E-01  0.35750994182E-01  0.10000000475E-02 0. -1.
</event>
<event>
 4   0  0.2441219E-02  0.9118800E+02  0.7818609E-02  0.1379984E+01
      -11   -1    0    0    0    0  0.00000000000E+00  0.00000000000E+00  0.35740347158E-01  0.35744000000E-01  0.51099999109E-03 0.  1.
       11   -1    0    0    0    0 -0.00000000000E+00 -0.00000000000E+00 -0.35740347158E-01  0.35744000000E-01  0.51099999109E-03 0. -1.
       22    1    1    2    0    0 -0.15382280013E-02  0.16320820778E-01  0.31755286940E-01  0.35737005818E-01  0.00000000000E+00 0.  1.
  9000001    1    1    2    0    0  0.15382280013E-02 -0.16320820778E-01 -0.31755286940E-01  0.35750994182E-01  0.10000000475E-02 0. -1.
</event>
<event>
 4   0  0.2441219E-02  0.9118800E+02  0.7818609E-02  0.1379984E+01
      -11   -1    0    0    0    0  0.00000000000E+00  0.00000000000E+00  0.35740347158E-01  0.35744000000E-01  0.51099999109E-03 0. -1.
       11   -1    0    0    0    0 -0.00000000000E+00 -0.00000000000E+00 -0.35740347158E-01  0.35744000000E-01  0.51099999109E-03 0.  1.
       22    1    1    2    0    0 -0.61669741754E-02 -0.30234801208E-01  0.18026613945E-01  0.35737005818E-01  0.00000000000E+00 0. -1.
  9000001    1    1    2    0    0  0.61669741754E-02  0.30234801208E-01 -0.18026613945E-01  0.35750994182E-01  0.10000000475E-02 0.  1.
</event>
<event>
 4   0  0.2441219E-02  0.9118800E+02  0.7818609E-02  0.1379984E+01
      -11   -1    0    0    0    0  0.00000000000E+00  0.00000000000E+00  0.35740347158E-01  0.35744000000E-01  0.51099999109E-03 0. -1.
       11   -1    0    0    0    0 -0.00000000000E+00 -0.00000000000E+00 -0.35740347158E-01  0.35744000000E-01  0.51099999109E-03 0.  1.
       22    1    1    2    0    0 -0.11800395310E-01  0.20938797041E-01 -0.26447136592E-01  0.35737005818E-01  0.00000000000E+00 0.  1.
  9000001    1    1    2    0    0  0.11800395310E-01 -0.20938797041E-01  0.26447136592E-01  0.35750994182E-01  0.10000000475E-02 0. -1.
</event>
<event>
 4   0  0.2441219E-02  0.9118800E+02  0.7818609E-02  0.1379984E+01
      -11   -1    0    0    0    0  0.00000000000E+00  0.00000000000E+00  0.35740347158E-01  0.35744000000E-01  0.51099999109E-03 0. -1.
       11   -1    0    0    0    0 -0.00000000000E+00 -0.00000000000E+00 -0.35740347158E-01  0.35744000000E-01  0.51099999109E-03 0.  1.
       22    1    1    2    0    0 -0.26180905944E-01 -0.24318158283E-01  0.56650378368E-03  0.35737005818E-01  0.00000000000E+00 0.  1.
  9000001    1    1    2    0    0  0.26180905944E-01  0.24318158283E-01 -0.56650378368E-03  0.35750994182E-01  0.10000000475E-02 0. -1.
</event>
<event>
 4   0  0.2441219E-02  0.9118800E+02  0.7818609E-02  0.1379984E+01
      -11   -1    0    0    0    0  0.00000000000E+00  0.00000000000E+00  0.35740347158E-01  0.35744000000E-01  0.51099999109E-03 0.  1.
       11   -1    0    0    0    0 -0.00000000000E+00 -0.00000000000E+00 -0.35740347158E-01  0.35744000000E-01  0.51099999109E-03 0. -1.
       22    1    1    2    0    0 -0.36764031309E-02 -0.17059544135E-02  0.35506441168E-01  0.35737005818E-01  0.00000000000E+00 0.  1.
  9000001    1    1    2    0    0  0.36764031309E-02  0.17059544135E-02 -0.35506441168E-01  0.35750994182E-01  0.10000000475E-02 0. -1.
</event>
<event>
 4   0  0.2441219E-02  0.9118800E+02  0.7818609E-02  0.1379984E+01
      -11   -1    0    0    0    0  0.00000000000E+00  0.00000000000E+00  0.35740347158E-01  0.35744000000E-01  0.51099999109E-03 0. -1.
       11   -1    0    0    0    0 -0.00000000000E+00 -0.00000000000E+00 -0.35740347158E-01  0.35744000000E-01  0.51099999109E-03 0.  1.
       22    1    1    2    0    0  0.11906106820E-01 -0.21819324523E-02  0.33624654289E-01  0.35737005818E-01  0.00000000000E+00 0. -1.
  9000001    1    1    2    0    0 -0.11906106820E-01  0.21819324523E-02 -0.33624654289E-01  0.35750994182E-01  0.10000000475E-02 0.  1.
</event>
<event>
 4   0  0.2441219E-02  0.9118800E+02  0.7818609E-02  0.1379984E+01
      -11   -1    0    0    0    0  0.00000000000E+00  0.00000000000E+00  0.35740347158E-01  0.35744000000E-01  0.51099999109E-03 0.  1.
       11   -1    0    0    0    0 -0.00000000000E+00 -0.00000000000E+00 -0.35740347158E-01  0.35744000000E-01  0.51099999109E-03 0. -1.
       22    1    1    2    0    0 -0.17128727632E-01  0.31242660645E-01 -0.27634092009E-02  0.35737005818E-01  0.00000000000E+00 0.  1.
  9000001    1    1    2    0    0  0.17128727632E-01 -0.31242660645E-01  0.27634092009E-02  0.35750994182E-01  0.10000000475E-02 0. -1.
</event>
<event>
 4   0  0.2441219E-02  0.9118800E+02  0.7818609E-02  0.1379984E+01
      -11   -1    0    0    0    0  0.00000000000E+00  0.00000000000E+00  0.35740347158E-01  0.35744000000E-01  0.51099999109E-03 0.  1.
       11   -1    0    0    0    0 -0.00000000000E+00 -0.00000000000E+00 -0.35740347158E-01  0.35744000000E-01  0.51099999109E-03 0. -1.
       22    1    1    2    0    0 -0.30661596965E-02 -0.18140357290E-02 -0.35558986543E-01  0.35737005818E-01  0.00000000000E+00 0. -1.
  9000001    1    1    2    0    0  0.30661596965E-02  0.18140357290E-02  0.35558986543E-01  0.35750994182E-01  0.10000000475E-02 0.  1.
</event>
<event>
 4   0  0.2441219E-02  0.9118800E+02  0.7818609E-02  0.1379984E+01
      -11   -1    0    0    0    0  0.00000000000E+00  0.00000000000E+00  0.35740347158E-01  0.35744000000E-01  0.51099999109E-03 0. -1.
       11   -1    0    0    0    0 -0.00000000000E+00 -0.00000000000E+00 -0.35740347158E-01  0.35744000000E-01  0.51099999109E-03 0.  1.
       22    1    1    2    0    0 -0.90735582553E-03  0.13762850529E-01  0.32968079040E-01  0.35737005818E-01  0.00000000000E+00 0. -1.
  9000001    1    1    2    0    0  0.90735582553E-03 -0.13762850529E-01 -0.32968079040E-01  0.35750994182E-01  0.10000000475E-02 0.  1.
</event>
<event>
 4   0  0.2441219E-02  0.9118800E+02  0.7818609E-02  0.1379984E+01
      -11   -1    0    0    0    0  0.00000000000E+00  0.00000000000E+00  0.35740347158E-01  0.35744000000E-01  0.51099999109E-03 0.  1.
       11   -1    0    0    0    0 -0.00000000000E+00 -0.00000000000E+00 -0.35740347158E-01  0.35744000000E-01  0.51099999109E-03 0. -1.
       22    1    1    2    0    0 -0.26480996331E-01  0.23626814847E-01  0.42028607372E-02  0.35737005818E-01  0.00000000000E+00 0.  1.
  9000001    1    1    2    0    0  0.26480996331E-01 -0.23626814847E-01 -0.42028607372E-02  0.35750994182E-01  0.10000000475E-02 0. -1.
</event>
<event>
 4   0  0.2441219E-02  0.9118800E+02  0.7818609E-02  0.1379984E+01
      -11   -1    0    0    0    0  0.00000000000E+00  0.00000000000E+00  0.35740347158E-01  0.35744000000E-01  0.51099999109E-03 0.  1.
       11   -1    0    0    0    0 -0.00000000000E+00 -0.00000000000E+00 -0.35740347158E-01  0.35744000000E-01  0.51099999109E-03 0. -1.
       22    1    1    2    0    0 -0.50914152348E-02  0.15880965694E-02 -0.35336794210E-01  0.35737005818E-01  0.00000000000E+00 0. -1.
  9000001    1    1    2    0    0  0.50914152348E-02 -0.15880965694E-02  0.35336794210E-01  0.35750994182E-01  0.10000000475E-02 0.  1.
</event>
<event>
 4   0  0.2441219E-02  0.9118800E+02  0.7818609E-02  0.1379984E+01
      -11   -1    0    0    0    0  0.00000000000E+00  0.00000000000E+00  0.35740347158E-01  0.35744000000E-01  0.51099999109E-03 0.  1.
       11   -1    0    0    0    0 -0.00000000000E+00 -0.00000000000E+00 -0.35740347158E-01  0.35744000000E-01  0.51099999109E-03 0. -1.
       22    1    1    2    0    0  0.74475744615E-02  0.12825936159E-01  0.32514036679E-01  0.35737005818E-01  0.00000000000E+00 0.  1.
  9000001    1    1    2    0    0 -0.74475744615E-02 -0.12825936159E-01 -0.32514036679E-01  0.35750994182E-01  0.10000000475E-02 0. -1.
</event>
<event>
 4   0  0.2441219E-02  0.9118800E+02  0.7818609E-02  0.1379984E+01
      -11   -1    0    0    0    0  0.00000000000E+00  0.00000000000E+00  0.35740347158E-01  0.35744000000E-01  0.51099999109E-03 0. -1.
       11   -1    0    0    0    0 -0.00000000000E+00 -0.00000000000E+00 -0.35740347158E-01  0.35744000000E-01  0.51099999109E-03 0.  1.
       22    1    1    2    0    0  0.36195083673E-02 -0.60827228544E-02  0.35029034054E-01  0.35737005818E-01  0.00000000000E+00 0. -1.
  9000001    1    1    2    0    0 -0.36195083673E-02  0.60827228544E-02 -0.35029034054E-01  0.35750994182E-01  0.10000000475E-02 0.  1.
</event>
<event>
 4   0  0.2441219E-02  0.9118800E+02  0.7818609E-02  0.1379984E+01
      -11   -1    0    0    0    0  0.00000000000E+00  0.00000000000E+00  0.35740347158E-01  0.35744000000E-01  0.51099999109E-03 0.  1.
       11   -1    0    0    0    0 -0.00000000000E+00 -0.00000000000E+00 -0.35740347158E-01  0.35744000000E-01  0.51099999109E-03 0. -1.
       22    1    1    2    0    0  0.50081705135E-03  0.81362477072E-02 -0.34794888136E-01  0.35737005818E-01  0.00000000000E+00 0. -1.
  9000001    1    1    2    0    0 -0.50081705135E-03 -0.81362477072E-02  0.34794888136E-01  0.35750994182E-01  0.10000000475E-02 0.  1.
</event>
<event>
 4   0  0.2441219E-02  0.9118800E+02  0.7818609E-02  0.1379984E+01
      -11   -1    0    0    0    0  0.00000000000E+00  0.00000000000E+00  0.35740347158E-01  0.35744000000E-01  0.51099999109E-03 0. -1.
       11   -1    0    0    0    0 -0.00000000000E+00 -0.00000000000E+00 -0.35740347158E-01  0.35744000000E-01  0.51099999109E-03 0.  1.
       22    1    1    2    0    0  0.34734257126E-02  0.13530217381E-02 -0.35542062839E-01  0.35737005818E-01  0.00000000000E+00 0.  1.
  9000001    1    1    2    0    0 -0.34734257126E-02 -0.13530217381E-02  0.35542062839E-01  0.35750994182E-01  0.10000000475E-02 0. -1.
</event>
<event>
 4   0  0.2441219E-02  0.9118800E+02  0.7818609E-02  0.1379984E+01
      -11   -1    0    0    0    0  0.00000000000E+00  0.00000000000E+00  0.35740347158E-01  0.35744000000E-01  0.51099999109E-03 0. -1.
       11   -1    0    0    0    0 -0.00000000000E+00 -0.00000000000E+00 -0.35740347158E-01  0.35744000000E-01  0.51099999109E-03 0.  1.
       22    1    1    2    0    0 -0.49010151377E-02 -0.20948774743E-01 -0.28535284688E-01  0.35737005818E-01  0.00000000000E+00 0.  1.
  9000001    1    1    2    0    0  0.49010151377E-02  0.20948774743E-01  0.28535284688E-01  0.35750994182E-01  0.10000000475E-02 0. -1.
</event>
<event>
 4   0  0.2441219E-02  0.9118800E+02  0.7818609E-02  0.1379984E+01
      -11   -1    0    0    0    0  0.00000000000E+00  0.00000000000E+00  0.35740347158E-01  0.35744000000E-01  0.51099999109E-03 0. -1.
       11   -1    0    0    0    0 -0.00000000000E+00 -0.00000000000E+00 -0.35740347158E-01  0.35744000000E-01  0.51099999109E-03 0.  1.
       22    1    1    2    0    0  0.58021306015E-02 -0.11665392302E-02  0.35243553334E-01  0.35737005818E-01  0.00000000000E+00 0. -1.
  9000001    1    1    2    0    0 -0.58021306015E-02  0.11665392302E-02 -0.35243553334E-01  0.35750994182E-01  0.10000000475E-02 0.  1.
</event>
<event>
 4   0  0.2441219E-02  0.9118800E+02  0.7818609E-02  0.1379984E+01
      -11   -1    0    0    0    0  0.00000000000E+00  0.00000000000E+00  0.35740347158E-01  0.35744000000E-01  0.51099999109E-03 0. -1.
       11   -1    0    0    0    0 -0.00000000000E+00 -0.00000000000E+00 -0.35740347158E-01  0.35744000000E-01  0.51099999109E-03 0.  1.
       22    1    1    2    0    0 -0.43134368589E-04 -0.60497234478E-02 -0.35221194905E-01  0.35737005818E-01  0.00000000000E+00 0.  1.
  9000001    1    1    2    0    0  0.43134368589E-04  0.60497234478E-02  0.35221194905E-01  0.35750994182E-01  0.10000000475E-02 0. -1.
</event>
<event>
 4   0  0.2441219E-02  0.9118800E+02  0.7818609E-02  0.1379984E+01
      -11   -1    0    0    0    0  0.00000000000E+00  0.00000000000E+00  0.35740347158E-01  0.35744000000E-01  0.51099999109E-03 0. -1.
       11   -1    0    0    0    0 -0.00000000000E+00 -0.00000000000E+00 -0.35740347158E-01  0.35744000000E-01  0.51099999109E-03 0.  1.
       22    1    1    2    0    0 -0.14503153546E-01  0.73655351171E-02 -0.31820449628E-01  0.35737005818E-01  0.00000000000E+00 0.  1.
  9000001    1    1    2    0    0  0.14503153546E-01 -0.73655351171E-02  0.31820449628E-01  0.35750994182E-01  0.10000000475E-02 0. -1.
</event>
<event>
 4   0  0.2441219E-02  0.9118800E+02  0.7818609E-02  0.1379984E+01
      -11   -1    0    0    0    0  0.00000000000E+00  0.00000000000E+00  0.35740347158E-01  0.35744000000E-01  0.51099999109E-03 0.  1.
       11   -1    0    0    0    0 -0.00000000000E+00 -0.00000000000E+00 -0.35740347158E-01  0.35744000000E-01  0.51099999109E-03 0. -1.
       22    1    1    2    0    0  0.49669279276E-02  0.58082954890E-02  0.34910269483E-01  0.35737005818E-01  0.00000000000E+00 0.  1.
  9000001    1    1    2    0    0 -0.49669279276E-02 -0.58082954890E-02 -0.34910269483E-01  0.35750994182E-01  0.10000000475E-02 0. -1.
</event>
<event>
 4   0  0.2441219E-02  0.9118800E+02  0.7818609E-02  0.1379984E+01
      -11   -1    0    0    0    0  0.00000000000E+00  0.00000000000E+00  0.35740347158E-01  0.35744000000E-01  0.51099999109E-03 0.  1.
       11   -1    0    0    0    0 -0.00000000000E+00 -0.00000000000E+00 -0.35740347158E-01  0.35744000000E-01  0.51099999109E-03 0. -1.
       22    1    1    2    0    0  0.14264791620E-01 -0.13775179358E-01  0.29730350462E-01  0.35737005818E-01  0.00000000000E+00 0.  1.
  9000001    1    1    2    0    0 -0.14264791620E-01  0.13775179358E-01 -0.29730350462E-01  0.35750994182E-01  0.10000000475E-02 0. -1.
</event>
<event>
 4   0  0.2441219E-02  0.9118800E+02  0.7818609E-02  0.1379984E+01
      -11   -1    0    0    0    0  0.00000000000E+00  0.00000000000E+00  0.35740347158E-01  0.35744000000E-01  0.51099999109E-03 0.  1.
       11   -1    0    0    0    0 -0.00000000000E+00 -0.00000000000E+00 -0.35740347158E-01  0.35744000000E-01  0.51099999109E-03 0. -1.
       22    1    1    2    0    0  0.46644868747E-02  0.74384508016E-02 -0.34641674277E-01  0.35737005818E-01  0.00000000000E+00 0. -1.
  9000001    1    1    2    0    0 -0.46644868747E-02 -0.74384508016E-02  0.34641674277E-01  0.35750994182E-01  0.10000000475E-02 0.  1.
</event>
<event>
 4   0  0.2441219E-02  0.9118800E+02  0.7818609E-02  0.1379984E+01
      -11   -1    0    0    0    0  0.00000000000E+00  0.00000000000E+00  0.35740347158E-01  0.35744000000E-01  0.51099999109E-03 0. -1.
       11   -1    0    0    0    0 -0.00000000000E+00 -0.00000000000E+00 -0.35740347158E-01  0.35744000000E-01  0.51099999109E-03 0.  1.
       22    1    1    2    0    0  0.18187408178E-01 -0.27810083762E-01  0.13151083978E-01  0.35737005818E-01  0.00000000000E+00 0.  1.
  9000001    1    1    2    0    0 -0.18187408178E-01  0.27810083762E-01 -0.13151083978E-01  0.35750994182E-01  0.10000000475E-02 0. -1.
</event>
<event>
 4   0  0.2441219E-02  0.9118800E+02  0.7818609E-02  0.1379984E+01
      -11   -1    0    0    0    0  0.00000000000E+00  0.00000000000E+00  0.35740347158E-01  0.35744000000E-01  0.51099999109E-03 0.  1.
       11   -1    0    0    0    0 -0.00000000000E+00 -0.00000000000E+00 -0.35740347158E-01  0.35744000000E-01  0.51099999109E-03 0. -1.
       22    1    1    2    0    0  0.20782459986E-02  0.41587418046E-02  0.35433308412E-01  0.35737005818E-01  0.00000000000E+00 0.  1.
  9000001    1    1    2    0    0 -0.20782459986E-02 -0.41587418046E-02 -0.35433308412E-01  0.35750994182E-01  0.10000000475E-02 0. -1.
</event>
<event>
 4   0  0.2441219E-02  0.9118800E+02  0.7818609E-02  0.1379984E+01
      -11   -1    0    0    0    0  0.00000000000E+00  0.00000000000E+00  0.35740347158E-01  0.35744000000E-01  0.51099999109E-03 0.  1.
       11   -1    0    0    0    0 -0.00000000000E+00 -0.00000000000E+00 -0.35740347158E-01  0.35744000000E-01  0.51099999109E-03 0. -1.
       22    1    1    2    0    0 -0.15328292275E-01  0.11540992356E-01  0.30149337244E-01  0.35737005818E-01  0.00000000000E+00 0.  1.
  9000001    1    1    2    0    0  0.15328292275E-01 -0.11540992356E-01 -0.30149337244E-01  0.35750994182E-01  0.10000000475E-02 0. -1.
</event>
<event>
 4   0  0.2441219E-02  0.9118800E+02  0.7818609E-02  0.1379984E+01
      -11   -1    0    0    0    0  0.00000000000E+00  0.00000000000E+00  0.35740347158E-01  0.35744000000E-01  0.51099999109E-03 0.  1.
       11   -1    0    0    0    0 -0.00000000000E+00 -0.00000000000E+00 -0.35740347158E-01  0.35744000000E-01  0.51099999109E-03 0. -1.
       22    1    1    2    0    0  0.59709254974E-02 -0.52066062814E-02 -0.34847853372E-01  0.35737005818E-01  0.00000000000E+00 0. -1.
  9000001    1    1    2    0    0 -0.59709254974E-02  0.52066062814E-02  0.34847853372E-01  0.35750994182E-01  0.10000000475E-02 0.  1.
</event>
<event>
 4   0  0.2441219E-02  0.9118800E+02  0.7818609E-02  0.1379984E+01
      -11   -1    0    0    0    0  0.00000000000E+00  0.00000000000E+00  0.35740347158E-01  0.35744000000E-01  0.51099999109E-03 0. -1.
       11   -1    0    0    0    0 -0.00000000000E+00 -0.00000000000E+00 -0.35740347158E-01  0.35744000000E-01  0.51099999109E-03 0.  1.
       22    1    1    2    0    0 -0.45127125296E-02  0.89831870968E-02 -0.34293896834E-01  0.35737005818E-01  0.00000000000E+00 0.  1.
  9000001    1    1    2    0    0  0.45127125296E-02 -0.89831870968E-02  0.34293896834E-01  0.35750994182E-01  0.10000000475E-02 0. -1.
</event>
<event>
 4   0  0.2441219E-02  0.9118800E+02  0.7818609E-02  0.1379984E+01
      -11   -1    0    0    0    0  0.00000000000E+00  0.00000000000E+00  0.35740347158E-01  0.35744000000E-01  0.51099999109E-03 0.  1.
       11   -1    0    0    0    0 -0.00000000000E+00 -0.00000000000E+00 -0.35740347158E-01  0.35744000000E-01  0.51099999109E-03 0. -1.
       22    1    1    2    0    0 -0.24436617480E-01 -0.11171424033E-01 -0.23562355487E-01  0.35737005818E-01  0.00000000000E+00 0. -1.
  9000001    1    1    2    0    0  0.24436617480E-01  0.11171424033E-01  0.23562355487E-01  0.35750994182E-01  0.10000000475E-02 0.  1.
</event>
<event>
 4   0  0.2441219E-02  0.9118800E+02  0.7818609E-02  0.1379984E+01
      -11   -1    0    0    0    0  0.00000000000E+00  0.00000000000E+00  0.35740347158E-01  0.35744000000E-01  0.51099999109E-03 0. -1.
       11   -1    0    0    0    0 -0.00000000000E+00 -0.00000000000E+00 -0.35740347158E-01  0.35744000000E-01  0.51099999109E-03 0.  1.
       22    1    1    2    0    0 -0.47795214659E-02  0.32326181718E-02  0.35268115050E-01  0.35737005818E-01  0.00000000000E+00 0. -1.
  9000001    1    1    2    0    0  0.47795214659E-02 -0.32326181718E-02 -0.35268115050E-01  0.35750994182E-01  0.10000000475E-02 0.  1.
</event>
<event>
 4   0  0.2441219E-02  0.9118800E+02  0.7818609E-02  0.1379984E+01
      -11   -1    0    0    0    0  0.00000000000E+00  0.00000000000E+00  0.35740347158E-01  0.35744000000E-01  0.51099999109E-03 0. -1.
       11   -1    0    0    0    0 -0.00000000000E+00 -0.00000000000E+00 -0.35740347158E-01  0.35744000000E-01  0.51099999109E-03 0.  1.
       22    1    1    2    0    0 -0.12840666036E-01 -0.10586006686E-01 -0.31625738617E-01  0.35737005818E-01  0.00000000000E+00 0.  1.
  9000001    1    1    2    0    0  0.12840666036E-01  0.10586006686E-01  0.31625738617E-01  0.35750994182E-01  0.10000000475E-02 0. -1.
</event>
<event>
 4   0  0.2441219E-02  0.9118800E+02  0.7818609E-02  0.1379984E+01
      -11   -1    0    0    0    0  0.00000000000E+00  0.00000000000E+00  0.35740347158E-01  0.35744000000E-01  0.51099999109E-03 0. -1.
       11   -1    0    0    0    0 -0.00000000000E+00 -0.00000000000E+00 -0.35740347158E-01  0.35744000000E-01  0.51099999109E-03 0.  1.
       22    1    1    2    0    0  0.20908505687E-01  0.46481331267E-02 -0.28607041672E-01  0.35737005818E-01  0.00000000000E+00 0.  1.
  9000001    1    1    2    0    0 -0.20908505687E-01 -0.46481331267E-02  0.28607041672E-01  0.35750994182E-01  0.10000000475E-02 0. -1.
</event>
<event>
 4   0  0.2441219E-02  0.9118800E+02  0.7818609E-02  0.1379984E+01
      -11   -1    0    0    0    0  0.00000000000E+00  0.00000000000E+00  0.35740347158E-01  0.35744000000E-01  0.51099999109E-03 0. -1.
       11   -1    0    0    0    0 -0.00000000000E+00 -0.00000000000E+00 -0.35740347158E-01  0.35744000000E-01  0.51099999109E-03 0.  1.
       22    1    1    2    0    0  0.26909891953E-01  0.13224514509E-01 -0.19444884056E-01  0.35737005818E-01  0.00000000000E+00 0.  1.
  9000001    1    1    2    0    0 -0.26909891953E-01 -0.13224514509E-01  0.19444884056E-01  0.35750994182E-01  0.10000000475E-02 0. -1.
</event>
<event>
 4   0  0.2441219E-02  0.9118800E+02  0.7818609E-02  0.1379984E+01
      -11   -1    0    0    0    0  0.00000000000E+00  0.00000000000E+00  0.35740347158E-01  0.35744000000E-01  0.51099999109E-03 0.  1.
       11   -1    0    0    0    0 -0.00000000000E+00 -0.00000000000E+00 -0.35740347158E-01  0.35744000000E-01  0.51099999109E-03 0. -1.
       22    1    1    2    0    0  0.10836659982E-01 -0.51057771331E-02 -0.33669443494E-01  0.35737005818E-01  0.00000000000E+00 0. -1.
  9000001    1    1    2    0    0 -0.10836659982E-01  0.51057771331E-02  0.33669443494E-01  0.35750994182E-01  0.10000000475E-02 0.  1.
</event>
<event>
 4   0  0.2441219E-02  0.9118800E+02  0.7818609E-02  0.1379984E+01
      -11   -1    0    0    0    0  0.00000000000E+00  0.00000000000E+00  0.35740347158E-01  0.35744000000E-01  0.51099999109E-03 0. -1.
       11   -1    0    0    0    0 -0.00000000000E+00 -0.00000000000E+00 -0.35740347158E-01  0.35744000000E-01  0.51099999109E-03 0.  1.
       22    1    1    2    0    0  0.76216431428E-02 -0.16554692443E-03  0.34914420157E-01  0.35737005818E-01  0.00000000000E+00 0. -1.
  9000001    1    1    2    0    0 -0.76216431428E-02  0.16554692443E-03 -0.34914420157E-01  0.35750994182E-01  0.10000000475E-02 0.  1.
</event>
<event>
 4   0  0.2441219E-02  0.9118800E+02  0.7818609E-02  0.1379984E+01
      -11   -1    0    0    0    0  0.00000000000E+00  0.00000000000E+00  0.35740347158E-01  0.35744000000E-01  0.51099999109E-03 0. -1.
       11   -1    0    0    0    0 -0.00000000000E+00 -0.00000000000E+00 -0.35740347158E-01  0.35744000000E-01  0.51099999109E-03 0.  1.
       22    1    1    2    0    0  0.75981592195E-02  0.39572072118E-02 -0.34694986272E-01  0.35737005818E-01  0.00000000000E+00 0.  1.
  9000001    1    1    2    0    0 -0.75981592195E-02 -0.39572072118E-02  0.34694986272E-01  0.35750994182E-01  0.10000000475E-02 0. -1.
</event>
<event>
 4   0  0.2441219E-02  0.9118800E+02  0.7818609E-02  0.1379984E+01
      -11   -1    0    0    0    0  0.00000000000E+00  0.00000000000E+00  0.35740347158E-01  0.35744000000E-01  0.51099999109E-03 0.  1.
       11   -1    0    0    0    0 -0.00000000000E+00 -0.00000000000E+00 -0.35740347158E-01  0.35744000000E-01  0.51099999109E-03 0. -1.
       22    1    1    2    0    0 -0.92198696247E-02 -0.50879796235E-02  0.34150256988E-01  0.35737005818E-01  0.00000000000E+00 0.  1.
  9000001    1    1    2    0    0  0.92198696247E-02  0.50879796235E-02 -0.34150256988E-01  0.35750994182E-01  0.10000000475E-02 0. -1.
</event>
<event>
 4   0  0.2441219E-02  0.9118800E+02  0.7818609E-02  0.1379984E+01
      -11   -1    0    0    0    0  0.00000000000E+00  0.00000000000E+00  0.35740347158E-01  0.35744000000E-01  0.51099999109E-03 0. -1.
       11   -1    0    0    0    0 -0.00000000000E+00 -0.00000000000E+00 -0.35740347158E-01  0.35744000000E-01  0.51099999109E-03 0.  1.
       22    1    1    2    0    0  0.39699953977E-02 -0.12342519649E-01  0.33302176057E-01  0.35737005818E-01  0.00000000000E+00 0. -1.
  9000001    1    1    2    0    0 -0.39699953977E-02  0.12342519649E-01 -0.33302176057E-01  0.35750994182E-01  0.10000000475E-02 0.  1.
</event>
<event>
 4   0  0.2441219E-02  0.9118800E+02  0.7818609E-02  0.1379984E+01
      -11   -1    0    0    0    0  0.00000000000E+00  0.00000000000E+00  0.35740347158E-01  0.35744000000E-01  0.51099999109E-03 0. -1.
       11   -1    0    0    0    0 -0.00000000000E+00 -0.00000000000E+00 -0.35740347158E-01  0.35744000000E-01  0.51099999109E-03 0.  1.
       22    1    1    2    0    0  0.50986000987E-02  0.42509155143E-02  0.35115061999E-01  0.35737005818E-01  0.00000000000E+00 0. -1.
  9000001    1    1    2    0    0 -0.50986000987E-02 -0.42509155143E-02 -0.35115061999E-01  0.35750994182E-01  0.10000000475E-02 0.  1.
</event>
<event>
 4   0  0.2441219E-02  0.9118800E+02  0.7818609E-02  0.1379984E+01
      -11   -1    0    0    0    0  0.00000000000E+00  0.00000000000E+00  0.35740347158E-01  0.35744000000E-01  0.51099999109E-03 0. -1.
       11   -1    0    0    0    0 -0.00000000000E+00 -0.00000000000E+00 -0.35740347158E-01  0.35744000000E-01  0.51099999109E-03 0.  1.
       22    1    1    2    0    0  0.25045481441E-02 -0.13625136763E-01 -0.32942623934E-01  0.35737005818E-01  0.00000000000E+00 0.  1.
  9000001    1    1    2    0    0 -0.25045481441E-02  0.13625136763E-01  0.32942623934E-01  0.35750994182E-01  0.10000000475E-02 0. -1.
</event>
<event>
 4   0  0.2441219E-02  0.9118800E+02  0.7818609E-02  0.1379984E+01
      -11   -1    0    0    0    0  0.00000000000E+00  0.00000000000E+00  0.35740347158E-01  0.35744000000E-01  0.51099999109E-03 0.  1.
       11   -1    0    0    0    0 -0.00000000000E+00 -0.00000000000E+00 -0.35740347158E-01  0.35744000000E-01  0.51099999109E-03 0. -1.
       22    1    1    2    0    0  0.20419865967E-01 -0.79574828946E-02  0.28228374461E-01  0.35737005818E-01  0.00000000000E+00 0.  1.
  9000001    1    1    2    0    0 -0.20419865967E-01  0.79574828946E-02 -0.28228374461E-01  0.35750994182E-01  0.10000000475E-02 0. -1.
</event>
<event>
 4   0  0.2441219E-02  0.9118800E+02  0.7818609E-02  0.1379984E+01
      -11   -1    0    0    0    0  0.00000000000E+00  0.00000000000E+00  0.35740347158E-01  0.35744000000E-01  0.51099999109E-03 0. -1.
       11   -1    0    0    0    0 -0.00000000000E+00 -0.00000000000E+00 -0.35740347158E-01  0.35744000000E-01  0.51099999109E-03 0.  1.
       22    1    1    2    0    0 -0.58455890204E-02  0.38378065482E-02 -0.35046168332E-01  0.35737005818E-01  0.00000000000E+00 0.  1.
  9000001    1    1    2    0    0  0.58455890204E-02 -0.38378065482E-02  0.35046168332E-01  0.35750994182E-01  0.10000000475E-02 0. -1.
</event>
<event>
 4   0  0.2441219E-02  0.9118800E+02  0.7818609E-02  0.1379984E+01
      -11   -1    0    0    0    0  0.00000000000E+00  0.00000000000E+00  0.35740347158E-01  0.35744000000E-01  0.51099999109E-03 0.  1.
       11   -1    0    0    0    0 -0.00000000000E+00 -0.00000000000E+00 -0.35740347158E-01  0.35744000000E-01  0.51099999109E-03 0. -1.
       22    1    1    2    0    0  0.12345842441E-01  0.95023946660E-02 -0.32162373278E-01  0.35737005818E-01  0.00000000000E+00 0. -1.
  9000001    1    1    2    0    0 -0.12345842441E-01 -0.95023946660E-02  0.32162373278E-01  0.35750994182E-01  0.10000000475E-02 0.  1.
</event>
<event>
 4   0  0.2441219E-02  0.9118800E+02  0.7818609E-02  0.1379984E+01
      -11   -1    0    0    0    0  0.00000000000E+00  0.00000000000E+00  0.35740347158E-01  0.35744000000E-01  0.51099999109E-03 0.  1.
       11   -1    0    0    0    0 -0.00000000000E+00 -0.00000000000E+00 -0.35740347158E-01  0.35744000000E-01  0.51099999109E-03 0. -1.
       22    1    1    2    0    0 -0.71547055115E-02  0.25275439798E-01  0.24230062256E-01  0.35737005818E-01  0.00000000000E+00 0.  1.
  9000001    1    1    2    0    0  0.71547055115E-02 -0.25275439798E-01 -0.24230062256E-01  0.35750994182E-01  0.10000000475E-02 0. -1.
</event>
<event>
 4   0  0.2441219E-02  0.9118800E+02  0.7818609E-02  0.1379984E+01
      -11   -1    0    0    0    0  0.00000000000E+00  0.00000000000E+00  0.35740347158E-01  0.35744000000E-01  0.51099999109E-03 0.  1.
       11   -1    0    0    0    0 -0.00000000000E+00 -0.00000000000E+00 -0.35740347158E-01  0.35744000000E-01  0.51099999109E-03 0. -1.
       22    1    1    2    0    0 -0.12397307005E-01 -0.12547434166E-01 -0.31080576889E-01  0.35737005818E-01  0.00000000000E+00 0. -1.
  9000001    1    1    2    0    0  0.12397307005E-01  0.12547434166E-01  0.31080576889E-01  0.35750994182E-01  0.10000000475E-02 0.  1.
</event>
<event>
 4   0  0.2441219E-02  0.9118800E+02  0.7818609E-02  0.1379984E+01
      -11   -1    0    0    0    0  0.00000000000E+00  0.00000000000E+00  0.35740347158E-01  0.35744000000E-01  0.51099999109E-03 0.  1.
       11   -1    0    0    0    0 -0.00000000000E+00 -0.00000000000E+00 -0.35740347158E-01  0.35744000000E-01  0.51099999109E-03 0. -1.
       22    1    1    2    0    0 -0.82130337544E-02 -0.21879636416E-01 -0.27036293602E-01  0.35737005818E-01  0.00000000000E+00 0. -1.
  9000001    1    1    2    0    0  0.82130337544E-02  0.21879636416E-01  0.27036293602E-01  0.35750994182E-01  0.10000000475E-02 0.  1.
</event>
<event>
 4   0  0.2441219E-02  0.9118800E+02  0.7818609E-02  0.1379984E+01
      -11   -1    0    0    0    0  0.00000000000E+00  0.00000000000E+00  0.35740347158E-01  0.35744000000E-01  0.51099999109E-03 0. -1.
       11   -1    0    0    0    0 -0.00000000000E+00 -0.00000000000E+00 -0.35740347158E-01  0.35744000000E-01  0.51099999109E-03 0.  1.
       22    1    1    2    0    0 -0.16595863101E-01 -0.18607412674E-01  0.25602248073E-01  0.35737005818E-01  0.00000000000E+00 0.  1.
  9000001    1    1    2    0    0  0.16595863101E-01  0.18607412674E-01 -0.25602248073E-01  0.35750994182E-01  0.10000000475E-02 0. -1.
</event>
<event>
 4   0  0.2441219E-02  0.9118800E+02  0.7818609E-02  0.1379984E+01
      -11   -1    0    0    0    0  0.00000000000E+00  0.00000000000E+00  0.35740347158E-01  0.35744000000E-01  0.51099999109E-03 0. -1.
       11   -1    0    0    0    0 -0.00000000000E+00 -0.00000000000E+00 -0.35740347158E-01  0.35744000000E-01  0.51099999109E-03 0.  1.
       22    1    1    2    0    0 -0.69598305856E-02  0.10041356443E-02 -0.35038351198E-01  0.35737005818E-01  0.00000000000E+00 0.  1.
  9000001    1    1    2    0    0  0.69598305856E-02 -0.10041356443E-02  0.35038351198E-01  0.35750994182E-01  0.10000000475E-02 0. -1.
</event>
<event>
 4   0  0.2441219E-02  0.9118800E+02  0.7818609E-02  0.1379984E+01
      -11   -1    0    0    0    0  0.00000000000E+00  0.00000000000E+00  0.35740347158E-01  0.35744000000E-01  0.51099999109E-03 0. -1.
       11   -1    0    0    0    0 -0.00000000000E+00 -0.00000000000E+00 -0.35740347158E-01  0.35744000000E-01  0.51099999109E-03 0.  1.
       22    1    1    2    0    0 -0.17237099195E-01  0.13488702799E-01 -0.28250148549E-01  0.35737005818E-01  0.00000000000E+00 0.  1.
  9000001    1    1    2    0    0  0.17237099195E-01 -0.13488702799E-01  0.28250148549E-01  0.35750994182E-01  0.10000000475E-02 0. -1.
</event>
<event>
 4   0  0.2441219E-02  0.9118800E+02  0.7818609E-02  0.1379984E+01
      -11   -1    0    0    0    0  0.00000000000E+00  0.00000000000E+00  0.35740347158E-01  0.35744000000E-01  0.51099999109E-03 0. -1.
       11   -1    0    0    0    0 -0.00000000000E+00 -0.00000000000E+00 -0.35740347158E-01  0.35744000000E-01  0.51099999109E-03 0.  1.
       22    1    1    2    0    0 -0.54859552697E-02  0.54195071452E-02  0.34895083063E-01  0.35737005818E-01  0.00000000000E+00 0. -1.
  9000001    1    1    2    0    0  0.54859552697E-02 -0.54195071452E-02 -0.34895083063E-01  0.35750994182E-01  0.10000000475E-02 0.  1.
</event>
<event>
 4   0  0.2441219E-02  0.9118800E+02  0.7818609E-02  0.1379984E+01
      -11   -1    0    0    0    0  0.00000000000E+00  0.00000000000E+00  0.35740347158E-01  0.35744000000E-01  0.51099999109E-03 0. -1.
       11   -1    0    0    0    0 -0.00000000000E+00 -0.00000000000E+00 -0.35740347158E-01  0.35744000000E-01  0.51099999109E-03 0.  1.
       22    1    1    2    0    0 -0.82653252064E-02  0.11511303019E-01  0.32807131647E-01  0.35737005818E-01  0.00000000000E+00 0. -1.
  9000001    1    1    2    0    0  0.82653252064E-02 -0.11511303019E-01 -0.32807131647E-01  0.35750994182E-01  0.10000000475E-02 0.  1.
</event>
<event>
 4   0  0.2441219E-02  0.9118800E+02  0.7818609E-02  0.1379984E+01
      -11   -1    0    0    0    0  0.00000000000E+00  0.00000000000E+00  0.35740347158E-01  0.35744000000E-01  0.51099999109E-03 0. -1.
       11   -1    0    0    0    0 -0.00000000000E+00 -0.00000000000E+00 -0.35740347158E-01  0.35744000000E-01  0.51099999109E-03 0.  1.
       22    1    1    2    0    0  0.25382517016E-02 -0.98729287239E-02  0.34252242869E-01  0.35737005818E-01  0.00000000000E+00 0. -1.
  9000001    1    1    2    0    0 -0.25382517016E-02  0.98729287239E-02 -0.34252242869E-01  0.35750994182E-01  0.10000000475E-02 0.  1.
</event>
<event>
 4   0  0.2441219E-02  0.9118800E+02  0.7818609E-02  0.1379984E+01
      -11   -1    0    0    0    0  0.00000000000E+00  0.00000000000E+00  0.35740347158E-01  0.35744000000E-01  0.51099999109E-03 0. -1.
       11   -1    0    0    0    0 -0.00000000000E+00 -0.00000000000E+00 -0.35740347158E-01  0.35744000000E-01  0.51099999109E-03 0.  1.
       22    1    1    2    0    0 -0.50283206962E-02 -0.34610797014E-02  0.35211794944E-01  0.35737005818E-01  0.00000000000E+00 0. -1.
  9000001    1    1    2    0    0  0.50283206962E-02  0.34610797014E-02 -0.35211794944E-01  0.35750994182E-01  0.10000000475E-02 0.  1.
</event>
<event>
 4   0  0.2441219E-02  0.9118800E+02  0.7818609E-02  0.1379984E+01
      -11   -1    0    0    0    0  0.00000000000E+00  0.00000000000E+00  0.35740347158E-01  0.35744000000E-01  0.51099999109E-03 0. -1.
       11   -1    0    0    0    0 -0.00000000000E+00 -0.00000000000E+00 -0.35740347158E-01  0.35744000000E-01  0.51099999109E-03 0.  1.
       22    1    1    2    0    0  0.31134385048E-02 -0.83407647487E-02 -0.34610283572E-01  0.35737005818E-01  0.00000000000E+00 0.  1.
  9000001    1    1    2    0    0 -0.31134385048E-02  0.83407647487E-02  0.34610283572E-01  0.35750994182E-01  0.10000000475E-02 0. -1.
</event>
<event>
 4   0  0.2441219E-02  0.9118800E+02  0.7818609E-02  0.1379984E+01
      -11   -1    0    0    0    0  0.00000000000E+00  0.00000000000E+00  0.35740347158E-01  0.35744000000E-01  0.51099999109E-03 0.  1.
       11   -1    0    0    0    0 -0.00000000000E+00 -0.00000000000E+00 -0.35740347158E-01  0.35744000000E-01  0.51099999109E-03 0. -1.
       22    1    1    2    0    0 -0.24710353732E-01  0.25608509461E-01 -0.32766212014E-02  0.35737005818E-01  0.00000000000E+00 0.  1.
  9000001    1    1    2    0    0  0.24710353732E-01 -0.25608509461E-01  0.32766212014E-02  0.35750994182E-01  0.10000000475E-02 0. -1.
</event>
<event>
 4   0  0.2441219E-02  0.9118800E+02  0.7818609E-02  0.1379984E+01
      -11   -1    0    0    0    0  0.00000000000E+00  0.00000000000E+00  0.35740347158E-01  0.35744000000E-01  0.51099999109E-03 0. -1.
       11   -1    0    0    0    0 -0.00000000000E+00 -0.00000000000E+00 -0.35740347158E-01  0.35744000000E-01  0.51099999109E-03 0.  1.
       22    1    1    2    0    0  0.57859814660E-02 -0.10229234403E-01 -0.33749352096E-01  0.35737005818E-01  0.00000000000E+00 0.  1.
  9000001    1    1    2    0    0 -0.57859814660E-02  0.10229234403E-01  0.33749352096E-01  0.35750994182E-01  0.10000000475E-02 0. -1.
</event>
<event>
 4   0  0.2441219E-02  0.9118800E+02  0.7818609E-02  0.1379984E+01
      -11   -1    0    0    0    0  0.00000000000E+00  0.00000000000E+00  0.35740347158E-01  0.35744000000E-01  0.51099999109E-03 0.  1.
       11   -1    0    0    0    0 -0.00000000000E+00 -0.00000000000E+00 -0.35740347158E-01  0.35744000000E-01  0.51099999109E-03 0. -1.
       22    1    1    2    0    0 -0.46549167144E-02 -0.48967390924E-02  0.35092553078E-01  0.35737005818E-01  0.00000000000E+00 0.  1.
  9000001    1    1    2    0    0  0.46549167144E-02  0.48967390924E-02 -0.35092553078E-01  0.35750994182E-01  0.10000000475E-02 0. -1.
</event>
<event>
 4   0  0.2441219E-02  0.9118800E+02  0.7818609E-02  0.1379984E+01
      -11   -1    0    0    0    0  0.00000000000E+00  0.00000000000E+00  0.35740347158E-01  0.35744000000E-01  0.51099999109E-03 0.  1.
       11   -1    0    0    0    0 -0.00000000000E+00 -0.00000000000E+00 -0.35740347158E-01  0.35744000000E-01  0.51099999109E-03 0. -1.
       22    1    1    2    0    0 -0.25402525207E-01 -0.90305944972E-02  0.23458338837E-01  0.35737005818E-01  0.00000000000E+00 0.  1.
  9000001    1    1    2    0    0  0.25402525207E-01  0.90305944972E-02 -0.23458338837E-01  0.35750994182E-01  0.10000000475E-02 0. -1.
</event>
<event>
 4   0  0.2441219E-02  0.9118800E+02  0.7818609E-02  0.1379984E+01
      -11   -1    0    0    0    0  0.00000000000E+00  0.00000000000E+00  0.35740347158E-01  0.35744000000E-01  0.51099999109E-03 0.  1.
       11   -1    0    0    0    0 -0.00000000000E+00 -0.00000000000E+00 -0.35740347158E-01  0.35744000000E-01  0.51099999109E-03 0. -1.
       22    1    1    2    0    0  0.11150228728E-01 -0.26641950106E-02  0.33848309398E-01  0.35737005818E-01  0.00000000000E+00 0.  1.
  9000001    1    1    2    0    0 -0.11150228728E-01  0.26641950106E-02 -0.33848309398E-01  0.35750994182E-01  0.10000000475E-02 0. -1.
</event>
<event>
 4   0  0.2441219E-02  0.9118800E+02  0.7818609E-02  0.1379984E+01
      -11   -1    0    0    0    0  0.00000000000E+00  0.00000000000E+00  0.35740347158E-01  0.35744000000E-01  0.51099999109E-03 0.  1.
       11   -1    0    0    0    0 -0.00000000000E+00 -0.00000000000E+00 -0.35740347158E-01  0.35744000000E-01  0.51099999109E-03 0. -1.
       22    1    1    2    0    0  0.65321774400E-02 -0.36160833462E-02  0.34948364540E-01  0.35737005818E-01  0.00000000000E+00 0.  1.
  9000001    1    1    2    0    0 -0.65321774400E-02  0.36160833462E-02 -0.34948364540E-01  0.35750994182E-01  0.10000000475E-02 0. -1.
</event>
<event>
 4   0  0.2441219E-02  0.9118800E+02  0.7818609E-02  0.1379984E+01
      -11   -1    0    0    0    0  0.00000000000E+00  0.00000000000E+00  0.35740347158E-01  0.35744000000E-01  0.51099999109E-03 0. -1.
       11   -1    0    0    0    0 -0.00000000000E+00 -0.00000000000E+00 -0.35740347158E-01  0.35744000000E-01  0.51099999109E-03 0.  1.
       22    1    1    2    0    0 -0.40188764198E-02  0.17824941769E-01 -0.30712435073E-01  0.35737005818E-01  0.00000000000E+00 0.  1.
  9000001    1    1    2    0    0  0.40188764198E-02 -0.17824941769E-01  0.30712435073E-01  0.35750994182E-01  0.10000000475E-02 0. -1.
</event>
<event>
 4   0  0.2441219E-02  0.9118800E+02  0.7818609E-02  0.1379984E+01
      -11   -1    0    0    0    0  0.00000000000E+00  0.00000000000E+00  0.35740347158E-01  0.35744000000E-01  0.51099999109E-03 0. -1.
       11   -1    0    0    0    0 -0.00000000000E+00 -0.00000000000E+00 -0.35740347158E-01  0.35744000000E-01  0.51099999109E-03 0.  1.
       22    1    1    2    0    0  0.13896106525E-01  0.19897909515E-02 -0.32864457097E-01  0.35737005818E-01  0.00000000000E+00 0.  1.
  9000001    1    1    2    0    0 -0.13896106525E-01 -0.19897909515E-02  0.32864457097E-01  0.35750994182E-01  0.10000000475E-02 0. -1.
</event>
<event>
 4   0  0.2441219E-02  0.9118800E+02  0.7818609E-02  0.1379984E+01
      -11   -1    0    0    0    0  0.00000000000E+00  0.00000000000E+00  0.35740347158E-01  0.35744000000E-01  0.51099999109E-03 0.  1.
       11   -1    0    0    0    0 -0.00000000000E+00 -0.00000000000E+00 -0.35740347158E-01  0.35744000000E-01  0.51099999109E-03 0. -1.
       22    1    1    2    0    0  0.32570611050E-01 -0.45204000105E-02 -0.13994815627E-01  0.35737005818E-01  0.00000000000E+00 0. -1.
  9000001    1    1    2    0    0 -0.32570611050E-01  0.45204000105E-02  0.13994815627E-01  0.35750994182E-01  0.10000000475E-02 0.  1.
</event>
<event>
 4   0  0.2441219E-02  0.9118800E+02  0.7818609E-02  0.1379984E+01
      -11   -1    0    0    0    0  0.00000000000E+00  0.00000000000E+00  0.35740347158E-01  0.35744000000E-01  0.51099999109E-03 0.  1.
       11   -1    0    0    0    0 -0.00000000000E+00 -0.00000000000E+00 -0.35740347158E-01  0.35744000000E-01  0.51099999109E-03 0. -1.
       22    1    1    2    0    0  0.57187818916E-02 -0.78195909354E-02  0.34398882484E-01  0.35737005818E-01  0.00000000000E+00 0.  1.
  9000001    1    1    2    0    0 -0.57187818916E-02  0.78195909354E-02 -0.34398882484E-01  0.35750994182E-01  0.10000000475E-02 0. -1.
</event>
<event>
 4   0  0.2441219E-02  0.9118800E+02  0.7818609E-02  0.1379984E+01
      -11   -1    0    0    0    0  0.00000000000E+00  0.00000000000E+00  0.35740347158E-01  0.35744000000E-01  0.51099999109E-03 0. -1.
       11   -1    0    0    0    0 -0.00000000000E+00 -0.00000000000E+00 -0.35740347158E-01  0.35744000000E-01  0.51099999109E-03 0.  1.
       22    1    1    2    0    0  0.25099084817E-02 -0.47631439685E-02  0.35329115526E-01  0.35737005818E-01  0.00000000000E+00 0. -1.
  9000001    1    1    2    0    0 -0.25099084817E-02  0.47631439685E-02 -0.35329115526E-01  0.35750994182E-01  0.10000000475E-02 0.  1.
</event>
<event>
 4   0  0.2441219E-02  0.9118800E+02  0.7818609E-02  0.1379984E+01
      -11   -1    0    0    0    0  0.00000000000E+00  0.00000000000E+00  0.35740347158E-01  0.35744000000E-01  0.51099999109E-03 0.  1.
       11   -1    0    0    0    0 -0.00000000000E+00 -0.00000000000E+00 -0.35740347158E-01  0.35744000000E-01  0.51099999109E-03 0. -1.
       22    1    1    2    0    0 -0.11830775437E-02 -0.36847999286E-02  0.35526837206E-01  0.35737005818E-01  0.00000000000E+00 0.  1.
  9000001    1    1    2    0    0  0.11830775437E-02  0.36847999286E-02 -0.35526837206E-01  0.35750994182E-01  0.10000000475E-02 0. -1.
</event>
<event>
 4   0  0.2441219E-02  0.9118800E+02  0.7818609E-02  0.1379984E+01
      -11   -1    0    0    0    0  0.00000000000E+00  0.00000000000E+00  0.35740347158E-01  0.35744000000E-01  0.51099999109E-03 0.  1.
       11   -1    0    0    0    0 -0.00000000000E+00 -0.00000000000E+00 -0.35740347158E-01  0.35744000000E-01  0.51099999109E-03 0. -1.
       22    1    1    2    0    0 -0.89742271375E-02 -0.25145681228E-02 -0.34500344626E-01  0.35737005818E-01  0.00000000000E+00 0. -1.
  9000001    1    1    2    0    0  0.89742271375E-02  0.25145681228E-02  0.34500344626E-01  0.35750994182E-01  0.10000000475E-02 0.  1.
</event>
<event>
 4   0  0.2441219E-02  0.9118800E+02  0.7818609E-02  0.1379984E+01
      -11   -1    0    0    0    0  0.00000000000E+00  0.00000000000E+00  0.35740347158E-01  0.35744000000E-01  0.51099999109E-03 0. -1.
       11   -1    0    0    0    0 -0.00000000000E+00 -0.00000000000E+00 -0.35740347158E-01  0.35744000000E-01  0.51099999109E-03 0.  1.
       22    1    1    2    0    0 -0.85497633627E-02 -0.77796845586E-02  0.33815848939E-01  0.35737005818E-01  0.00000000000E+00 0. -1.
  9000001    1    1    2    0    0  0.85497633627E-02  0.77796845586E-02 -0.33815848939E-01  0.35750994182E-01  0.10000000475E-02 0.  1.
</event>
<event>
 4   0  0.2441219E-02  0.9118800E+02  0.7818609E-02  0.1379984E+01
      -11   -1    0    0    0    0  0.00000000000E+00  0.00000000000E+00  0.35740347158E-01  0.35744000000E-01  0.51099999109E-03 0. -1.
       11   -1    0    0    0    0 -0.00000000000E+00 -0.00000000000E+00 -0.35740347158E-01  0.35744000000E-01  0.51099999109E-03 0.  1.
       22    1    1    2    0    0  0.68017819919E-02  0.90611128602E-03  0.35072044550E-01  0.35737005818E-01  0.00000000000E+00 0. -1.
  9000001    1    1    2    0    0 -0.68017819919E-02 -0.90611128602E-03 -0.35072044550E-01  0.35750994182E-01  0.10000000475E-02 0.  1.
</event>
<event>
 4   0  0.2441219E-02  0.9118800E+02  0.7818609E-02  0.1379984E+01
      -11   -1    0    0    0    0  0.00000000000E+00  0.00000000000E+00  0.35740347158E-01  0.35744000000E-01  0.51099999109E-03 0. -1.
       11   -1    0    0    0    0 -0.00000000000E+00 -0.00000000000E+00 -0.35740347158E-01  0.35744000000E-01  0.51099999109E-03 0.  1.
       22    1    1    2    0    0 -0.30360849413E-01  0.33564790774E-02 -0.18549567543E-01  0.35737005818E-01  0.00000000000E+00 0.  1.
  9000001    1    1    2    0    0  0.30360849413E-01 -0.33564790774E-02  0.18549567543E-01  0.35750994182E-01  0.10000000475E-02 0. -1.
</event>
<event>
 4   0  0.2441219E-02  0.9118800E+02  0.7818609E-02  0.1379984E+01
      -11   -1    0    0    0    0  0.00000000000E+00  0.00000000000E+00  0.35740347158E-01  0.35744000000E-01  0.51099999109E-03 0. -1.
       11   -1    0    0    0    0 -0.00000000000E+00 -0.00000000000E+00 -0.35740347158E-01  0.35744000000E-01  0.51099999109E-03 0.  1.
       22    1    1    2    0    0  0.38355749599E-02  0.18073035556E-02 -0.35484582616E-01  0.35737005818E-01  0.00000000000E+00 0.  1.
  9000001    1    1    2    0    0 -0.38355749599E-02 -0.18073035556E-02  0.35484582616E-01  0.35750994182E-01  0.10000000475E-02 0. -1.
</event>
<event>
 4   0  0.2441219E-02  0.9118800E+02  0.7818609E-02  0.1379984E+01
      -11   -1    0    0    0    0  0.00000000000E+00  0.00000000000E+00  0.35740347158E-01  0.35744000000E-01  0.51099999109E-03 0.  1.
       11   -1    0    0    0    0 -0.00000000000E+00 -0.00000000000E+00 -0.35740347158E-01  0.35744000000E-01  0.51099999109E-03 0. -1.
       22    1    1    2    0    0  0.34719216598E-01 -0.83841090323E-02 -0.11900837952E-02  0.35737005818E-01  0.00000000000E+00 0. -1.
  9000001    1    1    2    0    0 -0.34719216598E-01  0.83841090323E-02  0.11900837952E-02  0.35750994182E-01  0.10000000475E-02 0.  1.
</event>
<event>
 4   0  0.2441219E-02  0.9118800E+02  0.7818609E-02  0.1379984E+01
      -11   -1    0    0    0    0  0.00000000000E+00  0.00000000000E+00  0.35740347158E-01  0.35744000000E-01  0.51099999109E-03 0. -1.
       11   -1    0    0    0    0 -0.00000000000E+00 -0.00000000000E+00 -0.35740347158E-01  0.35744000000E-01  0.51099999109E-03 0.  1.
       22    1    1    2    0    0  0.47836838181E-02 -0.35404076630E-01  0.89516032701E-03  0.35737005818E-01  0.00000000000E+00 0. -1.
  9000001    1    1    2    0    0 -0.47836838181E-02  0.35404076630E-01 -0.89516032701E-03  0.35750994182E-01  0.10000000475E-02 0.  1.
</event>
<event>
 4   0  0.2441219E-02  0.9118800E+02  0.7818609E-02  0.1379984E+01
      -11   -1    0    0    0    0  0.00000000000E+00  0.00000000000E+00  0.35740347158E-01  0.35744000000E-01  0.51099999109E-03 0.  1.
       11   -1    0    0    0    0 -0.00000000000E+00 -0.00000000000E+00 -0.35740347158E-01  0.35744000000E-01  0.51099999109E-03 0. -1.
       22    1    1    2    0    0  0.15464157189E-01  0.28643923966E-01 -0.14748526947E-01  0.35737005818E-01  0.00000000000E+00 0. -1.
  9000001    1    1    2    0    0 -0.15464157189E-01 -0.28643923966E-01  0.14748526947E-01  0.35750994182E-01  0.10000000475E-02 0.  1.
</event>
<event>
 4   0  0.2441219E-02  0.9118800E+02  0.7818609E-02  0.1379984E+01
      -11   -1    0    0    0    0  0.00000000000E+00  0.00000000000E+00  0.35740347158E-01  0.35744000000E-01  0.51099999109E-03 0. -1.
       11   -1    0    0    0    0 -0.00000000000E+00 -0.00000000000E+00 -0.35740347158E-01  0.35744000000E-01  0.51099999109E-03 0.  1.
       22    1    1    2    0    0 -0.63050334127E-02  0.34660698949E-01 -0.60013404257E-02  0.35737005818E-01  0.00000000000E+00 0.  1.
  9000001    1    1    2    0    0  0.63050334127E-02 -0.34660698949E-01  0.60013404257E-02  0.35750994182E-01  0.10000000475E-02 0. -1.
</event>
<event>
 4   0  0.2441219E-02  0.9118800E+02  0.7818609E-02  0.1379984E+01
      -11   -1    0    0    0    0  0.00000000000E+00  0.00000000000E+00  0.35740347158E-01  0.35744000000E-01  0.51099999109E-03 0. -1.
       11   -1    0    0    0    0 -0.00000000000E+00 -0.00000000000E+00 -0.35740347158E-01  0.35744000000E-01  0.51099999109E-03 0.  1.
       22    1    1    2    0    0  0.15897008322E-02  0.10749099969E-01  0.34045018520E-01  0.35737005818E-01  0.00000000000E+00 0. -1.
  9000001    1    1    2    0    0 -0.15897008322E-02 -0.10749099969E-01 -0.34045018520E-01  0.35750994182E-01  0.10000000475E-02 0.  1.
</event>
<event>
 4   0  0.2441219E-02  0.9118800E+02  0.7818609E-02  0.1379984E+01
      -11   -1    0    0    0    0  0.00000000000E+00  0.00000000000E+00  0.35740347158E-01  0.35744000000E-01  0.51099999109E-03 0.  1.
       11   -1    0    0    0    0 -0.00000000000E+00 -0.00000000000E+00 -0.35740347158E-01  0.35744000000E-01  0.51099999109E-03 0. -1.
       22    1    1    2    0    0 -0.35360392128E-02 -0.35279882743E-01  0.44676487322E-02  0.35737005818E-01  0.00000000000E+00 0.  1.
  9000001    1    1    2    0    0  0.35360392128E-02  0.35279882743E-01 -0.44676487322E-02  0.35750994182E-01  0.10000000475E-02 0. -1.
</event>
<event>
 4   0  0.2441219E-02  0.9118800E+02  0.7818609E-02  0.1379984E+01
      -11   -1    0    0    0    0  0.00000000000E+00  0.00000000000E+00  0.35740347158E-01  0.35744000000E-01  0.51099999109E-03 0. -1.
       11   -1    0    0    0    0 -0.00000000000E+00 -0.00000000000E+00 -0.35740347158E-01  0.35744000000E-01  0.51099999109E-03 0.  1.
       22    1    1    2    0    0 -0.10147427355E-01  0.30581151654E-01  0.15458216793E-01  0.35737005818E-01  0.00000000000E+00 0. -1.
  9000001    1    1    2    0    0  0.10147427355E-01 -0.30581151654E-01 -0.15458216793E-01  0.35750994182E-01  0.10000000475E-02 0.  1.
</event>
<event>
 4   0  0.2441219E-02  0.9118800E+02  0.7818609E-02  0.1379984E+01
      -11   -1    0    0    0    0  0.00000000000E+00  0.00000000000E+00  0.35740347158E-01  0.35744000000E-01  0.51099999109E-03 0.  1.
       11   -1    0    0    0    0 -0.00000000000E+00 -0.00000000000E+00 -0.35740347158E-01  0.35744000000E-01  0.51099999109E-03 0. -1.
       22    1    1    2    0    0 -0.73196306673E-02 -0.17040543529E-01  0.30547937214E-01  0.35737005818E-01  0.00000000000E+00 0.  1.
  9000001    1    1    2    0    0  0.73196306673E-02  0.17040543529E-01 -0.30547937214E-01  0.35750994182E-01  0.10000000475E-02 0. -1.
</event>
<event>
 4   0  0.2441219E-02  0.9118800E+02  0.7818609E-02  0.1379984E+01
      -11   -1    0    0    0    0  0.00000000000E+00  0.00000000000E+00  0.35740347158E-01  0.35744000000E-01  0.51099999109E-03 0. -1.
       11   -1    0    0    0    0 -0.00000000000E+00 -0.00000000000E+00 -0.35740347158E-01  0.35744000000E-01  0.51099999109E-03 0.  1.
       22    1    1    2    0    0  0.62167768477E-02 -0.17069772977E-02 -0.35150696992E-01  0.35737005818E-01  0.00000000000E+00 0.  1.
  9000001    1    1    2    0    0 -0.62167768477E-02  0.17069772977E-02  0.35150696992E-01  0.35750994182E-01  0.10000000475E-02 0. -1.
</event>
<event>
 4   0  0.2441219E-02  0.9118800E+02  0.7818609E-02  0.1379984E+01
      -11   -1    0    0    0    0  0.00000000000E+00  0.00000000000E+00  0.35740347158E-01  0.35744000000E-01  0.51099999109E-03 0.  1.
       11   -1    0    0    0    0 -0.00000000000E+00 -0.00000000000E+00 -0.35740347158E-01  0.35744000000E-01  0.51099999109E-03 0. -1.
       22    1    1    2    0    0 -0.95929007959E-02  0.17865858732E-02  0.34379033583E-01  0.35737005818E-01  0.00000000000E+00 0.  1.
  9000001    1    1    2    0    0  0.95929007959E-02 -0.17865858732E-02 -0.34379033583E-01  0.35750994182E-01  0.10000000475E-02 0. -1.
</event>
<event>
 4   0  0.2441219E-02  0.9118800E+02  0.7818609E-02  0.1379984E+01
      -11   -1    0    0    0    0  0.00000000000E+00  0.00000000000E+00  0.35740347158E-01  0.35744000000E-01  0.51099999109E-03 0.  1.
       11   -1    0    0    0    0 -0.00000000000E+00 -0.00000000000E+00 -0.35740347158E-01  0.35744000000E-01  0.51099999109E-03 0. -1.
       22    1    1    2    0    0  0.66760618792E-02 -0.45537106597E-02 -0.34811312843E-01  0.35737005818E-01  0.00000000000E+00 0. -1.
  9000001    1    1    2    0    0 -0.66760618792E-02  0.45537106597E-02  0.34811312843E-01  0.35750994182E-01  0.10000000475E-02 0.  1.
</event>
<event>
 4   0  0.2441219E-02  0.9118800E+02  0.7818609E-02  0.1379984E+01
      -11   -1    0    0    0    0  0.00000000000E+00  0.00000000000E+00  0.35740347158E-01  0.35744000000E-01  0.51099999109E-03 0. -1.
       11   -1    0    0    0    0 -0.00000000000E+00 -0.00000000000E+00 -0.35740347158E-01  0.35744000000E-01  0.51099999109E-03 0.  1.
       22    1    1    2    0    0  0.10144472463E-01 -0.43865787000E-02  0.33985014207E-01  0.35737005818E-01  0.00000000000E+00 0. -1.
  9000001    1    1    2    0    0 -0.10144472463E-01  0.43865787000E-02 -0.33985014207E-01  0.35750994182E-01  0.10000000475E-02 0.  1.
</event>
<event>
 4   0  0.2441219E-02  0.9118800E+02  0.7818609E-02  0.1379984E+01
      -11   -1    0    0    0    0  0.00000000000E+00  0.00000000000E+00  0.35740347158E-01  0.35744000000E-01  0.51099999109E-03 0. -1.
       11   -1    0    0    0    0 -0.00000000000E+00 -0.00000000000E+00 -0.35740347158E-01  0.35744000000E-01  0.51099999109E-03 0.  1.
       22    1    1    2    0    0  0.12028411197E-01 -0.45745996626E-02  0.33339525295E-01  0.35737005818E-01  0.00000000000E+00 0. -1.
  9000001    1    1    2    0    0 -0.12028411197E-01  0.45745996626E-02 -0.33339525295E-01  0.35750994182E-01  0.10000000475E-02 0.  1.
</event>
<event>
 4   0  0.2441219E-02  0.9118800E+02  0.7818609E-02  0.1379984E+01
      -11   -1    0    0    0    0  0.00000000000E+00  0.00000000000E+00  0.35740347158E-01  0.35744000000E-01  0.51099999109E-03 0. -1.
       11   -1    0    0    0    0 -0.00000000000E+00 -0.00000000000E+00 -0.35740347158E-01  0.35744000000E-01  0.51099999109E-03 0.  1.
       22    1    1    2    0    0  0.11319677091E-01 -0.11920730436E-01 -0.31731603825E-01  0.35737005818E-01  0.00000000000E+00 0.  1.
  9000001    1    1    2    0    0 -0.11319677091E-01  0.11920730436E-01  0.31731603825E-01  0.35750994182E-01  0.10000000475E-02 0. -1.
</event>
<event>
 4   0  0.2441219E-02  0.9118800E+02  0.7818609E-02  0.1379984E+01
      -11   -1    0    0    0    0  0.00000000000E+00  0.00000000000E+00  0.35740347158E-01  0.35744000000E-01  0.51099999109E-03 0.  1.
       11   -1    0    0    0    0 -0.00000000000E+00 -0.00000000000E+00 -0.35740347158E-01  0.35744000000E-01  0.51099999109E-03 0. -1.
       22    1    1    2    0    0 -0.88459915586E-02 -0.72655221460E-02 -0.33854013147E-01  0.35737005818E-01  0.00000000000E+00 0. -1.
  9000001    1    1    2    0    0  0.88459915586E-02  0.72655221460E-02  0.33854013147E-01  0.35750994182E-01  0.10000000475E-02 0.  1.
</event>
<event>
 4   0  0.2441219E-02  0.9118800E+02  0.7818609E-02  0.1379984E+01
      -11   -1    0    0    0    0  0.00000000000E+00  0.00000000000E+00  0.35740347158E-01  0.35744000000E-01  0.51099999109E-03 0. -1.
       11   -1    0    0    0    0 -0.00000000000E+00 -0.00000000000E+00 -0.35740347158E-01  0.35744000000E-01  0.51099999109E-03 0.  1.
       22    1    1    2    0    0  0.15137995422E-01 -0.24983712653E-02  0.32275886053E-01  0.35737005818E-01  0.00000000000E+00 0. -1.
  9000001    1    1    2    0    0 -0.15137995422E-01  0.24983712653E-02 -0.32275886053E-01  0.35750994182E-01  0.10000000475E-02 0.  1.
</event>
<event>
 4   0  0.2441219E-02  0.9118800E+02  0.7818609E-02  0.1379984E+01
      -11   -1    0    0    0    0  0.00000000000E+00  0.00000000000E+00  0.35740347158E-01  0.35744000000E-01  0.51099999109E-03 0.  1.
       11   -1    0    0    0    0 -0.00000000000E+00 -0.00000000000E+00 -0.35740347158E-01  0.35744000000E-01  0.51099999109E-03 0. -1.
       22    1    1    2    0    0 -0.71448827747E-02 -0.22430081501E-02  0.34943570931E-01  0.35737005818E-01  0.00000000000E+00 0.  1.
  9000001    1    1    2    0    0  0.71448827747E-02  0.22430081501E-02 -0.34943570931E-01  0.35750994182E-01  0.10000000475E-02 0. -1.
</event>
<event>
 4   0  0.2441219E-02  0.9118800E+02  0.7818609E-02  0.1379984E+01
      -11   -1    0    0    0    0  0.00000000000E+00  0.00000000000E+00  0.35740347158E-01  0.35744000000E-01  0.51099999109E-03 0.  1.
       11   -1    0    0    0    0 -0.00000000000E+00 -0.00000000000E+00 -0.35740347158E-01  0.35744000000E-01  0.51099999109E-03 0. -1.
       22    1    1    2    0    0  0.33700469335E-02  0.34785769141E-02 -0.35407285567E-01  0.35737005818E-01  0.00000000000E+00 0. -1.
  9000001    1    1    2    0    0 -0.33700469335E-02 -0.34785769141E-02  0.35407285567E-01  0.35750994182E-01  0.10000000475E-02 0.  1.
</event>
<event>
 4   0  0.2441219E-02  0.9118800E+02  0.7818609E-02  0.1379984E+01
      -11   -1    0    0    0    0  0.00000000000E+00  0.00000000000E+00  0.35740347158E-01  0.35744000000E-01  0.51099999109E-03 0. -1.
       11   -1    0    0    0    0 -0.00000000000E+00 -0.00000000000E+00 -0.35740347158E-01  0.35744000000E-01  0.51099999109E-03 0.  1.
       22    1    1    2    0    0  0.10859762035E-01  0.27736999051E-02 -0.33933843611E-01  0.35737005818E-01  0.00000000000E+00 0.  1.
  9000001    1    1    2    0    0 -0.10859762035E-01 -0.27736999051E-02  0.33933843611E-01  0.35750994182E-01  0.10000000475E-02 0. -1.
</event>
<event>
 4   0  0.2441219E-02  0.9118800E+02  0.7818609E-02  0.1379984E+01
      -11   -1    0    0    0    0  0.00000000000E+00  0.00000000000E+00  0.35740347158E-01  0.35744000000E-01  0.51099999109E-03 0.  1.
       11   -1    0    0    0    0 -0.00000000000E+00 -0.00000000000E+00 -0.35740347158E-01  0.35744000000E-01  0.51099999109E-03 0. -1.
       22    1    1    2    0    0 -0.16488245047E-02  0.27997097906E-02  0.35588995318E-01  0.35737005818E-01  0.00000000000E+00 0.  1.
  9000001    1    1    2    0    0  0.16488245047E-02 -0.27997097906E-02 -0.35588995318E-01  0.35750994182E-01  0.10000000475E-02 0. -1.
</event>
<event>
 4   0  0.2441219E-02  0.9118800E+02  0.7818609E-02  0.1379984E+01
      -11   -1    0    0    0    0  0.00000000000E+00  0.00000000000E+00  0.35740347158E-01  0.35744000000E-01  0.51099999109E-03 0. -1.
       11   -1    0    0    0    0 -0.00000000000E+00 -0.00000000000E+00 -0.35740347158E-01  0.35744000000E-01  0.51099999109E-03 0.  1.
       22    1    1    2    0    0 -0.20030459495E-02 -0.11668549239E-01 -0.33718931633E-01  0.35737005818E-01  0.00000000000E+00 0.  1.
  9000001    1    1    2    0    0  0.20030459495E-02  0.11668549239E-01  0.33718931633E-01  0.35750994182E-01  0.10000000475E-02 0. -1.
</event>
<event>
 4   0  0.2441219E-02  0.9118800E+02  0.7818609E-02  0.1379984E+01
      -11   -1    0    0    0    0  0.00000000000E+00  0.00000000000E+00  0.35740347158E-01  0.35744000000E-01  0.51099999109E-03 0. -1.
       11   -1    0    0    0    0 -0.00000000000E+00 -0.00000000000E+00 -0.35740347158E-01  0.35744000000E-01  0.51099999109E-03 0.  1.
       22    1    1    2    0    0 -0.61829302818E-02  0.19122998593E-01 -0.29550226443E-01  0.35737005818E-01  0.00000000000E+00 0.  1.
  9000001    1    1    2    0    0  0.61829302818E-02 -0.19122998593E-01  0.29550226443E-01  0.35750994182E-01  0.10000000475E-02 0. -1.
</event>
<event>
 4   0  0.2441219E-02  0.9118800E+02  0.7818609E-02  0.1379984E+01
      -11   -1    0    0    0    0  0.00000000000E+00  0.00000000000E+00  0.35740347158E-01  0.35744000000E-01  0.51099999109E-03 0. -1.
       11   -1    0    0    0    0 -0.00000000000E+00 -0.00000000000E+00 -0.35740347158E-01  0.35744000000E-01  0.51099999109E-03 0.  1.
       22    1    1    2    0    0  0.23987662454E-01  0.24651183932E-01  0.96976680506E-02  0.35737005818E-01  0.00000000000E+00 0. -1.
  9000001    1    1    2    0    0 -0.23987662454E-01 -0.24651183932E-01 -0.96976680506E-02  0.35750994182E-01  0.10000000475E-02 0.  1.
</event>
<event>
 4   0  0.2441219E-02  0.9118800E+02  0.7818609E-02  0.1379984E+01
      -11   -1    0    0    0    0  0.00000000000E+00  0.00000000000E+00  0.35740347158E-01  0.35744000000E-01  0.51099999109E-03 0. -1.
       11   -1    0    0    0    0 -0.00000000000E+00 -0.00000000000E+00 -0.35740347158E-01  0.35744000000E-01  0.51099999109E-03 0.  1.
       22    1    1    2    0    0 -0.71005985467E-02 -0.48931316995E-02  0.34681008453E-01  0.35737005818E-01  0.00000000000E+00 0. -1.
  9000001    1    1    2    0    0  0.71005985467E-02  0.48931316995E-02 -0.34681008453E-01  0.35750994182E-01  0.10000000475E-02 0.  1.
</event>
<event>
 4   0  0.2441219E-02  0.9118800E+02  0.7818609E-02  0.1379984E+01
      -11   -1    0    0    0    0  0.00000000000E+00  0.00000000000E+00  0.35740347158E-01  0.35744000000E-01  0.51099999109E-03 0.  1.
       11   -1    0    0    0    0 -0.00000000000E+00 -0.00000000000E+00 -0.35740347158E-01  0.35744000000E-01  0.51099999109E-03 0. -1.
       22    1    1    2    0    0  0.16046229610E-01 -0.22208787060E-02  0.31854666816E-01  0.35737005818E-01  0.00000000000E+00 0.  1.
  9000001    1    1    2    0    0 -0.16046229610E-01  0.22208787060E-02 -0.31854666816E-01  0.35750994182E-01  0.10000000475E-02 0. -1.
</event>
<event>
 4   0  0.2441219E-02  0.9118800E+02  0.7818609E-02  0.1379984E+01
      -11   -1    0    0    0    0  0.00000000000E+00  0.00000000000E+00  0.35740347158E-01  0.35744000000E-01  0.51099999109E-03 0.  1.
       11   -1    0    0    0    0 -0.00000000000E+00 -0.00000000000E+00 -0.35740347158E-01  0.35744000000E-01  0.51099999109E-03 0. -1.
       22    1    1    2    0    0  0.89284549627E-02 -0.44119101474E-02 -0.34321295513E-01  0.35737005818E-01  0.00000000000E+00 0. -1.
  9000001    1    1    2    0    0 -0.89284549627E-02  0.44119101474E-02  0.34321295513E-01  0.35750994182E-01  0.10000000475E-02 0.  1.
</event>
<event>
 4   0  0.2441219E-02  0.9118800E+02  0.7818609E-02  0.1379984E+01
      -11   -1    0    0    0    0  0.00000000000E+00  0.00000000000E+00  0.35740347158E-01  0.35744000000E-01  0.51099999109E-03 0.  1.
       11   -1    0    0    0    0 -0.00000000000E+00 -0.00000000000E+00 -0.35740347158E-01  0.35744000000E-01  0.51099999109E-03 0. -1.
       22    1    1    2    0    0 -0.13722202219E-02 -0.12150060550E-01 -0.33580152251E-01  0.35737005818E-01  0.00000000000E+00 0. -1.
  9000001    1    1    2    0    0  0.13722202219E-02  0.12150060550E-01  0.33580152251E-01  0.35750994182E-01  0.10000000475E-02 0.  1.
</event>
<event>
 4   0  0.2441219E-02  0.9118800E+02  0.7818609E-02  0.1379984E+01
      -11   -1    0    0    0    0  0.00000000000E+00  0.00000000000E+00  0.35740347158E-01  0.35744000000E-01  0.51099999109E-03 0.  1.
       11   -1    0    0    0    0 -0.00000000000E+00 -0.00000000000E+00 -0.35740347158E-01  0.35744000000E-01  0.51099999109E-03 0. -1.
       22    1    1    2    0    0 -0.13751985748E-02  0.26736027802E-02 -0.35610311174E-01  0.35737005818E-01  0.00000000000E+00 0. -1.
  9000001    1    1    2    0    0  0.13751985748E-02 -0.26736027802E-02  0.35610311174E-01  0.35750994182E-01  0.10000000475E-02 0.  1.
</event>
<event>
 4   0  0.2441219E-02  0.9118800E+02  0.7818609E-02  0.1379984E+01
      -11   -1    0    0    0    0  0.00000000000E+00  0.00000000000E+00  0.35740347158E-01  0.35744000000E-01  0.51099999109E-03 0. -1.
       11   -1    0    0    0    0 -0.00000000000E+00 -0.00000000000E+00 -0.35740347158E-01  0.35744000000E-01  0.51099999109E-03 0.  1.
       22    1    1    2    0    0  0.15237992389E-01  0.78358974377E-02 -0.31361375674E-01  0.35737005818E-01  0.00000000000E+00 0.  1.
  9000001    1    1    2    0    0 -0.15237992389E-01 -0.78358974377E-02  0.31361375674E-01  0.35750994182E-01  0.10000000475E-02 0. -1.
</event>
<event>
 4   0  0.2441219E-02  0.9118800E+02  0.7818609E-02  0.1379984E+01
      -11   -1    0    0    0    0  0.00000000000E+00  0.00000000000E+00  0.35740347158E-01  0.35744000000E-01  0.51099999109E-03 0.  1.
       11   -1    0    0    0    0 -0.00000000000E+00 -0.00000000000E+00 -0.35740347158E-01  0.35744000000E-01  0.51099999109E-03 0. -1.
       22    1    1    2    0    0 -0.43092560408E-02 -0.26747786954E-01  0.23304930600E-01  0.35737005818E-01  0.00000000000E+00 0.  1.
  9000001    1    1    2    0    0  0.43092560408E-02  0.26747786954E-01 -0.23304930600E-01  0.35750994182E-01  0.10000000475E-02 0. -1.
</event>
<event>
 4   0  0.2441219E-02  0.9118800E+02  0.7818609E-02  0.1379984E+01
      -11   -1    0    0    0    0  0.00000000000E+00  0.00000000000E+00  0.35740347158E-01  0.35744000000E-01  0.51099999109E-03 0.  1.
       11   -1    0    0    0    0 -0.00000000000E+00 -0.00000000000E+00 -0.35740347158E-01  0.35744000000E-01  0.51099999109E-03 0. -1.
       22    1    1    2    0    0 -0.29029546169E-02  0.15402264651E-01  0.32116610702E-01  0.35737005818E-01  0.00000000000E+00 0.  1.
  9000001    1    1    2    0    0  0.29029546169E-02 -0.15402264651E-01 -0.32116610702E-01  0.35750994182E-01  0.10000000475E-02 0. -1.
</event>
<event>
 4   0  0.2441219E-02  0.9118800E+02  0.7818609E-02  0.1379984E+01
      -11   -1    0    0    0    0  0.00000000000E+00  0.00000000000E+00  0.35740347158E-01  0.35744000000E-01  0.51099999109E-03 0.  1.
       11   -1    0    0    0    0 -0.00000000000E+00 -0.00000000000E+00 -0.35740347158E-01  0.35744000000E-01  0.51099999109E-03 0. -1.
       22    1    1    2    0    0 -0.16254444000E-02 -0.24946163650E-01  0.25537823606E-01  0.35737005818E-01  0.00000000000E+00 0.  1.
  9000001    1    1    2    0    0  0.16254444000E-02  0.24946163650E-01 -0.25537823606E-01  0.35750994182E-01  0.10000000475E-02 0. -1.
</event>
<event>
 4   0  0.2441219E-02  0.9118800E+02  0.7818609E-02  0.1379984E+01
      -11   -1    0    0    0    0  0.00000000000E+00  0.00000000000E+00  0.35740347158E-01  0.35744000000E-01  0.51099999109E-03 0.  1.
       11   -1    0    0    0    0 -0.00000000000E+00 -0.00000000000E+00 -0.35740347158E-01  0.35744000000E-01  0.51099999109E-03 0. -1.
       22    1    1    2    0    0 -0.31128831822E-01 -0.11384985852E-01  0.13360820013E-01  0.35737005818E-01  0.00000000000E+00 0.  1.
  9000001    1    1    2    0    0  0.31128831822E-01  0.11384985852E-01 -0.13360820013E-01  0.35750994182E-01  0.10000000475E-02 0. -1.
</event>
<event>
 4   0  0.2441219E-02  0.9118800E+02  0.7818609E-02  0.1379984E+01
      -11   -1    0    0    0    0  0.00000000000E+00  0.00000000000E+00  0.35740347158E-01  0.35744000000E-01  0.51099999109E-03 0. -1.
       11   -1    0    0    0    0 -0.00000000000E+00 -0.00000000000E+00 -0.35740347158E-01  0.35744000000E-01  0.51099999109E-03 0.  1.
       22    1    1    2    0    0 -0.41032545223E-02  0.81602055956E-02 -0.34550078608E-01  0.35737005818E-01  0.00000000000E+00 0.  1.
  9000001    1    1    2    0    0  0.41032545223E-02 -0.81602055956E-02  0.34550078608E-01  0.35750994182E-01  0.10000000475E-02 0. -1.
</event>
<event>
 4   0  0.2441219E-02  0.9118800E+02  0.7818609E-02  0.1379984E+01
      -11   -1    0    0    0    0  0.00000000000E+00  0.00000000000E+00  0.35740347158E-01  0.35744000000E-01  0.51099999109E-03 0. -1.
       11   -1    0    0    0    0 -0.00000000000E+00 -0.00000000000E+00 -0.35740347158E-01  0.35744000000E-01  0.51099999109E-03 0.  1.
       22    1    1    2    0    0 -0.18839034555E-01 -0.37154529267E-02  0.30140002845E-01  0.35737005818E-01  0.00000000000E+00 0. -1.
  9000001    1    1    2    0    0  0.18839034555E-01  0.37154529267E-02 -0.30140002845E-01  0.35750994182E-01  0.10000000475E-02 0.  1.
</event>
<event>
 4   0  0.2441219E-02  0.9118800E+02  0.7818609E-02  0.1379984E+01
      -11   -1    0    0    0    0  0.00000000000E+00  0.00000000000E+00  0.35740347158E-01  0.35744000000E-01  0.51099999109E-03 0.  1.
       11   -1    0    0    0    0 -0.00000000000E+00 -0.00000000000E+00 -0.35740347158E-01  0.35744000000E-01  0.51099999109E-03 0. -1.
       22    1    1    2    0    0 -0.66701555686E-02 -0.16614984671E-02  0.35069673971E-01  0.35737005818E-01  0.00000000000E+00 0.  1.
  9000001    1    1    2    0    0  0.66701555686E-02  0.16614984671E-02 -0.35069673971E-01  0.35750994182E-01  0.10000000475E-02 0. -1.
</event>
<event>
 4   0  0.2441219E-02  0.9118800E+02  0.7818609E-02  0.1379984E+01
      -11   -1    0    0    0    0  0.00000000000E+00  0.00000000000E+00  0.35740347158E-01  0.35744000000E-01  0.51099999109E-03 0. -1.
       11   -1    0    0    0    0 -0.00000000000E+00 -0.00000000000E+00 -0.35740347158E-01  0.35744000000E-01  0.51099999109E-03 0.  1.
       22    1    1    2    0    0 -0.29022206229E-01 -0.16175521838E-01  0.13160456821E-01  0.35737005818E-01  0.00000000000E+00 0.  1.
  9000001    1    1    2    0    0  0.29022206229E-01  0.16175521838E-01 -0.13160456821E-01  0.35750994182E-01  0.10000000475E-02 0. -1.
</event>
<event>
 4   0  0.2441219E-02  0.9118800E+02  0.7818609E-02  0.1379984E+01
      -11   -1    0    0    0    0  0.00000000000E+00  0.00000000000E+00  0.35740347158E-01  0.35744000000E-01  0.51099999109E-03 0.  1.
       11   -1    0    0    0    0 -0.00000000000E+00 -0.00000000000E+00 -0.35740347158E-01  0.35744000000E-01  0.51099999109E-03 0. -1.
       22    1    1    2    0    0 -0.20286862113E-01  0.10934305005E-01  0.27313326135E-01  0.35737005818E-01  0.00000000000E+00 0.  1.
  9000001    1    1    2    0    0  0.20286862113E-01 -0.10934305005E-01 -0.27313326135E-01  0.35750994182E-01  0.10000000475E-02 0. -1.
</event>
<event>
 4   0  0.2441219E-02  0.9118800E+02  0.7818609E-02  0.1379984E+01
      -11   -1    0    0    0    0  0.00000000000E+00  0.00000000000E+00  0.35740347158E-01  0.35744000000E-01  0.51099999109E-03 0.  1.
       11   -1    0    0    0    0 -0.00000000000E+00 -0.00000000000E+00 -0.35740347158E-01  0.35744000000E-01  0.51099999109E-03 0. -1.
       22    1    1    2    0    0 -0.27147172126E-02 -0.94958979019E-02 -0.34345186247E-01  0.35737005818E-01  0.00000000000E+00 0. -1.
  9000001    1    1    2    0    0  0.27147172126E-02  0.94958979019E-02  0.34345186247E-01  0.35750994182E-01  0.10000000475E-02 0.  1.
</event>
<event>
 4   0  0.2441219E-02  0.9118800E+02  0.7818609E-02  0.1379984E+01
      -11   -1    0    0    0    0  0.00000000000E+00  0.00000000000E+00  0.35740347158E-01  0.35744000000E-01  0.51099999109E-03 0.  1.
       11   -1    0    0    0    0 -0.00000000000E+00 -0.00000000000E+00 -0.35740347158E-01  0.35744000000E-01  0.51099999109E-03 0. -1.
       22    1    1    2    0    0 -0.18998885401E-01 -0.24740206287E-01  0.17438409655E-01  0.35737005818E-01  0.00000000000E+00 0. -1.
  9000001    1    1    2    0    0  0.18998885401E-01  0.24740206287E-01 -0.17438409655E-01  0.35750994182E-01  0.10000000475E-02 0.  1.
</event>
<event>
 4   0  0.2441219E-02  0.9118800E+02  0.7818609E-02  0.1379984E+01
      -11   -1    0    0    0    0  0.00000000000E+00  0.00000000000E+00  0.35740347158E-01  0.35744000000E-01  0.51099999109E-03 0. -1.
       11   -1    0    0    0    0 -0.00000000000E+00 -0.00000000000E+00 -0.35740347158E-01  0.35744000000E-01  0.51099999109E-03 0.  1.
       22    1    1    2    0    0  0.18666981223E-02  0.18797873563E-01  0.30336264973E-01  0.35737005818E-01  0.00000000000E+00 0. -1.
  9000001    1    1    2    0    0 -0.18666981223E-02 -0.18797873563E-01 -0.30336264973E-01  0.35750994182E-01  0.10000000475E-02 0.  1.
</event>
<event>
 4   0  0.2441219E-02  0.9118800E+02  0.7818609E-02  0.1379984E+01
      -11   -1    0    0    0    0  0.00000000000E+00  0.00000000000E+00  0.35740347158E-01  0.35744000000E-01  0.51099999109E-03 0. -1.
       11   -1    0    0    0    0 -0.00000000000E+00 -0.00000000000E+00 -0.35740347158E-01  0.35744000000E-01  0.51099999109E-03 0.  1.
       22    1    1    2    0    0 -0.29429119137E-03  0.41691483120E-02  0.35491762142E-01  0.35737005818E-01  0.00000000000E+00 0. -1.
  9000001    1    1    2    0    0  0.29429119137E-03 -0.41691483120E-02 -0.35491762142E-01  0.35750994182E-01  0.10000000475E-02 0.  1.
</event>
<event>
 4   0  0.2441219E-02  0.9118800E+02  0.7818609E-02  0.1379984E+01
      -11   -1    0    0    0    0  0.00000000000E+00  0.00000000000E+00  0.35740347158E-01  0.35744000000E-01  0.51099999109E-03 0. -1.
       11   -1    0    0    0    0 -0.00000000000E+00 -0.00000000000E+00 -0.35740347158E-01  0.35744000000E-01  0.51099999109E-03 0.  1.
       22    1    1    2    0    0  0.56041643478E-02  0.55323439027E-03  0.35290520803E-01  0.35737005818E-01  0.00000000000E+00 0. -1.
  9000001    1    1    2    0    0 -0.56041643478E-02 -0.55323439027E-03 -0.35290520803E-01  0.35750994182E-01  0.10000000475E-02 0.  1.
</event>
<event>
 4   0  0.2441219E-02  0.9118800E+02  0.7818609E-02  0.1379984E+01
      -11   -1    0    0    0    0  0.00000000000E+00  0.00000000000E+00  0.35740347158E-01  0.35744000000E-01  0.51099999109E-03 0. -1.
       11   -1    0    0    0    0 -0.00000000000E+00 -0.00000000000E+00 -0.35740347158E-01  0.35744000000E-01  0.51099999109E-03 0.  1.
       22    1    1    2    0    0 -0.30006153825E-01  0.59481046931E-02 -0.18476589730E-01  0.35737005818E-01  0.00000000000E+00 0.  1.
  9000001    1    1    2    0    0  0.30006153825E-01 -0.59481046931E-02  0.18476589730E-01  0.35750994182E-01  0.10000000475E-02 0. -1.
</event>
<event>
 4   0  0.2441219E-02  0.9118800E+02  0.7818609E-02  0.1379984E+01
      -11   -1    0    0    0    0  0.00000000000E+00  0.00000000000E+00  0.35740347158E-01  0.35744000000E-01  0.51099999109E-03 0. -1.
       11   -1    0    0    0    0 -0.00000000000E+00 -0.00000000000E+00 -0.35740347158E-01  0.35744000000E-01  0.51099999109E-03 0.  1.
       22    1    1    2    0    0  0.63935861223E-02 -0.43151962254E-02  0.34894623123E-01  0.35737005818E-01  0.00000000000E+00 0. -1.
  9000001    1    1    2    0    0 -0.63935861223E-02  0.43151962254E-02 -0.34894623123E-01  0.35750994182E-01  0.10000000475E-02 0.  1.
</event>
<event>
 4   0  0.2441219E-02  0.9118800E+02  0.7818609E-02  0.1379984E+01
      -11   -1    0    0    0    0  0.00000000000E+00  0.00000000000E+00  0.35740347158E-01  0.35744000000E-01  0.51099999109E-03 0. -1.
       11   -1    0    0    0    0 -0.00000000000E+00 -0.00000000000E+00 -0.35740347158E-01  0.35744000000E-01  0.51099999109E-03 0.  1.
       22    1    1    2    0    0 -0.34842098529E-02 -0.17763909890E-02  0.35522363401E-01  0.35737005818E-01  0.00000000000E+00 0. -1.
  9000001    1    1    2    0    0  0.34842098529E-02  0.17763909890E-02 -0.35522363401E-01  0.35750994182E-01  0.10000000475E-02 0.  1.
</event>
<event>
 4   0  0.2441219E-02  0.9118800E+02  0.7818609E-02  0.1379984E+01
      -11   -1    0    0    0    0  0.00000000000E+00  0.00000000000E+00  0.35740347158E-01  0.35744000000E-01  0.51099999109E-03 0.  1.
       11   -1    0    0    0    0 -0.00000000000E+00 -0.00000000000E+00 -0.35740347158E-01  0.35744000000E-01  0.51099999109E-03 0. -1.
       22    1    1    2    0    0  0.43678077811E-02  0.14324939214E-01  0.32447680296E-01  0.35737005818E-01  0.00000000000E+00 0.  1.
  9000001    1    1    2    0    0 -0.43678077811E-02 -0.14324939214E-01 -0.32447680296E-01  0.35750994182E-01  0.10000000475E-02 0. -1.
</event>
<event>
 4   0  0.2441219E-02  0.9118800E+02  0.7818609E-02  0.1379984E+01
      -11   -1    0    0    0    0  0.00000000000E+00  0.00000000000E+00  0.35740347158E-01  0.35744000000E-01  0.51099999109E-03 0.  1.
       11   -1    0    0    0    0 -0.00000000000E+00 -0.00000000000E+00 -0.35740347158E-01  0.35744000000E-01  0.51099999109E-03 0. -1.
       22    1    1    2    0    0 -0.27373610616E-02  0.86097738709E-02  0.34576180142E-01  0.35737005818E-01  0.00000000000E+00 0.  1.
  9000001    1    1    2    0    0  0.27373610616E-02 -0.86097738709E-02 -0.34576180142E-01  0.35750994182E-01  0.10000000475E-02 0. -1.
</event>
<event>
 4   0  0.2441219E-02  0.9118800E+02  0.7818609E-02  0.1379984E+01
      -11   -1    0    0    0    0  0.00000000000E+00  0.00000000000E+00  0.35740347158E-01  0.35744000000E-01  0.51099999109E-03 0. -1.
       11   -1    0    0    0    0 -0.00000000000E+00 -0.00000000000E+00 -0.35740347158E-01  0.35744000000E-01  0.51099999109E-03 0.  1.
       22    1    1    2    0    0 -0.25222390864E-02  0.63987455495E-02  0.35068902895E-01  0.35737005818E-01  0.00000000000E+00 0. -1.
  9000001    1    1    2    0    0  0.25222390864E-02 -0.63987455495E-02 -0.35068902895E-01  0.35750994182E-01  0.10000000475E-02 0.  1.
</event>
<event>
 4   0  0.2441219E-02  0.9118800E+02  0.7818609E-02  0.1379984E+01
      -11   -1    0    0    0    0  0.00000000000E+00  0.00000000000E+00  0.35740347158E-01  0.35744000000E-01  0.51099999109E-03 0.  1.
       11   -1    0    0    0    0 -0.00000000000E+00 -0.00000000000E+00 -0.35740347158E-01  0.35744000000E-01  0.51099999109E-03 0. -1.
       22    1    1    2    0    0  0.19641463489E-02 -0.46900103022E-02 -0.35373429539E-01  0.35737005818E-01  0.00000000000E+00 0. -1.
  9000001    1    1    2    0    0 -0.19641463489E-02  0.46900103022E-02  0.35373429539E-01  0.35750994182E-01  0.10000000475E-02 0.  1.
</event>
<event>
 4   0  0.2441219E-02  0.9118800E+02  0.7818609E-02  0.1379984E+01
      -11   -1    0    0    0    0  0.00000000000E+00  0.00000000000E+00  0.35740347158E-01  0.35744000000E-01  0.51099999109E-03 0. -1.
       11   -1    0    0    0    0 -0.00000000000E+00 -0.00000000000E+00 -0.35740347158E-01  0.35744000000E-01  0.51099999109E-03 0.  1.
       22    1    1    2    0    0  0.14647116670E-01 -0.12234252256E-01  0.30214543350E-01  0.35737005818E-01  0.00000000000E+00 0. -1.
  9000001    1    1    2    0    0 -0.14647116670E-01  0.12234252256E-01 -0.30214543350E-01  0.35750994182E-01  0.10000000475E-02 0.  1.
</event>
<event>
 4   0  0.2441219E-02  0.9118800E+02  0.7818609E-02  0.1379984E+01
      -11   -1    0    0    0    0  0.00000000000E+00  0.00000000000E+00  0.35740347158E-01  0.35744000000E-01  0.51099999109E-03 0.  1.
       11   -1    0    0    0    0 -0.00000000000E+00 -0.00000000000E+00 -0.35740347158E-01  0.35744000000E-01  0.51099999109E-03 0. -1.
       22    1    1    2    0    0  0.18296871098E-01 -0.19024196902E-01 -0.24092281443E-01  0.35737005818E-01  0.00000000000E+00 0.  1.
  9000001    1    1    2    0    0 -0.18296871098E-01  0.19024196902E-01  0.24092281443E-01  0.35750994182E-01  0.10000000475E-02 0. -1.
</event>
<event>
 4   0  0.2441219E-02  0.9118800E+02  0.7818609E-02  0.1379984E+01
      -11   -1    0    0    0    0  0.00000000000E+00  0.00000000000E+00  0.35740347158E-01  0.35744000000E-01  0.51099999109E-03 0. -1.
       11   -1    0    0    0    0 -0.00000000000E+00 -0.00000000000E+00 -0.35740347158E-01  0.35744000000E-01  0.51099999109E-03 0.  1.
       22    1    1    2    0    0 -0.48947167350E-02 -0.23087773927E-02 -0.35324847911E-01  0.35737005818E-01  0.00000000000E+00 0.  1.
  9000001    1    1    2    0    0  0.48947167350E-02  0.23087773927E-02  0.35324847911E-01  0.35750994182E-01  0.10000000475E-02 0. -1.
</event>
<event>
 4   0  0.2441219E-02  0.9118800E+02  0.7818609E-02  0.1379984E+01
      -11   -1    0    0    0    0  0.00000000000E+00  0.00000000000E+00  0.35740347158E-01  0.35744000000E-01  0.51099999109E-03 0. -1.
       11   -1    0    0    0    0 -0.00000000000E+00 -0.00000000000E+00 -0.35740347158E-01  0.35744000000E-01  0.51099999109E-03 0.  1.
       22    1    1    2    0    0  0.10630919634E-01 -0.65825010295E-02  0.33478169197E-01  0.35737005818E-01  0.00000000000E+00 0. -1.
  9000001    1    1    2    0    0 -0.10630919634E-01  0.65825010295E-02 -0.33478169197E-01  0.35750994182E-01  0.10000000475E-02 0.  1.
</event>
<event>
 4   0  0.2441219E-02  0.9118800E+02  0.7818609E-02  0.1379984E+01
      -11   -1    0    0    0    0  0.00000000000E+00  0.00000000000E+00  0.35740347158E-01  0.35744000000E-01  0.51099999109E-03 0. -1.
       11   -1    0    0    0    0 -0.00000000000E+00 -0.00000000000E+00 -0.35740347158E-01  0.35744000000E-01  0.51099999109E-03 0.  1.
       22    1    1    2    0    0 -0.27106937629E-02  0.13783087229E-02  0.35607386723E-01  0.35737005818E-01  0.00000000000E+00 0. -1.
  9000001    1    1    2    0    0  0.27106937629E-02 -0.13783087229E-02 -0.35607386723E-01  0.35750994182E-01  0.10000000475E-02 0.  1.
</event>
<event>
 4   0  0.2441219E-02  0.9118800E+02  0.7818609E-02  0.1379984E+01
      -11   -1    0    0    0    0  0.00000000000E+00  0.00000000000E+00  0.35740347158E-01  0.35744000000E-01  0.51099999109E-03 0. -1.
       11   -1    0    0    0    0 -0.00000000000E+00 -0.00000000000E+00 -0.35740347158E-01  0.35744000000E-01  0.51099999109E-03 0.  1.
       22    1    1    2    0    0  0.13017169773E-01  0.17978998992E-02 -0.33233333145E-01  0.35737005818E-01  0.00000000000E+00 0.  1.
  9000001    1    1    2    0    0 -0.13017169773E-01 -0.17978998992E-02  0.33233333145E-01  0.35750994182E-01  0.10000000475E-02 0. -1.
</event>
<event>
 4   0  0.2441219E-02  0.9118800E+02  0.7818609E-02  0.1379984E+01
      -11   -1    0    0    0    0  0.00000000000E+00  0.00000000000E+00  0.35740347158E-01  0.35744000000E-01  0.51099999109E-03 0. -1.
       11   -1    0    0    0    0 -0.00000000000E+00 -0.00000000000E+00 -0.35740347158E-01  0.35744000000E-01  0.51099999109E-03 0.  1.
       22    1    1    2    0    0 -0.71451663146E-02  0.28572003886E-01 -0.20241560640E-01  0.35737005818E-01  0.00000000000E+00 0.  1.
  9000001    1    1    2    0    0  0.71451663146E-02 -0.28572003886E-01  0.20241560640E-01  0.35750994182E-01  0.10000000475E-02 0. -1.
</event>
<event>
 4   0  0.2441219E-02  0.9118800E+02  0.7818609E-02  0.1379984E+01
      -11   -1    0    0    0    0  0.00000000000E+00  0.00000000000E+00  0.35740347158E-01  0.35744000000E-01  0.51099999109E-03 0.  1.
       11   -1    0    0    0    0 -0.00000000000E+00 -0.00000000000E+00 -0.35740347158E-01  0.35744000000E-01  0.51099999109E-03 0. -1.
       22    1    1    2    0    0  0.13248803636E-01  0.21221851203E-01 -0.25519322456E-01  0.35737005818E-01  0.00000000000E+00 0. -1.
  9000001    1    1    2    0    0 -0.13248803636E-01 -0.21221851203E-01  0.25519322456E-01  0.35750994182E-01  0.10000000475E-02 0.  1.
</event>
<event>
 4   0  0.2441219E-02  0.9118800E+02  0.7818609E-02  0.1379984E+01
      -11   -1    0    0    0    0  0.00000000000E+00  0.00000000000E+00  0.35740347158E-01  0.35744000000E-01  0.51099999109E-03 0.  1.
       11   -1    0    0    0    0 -0.00000000000E+00 -0.00000000000E+00 -0.35740347158E-01  0.35744000000E-01  0.51099999109E-03 0. -1.
       22    1    1    2    0    0  0.12453805916E-01  0.27728880574E-02 -0.33381842294E-01  0.35737005818E-01  0.00000000000E+00 0. -1.
  9000001    1    1    2    0    0 -0.12453805916E-01 -0.27728880574E-02  0.33381842294E-01  0.35750994182E-01  0.10000000475E-02 0.  1.
</event>
<event>
 4   0  0.2441219E-02  0.9118800E+02  0.7818609E-02  0.1379984E+01
      -11   -1    0    0    0    0  0.00000000000E+00  0.00000000000E+00  0.35740347158E-01  0.35744000000E-01  0.51099999109E-03 0. -1.
       11   -1    0    0    0    0 -0.00000000000E+00 -0.00000000000E+00 -0.35740347158E-01  0.35744000000E-01  0.51099999109E-03 0.  1.
       22    1    1    2    0    0 -0.11098623678E-01  0.66157178594E-02 -0.33319459998E-01  0.35737005818E-01  0.00000000000E+00 0.  1.
  9000001    1    1    2    0    0  0.11098623678E-01 -0.66157178594E-02  0.33319459998E-01  0.35750994182E-01  0.10000000475E-02 0. -1.
</event>
<event>
 4   0  0.2441219E-02  0.9118800E+02  0.7818609E-02  0.1379984E+01
      -11   -1    0    0    0    0  0.00000000000E+00  0.00000000000E+00  0.35740347158E-01  0.35744000000E-01  0.51099999109E-03 0. -1.
       11   -1    0    0    0    0 -0.00000000000E+00 -0.00000000000E+00 -0.35740347158E-01  0.35744000000E-01  0.51099999109E-03 0.  1.
       22    1    1    2    0    0 -0.33121189239E-02  0.16327659496E-02 -0.35545710409E-01  0.35737005818E-01  0.00000000000E+00 0.  1.
  9000001    1    1    2    0    0  0.33121189239E-02 -0.16327659496E-02  0.35545710409E-01  0.35750994182E-01  0.10000000475E-02 0. -1.
</event>
<event>
 4   0  0.2441219E-02  0.9118800E+02  0.7818609E-02  0.1379984E+01
      -11   -1    0    0    0    0  0.00000000000E+00  0.00000000000E+00  0.35740347158E-01  0.35744000000E-01  0.51099999109E-03 0. -1.
       11   -1    0    0    0    0 -0.00000000000E+00 -0.00000000000E+00 -0.35740347158E-01  0.35744000000E-01  0.51099999109E-03 0.  1.
       22    1    1    2    0    0  0.82588618443E-02  0.25986096031E-01 -0.23100813816E-01  0.35737005818E-01  0.00000000000E+00 0.  1.
  9000001    1    1    2    0    0 -0.82588618443E-02 -0.25986096031E-01  0.23100813816E-01  0.35750994182E-01  0.10000000475E-02 0. -1.
</event>
<event>
 4   0  0.2441219E-02  0.9118800E+02  0.7818609E-02  0.1379984E+01
      -11   -1    0    0    0    0  0.00000000000E+00  0.00000000000E+00  0.35740347158E-01  0.35744000000E-01  0.51099999109E-03 0.  1.
       11   -1    0    0    0    0 -0.00000000000E+00 -0.00000000000E+00 -0.35740347158E-01  0.35744000000E-01  0.51099999109E-03 0. -1.
       22    1    1    2    0    0  0.14499407955E-01 -0.27258100067E-01  0.17997131286E-01  0.35737005818E-01  0.00000000000E+00 0.  1.
  9000001    1    1    2    0    0 -0.14499407955E-01  0.27258100067E-01 -0.17997131286E-01  0.35750994182E-01  0.10000000475E-02 0. -1.
</event>
<event>
 4   0  0.2441219E-02  0.9118800E+02  0.7818609E-02  0.1379984E+01
      -11   -1    0    0    0    0  0.00000000000E+00  0.00000000000E+00  0.35740347158E-01  0.35744000000E-01  0.51099999109E-03 0.  1.
       11   -1    0    0    0    0 -0.00000000000E+00 -0.00000000000E+00 -0.35740347158E-01  0.35744000000E-01  0.51099999109E-03 0. -1.
       22    1    1    2    0    0 -0.26464037344E-02  0.61768456480E-02  0.35099525780E-01  0.35737005818E-01  0.00000000000E+00 0.  1.
  9000001    1    1    2    0    0  0.26464037344E-02 -0.61768456480E-02 -0.35099525780E-01  0.35750994182E-01  0.10000000475E-02 0. -1.
</event>
<event>
 4   0  0.2441219E-02  0.9118800E+02  0.7818609E-02  0.1379984E+01
      -11   -1    0    0    0    0  0.00000000000E+00  0.00000000000E+00  0.35740347158E-01  0.35744000000E-01  0.51099999109E-03 0.  1.
       11   -1    0    0    0    0 -0.00000000000E+00 -0.00000000000E+00 -0.35740347158E-01  0.35744000000E-01  0.51099999109E-03 0. -1.
       22    1    1    2    0    0 -0.17479101511E-01 -0.99615974969E-02  0.29536099447E-01  0.35737005818E-01  0.00000000000E+00 0.  1.
  9000001    1    1    2    0    0  0.17479101511E-01  0.99615974969E-02 -0.29536099447E-01  0.35750994182E-01  0.10000000475E-02 0. -1.
</event>
<event>
 4   0  0.2441219E-02  0.9118800E+02  0.7818609E-02  0.1379984E+01
      -11   -1    0    0    0    0  0.00000000000E+00  0.00000000000E+00  0.35740347158E-01  0.35744000000E-01  0.51099999109E-03 0. -1.
       11   -1    0    0    0    0 -0.00000000000E+00 -0.00000000000E+00 -0.35740347158E-01  0.35744000000E-01  0.51099999109E-03 0.  1.
       22    1    1    2    0    0 -0.62439822552E-02  0.13587793946E-02 -0.35161057848E-01  0.35737005818E-01  0.00000000000E+00 0.  1.
  9000001    1    1    2    0    0  0.62439822552E-02 -0.13587793946E-02  0.35161057848E-01  0.35750994182E-01  0.10000000475E-02 0. -1.
</event>
<event>
 4   0  0.2441219E-02  0.9118800E+02  0.7818609E-02  0.1379984E+01
      -11   -1    0    0    0    0  0.00000000000E+00  0.00000000000E+00  0.35740347158E-01  0.35744000000E-01  0.51099999109E-03 0. -1.
       11   -1    0    0    0    0 -0.00000000000E+00 -0.00000000000E+00 -0.35740347158E-01  0.35744000000E-01  0.51099999109E-03 0.  1.
       22    1    1    2    0    0 -0.23663934345E-02 -0.40507224207E-02  0.35427749221E-01  0.35737005818E-01  0.00000000000E+00 0. -1.
  9000001    1    1    2    0    0  0.23663934345E-02  0.40507224207E-02 -0.35427749221E-01  0.35750994182E-01  0.10000000475E-02 0.  1.
</event>
<event>
 4   0  0.2441219E-02  0.9118800E+02  0.7818609E-02  0.1379984E+01
      -11   -1    0    0    0    0  0.00000000000E+00  0.00000000000E+00  0.35740347158E-01  0.35744000000E-01  0.51099999109E-03 0.  1.
       11   -1    0    0    0    0 -0.00000000000E+00 -0.00000000000E+00 -0.35740347158E-01  0.35744000000E-01  0.51099999109E-03 0. -1.
       22    1    1    2    0    0  0.75077368615E-02  0.12205086734E-01 -0.32738407565E-01  0.35737005818E-01  0.00000000000E+00 0. -1.
  9000001    1    1    2    0    0 -0.75077368615E-02 -0.12205086734E-01  0.32738407565E-01  0.35750994182E-01  0.10000000475E-02 0.  1.
</event>
<event>
 4   0  0.2441219E-02  0.9118800E+02  0.7818609E-02  0.1379984E+01
      -11   -1    0    0    0    0  0.00000000000E+00  0.00000000000E+00  0.35740347158E-01  0.35744000000E-01  0.51099999109E-03 0. -1.
       11   -1    0    0    0    0 -0.00000000000E+00 -0.00000000000E+00 -0.35740347158E-01  0.35744000000E-01  0.51099999109E-03 0.  1.
       22    1    1    2    0    0 -0.35614841686E-01  0.20080455627E-02 -0.21643450603E-02  0.35737005818E-01  0.00000000000E+00 0. -1.
  9000001    1    1    2    0    0  0.35614841686E-01 -0.20080455627E-02  0.21643450603E-02  0.35750994182E-01  0.10000000475E-02 0.  1.
</event>
<event>
 4   0  0.2441219E-02  0.9118800E+02  0.7818609E-02  0.1379984E+01
      -11   -1    0    0    0    0  0.00000000000E+00  0.00000000000E+00  0.35740347158E-01  0.35744000000E-01  0.51099999109E-03 0.  1.
       11   -1    0    0    0    0 -0.00000000000E+00 -0.00000000000E+00 -0.35740347158E-01  0.35744000000E-01  0.51099999109E-03 0. -1.
       22    1    1    2    0    0 -0.40280821648E-03  0.49670445829E-02  0.35387848176E-01  0.35737005818E-01  0.00000000000E+00 0.  1.
  9000001    1    1    2    0    0  0.40280821648E-03 -0.49670445829E-02 -0.35387848176E-01  0.35750994182E-01  0.10000000475E-02 0. -1.
</event>
<event>
 4   0  0.2441219E-02  0.9118800E+02  0.7818609E-02  0.1379984E+01
      -11   -1    0    0    0    0  0.00000000000E+00  0.00000000000E+00  0.35740347158E-01  0.35744000000E-01  0.51099999109E-03 0.  1.
       11   -1    0    0    0    0 -0.00000000000E+00 -0.00000000000E+00 -0.35740347158E-01  0.35744000000E-01  0.51099999109E-03 0. -1.
       22    1    1    2    0    0  0.42479832664E-03  0.29943378963E-02  0.35608806099E-01  0.35737005818E-01  0.00000000000E+00 0.  1.
  9000001    1    1    2    0    0 -0.42479832664E-03 -0.29943378963E-02 -0.35608806099E-01  0.35750994182E-01  0.10000000475E-02 0. -1.
</event>
<event>
 4   0  0.2441219E-02  0.9118800E+02  0.7818609E-02  0.1379984E+01
      -11   -1    0    0    0    0  0.00000000000E+00  0.00000000000E+00  0.35740347158E-01  0.35744000000E-01  0.51099999109E-03 0. -1.
       11   -1    0    0    0    0 -0.00000000000E+00 -0.00000000000E+00 -0.35740347158E-01  0.35744000000E-01  0.51099999109E-03 0.  1.
       22    1    1    2    0    0 -0.61903582972E-02 -0.27941797879E-02 -0.35085689509E-01  0.35737005818E-01  0.00000000000E+00 0.  1.
  9000001    1    1    2    0    0  0.61903582972E-02  0.27941797879E-02  0.35085689509E-01  0.35750994182E-01  0.10000000475E-02 0. -1.
</event>
<event>
 4   0  0.2441219E-02  0.9118800E+02  0.7818609E-02  0.1379984E+01
      -11   -1    0    0    0    0  0.00000000000E+00  0.00000000000E+00  0.35740347158E-01  0.35744000000E-01  0.51099999109E-03 0. -1.
       11   -1    0    0    0    0 -0.00000000000E+00 -0.00000000000E+00 -0.35740347158E-01  0.35744000000E-01  0.51099999109E-03 0.  1.
       22    1    1    2    0    0 -0.30184490643E-02 -0.75202141103E-02 -0.34806162240E-01  0.35737005818E-01  0.00000000000E+00 0.  1.
  9000001    1    1    2    0    0  0.30184490643E-02  0.75202141103E-02  0.34806162240E-01  0.35750994182E-01  0.10000000475E-02 0. -1.
</event>
<event>
 4   0  0.2441219E-02  0.9118800E+02  0.7818609E-02  0.1379984E+01
      -11   -1    0    0    0    0  0.00000000000E+00  0.00000000000E+00  0.35740347158E-01  0.35744000000E-01  0.51099999109E-03 0. -1.
       11   -1    0    0    0    0 -0.00000000000E+00 -0.00000000000E+00 -0.35740347158E-01  0.35744000000E-01  0.51099999109E-03 0. -1.
       22    1    1    2    0    0 -0.26399176750E-01  0.10352654679E-01  0.21749473394E-01  0.35737005818E-01  0.00000000000E+00 0. -1.
  9000001    1    1    2    0    0  0.26399176750E-01 -0.10352654679E-01 -0.21749473394E-01  0.35750994182E-01  0.10000000475E-02 0. -1.
</event>
<event>
 4   0  0.2441219E-02  0.9118800E+02  0.7818609E-02  0.1379984E+01
      -11   -1    0    0    0    0  0.00000000000E+00  0.00000000000E+00  0.35740347158E-01  0.35744000000E-01  0.51099999109E-03 0.  1.
       11   -1    0    0    0    0 -0.00000000000E+00 -0.00000000000E+00 -0.35740347158E-01  0.35744000000E-01  0.51099999109E-03 0. -1.
       22    1    1    2    0    0  0.50354185212E-03 -0.31732442959E-02  0.35592282185E-01  0.35737005818E-01  0.00000000000E+00 0.  1.
  9000001    1    1    2    0    0 -0.50354185212E-03  0.31732442959E-02 -0.35592282185E-01  0.35750994182E-01  0.10000000475E-02 0. -1.
</event>
<event>
 4   0  0.2441219E-02  0.9118800E+02  0.7818609E-02  0.1379984E+01
      -11   -1    0    0    0    0  0.00000000000E+00  0.00000000000E+00  0.35740347158E-01  0.35744000000E-01  0.51099999109E-03 0.  1.
       11   -1    0    0    0    0 -0.00000000000E+00 -0.00000000000E+00 -0.35740347158E-01  0.35744000000E-01  0.51099999109E-03 0. -1.
       22    1    1    2    0    0 -0.36349630516E-02  0.11016045844E-01  0.33801884007E-01  0.35737005818E-01  0.00000000000E+00 0.  1.
  9000001    1    1    2    0    0  0.36349630516E-02 -0.11016045844E-01 -0.33801884007E-01  0.35750994182E-01  0.10000000475E-02 0. -1.
</event>
<event>
 4   0  0.2441219E-02  0.9118800E+02  0.7818609E-02  0.1379984E+01
      -11   -1    0    0    0    0  0.00000000000E+00  0.00000000000E+00  0.35740347158E-01  0.35744000000E-01  0.51099999109E-03 0. -1.
       11   -1    0    0    0    0 -0.00000000000E+00 -0.00000000000E+00 -0.35740347158E-01  0.35744000000E-01  0.51099999109E-03 0.  1.
       22    1    1    2    0    0 -0.53155677303E-02 -0.31330396440E-01 -0.16348840433E-01  0.35737005818E-01  0.00000000000E+00 0. -1.
  9000001    1    1    2    0    0  0.53155677303E-02  0.31330396440E-01  0.16348840433E-01  0.35750994182E-01  0.10000000475E-02 0.  1.
</event>
<event>
 4   0  0.2441219E-02  0.9118800E+02  0.7818609E-02  0.1379984E+01
      -11   -1    0    0    0    0  0.00000000000E+00  0.00000000000E+00  0.35740347158E-01  0.35744000000E-01  0.51099999109E-03 0. -1.
       11   -1    0    0    0    0 -0.00000000000E+00 -0.00000000000E+00 -0.35740347158E-01  0.35744000000E-01  0.51099999109E-03 0.  1.
       22    1    1    2    0    0  0.62108975121E-02 -0.12174978364E-01 -0.33020118698E-01  0.35737005818E-01  0.00000000000E+00 0.  1.
  9000001    1    1    2    0    0 -0.62108975121E-02  0.12174978364E-01  0.33020118698E-01  0.35750994182E-01  0.10000000475E-02 0. -1.
</event>
<event>
 4   0  0.2441219E-02  0.9118800E+02  0.7818609E-02  0.1379984E+01
      -11   -1    0    0    0    0  0.00000000000E+00  0.00000000000E+00  0.35740347158E-01  0.35744000000E-01  0.51099999109E-03 0. -1.
       11   -1    0    0    0    0 -0.00000000000E+00 -0.00000000000E+00 -0.35740347158E-01  0.35744000000E-01  0.51099999109E-03 0.  1.
       22    1    1    2    0    0  0.33734519031E-02 -0.84704827102E-02  0.34554367738E-01  0.35737005818E-01  0.00000000000E+00 0. -1.
  9000001    1    1    2    0    0 -0.33734519031E-02  0.84704827102E-02 -0.34554367738E-01  0.35750994182E-01  0.10000000475E-02 0.  1.
</event>
<event>
 4   0  0.2441219E-02  0.9118800E+02  0.7818609E-02  0.1379984E+01
      -11   -1    0    0    0    0  0.00000000000E+00  0.00000000000E+00  0.35740347158E-01  0.35744000000E-01  0.51099999109E-03 0. -1.
       11   -1    0    0    0    0 -0.00000000000E+00 -0.00000000000E+00 -0.35740347158E-01  0.35744000000E-01  0.51099999109E-03 0.  1.
       22    1    1    2    0    0  0.33143113741E-02  0.10547280676E-02  0.35567351232E-01  0.35737005818E-01  0.00000000000E+00 0. -1.
  9000001    1    1    2    0    0 -0.33143113741E-02 -0.10547280676E-02 -0.35567351232E-01  0.35750994182E-01  0.10000000475E-02 0.  1.
</event>
<event>
 4   0  0.2441219E-02  0.9118800E+02  0.7818609E-02  0.1379984E+01
      -11   -1    0    0    0    0  0.00000000000E+00  0.00000000000E+00  0.35740347158E-01  0.35744000000E-01  0.51099999109E-03 0. -1.
       11   -1    0    0    0    0 -0.00000000000E+00 -0.00000000000E+00 -0.35740347158E-01  0.35744000000E-01  0.51099999109E-03 0.  1.
       22    1    1    2    0    0 -0.11623297437E-01 -0.20822406297E-01  0.26616910744E-01  0.35737005818E-01  0.00000000000E+00 0. -1.
  9000001    1    1    2    0    0  0.11623297437E-01  0.20822406297E-01 -0.26616910744E-01  0.35750994182E-01  0.10000000475E-02 0.  1.
</event>
<event>
 4   0  0.2441219E-02  0.9118800E+02  0.7818609E-02  0.1379984E+01
      -11   -1    0    0    0    0  0.00000000000E+00  0.00000000000E+00  0.35740347158E-01  0.35744000000E-01  0.51099999109E-03 0.  1.
       11   -1    0    0    0    0 -0.00000000000E+00 -0.00000000000E+00 -0.35740347158E-01  0.35744000000E-01  0.51099999109E-03 0. -1.
       22    1    1    2    0    0  0.12113962153E-01 -0.32649039631E-01 -0.80265632114E-02  0.35737005818E-01  0.00000000000E+00 0. -1.
  9000001    1    1    2    0    0 -0.12113962153E-01  0.32649039631E-01  0.80265632114E-02  0.35750994182E-01  0.10000000475E-02 0.  1.
</event>
<event>
 4   0  0.2441219E-02  0.9118800E+02  0.7818609E-02  0.1379984E+01
      -11   -1    0    0    0    0  0.00000000000E+00  0.00000000000E+00  0.35740347158E-01  0.35744000000E-01  0.51099999109E-03 0. -1.
       11   -1    0    0    0    0 -0.00000000000E+00 -0.00000000000E+00 -0.35740347158E-01  0.35744000000E-01  0.51099999109E-03 0.  1.
       22    1    1    2    0    0 -0.22232843427E-02  0.12700023444E-01 -0.33330166458E-01  0.35737005818E-01  0.00000000000E+00 0.  1.
  9000001    1    1    2    0    0  0.22232843427E-02 -0.12700023444E-01  0.33330166458E-01  0.35750994182E-01  0.10000000475E-02 0. -1.
</event>
<event>
 4   0  0.2441219E-02  0.9118800E+02  0.7818609E-02  0.1379984E+01
      -11   -1    0    0    0    0  0.00000000000E+00  0.00000000000E+00  0.35740347158E-01  0.35744000000E-01  0.51099999109E-03 0.  1.
       11   -1    0    0    0    0 -0.00000000000E+00 -0.00000000000E+00 -0.35740347158E-01  0.35744000000E-01  0.51099999109E-03 0. -1.
       22    1    1    2    0    0 -0.47469634901E-02  0.30554134668E-02  0.35288303601E-01  0.35737005818E-01  0.00000000000E+00 0.  1.
  9000001    1    1    2    0    0  0.47469634901E-02 -0.30554134668E-02 -0.35288303601E-01  0.35750994182E-01  0.10000000475E-02 0. -1.
</event>
<event>
 4   0  0.2441219E-02  0.9118800E+02  0.7818609E-02  0.1379984E+01
      -11   -1    0    0    0    0  0.00000000000E+00  0.00000000000E+00  0.35740347158E-01  0.35744000000E-01  0.51099999109E-03 0. -1.
       11   -1    0    0    0    0 -0.00000000000E+00 -0.00000000000E+00 -0.35740347158E-01  0.35744000000E-01  0.51099999109E-03 0.  1.
       22    1    1    2    0    0 -0.32320679210E-01  0.14680463152E-01 -0.41220482675E-02  0.35737005818E-01  0.00000000000E+00 0.  1.
  9000001    1    1    2    0    0  0.32320679210E-01 -0.14680463152E-01  0.41220482675E-02  0.35750994182E-01  0.10000000475E-02 0. -1.
</event>
<event>
 4   0  0.2441219E-02  0.9118800E+02  0.7818609E-02  0.1379984E+01
      -11   -1    0    0    0    0  0.00000000000E+00  0.00000000000E+00  0.35740347158E-01  0.35744000000E-01  0.51099999109E-03 0. -1.
       11   -1    0    0    0    0 -0.00000000000E+00 -0.00000000000E+00 -0.35740347158E-01  0.35744000000E-01  0.51099999109E-03 0.  1.
       22    1    1    2    0    0 -0.31151271573E-02  0.68361243852E-03 -0.35594413069E-01  0.35737005818E-01  0.00000000000E+00 0.  1.
  9000001    1    1    2    0    0  0.31151271573E-02 -0.68361243852E-03  0.35594413069E-01  0.35750994182E-01  0.10000000475E-02 0. -1.
</event>
<event>
 4   0  0.2441219E-02  0.9118800E+02  0.7818609E-02  0.1379984E+01
      -11   -1    0    0    0    0  0.00000000000E+00  0.00000000000E+00  0.35740347158E-01  0.35744000000E-01  0.51099999109E-03 0.  1.
       11   -1    0    0    0    0 -0.00000000000E+00 -0.00000000000E+00 -0.35740347158E-01  0.35744000000E-01  0.51099999109E-03 0. -1.
       22    1    1    2    0    0 -0.78382877195E-02  0.24773894009E-01  0.24534649093E-01  0.35737005818E-01  0.00000000000E+00 0.  1.
  9000001    1    1    2    0    0  0.78382877195E-02 -0.24773894009E-01 -0.24534649093E-01  0.35750994182E-01  0.10000000475E-02 0. -1.
</event>
<event>
 4   0  0.2441219E-02  0.9118800E+02  0.7818609E-02  0.1379984E+01
      -11   -1    0    0    0    0  0.00000000000E+00  0.00000000000E+00  0.35740347158E-01  0.35744000000E-01  0.51099999109E-03 0.  1.
       11   -1    0    0    0    0 -0.00000000000E+00 -0.00000000000E+00 -0.35740347158E-01  0.35744000000E-01  0.51099999109E-03 0. -1.
       22    1    1    2    0    0  0.15684359850E-01 -0.16886352780E-01 -0.27312735687E-01  0.35737005818E-01  0.00000000000E+00 0. -1.
  9000001    1    1    2    0    0 -0.15684359850E-01  0.16886352780E-01  0.27312735687E-01  0.35750994182E-01  0.10000000475E-02 0.  1.
</event>
<event>
 4   0  0.2441219E-02  0.9118800E+02  0.7818609E-02  0.1379984E+01
      -11   -1    0    0    0    0  0.00000000000E+00  0.00000000000E+00  0.35740347158E-01  0.35744000000E-01  0.51099999109E-03 0.  1.
       11   -1    0    0    0    0 -0.00000000000E+00 -0.00000000000E+00 -0.35740347158E-01  0.35744000000E-01  0.51099999109E-03 0. -1.
       22    1    1    2    0    0 -0.98023522518E-02  0.13304131630E-01  0.31686709466E-01  0.35737005818E-01  0.00000000000E+00 0.  1.
  9000001    1    1    2    0    0  0.98023522518E-02 -0.13304131630E-01 -0.31686709466E-01  0.35750994182E-01  0.10000000475E-02 0. -1.
</event>
<event>
 4   0  0.2441219E-02  0.9118800E+02  0.7818609E-02  0.1379984E+01
      -11   -1    0    0    0    0  0.00000000000E+00  0.00000000000E+00  0.35740347158E-01  0.35744000000E-01  0.51099999109E-03 0. -1.
       11   -1    0    0    0    0 -0.00000000000E+00 -0.00000000000E+00 -0.35740347158E-01  0.35744000000E-01  0.51099999109E-03 0.  1.
       22    1    1    2    0    0  0.63275982554E-02  0.40479851793E-02  0.34938644810E-01  0.35737005818E-01  0.00000000000E+00 0. -1.
  9000001    1    1    2    0    0 -0.63275982554E-02 -0.40479851793E-02 -0.34938644810E-01  0.35750994182E-01  0.10000000475E-02 0.  1.
</event>
<event>
 4   0  0.2441219E-02  0.9118800E+02  0.7818609E-02  0.1379984E+01
      -11   -1    0    0    0    0  0.00000000000E+00  0.00000000000E+00  0.35740347158E-01  0.35744000000E-01  0.51099999109E-03 0.  1.
       11   -1    0    0    0    0 -0.00000000000E+00 -0.00000000000E+00 -0.35740347158E-01  0.35744000000E-01  0.51099999109E-03 0. -1.
       22    1    1    2    0    0 -0.10748397122E-01 -0.13518763112E-02 -0.34055513131E-01  0.35737005818E-01  0.00000000000E+00 0. -1.
  9000001    1    1    2    0    0  0.10748397122E-01  0.13518763112E-02  0.34055513131E-01  0.35750994182E-01  0.10000000475E-02 0.  1.
</event>
<event>
 4   0  0.2441219E-02  0.9118800E+02  0.7818609E-02  0.1379984E+01
      -11   -1    0    0    0    0  0.00000000000E+00  0.00000000000E+00  0.35740347158E-01  0.35744000000E-01  0.51099999109E-03 0. -1.
       11   -1    0    0    0    0 -0.00000000000E+00 -0.00000000000E+00 -0.35740347158E-01  0.35744000000E-01  0.51099999109E-03 0.  1.
       22    1    1    2    0    0  0.74789731243E-02  0.12554124247E-01 -0.32612766063E-01  0.35737005818E-01  0.00000000000E+00 0.  1.
  9000001    1    1    2    0    0 -0.74789731243E-02 -0.12554124247E-01  0.32612766063E-01  0.35750994182E-01  0.10000000475E-02 0. -1.
</event>
<event>
 4   0  0.2441219E-02  0.9118800E+02  0.7818609E-02  0.1379984E+01
      -11   -1    0    0    0    0  0.00000000000E+00  0.00000000000E+00  0.35740347158E-01  0.35744000000E-01  0.51099999109E-03 0.  1.
       11   -1    0    0    0    0 -0.00000000000E+00 -0.00000000000E+00 -0.35740347158E-01  0.35744000000E-01  0.51099999109E-03 0. -1.
       22    1    1    2    0    0 -0.39093798690E-03  0.75401795120E-02  0.34930308405E-01  0.35737005818E-01  0.00000000000E+00 0.  1.
  9000001    1    1    2    0    0  0.39093798690E-03 -0.75401795120E-02 -0.34930308405E-01  0.35750994182E-01  0.10000000475E-02 0. -1.
</event>
<event>
 4   0  0.2441219E-02  0.9118800E+02  0.7818609E-02  0.1379984E+01
      -11   -1    0    0    0    0  0.00000000000E+00  0.00000000000E+00  0.35740347158E-01  0.35744000000E-01  0.51099999109E-03 0. -1.
       11   -1    0    0    0    0 -0.00000000000E+00 -0.00000000000E+00 -0.35740347158E-01  0.35744000000E-01  0.51099999109E-03 0.  1.
       22    1    1    2    0    0 -0.11345225974E-01 -0.24239936631E-01 -0.23682164271E-01  0.35737005818E-01  0.00000000000E+00 0.  1.
  9000001    1    1    2    0    0  0.11345225974E-01  0.24239936631E-01  0.23682164271E-01  0.35750994182E-01  0.10000000475E-02 0. -1.
</event>
<event>
 4   0  0.2441219E-02  0.9118800E+02  0.7818609E-02  0.1379984E+01
      -11   -1    0    0    0    0  0.00000000000E+00  0.00000000000E+00  0.35740347158E-01  0.35744000000E-01  0.51099999109E-03 0.  1.
       11   -1    0    0    0    0 -0.00000000000E+00 -0.00000000000E+00 -0.35740347158E-01  0.35744000000E-01  0.51099999109E-03 0. -1.
       22    1    1    2    0    0 -0.45904346448E-02 -0.25414610606E-01  0.24701397984E-01  0.35737005818E-01  0.00000000000E+00 0.  1.
  9000001    1    1    2    0    0  0.45904346448E-02  0.25414610606E-01 -0.24701397984E-01  0.35750994182E-01  0.10000000475E-02 0. -1.
</event>
<event>
 4   0  0.2441219E-02  0.9118800E+02  0.7818609E-02  0.1379984E+01
      -11   -1    0    0    0    0  0.00000000000E+00  0.00000000000E+00  0.35740347158E-01  0.35744000000E-01  0.51099999109E-03 0.  1.
       11   -1    0    0    0    0 -0.00000000000E+00 -0.00000000000E+00 -0.35740347158E-01  0.35744000000E-01  0.51099999109E-03 0. -1.
       22    1    1    2    0    0  0.11225804195E-02 -0.37192576448E-02 -0.35525209650E-01  0.35737005818E-01  0.00000000000E+00 0. -1.
  9000001    1    1    2    0    0 -0.11225804195E-02  0.37192576448E-02  0.35525209650E-01  0.35750994182E-01  0.10000000475E-02 0.  1.
</event>
<event>
 4   0  0.2441219E-02  0.9118800E+02  0.7818609E-02  0.1379984E+01
      -11   -1    0    0    0    0  0.00000000000E+00  0.00000000000E+00  0.35740347158E-01  0.35744000000E-01  0.51099999109E-03 0. -1.
       11   -1    0    0    0    0 -0.00000000000E+00 -0.00000000000E+00 -0.35740347158E-01  0.35744000000E-01  0.51099999109E-03 0.  1.
       22    1    1    2    0    0 -0.11042499359E-02  0.32808692123E-02 -0.35568948736E-01  0.35737005818E-01  0.00000000000E+00 0.  1.
  9000001    1    1    2    0    0  0.11042499359E-02 -0.32808692123E-02  0.35568948736E-01  0.35750994182E-01  0.10000000475E-02 0. -1.
</event>
<event>
 4   0  0.2441219E-02  0.9118800E+02  0.7818609E-02  0.1379984E+01
      -11   -1    0    0    0    0  0.00000000000E+00  0.00000000000E+00  0.35740347158E-01  0.35744000000E-01  0.51099999109E-03 0. -1.
       11   -1    0    0    0    0 -0.00000000000E+00 -0.00000000000E+00 -0.35740347158E-01  0.35744000000E-01  0.51099999109E-03 0.  1.
       22    1    1    2    0    0  0.34051187748E-03 -0.76729666316E-02  0.34901908538E-01  0.35737005818E-01  0.00000000000E+00 0. -1.
  9000001    1    1    2    0    0 -0.34051187748E-03  0.76729666316E-02 -0.34901908538E-01  0.35750994182E-01  0.10000000475E-02 0.  1.
</event>
<event>
 4   0  0.2441219E-02  0.9118800E+02  0.7818609E-02  0.1379984E+01
      -11   -1    0    0    0    0  0.00000000000E+00  0.00000000000E+00  0.35740347158E-01  0.35744000000E-01  0.51099999109E-03 0.  1.
       11   -1    0    0    0    0 -0.00000000000E+00 -0.00000000000E+00 -0.35740347158E-01  0.35744000000E-01  0.51099999109E-03 0. -1.
       22    1    1    2    0    0  0.91736316719E-02  0.23107644151E-02 -0.34462130443E-01  0.35737005818E-01  0.00000000000E+00 0. -1.
  9000001    1    1    2    0    0 -0.91736316719E-02 -0.23107644151E-02  0.34462130443E-01  0.35750994182E-01  0.10000000475E-02 0.  1.
</event>
<event>
 4   0  0.2441219E-02  0.9118800E+02  0.7818609E-02  0.1379984E+01
      -11   -1    0    0    0    0  0.00000000000E+00  0.00000000000E+00  0.35740347158E-01  0.35744000000E-01  0.51099999109E-03 0. -1.
       11   -1    0    0    0    0 -0.00000000000E+00 -0.00000000000E+00 -0.35740347158E-01  0.35744000000E-01  0.51099999109E-03 0.  1.
       22    1    1    2    0    0 -0.19145830055E-02  0.20823474993E-01 -0.28980180227E-01  0.35737005818E-01  0.00000000000E+00 0.  1.
  9000001    1    1    2    0    0  0.19145830055E-02 -0.20823474993E-01  0.28980180227E-01  0.35750994182E-01  0.10000000475E-02 0. -1.
</event>
<event>
 4   0  0.2441219E-02  0.9118800E+02  0.7818609E-02  0.1379984E+01
      -11   -1    0    0    0    0  0.00000000000E+00  0.00000000000E+00  0.35740347158E-01  0.35744000000E-01  0.51099999109E-03 0. -1.
       11   -1    0    0    0    0 -0.00000000000E+00 -0.00000000000E+00 -0.35740347158E-01  0.35744000000E-01  0.51099999109E-03 0.  1.
       22    1    1    2    0    0 -0.58061593893E-02 -0.29259762648E-02 -0.35140585666E-01  0.35737005818E-01  0.00000000000E+00 0.  1.
  9000001    1    1    2    0    0  0.58061593893E-02  0.29259762648E-02  0.35140585666E-01  0.35750994182E-01  0.10000000475E-02 0. -1.
</event>
<event>
 4   0  0.2441219E-02  0.9118800E+02  0.7818609E-02  0.1379984E+01
      -11   -1    0    0    0    0  0.00000000000E+00  0.00000000000E+00  0.35740347158E-01  0.35744000000E-01  0.51099999109E-03 0. -1.
       11   -1    0    0    0    0 -0.00000000000E+00 -0.00000000000E+00 -0.35740347158E-01  0.35744000000E-01  0.51099999109E-03 0.  1.
       22    1    1    2    0    0  0.13268498702E-01 -0.64857369741E-02  0.32542522075E-01  0.35737005818E-01  0.00000000000E+00 0. -1.
  9000001    1    1    2    0    0 -0.13268498702E-01  0.64857369741E-02 -0.32542522075E-01  0.35750994182E-01  0.10000000475E-02 0.  1.
</event>
<event>
 4   0  0.2441219E-02  0.9118800E+02  0.7818609E-02  0.1379984E+01
      -11   -1    0    0    0    0  0.00000000000E+00  0.00000000000E+00  0.35740347158E-01  0.35744000000E-01  0.51099999109E-03 0.  1.
       11   -1    0    0    0    0 -0.00000000000E+00 -0.00000000000E+00 -0.35740347158E-01  0.35744000000E-01  0.51099999109E-03 0. -1.
       22    1    1    2    0    0 -0.64201884489E-03 -0.39610631732E-02  0.35511003579E-01  0.35737005818E-01  0.00000000000E+00 0.  1.
  9000001    1    1    2    0    0  0.64201884489E-03  0.39610631732E-02 -0.35511003579E-01  0.35750994182E-01  0.10000000475E-02 0. -1.
</event>
<event>
 4   0  0.2441219E-02  0.9118800E+02  0.7818609E-02  0.1379984E+01
      -11   -1    0    0    0    0  0.00000000000E+00  0.00000000000E+00  0.35740347158E-01  0.35744000000E-01  0.51099999109E-03 0.  1.
       11   -1    0    0    0    0 -0.00000000000E+00 -0.00000000000E+00 -0.35740347158E-01  0.35744000000E-01  0.51099999109E-03 0. -1.
       22    1    1    2    0    0 -0.18191255205E-01 -0.14380969396E-01 -0.27191902070E-01  0.35737005818E-01  0.00000000000E+00 0. -1.
  9000001    1    1    2    0    0  0.18191255205E-01  0.14380969396E-01  0.27191902070E-01  0.35750994182E-01  0.10000000475E-02 0.  1.
</event>
<event>
 4   0  0.2441219E-02  0.9118800E+02  0.7818609E-02  0.1379984E+01
      -11   -1    0    0    0    0  0.00000000000E+00  0.00000000000E+00  0.35740347158E-01  0.35744000000E-01  0.51099999109E-03 0.  1.
       11   -1    0    0    0    0 -0.00000000000E+00 -0.00000000000E+00 -0.35740347158E-01  0.35744000000E-01  0.51099999109E-03 0. -1.
       22    1    1    2    0    0  0.49469082997E-02 -0.21088444759E-01  0.28424270981E-01  0.35737005818E-01  0.00000000000E+00 0.  1.
  9000001    1    1    2    0    0 -0.49469082997E-02  0.21088444759E-01 -0.28424270981E-01  0.35750994182E-01  0.10000000475E-02 0. -1.
</event>
<event>
 4   0  0.2441219E-02  0.9118800E+02  0.7818609E-02  0.1379984E+01
      -11   -1    0    0    0    0  0.00000000000E+00  0.00000000000E+00  0.35740347158E-01  0.35744000000E-01  0.51099999109E-03 0.  1.
       11   -1    0    0    0    0 -0.00000000000E+00 -0.00000000000E+00 -0.35740347158E-01  0.35744000000E-01  0.51099999109E-03 0. -1.
       22    1    1    2    0    0  0.84180881976E-02 -0.88365205193E-02 -0.33588469466E-01  0.35737005818E-01  0.00000000000E+00 0. -1.
  9000001    1    1    2    0    0 -0.84180881976E-02  0.88365205193E-02  0.33588469466E-01  0.35750994182E-01  0.10000000475E-02 0.  1.
</event>
<event>
 4   0  0.2441219E-02  0.9118800E+02  0.7818609E-02  0.1379984E+01
      -11   -1    0    0    0    0  0.00000000000E+00  0.00000000000E+00  0.35740347158E-01  0.35744000000E-01  0.51099999109E-03 0.  1.
       11   -1    0    0    0    0 -0.00000000000E+00 -0.00000000000E+00 -0.35740347158E-01  0.35744000000E-01  0.51099999109E-03 0. -1.
       22    1    1    2    0    0 -0.57388753902E-02  0.30723639950E-02  0.35139144463E-01  0.35737005818E-01  0.00000000000E+00 0.  1.
  9000001    1    1    2    0    0  0.57388753902E-02 -0.30723639950E-02 -0.35139144463E-01  0.35750994182E-01  0.10000000475E-02 0. -1.
</event>
<event>
 4   0  0.2441219E-02  0.9118800E+02  0.7818609E-02  0.1379984E+01
      -11   -1    0    0    0    0  0.00000000000E+00  0.00000000000E+00  0.35740347158E-01  0.35744000000E-01  0.51099999109E-03 0.  1.
       11   -1    0    0    0    0 -0.00000000000E+00 -0.00000000000E+00 -0.35740347158E-01  0.35744000000E-01  0.51099999109E-03 0. -1.
       22    1    1    2    0    0  0.35796440526E-02  0.26109910698E-02 -0.35461281124E-01  0.35737005818E-01  0.00000000000E+00 0. -1.
  9000001    1    1    2    0    0 -0.35796440526E-02 -0.26109910698E-02  0.35461281124E-01  0.35750994182E-01  0.10000000475E-02 0.  1.
</event>
<event>
 4   0  0.2441219E-02  0.9118800E+02  0.7818609E-02  0.1379984E+01
      -11   -1    0    0    0    0  0.00000000000E+00  0.00000000000E+00  0.35740347158E-01  0.35744000000E-01  0.51099999109E-03 0.  1.
       11   -1    0    0    0    0 -0.00000000000E+00 -0.00000000000E+00 -0.35740347158E-01  0.35744000000E-01  0.51099999109E-03 0. -1.
       22    1    1    2    0    0  0.12299050940E-01 -0.57897047693E-03  0.33548945200E-01  0.35737005818E-01  0.00000000000E+00 0.  1.
  9000001    1    1    2    0    0 -0.12299050940E-01  0.57897047693E-03 -0.33548945200E-01  0.35750994182E-01  0.10000000475E-02 0. -1.
</event>
<event>
 4   0  0.2441219E-02  0.9118800E+02  0.7818609E-02  0.1379984E+01
      -11   -1    0    0    0    0  0.00000000000E+00  0.00000000000E+00  0.35740347158E-01  0.35744000000E-01  0.51099999109E-03 0.  1.
       11   -1    0    0    0    0 -0.00000000000E+00 -0.00000000000E+00 -0.35740347158E-01  0.35744000000E-01  0.51099999109E-03 0. -1.
       22    1    1    2    0    0  0.65848644111E-02  0.84153862978E-02  0.34102117515E-01  0.35737005818E-01  0.00000000000E+00 0.  1.
  9000001    1    1    2    0    0 -0.65848644111E-02 -0.84153862978E-02 -0.34102117515E-01  0.35750994182E-01  0.10000000475E-02 0. -1.
</event>
<event>
 4   0  0.2441219E-02  0.9118800E+02  0.7818609E-02  0.1379984E+01
      -11   -1    0    0    0    0  0.00000000000E+00  0.00000000000E+00  0.35740347158E-01  0.35744000000E-01  0.51099999109E-03 0.  1.
       11   -1    0    0    0    0 -0.00000000000E+00 -0.00000000000E+00 -0.35740347158E-01  0.35744000000E-01  0.51099999109E-03 0. -1.
       22    1    1    2    0    0 -0.31239185896E-01 -0.57174437329E-02 -0.16387729757E-01  0.35737005818E-01  0.00000000000E+00 0. -1.
  9000001    1    1    2    0    0  0.31239185896E-01  0.57174437329E-02  0.16387729757E-01  0.35750994182E-01  0.10000000475E-02 0.  1.
</event>
<event>
 4   0  0.2441219E-02  0.9118800E+02  0.7818609E-02  0.1379984E+01
      -11   -1    0    0    0    0  0.00000000000E+00  0.00000000000E+00  0.35740347158E-01  0.35744000000E-01  0.51099999109E-03 0.  1.
       11   -1    0    0    0    0 -0.00000000000E+00 -0.00000000000E+00 -0.35740347158E-01  0.35744000000E-01  0.51099999109E-03 0. -1.
       22    1    1    2    0    0  0.27116931773E-02 -0.14467223237E-01  0.32565008165E-01  0.35737005818E-01  0.00000000000E+00 0.  1.
  9000001    1    1    2    0    0 -0.27116931773E-02  0.14467223237E-01 -0.32565008165E-01  0.35750994182E-01  0.10000000475E-02 0. -1.
</event>
<event>
 4   0  0.2441219E-02  0.9118800E+02  0.7818609E-02  0.1379984E+01
      -11   -1    0    0    0    0  0.00000000000E+00  0.00000000000E+00  0.35740347158E-01  0.35744000000E-01  0.51099999109E-03 0. -1.
       11   -1    0    0    0    0 -0.00000000000E+00 -0.00000000000E+00 -0.35740347158E-01  0.35744000000E-01  0.51099999109E-03 0.  1.
       22    1    1    2    0    0  0.13363235002E-01 -0.31509173603E-01  0.10282485790E-01  0.35737005818E-01  0.00000000000E+00 0. -1.
  9000001    1    1    2    0    0 -0.13363235002E-01  0.31509173603E-01 -0.10282485790E-01  0.35750994182E-01  0.10000000475E-02 0.  1.
</event>
<event>
 4   0  0.2441219E-02  0.9118800E+02  0.7818609E-02  0.1379984E+01
      -11   -1    0    0    0    0  0.00000000000E+00  0.00000000000E+00  0.35740347158E-01  0.35744000000E-01  0.51099999109E-03 0. -1.
       11   -1    0    0    0    0 -0.00000000000E+00 -0.00000000000E+00 -0.35740347158E-01  0.35744000000E-01  0.51099999109E-03 0.  1.
       22    1    1    2    0    0  0.85362366731E-02  0.20150259821E-01 -0.28253022449E-01  0.35737005818E-01  0.00000000000E+00 0.  1.
  9000001    1    1    2    0    0 -0.85362366731E-02 -0.20150259821E-01  0.28253022449E-01  0.35750994182E-01  0.10000000475E-02 0. -1.
</event>
<event>
 4   0  0.2441219E-02  0.9118800E+02  0.7818609E-02  0.1379984E+01
      -11   -1    0    0    0    0  0.00000000000E+00  0.00000000000E+00  0.35740347158E-01  0.35744000000E-01  0.51099999109E-03 0. -1.
       11   -1    0    0    0    0 -0.00000000000E+00 -0.00000000000E+00 -0.35740347158E-01  0.35744000000E-01  0.51099999109E-03 0.  1.
       22    1    1    2    0    0  0.29950658092E-02  0.45509682029E-02 -0.35319284450E-01  0.35737005818E-01  0.00000000000E+00 0.  1.
  9000001    1    1    2    0    0 -0.29950658092E-02 -0.45509682029E-02  0.35319284450E-01  0.35750994182E-01  0.10000000475E-02 0. -1.
</event>
<event>
 4   0  0.2441219E-02  0.9118800E+02  0.7818609E-02  0.1379984E+01
      -11   -1    0    0    0    0  0.00000000000E+00  0.00000000000E+00  0.35740347158E-01  0.35744000000E-01  0.51099999109E-03 0.  1.
       11   -1    0    0    0    0 -0.00000000000E+00 -0.00000000000E+00 -0.35740347158E-01  0.35744000000E-01  0.51099999109E-03 0. -1.
       22    1    1    2    0    0  0.41420557721E-02  0.82030027547E-02 -0.34535310982E-01  0.35737005818E-01  0.00000000000E+00 0. -1.
  9000001    1    1    2    0    0 -0.41420557721E-02 -0.82030027547E-02  0.34535310982E-01  0.35750994182E-01  0.10000000475E-02 0.  1.
</event>
<event>
 4   0  0.2441219E-02  0.9118800E+02  0.7818609E-02  0.1379984E+01
      -11   -1    0    0    0    0  0.00000000000E+00  0.00000000000E+00  0.35740347158E-01  0.35744000000E-01  0.51099999109E-03 0. -1.
       11   -1    0    0    0    0 -0.00000000000E+00 -0.00000000000E+00 -0.35740347158E-01  0.35744000000E-01  0.51099999109E-03 0.  1.
       22    1    1    2    0    0 -0.34028441597E-02 -0.41845921813E-03 -0.35572167890E-01  0.35737005818E-01  0.00000000000E+00 0.  1.
  9000001    1    1    2    0    0  0.34028441597E-02  0.41845921813E-03  0.35572167890E-01  0.35750994182E-01  0.10000000475E-02 0. -1.
</event>
<event>
 4   0  0.2441219E-02  0.9118800E+02  0.7818609E-02  0.1379984E+01
      -11   -1    0    0    0    0  0.00000000000E+00  0.00000000000E+00  0.35740347158E-01  0.35744000000E-01  0.51099999109E-03 0.  1.
       11   -1    0    0    0    0 -0.00000000000E+00 -0.00000000000E+00 -0.35740347158E-01  0.35744000000E-01  0.51099999109E-03 0. -1.
       22    1    1    2    0    0 -0.86641314746E-02  0.37227056994E-02  0.34470391250E-01  0.35737005818E-01  0.00000000000E+00 0.  1.
  9000001    1    1    2    0    0  0.86641314746E-02 -0.37227056994E-02 -0.34470391250E-01  0.35750994182E-01  0.10000000475E-02 0. -1.
</event>
<event>
 4   0  0.2441219E-02  0.9118800E+02  0.7818609E-02  0.1379984E+01
      -11   -1    0    0    0    0  0.00000000000E+00  0.00000000000E+00  0.35740347158E-01  0.35744000000E-01  0.51099999109E-03 0. -1.
       11   -1    0    0    0    0 -0.00000000000E+00 -0.00000000000E+00 -0.35740347158E-01  0.35744000000E-01  0.51099999109E-03 0.  1.
       22    1    1    2    0    0 -0.55797010215E-02  0.73133853054E-03  0.35291155625E-01  0.35737005818E-01  0.00000000000E+00 0. -1.
  9000001    1    1    2    0    0  0.55797010215E-02 -0.73133853054E-03 -0.35291155625E-01  0.35750994182E-01  0.10000000475E-02 0.  1.
</event>
<event>
 4   0  0.2441219E-02  0.9118800E+02  0.7818609E-02  0.1379984E+01
      -11   -1    0    0    0    0  0.00000000000E+00  0.00000000000E+00  0.35740347158E-01  0.35744000000E-01  0.51099999109E-03 0. -1.
       11   -1    0    0    0    0 -0.00000000000E+00 -0.00000000000E+00 -0.35740347158E-01  0.35744000000E-01  0.51099999109E-03 0.  1.
       22    1    1    2    0    0  0.93182376179E-02  0.18257483612E-01  0.29274021328E-01  0.35737005818E-01  0.00000000000E+00 0. -1.
  9000001    1    1    2    0    0 -0.93182376179E-02 -0.18257483612E-01 -0.29274021328E-01  0.35750994182E-01  0.10000000475E-02 0.  1.
</event>
<event>
 4   0  0.2441219E-02  0.9118800E+02  0.7818609E-02  0.1379984E+01
      -11   -1    0    0    0    0  0.00000000000E+00  0.00000000000E+00  0.35740347158E-01  0.35744000000E-01  0.51099999109E-03 0. -1.
       11   -1    0    0    0    0 -0.00000000000E+00 -0.00000000000E+00 -0.35740347158E-01  0.35744000000E-01  0.51099999109E-03 0.  1.
       22    1    1    2    0    0  0.51747762447E-02 -0.18636360209E-01  0.30050646480E-01  0.35737005818E-01  0.00000000000E+00 0. -1.
  9000001    1    1    2    0    0 -0.51747762447E-02  0.18636360209E-01 -0.30050646480E-01  0.35750994182E-01  0.10000000475E-02 0.  1.
</event>
<event>
 4   0  0.2441219E-02  0.9118800E+02  0.7818609E-02  0.1379984E+01
      -11   -1    0    0    0    0  0.00000000000E+00  0.00000000000E+00  0.35740347158E-01  0.35744000000E-01  0.51099999109E-03 0. -1.
       11   -1    0    0    0    0 -0.00000000000E+00 -0.00000000000E+00 -0.35740347158E-01  0.35744000000E-01  0.51099999109E-03 0.  1.
       22    1    1    2    0    0  0.34197528397E-01  0.40802073386E-02 -0.95401543213E-02  0.35737005818E-01  0.00000000000E+00 0.  1.
  9000001    1    1    2    0    0 -0.34197528397E-01 -0.40802073386E-02  0.95401543213E-02  0.35750994182E-01  0.10000000475E-02 0. -1.
</event>
<event>
 4   0  0.2441219E-02  0.9118800E+02  0.7818609E-02  0.1379984E+01
      -11   -1    0    0    0    0  0.00000000000E+00  0.00000000000E+00  0.35740347158E-01  0.35744000000E-01  0.51099999109E-03 0.  1.
       11   -1    0    0    0    0 -0.00000000000E+00 -0.00000000000E+00 -0.35740347158E-01  0.35744000000E-01  0.51099999109E-03 0. -1.
       22    1    1    2    0    0  0.32740138388E-02 -0.87765983667E-02  0.34487472209E-01  0.35737005818E-01  0.00000000000E+00 0.  1.
  9000001    1    1    2    0    0 -0.32740138388E-02  0.87765983667E-02 -0.34487472209E-01  0.35750994182E-01  0.10000000475E-02 0. -1.
</event>
<event>
 4   0  0.2441219E-02  0.9118800E+02  0.7818609E-02  0.1379984E+01
      -11   -1    0    0    0    0  0.00000000000E+00  0.00000000000E+00  0.35740347158E-01  0.35744000000E-01  0.51099999109E-03 0. -1.
       11   -1    0    0    0    0 -0.00000000000E+00 -0.00000000000E+00 -0.35740347158E-01  0.35744000000E-01  0.51099999109E-03 0.  1.
       22    1    1    2    0    0  0.14426558333E-01  0.60594830711E-02 -0.32129280484E-01  0.35737005818E-01  0.00000000000E+00 0.  1.
  9000001    1    1    2    0    0 -0.14426558333E-01 -0.60594830711E-02  0.32129280484E-01  0.35750994182E-01  0.10000000475E-02 0. -1.
</event>
<event>
 4   0  0.2441219E-02  0.9118800E+02  0.7818609E-02  0.1379984E+01
      -11   -1    0    0    0    0  0.00000000000E+00  0.00000000000E+00  0.35740347158E-01  0.35744000000E-01  0.51099999109E-03 0.  1.
       11   -1    0    0    0    0 -0.00000000000E+00 -0.00000000000E+00 -0.35740347158E-01  0.35744000000E-01  0.51099999109E-03 0. -1.
       22    1    1    2    0    0 -0.35792273024E-02 -0.81712297071E-02 -0.34605689155E-01  0.35737005818E-01  0.00000000000E+00 0. -1.
  9000001    1    1    2    0    0  0.35792273024E-02  0.81712297071E-02  0.34605689155E-01  0.35750994182E-01  0.10000000475E-02 0.  1.
</event>
<event>
 4   0  0.2441219E-02  0.9118800E+02  0.7818609E-02  0.1379984E+01
      -11   -1    0    0    0    0  0.00000000000E+00  0.00000000000E+00  0.35740347158E-01  0.35744000000E-01  0.51099999109E-03 0.  1.
       11   -1    0    0    0    0 -0.00000000000E+00 -0.00000000000E+00 -0.35740347158E-01  0.35744000000E-01  0.51099999109E-03 0. -1.
       22    1    1    2    0    0 -0.69555211709E-03 -0.30508632062E-02 -0.35599747553E-01  0.35737005818E-01  0.00000000000E+00 0. -1.
  9000001    1    1    2    0    0  0.69555211709E-03  0.30508632062E-02  0.35599747553E-01  0.35750994182E-01  0.10000000475E-02 0.  1.
</event>
<event>
 4   0  0.2441219E-02  0.9118800E+02  0.7818609E-02  0.1379984E+01
      -11   -1    0    0    0    0  0.00000000000E+00  0.00000000000E+00  0.35740347158E-01  0.35744000000E-01  0.51099999109E-03 0.  1.
       11   -1    0    0    0    0 -0.00000000000E+00 -0.00000000000E+00 -0.35740347158E-01  0.35744000000E-01  0.51099999109E-03 0. -1.
       22    1    1    2    0    0 -0.20346486113E-01  0.28781805020E-01  0.58959127813E-02  0.35737005818E-01  0.00000000000E+00 0. -1.
  9000001    1    1    2    0    0  0.20346486113E-01 -0.28781805020E-01 -0.58959127813E-02  0.35750994182E-01  0.10000000475E-02 0.  1.
</event>
<event>
 4   0  0.2441219E-02  0.9118800E+02  0.7818609E-02  0.1379984E+01
      -11   -1    0    0    0    0  0.00000000000E+00  0.00000000000E+00  0.35740347158E-01  0.35744000000E-01  0.51099999109E-03 0.  1.
       11   -1    0    0    0    0 -0.00000000000E+00 -0.00000000000E+00 -0.35740347158E-01  0.35744000000E-01  0.51099999109E-03 0. -1.
       22    1    1    2    0    0 -0.21272973485E-01 -0.15963815176E-01 -0.23869453053E-01  0.35737005818E-01  0.00000000000E+00 0. -1.
  9000001    1    1    2    0    0  0.21272973485E-01  0.15963815176E-01  0.23869453053E-01  0.35750994182E-01  0.10000000475E-02 0.  1.
</event>
<event>
 4   0  0.2441219E-02  0.9118800E+02  0.7818609E-02  0.1379984E+01
      -11   -1    0    0    0    0  0.00000000000E+00  0.00000000000E+00  0.35740347158E-01  0.35744000000E-01  0.51099999109E-03 0. -1.
       11   -1    0    0    0    0 -0.00000000000E+00 -0.00000000000E+00 -0.35740347158E-01  0.35744000000E-01  0.51099999109E-03 0.  1.
       22    1    1    2    0    0  0.95351124999E-02 -0.30846905829E-01 -0.15319386910E-01  0.35737005818E-01  0.00000000000E+00 0.  1.
  9000001    1    1    2    0    0 -0.95351124999E-02  0.30846905829E-01  0.15319386910E-01  0.35750994182E-01  0.10000000475E-02 0. -1.
</event>
<event>
 4   0  0.2441219E-02  0.9118800E+02  0.7818609E-02  0.1379984E+01
      -11   -1    0    0    0    0  0.00000000000E+00  0.00000000000E+00  0.35740347158E-01  0.35744000000E-01  0.51099999109E-03 0. -1.
       11   -1    0    0    0    0 -0.00000000000E+00 -0.00000000000E+00 -0.35740347158E-01  0.35744000000E-01  0.51099999109E-03 0.  1.
       22    1    1    2    0    0 -0.19277254037E-01 -0.25937641993E-02 -0.29979884071E-01  0.35737005818E-01  0.00000000000E+00 0.  1.
  9000001    1    1    2    0    0  0.19277254037E-01  0.25937641993E-02  0.29979884071E-01  0.35750994182E-01  0.10000000475E-02 0. -1.
</event>
<event>
 4   0  0.2441219E-02  0.9118800E+02  0.7818609E-02  0.1379984E+01
      -11   -1    0    0    0    0  0.00000000000E+00  0.00000000000E+00  0.35740347158E-01  0.35744000000E-01  0.51099999109E-03 0. -1.
       11   -1    0    0    0    0 -0.00000000000E+00 -0.00000000000E+00 -0.35740347158E-01  0.35744000000E-01  0.51099999109E-03 0.  1.
       22    1    1    2    0    0 -0.45481809584E-02  0.10038083888E-01  0.33995360076E-01  0.35737005818E-01  0.00000000000E+00 0. -1.
  9000001    1    1    2    0    0  0.45481809584E-02 -0.10038083888E-01 -0.33995360076E-01  0.35750994182E-01  0.10000000475E-02 0.  1.
</event>
<event>
 4   0  0.2441219E-02  0.9118800E+02  0.7818609E-02  0.1379984E+01
      -11   -1    0    0    0    0  0.00000000000E+00  0.00000000000E+00  0.35740347158E-01  0.35744000000E-01  0.51099999109E-03 0.  1.
       11   -1    0    0    0    0 -0.00000000000E+00 -0.00000000000E+00 -0.35740347158E-01  0.35744000000E-01  0.51099999109E-03 0. -1.
       22    1    1    2    0    0 -0.34619919640E-03  0.12222517589E-01 -0.33580110107E-01  0.35737005818E-01  0.00000000000E+00 0. -1.
  9000001    1    1    2    0    0  0.34619919640E-03 -0.12222517589E-01  0.33580110107E-01  0.35750994182E-01  0.10000000475E-02 0.  1.
</event>
<event>
 4   0  0.2441219E-02  0.9118800E+02  0.7818609E-02  0.1379984E+01
      -11   -1    0    0    0    0  0.00000000000E+00  0.00000000000E+00  0.35740347158E-01  0.35744000000E-01  0.51099999109E-03 0. -1.
       11   -1    0    0    0    0 -0.00000000000E+00 -0.00000000000E+00 -0.35740347158E-01  0.35744000000E-01  0.51099999109E-03 0.  1.
       22    1    1    2    0    0 -0.89658341664E-03 -0.62924681392E-02 -0.35167237136E-01  0.35737005818E-01  0.00000000000E+00 0.  1.
  9000001    1    1    2    0    0  0.89658341664E-03  0.62924681392E-02  0.35167237136E-01  0.35750994182E-01  0.10000000475E-02 0. -1.
</event>
<event>
 4   0  0.2441219E-02  0.9118800E+02  0.7818609E-02  0.1379984E+01
      -11   -1    0    0    0    0  0.00000000000E+00  0.00000000000E+00  0.35740347158E-01  0.35744000000E-01  0.51099999109E-03 0.  1.
       11   -1    0    0    0    0 -0.00000000000E+00 -0.00000000000E+00 -0.35740347158E-01  0.35744000000E-01  0.51099999109E-03 0. -1.
       22    1    1    2    0    0  0.69437371349E-02 -0.68487998490E-02  0.34380401977E-01  0.35737005818E-01  0.00000000000E+00 0.  1.
  9000001    1    1    2    0    0 -0.69437371349E-02  0.68487998490E-02 -0.34380401977E-01  0.35750994182E-01  0.10000000475E-02 0. -1.
</event>
<event>
 4   0  0.2441219E-02  0.9118800E+02  0.7818609E-02  0.1379984E+01
      -11   -1    0    0    0    0  0.00000000000E+00  0.00000000000E+00  0.35740347158E-01  0.35744000000E-01  0.51099999109E-03 0.  1.
       11   -1    0    0    0    0 -0.00000000000E+00 -0.00000000000E+00 -0.35740347158E-01  0.35744000000E-01  0.51099999109E-03 0. -1.
       22    1    1    2    0    0  0.64833262954E-02 -0.92791557143E-02  0.33896863192E-01  0.35737005818E-01  0.00000000000E+00 0.  1.
  9000001    1    1    2    0    0 -0.64833262954E-02  0.92791557143E-02 -0.33896863192E-01  0.35750994182E-01  0.10000000475E-02 0. -1.
</event>
<event>
 4   0  0.2441219E-02  0.9118800E+02  0.7818609E-02  0.1379984E+01
      -11   -1    0    0    0    0  0.00000000000E+00  0.00000000000E+00  0.35740347158E-01  0.35744000000E-01  0.51099999109E-03 0.  1.
       11   -1    0    0    0    0 -0.00000000000E+00 -0.00000000000E+00 -0.35740347158E-01  0.35744000000E-01  0.51099999109E-03 0. -1.
       22    1    1    2    0    0  0.26239909873E-02  0.32160595639E-01  0.15360479951E-01  0.35737005818E-01  0.00000000000E+00 0.  1.
  9000001    1    1    2    0    0 -0.26239909873E-02 -0.32160595639E-01 -0.15360479951E-01  0.35750994182E-01  0.10000000475E-02 0. -1.
</event>
<event>
 4   0  0.2441219E-02  0.9118800E+02  0.7818609E-02  0.1379984E+01
      -11   -1    0    0    0    0  0.00000000000E+00  0.00000000000E+00  0.35740347158E-01  0.35744000000E-01  0.51099999109E-03 0.  1.
       11   -1    0    0    0    0 -0.00000000000E+00 -0.00000000000E+00 -0.35740347158E-01  0.35744000000E-01  0.51099999109E-03 0. -1.
       22    1    1    2    0    0 -0.50393353924E-02  0.23563664037E-02 -0.35301362878E-01  0.35737005818E-01  0.00000000000E+00 0. -1.
  9000001    1    1    2    0    0  0.50393353924E-02 -0.23563664037E-02  0.35301362878E-01  0.35750994182E-01  0.10000000475E-02 0.  1.
</event>
<event>
 4   0  0.2441219E-02  0.9118800E+02  0.7818609E-02  0.1379984E+01
      -11   -1    0    0    0    0  0.00000000000E+00  0.00000000000E+00  0.35740347158E-01  0.35744000000E-01  0.51099999109E-03 0. -1.
       11   -1    0    0    0    0 -0.00000000000E+00 -0.00000000000E+00 -0.35740347158E-01  0.35744000000E-01  0.51099999109E-03 0.  1.
       22    1    1    2    0    0  0.68262942579E-02  0.17350242585E-01  0.30487774170E-01  0.35737005818E-01  0.00000000000E+00 0. -1.
  9000001    1    1    2    0    0 -0.68262942579E-02 -0.17350242585E-01 -0.30487774170E-01  0.35750994182E-01  0.10000000475E-02 0.  1.
</event>
<event>
 4   0  0.2441219E-02  0.9118800E+02  0.7818609E-02  0.1379984E+01
      -11   -1    0    0    0    0  0.00000000000E+00  0.00000000000E+00  0.35740347158E-01  0.35744000000E-01  0.51099999109E-03 0.  1.
       11   -1    0    0    0    0 -0.00000000000E+00 -0.00000000000E+00 -0.35740347158E-01  0.35744000000E-01  0.51099999109E-03 0. -1.
       22    1    1    2    0    0 -0.75802389018E-02  0.96415888745E-02  0.33566550717E-01  0.35737005818E-01  0.00000000000E+00 0.  1.
  9000001    1    1    2    0    0  0.75802389018E-02 -0.96415888745E-02 -0.33566550717E-01  0.35750994182E-01  0.10000000475E-02 0. -1.
</event>
<event>
 4   0  0.2441219E-02  0.9118800E+02  0.7818609E-02  0.1379984E+01
      -11   -1    0    0    0    0  0.00000000000E+00  0.00000000000E+00  0.35740347158E-01  0.35744000000E-01  0.51099999109E-03 0. -1.
       11   -1    0    0    0    0 -0.00000000000E+00 -0.00000000000E+00 -0.35740347158E-01  0.35744000000E-01  0.51099999109E-03 0.  1.
       22    1    1    2    0    0 -0.98236773994E-02  0.13241795638E-01 -0.31706210677E-01  0.35737005818E-01  0.00000000000E+00 0.  1.
  9000001    1    1    2    0    0  0.98236773994E-02 -0.13241795638E-01  0.31706210677E-01  0.35750994182E-01  0.10000000475E-02 0. -1.
</event>
<event>
 4   0  0.2441219E-02  0.9118800E+02  0.7818609E-02  0.1379984E+01
      -11   -1    0    0    0    0  0.00000000000E+00  0.00000000000E+00  0.35740347158E-01  0.35744000000E-01  0.51099999109E-03 0.  1.
       11   -1    0    0    0    0 -0.00000000000E+00 -0.00000000000E+00 -0.35740347158E-01  0.35744000000E-01  0.51099999109E-03 0. -1.
       22    1    1    2    0    0 -0.57811601045E-02 -0.35213284004E-01 -0.19329775890E-02  0.35737005818E-01  0.00000000000E+00 0.  1.
  9000001    1    1    2    0    0  0.57811601045E-02  0.35213284004E-01  0.19329775890E-02  0.35750994182E-01  0.10000000475E-02 0. -1.
</event>
<event>
 4   0  0.2441219E-02  0.9118800E+02  0.7818609E-02  0.1379984E+01
      -11   -1    0    0    0    0  0.00000000000E+00  0.00000000000E+00  0.35740347158E-01  0.35744000000E-01  0.51099999109E-03 0. -1.
       11   -1    0    0    0    0 -0.00000000000E+00 -0.00000000000E+00 -0.35740347158E-01  0.35744000000E-01  0.51099999109E-03 0.  1.
       22    1    1    2    0    0 -0.77920943003E-02  0.72090268242E-03  0.34869716813E-01  0.35737005818E-01  0.00000000000E+00 0. -1.
  9000001    1    1    2    0    0  0.77920943003E-02 -0.72090268242E-03 -0.34869716813E-01  0.35750994182E-01  0.10000000475E-02 0.  1.
</event>
<event>
 4   0  0.2441219E-02  0.9118800E+02  0.7818609E-02  0.1379984E+01
      -11   -1    0    0    0    0  0.00000000000E+00  0.00000000000E+00  0.35740347158E-01  0.35744000000E-01  0.51099999109E-03 0.  1.
       11   -1    0    0    0    0 -0.00000000000E+00 -0.00000000000E+00 -0.35740347158E-01  0.35744000000E-01  0.51099999109E-03 0. -1.
       22    1    1    2    0    0  0.21487430233E-02  0.32821098151E-02 -0.35521039448E-01  0.35737005818E-01  0.00000000000E+00 0. -1.
  9000001    1    1    2    0    0 -0.21487430233E-02 -0.32821098151E-02  0.35521039448E-01  0.35750994182E-01  0.10000000475E-02 0.  1.
</event>
<event>
 4   0  0.2441219E-02  0.9118800E+02  0.7818609E-02  0.1379984E+01
      -11   -1    0    0    0    0  0.00000000000E+00  0.00000000000E+00  0.35740347158E-01  0.35744000000E-01  0.51099999109E-03 0. -1.
       11   -1    0    0    0    0 -0.00000000000E+00 -0.00000000000E+00 -0.35740347158E-01  0.35744000000E-01  0.51099999109E-03 0.  1.
       22    1    1    2    0    0  0.18051315913E-01 -0.55618600308E-02  0.30337259132E-01  0.35737005818E-01  0.00000000000E+00 0. -1.
  9000001    1    1    2    0    0 -0.18051315913E-01  0.55618600308E-02 -0.30337259132E-01  0.35750994182E-01  0.10000000475E-02 0.  1.
</event>
<event>
 4   0  0.2441219E-02  0.9118800E+02  0.7818609E-02  0.1379984E+01
      -11   -1    0    0    0    0  0.00000000000E+00  0.00000000000E+00  0.35740347158E-01  0.35744000000E-01  0.51099999109E-03 0.  1.
       11   -1    0    0    0    0 -0.00000000000E+00 -0.00000000000E+00 -0.35740347158E-01  0.35744000000E-01  0.51099999109E-03 0. -1.
       22    1    1    2    0    0 -0.59264083024E-02  0.14336867771E-01 -0.32194184133E-01  0.35737005818E-01  0.00000000000E+00 0. -1.
  9000001    1    1    2    0    0  0.59264083024E-02 -0.14336867771E-01  0.32194184133E-01  0.35750994182E-01  0.10000000475E-02 0.  1.
</event>
<event>
 4   0  0.2441219E-02  0.9118800E+02  0.7818609E-02  0.1379984E+01
      -11   -1    0    0    0    0  0.00000000000E+00  0.00000000000E+00  0.35740347158E-01  0.35744000000E-01  0.51099999109E-03 0.  1.
       11   -1    0    0    0    0 -0.00000000000E+00 -0.00000000000E+00 -0.35740347158E-01  0.35744000000E-01  0.51099999109E-03 0. -1.
       22    1    1    2    0    0  0.18387181216E-01  0.15629530589E-01  0.26358355892E-01  0.35737005818E-01  0.00000000000E+00 0.  1.
  9000001    1    1    2    0    0 -0.18387181216E-01 -0.15629530589E-01 -0.26358355892E-01  0.35750994182E-01  0.10000000475E-02 0. -1.
</event>
<event>
 4   0  0.2441219E-02  0.9118800E+02  0.7818609E-02  0.1379984E+01
      -11   -1    0    0    0    0  0.00000000000E+00  0.00000000000E+00  0.35740347158E-01  0.35744000000E-01  0.51099999109E-03 0.  1.
       11   -1    0    0    0    0 -0.00000000000E+00 -0.00000000000E+00 -0.35740347158E-01  0.35744000000E-01  0.51099999109E-03 0. -1.
       22    1    1    2    0    0 -0.36340643888E-02 -0.12972388781E-03 -0.35551516601E-01  0.35737005818E-01  0.00000000000E+00 0. -1.
  9000001    1    1    2    0    0  0.36340643888E-02  0.12972388781E-03  0.35551516601E-01  0.35750994182E-01  0.10000000475E-02 0.  1.
</event>
<event>
 4   0  0.2441219E-02  0.9118800E+02  0.7818609E-02  0.1379984E+01
      -11   -1    0    0    0    0  0.00000000000E+00  0.00000000000E+00  0.35740347158E-01  0.35744000000E-01  0.51099999109E-03 0. -1.
       11   -1    0    0    0    0 -0.00000000000E+00 -0.00000000000E+00 -0.35740347158E-01  0.35744000000E-01  0.51099999109E-03 0.  1.
       22    1    1    2    0    0 -0.59864762946E-02  0.65862494355E-02 -0.34610937647E-01  0.35737005818E-01  0.00000000000E+00 0.  1.
  9000001    1    1    2    0    0  0.59864762946E-02 -0.65862494355E-02  0.34610937647E-01  0.35750994182E-01  0.10000000475E-02 0. -1.
</event>
<event>
 4   0  0.2441219E-02  0.9118800E+02  0.7818609E-02  0.1379984E+01
      -11   -1    0    0    0    0  0.00000000000E+00  0.00000000000E+00  0.35740347158E-01  0.35744000000E-01  0.51099999109E-03 0.  1.
       11   -1    0    0    0    0 -0.00000000000E+00 -0.00000000000E+00 -0.35740347158E-01  0.35744000000E-01  0.51099999109E-03 0. -1.
       22    1    1    2    0    0 -0.15237503479E-01 -0.90212142678E-02 -0.31041420163E-01  0.35737005818E-01  0.00000000000E+00 0. -1.
  9000001    1    1    2    0    0  0.15237503479E-01  0.90212142678E-02  0.31041420163E-01  0.35750994182E-01  0.10000000475E-02 0.  1.
</event>
<event>
 4   0  0.2441219E-02  0.9118800E+02  0.7818609E-02  0.1379984E+01
      -11   -1    0    0    0    0  0.00000000000E+00  0.00000000000E+00  0.35740347158E-01  0.35744000000E-01  0.51099999109E-03 0.  1.
       11   -1    0    0    0    0 -0.00000000000E+00 -0.00000000000E+00 -0.35740347158E-01  0.35744000000E-01  0.51099999109E-03 0. -1.
       22    1    1    2    0    0 -0.62493704946E-02  0.38063628370E-02 -0.34979859280E-01  0.35737005818E-01  0.00000000000E+00 0. -1.
  9000001    1    1    2    0    0  0.62493704946E-02 -0.38063628370E-02  0.34979859280E-01  0.35750994182E-01  0.10000000475E-02 0.  1.
</event>
<event>
 4   0  0.2441219E-02  0.9118800E+02  0.7818609E-02  0.1379984E+01
      -11   -1    0    0    0    0  0.00000000000E+00  0.00000000000E+00  0.35740347158E-01  0.35744000000E-01  0.51099999109E-03 0. -1.
       11   -1    0    0    0    0 -0.00000000000E+00 -0.00000000000E+00 -0.35740347158E-01  0.35744000000E-01  0.51099999109E-03 0.  1.
       22    1    1    2    0    0 -0.24744063265E-01 -0.21966916398E-01  0.13502573902E-01  0.35737005818E-01  0.00000000000E+00 0.  1.
  9000001    1    1    2    0    0  0.24744063265E-01  0.21966916398E-01 -0.13502573902E-01  0.35750994182E-01  0.10000000475E-02 0. -1.
</event>
<event>
 4   0  0.2441219E-02  0.9118800E+02  0.7818609E-02  0.1379984E+01
      -11   -1    0    0    0    0  0.00000000000E+00  0.00000000000E+00  0.35740347158E-01  0.35744000000E-01  0.51099999109E-03 0. -1.
       11   -1    0    0    0    0 -0.00000000000E+00 -0.00000000000E+00 -0.35740347158E-01  0.35744000000E-01  0.51099999109E-03 0.  1.
       22    1    1    2    0    0  0.24470274040E-01  0.49229151882E-02  0.25575460491E-01  0.35737005818E-01  0.00000000000E+00 0. -1.
  9000001    1    1    2    0    0 -0.24470274040E-01 -0.49229151882E-02 -0.25575460491E-01  0.35750994182E-01  0.10000000475E-02 0.  1.
</event>
<event>
 4   0  0.2441219E-02  0.9118800E+02  0.7818609E-02  0.1379984E+01
      -11   -1    0    0    0    0  0.00000000000E+00  0.00000000000E+00  0.35740347158E-01  0.35744000000E-01  0.51099999109E-03 0. -1.
       11   -1    0    0    0    0 -0.00000000000E+00 -0.00000000000E+00 -0.35740347158E-01  0.35744000000E-01  0.51099999109E-03 0.  1.
       22    1    1    2    0    0  0.72378729101E-03  0.39753693876E-02 -0.35507832306E-01  0.35737005818E-01  0.00000000000E+00 0.  1.
  9000001    1    1    2    0    0 -0.72378729101E-03 -0.39753693876E-02  0.35507832306E-01  0.35750994182E-01  0.10000000475E-02 0. -1.
</event>
<event>
 4   0  0.2441219E-02  0.9118800E+02  0.7818609E-02  0.1379984E+01
      -11   -1    0    0    0    0  0.00000000000E+00  0.00000000000E+00  0.35740347158E-01  0.35744000000E-01  0.51099999109E-03 0.  1.
       11   -1    0    0    0    0 -0.00000000000E+00 -0.00000000000E+00 -0.35740347158E-01  0.35744000000E-01  0.51099999109E-03 0. -1.
       22    1    1    2    0    0  0.37699657650E-02  0.29192402738E-02 -0.35417495383E-01  0.35737005818E-01  0.00000000000E+00 0. -1.
  9000001    1    1    2    0    0 -0.37699657650E-02 -0.29192402738E-02  0.35417495383E-01  0.35750994182E-01  0.10000000475E-02 0.  1.
</event>
<event>
 4   0  0.2441219E-02  0.9118800E+02  0.7818609E-02  0.1379984E+01
      -11   -1    0    0    0    0  0.00000000000E+00  0.00000000000E+00  0.35740347158E-01  0.35744000000E-01  0.51099999109E-03 0.  1.
       11   -1    0    0    0    0 -0.00000000000E+00 -0.00000000000E+00 -0.35740347158E-01  0.35744000000E-01  0.51099999109E-03 0. -1.
       22    1    1    2    0    0 -0.27455288990E-02  0.10091540411E-01  0.34172451888E-01  0.35737005818E-01  0.00000000000E+00 0.  1.
  9000001    1    1    2    0    0  0.27455288990E-02 -0.10091540411E-01 -0.34172451888E-01  0.35750994182E-01  0.10000000475E-02 0. -1.
</event>
<event>
 4   0  0.2441219E-02  0.9118800E+02  0.7818609E-02  0.1379984E+01
      -11   -1    0    0    0    0  0.00000000000E+00  0.00000000000E+00  0.35740347158E-01  0.35744000000E-01  0.51099999109E-03 0.  1.
       11   -1    0    0    0    0 -0.00000000000E+00 -0.00000000000E+00 -0.35740347158E-01  0.35744000000E-01  0.51099999109E-03 0. -1.
       22    1    1    2    0    0  0.49966595484E-02 -0.26763331894E-01  0.23149320598E-01  0.35737005818E-01  0.00000000000E+00 0.  1.
  9000001    1    1    2    0    0 -0.49966595484E-02  0.26763331894E-01 -0.23149320598E-01  0.35750994182E-01  0.10000000475E-02 0. -1.
</event>
<event>
 4   0  0.2441219E-02  0.9118800E+02  0.7818609E-02  0.1379984E+01
      -11   -1    0    0    0    0  0.00000000000E+00  0.00000000000E+00  0.35740347158E-01  0.35744000000E-01  0.51099999109E-03 0.  1.
       11   -1    0    0    0    0 -0.00000000000E+00 -0.00000000000E+00 -0.35740347158E-01  0.35744000000E-01  0.51099999109E-03 0. -1.
       22    1    1    2    0    0 -0.21792689361E-01 -0.27809487591E-01  0.53707238990E-02  0.35737005818E-01  0.00000000000E+00 0. -1.
  9000001    1    1    2    0    0  0.21792689361E-01  0.27809487591E-01 -0.53707238990E-02  0.35750994182E-01  0.10000000475E-02 0.  1.
</event>
<event>
 4   0  0.2441219E-02  0.9118800E+02  0.7818609E-02  0.1379984E+01
      -11   -1    0    0    0    0  0.00000000000E+00  0.00000000000E+00  0.35740347158E-01  0.35744000000E-01  0.51099999109E-03 0.  1.
       11   -1    0    0    0    0 -0.00000000000E+00 -0.00000000000E+00 -0.35740347158E-01  0.35744000000E-01  0.51099999109E-03 0. -1.
       22    1    1    2    0    0  0.11370949522E-01 -0.88653674074E-02 -0.32699240856E-01  0.35737005818E-01  0.00000000000E+00 0. -1.
  9000001    1    1    2    0    0 -0.11370949522E-01  0.88653674074E-02  0.32699240856E-01  0.35750994182E-01  0.10000000475E-02 0.  1.
</event>
<event>
 4   0  0.2441219E-02  0.9118800E+02  0.7818609E-02  0.1379984E+01
      -11   -1    0    0    0    0  0.00000000000E+00  0.00000000000E+00  0.35740347158E-01  0.35744000000E-01  0.51099999109E-03 0.  1.
       11   -1    0    0    0    0 -0.00000000000E+00 -0.00000000000E+00 -0.35740347158E-01  0.35744000000E-01  0.51099999109E-03 0. -1.
       22    1    1    2    0    0  0.13373788158E-01 -0.12203310118E-01 -0.30811598422E-01  0.35737005818E-01  0.00000000000E+00 0. -1.
  9000001    1    1    2    0    0 -0.13373788158E-01  0.12203310118E-01  0.30811598422E-01  0.35750994182E-01  0.10000000475E-02 0.  1.
</event>
<event>
 4   0  0.2441219E-02  0.9118800E+02  0.7818609E-02  0.1379984E+01
      -11   -1    0    0    0    0  0.00000000000E+00  0.00000000000E+00  0.35740347158E-01  0.35744000000E-01  0.51099999109E-03 0.  1.
       11   -1    0    0    0    0 -0.00000000000E+00 -0.00000000000E+00 -0.35740347158E-01  0.35744000000E-01  0.51099999109E-03 0. -1.
       22    1    1    2    0    0  0.12633563822E-01  0.22087352217E-02 -0.33356380780E-01  0.35737005818E-01  0.00000000000E+00 0. -1.
  9000001    1    1    2    0    0 -0.12633563822E-01 -0.22087352217E-02  0.33356380780E-01  0.35750994182E-01  0.10000000475E-02 0.  1.
</event>
<event>
 4   0  0.2441219E-02  0.9118800E+02  0.7818609E-02  0.1379984E+01
      -11   -1    0    0    0    0  0.00000000000E+00  0.00000000000E+00  0.35740347158E-01  0.35744000000E-01  0.51099999109E-03 0. -1.
       11   -1    0    0    0    0 -0.00000000000E+00 -0.00000000000E+00 -0.35740347158E-01  0.35744000000E-01  0.51099999109E-03 0.  1.
       22    1    1    2    0    0 -0.53520565643E-02 -0.16949010903E-02 -0.35293290945E-01  0.35737005818E-01  0.00000000000E+00 0.  1.
  9000001    1    1    2    0    0  0.53520565643E-02  0.16949010903E-02  0.35293290945E-01  0.35750994182E-01  0.10000000475E-02 0. -1.
</event>
<event>
 4   0  0.2441219E-02  0.9118800E+02  0.7818609E-02  0.1379984E+01
      -11   -1    0    0    0    0  0.00000000000E+00  0.00000000000E+00  0.35740347158E-01  0.35744000000E-01  0.51099999109E-03 0. -1.
       11   -1    0    0    0    0 -0.00000000000E+00 -0.00000000000E+00 -0.35740347158E-01  0.35744000000E-01  0.51099999109E-03 0.  1.
       22    1    1    2    0    0 -0.13699732080E-02  0.37133149431E-02 -0.35517151496E-01  0.35737005818E-01  0.00000000000E+00 0.  1.
  9000001    1    1    2    0    0  0.13699732080E-02 -0.37133149431E-02  0.35517151496E-01  0.35750994182E-01  0.10000000475E-02 0. -1.
</event>
<event>
 4   0  0.2441219E-02  0.9118800E+02  0.7818609E-02  0.1379984E+01
      -11   -1    0    0    0    0  0.00000000000E+00  0.00000000000E+00  0.35740347158E-01  0.35744000000E-01  0.51099999109E-03 0. -1.
       11   -1    0    0    0    0 -0.00000000000E+00 -0.00000000000E+00 -0.35740347158E-01  0.35744000000E-01  0.51099999109E-03 0.  1.
       22    1    1    2    0    0 -0.54307076470E-02 -0.12284688119E-01  0.33116875413E-01  0.35737005818E-01  0.00000000000E+00 0. -1.
  9000001    1    1    2    0    0  0.54307076470E-02  0.12284688119E-01 -0.33116875413E-01  0.35750994182E-01  0.10000000475E-02 0.  1.
</event>
<event>
 4   0  0.2441219E-02  0.9118800E+02  0.7818609E-02  0.1379984E+01
      -11   -1    0    0    0    0  0.00000000000E+00  0.00000000000E+00  0.35740347158E-01  0.35744000000E-01  0.51099999109E-03 0. -1.
       11   -1    0    0    0    0 -0.00000000000E+00 -0.00000000000E+00 -0.35740347158E-01  0.35744000000E-01  0.51099999109E-03 0.  1.
       22    1    1    2    0    0  0.25774418478E-01 -0.56944915244E-03  0.24748508332E-01  0.35737005818E-01  0.00000000000E+00 0. -1.
  9000001    1    1    2    0    0 -0.25774418478E-01  0.56944915244E-03 -0.24748508332E-01  0.35750994182E-01  0.10000000475E-02 0.  1.
</event>
<event>
 4   0  0.2441219E-02  0.9118800E+02  0.7818609E-02  0.1379984E+01
      -11   -1    0    0    0    0  0.00000000000E+00  0.00000000000E+00  0.35740347158E-01  0.35744000000E-01  0.51099999109E-03 0. -1.
       11   -1    0    0    0    0 -0.00000000000E+00 -0.00000000000E+00 -0.35740347158E-01  0.35744000000E-01  0.51099999109E-03 0.  1.
       22    1    1    2    0    0 -0.70053884742E-02 -0.20372822407E-01  0.28513264007E-01  0.35737005818E-01  0.00000000000E+00 0. -1.
  9000001    1    1    2    0    0  0.70053884742E-02  0.20372822407E-01 -0.28513264007E-01  0.35750994182E-01  0.10000000475E-02 0.  1.
</event>
<event>
 4   0  0.2441219E-02  0.9118800E+02  0.7818609E-02  0.1379984E+01
      -11   -1    0    0    0    0  0.00000000000E+00  0.00000000000E+00  0.35740347158E-01  0.35744000000E-01  0.51099999109E-03 0. -1.
       11   -1    0    0    0    0 -0.00000000000E+00 -0.00000000000E+00 -0.35740347158E-01  0.35744000000E-01  0.51099999109E-03 0.  1.
       22    1    1    2    0    0 -0.10042352481E-01  0.81010802399E-02  0.33326524578E-01  0.35737005818E-01  0.00000000000E+00 0. -1.
  9000001    1    1    2    0    0  0.10042352481E-01 -0.81010802399E-02 -0.33326524578E-01  0.35750994182E-01  0.10000000475E-02 0.  1.
</event>
<event>
 4   0  0.2441219E-02  0.9118800E+02  0.7818609E-02  0.1379984E+01
      -11   -1    0    0    0    0  0.00000000000E+00  0.00000000000E+00  0.35740347158E-01  0.35744000000E-01  0.51099999109E-03 0. -1.
       11   -1    0    0    0    0 -0.00000000000E+00 -0.00000000000E+00 -0.35740347158E-01  0.35744000000E-01  0.51099999109E-03 0.  1.
       22    1    1    2    0    0  0.32084318552E-02  0.18257115797E-02 -0.35545834174E-01  0.35737005818E-01  0.00000000000E+00 0.  1.
  9000001    1    1    2    0    0 -0.32084318552E-02 -0.18257115797E-02  0.35545834174E-01  0.35750994182E-01  0.10000000475E-02 0. -1.
</event>
<event>
 4   0  0.2441219E-02  0.9118800E+02  0.7818609E-02  0.1379984E+01
      -11   -1    0    0    0    0  0.00000000000E+00  0.00000000000E+00  0.35740347158E-01  0.35744000000E-01  0.51099999109E-03 0.  1.
       11   -1    0    0    0    0 -0.00000000000E+00 -0.00000000000E+00 -0.35740347158E-01  0.35744000000E-01  0.51099999109E-03 0. -1.
       22    1    1    2    0    0 -0.32211837653E-02 -0.31317625287E-01 -0.16910467363E-01  0.35737005818E-01  0.00000000000E+00 0. -1.
  9000001    1    1    2    0    0  0.32211837653E-02  0.31317625287E-01  0.16910467363E-01  0.35750994182E-01  0.10000000475E-02 0.  1.
</event>
<event>
 4   0  0.2441219E-02  0.9118800E+02  0.7818609E-02  0.1379984E+01
      -11   -1    0    0    0    0  0.00000000000E+00  0.00000000000E+00  0.35740347158E-01  0.35744000000E-01  0.51099999109E-03 0.  1.
       11   -1    0    0    0    0 -0.00000000000E+00 -0.00000000000E+00 -0.35740347158E-01  0.35744000000E-01  0.51099999109E-03 0. -1.
       22    1    1    2    0    0 -0.68017427519E-02 -0.10086103573E-01 -0.33602684344E-01  0.35737005818E-01  0.00000000000E+00 0. -1.
  9000001    1    1    2    0    0  0.68017427519E-02  0.10086103573E-01  0.33602684344E-01  0.35750994182E-01  0.10000000475E-02 0.  1.
</event>
<event>
 4   0  0.2441219E-02  0.9118800E+02  0.7818609E-02  0.1379984E+01
      -11   -1    0    0    0    0  0.00000000000E+00  0.00000000000E+00  0.35740347158E-01  0.35744000000E-01  0.51099999109E-03 0. -1.
       11   -1    0    0    0    0 -0.00000000000E+00 -0.00000000000E+00 -0.35740347158E-01  0.35744000000E-01  0.51099999109E-03 0.  1.
       22    1    1    2    0    0 -0.38958558044E-02  0.77748306640E-02  0.34662773988E-01  0.35737005818E-01  0.00000000000E+00 0. -1.
  9000001    1    1    2    0    0  0.38958558044E-02 -0.77748306640E-02 -0.34662773988E-01  0.35750994182E-01  0.10000000475E-02 0.  1.
</event>
<event>
 4   0  0.2441219E-02  0.9118800E+02  0.7818609E-02  0.1379984E+01
      -11   -1    0    0    0    0  0.00000000000E+00  0.00000000000E+00  0.35740347158E-01  0.35744000000E-01  0.51099999109E-03 0.  1.
       11   -1    0    0    0    0 -0.00000000000E+00 -0.00000000000E+00 -0.35740347158E-01  0.35744000000E-01  0.51099999109E-03 0. -1.
       22    1    1    2    0    0  0.27144077860E-01 -0.19604708599E-01 -0.12489516514E-01  0.35737005818E-01  0.00000000000E+00 0. -1.
  9000001    1    1    2    0    0 -0.27144077860E-01  0.19604708599E-01  0.12489516514E-01  0.35750994182E-01  0.10000000475E-02 0.  1.
</event>
<event>
 4   0  0.2441219E-02  0.9118800E+02  0.7818609E-02  0.1379984E+01
      -11   -1    0    0    0    0  0.00000000000E+00  0.00000000000E+00  0.35740347158E-01  0.35744000000E-01  0.51099999109E-03 0.  1.
       11   -1    0    0    0    0 -0.00000000000E+00 -0.00000000000E+00 -0.35740347158E-01  0.35744000000E-01  0.51099999109E-03 0. -1.
       22    1    1    2    0    0 -0.12661309000E-02  0.76953439604E-02 -0.34875667431E-01  0.35737005818E-01  0.00000000000E+00 0. -1.
  9000001    1    1    2    0    0  0.12661309000E-02 -0.76953439604E-02  0.34875667431E-01  0.35750994182E-01  0.10000000475E-02 0.  1.
</event>
<event>
 4   0  0.2441219E-02  0.9118800E+02  0.7818609E-02  0.1379984E+01
      -11   -1    0    0    0    0  0.00000000000E+00  0.00000000000E+00  0.35740347158E-01  0.35744000000E-01  0.51099999109E-03 0. -1.
       11   -1    0    0    0    0 -0.00000000000E+00 -0.00000000000E+00 -0.35740347158E-01  0.35744000000E-01  0.51099999109E-03 0.  1.
       22    1    1    2    0    0 -0.19489271451E-02 -0.49923731601E-02 -0.35332866825E-01  0.35737005818E-01  0.00000000000E+00 0.  1.
  9000001    1    1    2    0    0  0.19489271451E-02  0.49923731601E-02  0.35332866825E-01  0.35750994182E-01  0.10000000475E-02 0. -1.
</event>
<event>
 4   0  0.2441219E-02  0.9118800E+02  0.7818609E-02  0.1379984E+01
      -11   -1    0    0    0    0  0.00000000000E+00  0.00000000000E+00  0.35740347158E-01  0.35744000000E-01  0.51099999109E-03 0. -1.
       11   -1    0    0    0    0 -0.00000000000E+00 -0.00000000000E+00 -0.35740347158E-01  0.35744000000E-01  0.51099999109E-03 0.  1.
       22    1    1    2    0    0  0.53248351104E-02 -0.32463709851E-02  0.35188645773E-01  0.35737005818E-01  0.00000000000E+00 0. -1.
  9000001    1    1    2    0    0 -0.53248351104E-02  0.32463709851E-02 -0.35188645773E-01  0.35750994182E-01  0.10000000475E-02 0.  1.
</event>
<event>
 4   0  0.2441219E-02  0.9118800E+02  0.7818609E-02  0.1379984E+01
      -11   -1    0    0    0    0  0.00000000000E+00  0.00000000000E+00  0.35740347158E-01  0.35744000000E-01  0.51099999109E-03 0. -1.
       11   -1    0    0    0    0 -0.00000000000E+00 -0.00000000000E+00 -0.35740347158E-01  0.35744000000E-01  0.51099999109E-03 0.  1.
       22    1    1    2    0    0 -0.26550100089E-01  0.20769560701E-01 -0.11868071387E-01  0.35737005818E-01  0.00000000000E+00 0.  1.
  9000001    1    1    2    0    0  0.26550100089E-01 -0.20769560701E-01  0.11868071387E-01  0.35750994182E-01  0.10000000475E-02 0. -1.
</event>
<event>
 4   0  0.2441219E-02  0.9118800E+02  0.7818609E-02  0.1379984E+01
      -11   -1    0    0    0    0  0.00000000000E+00  0.00000000000E+00  0.35740347158E-01  0.35744000000E-01  0.51099999109E-03 0. -1.
       11   -1    0    0    0    0 -0.00000000000E+00 -0.00000000000E+00 -0.35740347158E-01  0.35744000000E-01  0.51099999109E-03 0.  1.
       22    1    1    2    0    0 -0.13031186194E-02 -0.13840307144E-01 -0.32922353575E-01  0.35737005818E-01  0.00000000000E+00 0.  1.
  9000001    1    1    2    0    0  0.13031186194E-02  0.13840307144E-01  0.32922353575E-01  0.35750994182E-01  0.10000000475E-02 0. -1.
</event>
<event>
 4   0  0.2441219E-02  0.9118800E+02  0.7818609E-02  0.1379984E+01
      -11   -1    0    0    0    0  0.00000000000E+00  0.00000000000E+00  0.35740347158E-01  0.35744000000E-01  0.51099999109E-03 0. -1.
       11   -1    0    0    0    0 -0.00000000000E+00 -0.00000000000E+00 -0.35740347158E-01  0.35744000000E-01  0.51099999109E-03 0.  1.
       22    1    1    2    0    0 -0.26212720937E-02  0.13185165927E-01  0.33112141534E-01  0.35737005818E-01  0.00000000000E+00 0. -1.
  9000001    1    1    2    0    0  0.26212720937E-02 -0.13185165927E-01 -0.33112141534E-01  0.35750994182E-01  0.10000000475E-02 0.  1.
</event>
<event>
 4   0  0.2441219E-02  0.9118800E+02  0.7818609E-02  0.1379984E+01
      -11   -1    0    0    0    0  0.00000000000E+00  0.00000000000E+00  0.35740347158E-01  0.35744000000E-01  0.51099999109E-03 0.  1.
       11   -1    0    0    0    0 -0.00000000000E+00 -0.00000000000E+00 -0.35740347158E-01  0.35744000000E-01  0.51099999109E-03 0. -1.
       22    1    1    2    0    0 -0.33188291508E-02 -0.41933497504E-02 -0.35334611584E-01  0.35737005818E-01  0.00000000000E+00 0. -1.
  9000001    1    1    2    0    0  0.33188291508E-02  0.41933497504E-02  0.35334611584E-01  0.35750994182E-01  0.10000000475E-02 0.  1.
</event>
<event>
 4   0  0.2441219E-02  0.9118800E+02  0.7818609E-02  0.1379984E+01
      -11   -1    0    0    0    0  0.00000000000E+00  0.00000000000E+00  0.35740347158E-01  0.35744000000E-01  0.51099999109E-03 0.  1.
       11   -1    0    0    0    0 -0.00000000000E+00 -0.00000000000E+00 -0.35740347158E-01  0.35744000000E-01  0.51099999109E-03 0. -1.
       22    1    1    2    0    0  0.31245719670E-02  0.11124258932E-02 -0.35582764698E-01  0.35737005818E-01  0.00000000000E+00 0. -1.
  9000001    1    1    2    0    0 -0.31245719670E-02 -0.11124258932E-02  0.35582764698E-01  0.35750994182E-01  0.10000000475E-02 0.  1.
</event>
<event>
 4   0  0.2441219E-02  0.9118800E+02  0.7818609E-02  0.1379984E+01
      -11   -1    0    0    0    0  0.00000000000E+00  0.00000000000E+00  0.35740347158E-01  0.35744000000E-01  0.51099999109E-03 0. -1.
       11   -1    0    0    0    0 -0.00000000000E+00 -0.00000000000E+00 -0.35740347158E-01  0.35744000000E-01  0.51099999109E-03 0.  1.
       22    1    1    2    0    0 -0.17860165559E-03  0.15349659862E-01  0.32272118437E-01  0.35737005818E-01  0.00000000000E+00 0. -1.
  9000001    1    1    2    0    0  0.17860165559E-03 -0.15349659862E-01 -0.32272118437E-01  0.35750994182E-01  0.10000000475E-02 0.  1.
</event>
<event>
 4   0  0.2441219E-02  0.9118800E+02  0.7818609E-02  0.1379984E+01
      -11   -1    0    0    0    0  0.00000000000E+00  0.00000000000E+00  0.35740347158E-01  0.35744000000E-01  0.51099999109E-03 0.  1.
       11   -1    0    0    0    0 -0.00000000000E+00 -0.00000000000E+00 -0.35740347158E-01  0.35744000000E-01  0.51099999109E-03 0. -1.
       22    1    1    2    0    0  0.17251081081E-02 -0.51679362650E-02 -0.35319258509E-01  0.35737005818E-01  0.00000000000E+00 0. -1.
  9000001    1    1    2    0    0 -0.17251081081E-02  0.51679362650E-02  0.35319258509E-01  0.35750994182E-01  0.10000000475E-02 0.  1.
</event>
<event>
 4   0  0.2441219E-02  0.9118800E+02  0.7818609E-02  0.1379984E+01
      -11   -1    0    0    0    0  0.00000000000E+00  0.00000000000E+00  0.35740347158E-01  0.35744000000E-01  0.51099999109E-03 0. -1.
       11   -1    0    0    0    0 -0.00000000000E+00 -0.00000000000E+00 -0.35740347158E-01  0.35744000000E-01  0.51099999109E-03 0.  1.
       22    1    1    2    0    0 -0.33219455645E-01  0.52249175918E-02  0.12095519323E-01  0.35737005818E-01  0.00000000000E+00 0. -1.
  9000001    1    1    2    0    0  0.33219455645E-01 -0.52249175918E-02 -0.12095519323E-01  0.35750994182E-01  0.10000000475E-02 0.  1.
</event>
<event>
 4   0  0.2441219E-02  0.9118800E+02  0.7818609E-02  0.1379984E+01
      -11   -1    0    0    0    0  0.00000000000E+00  0.00000000000E+00  0.35740347158E-01  0.35744000000E-01  0.51099999109E-03 0. -1.
       11   -1    0    0    0    0 -0.00000000000E+00 -0.00000000000E+00 -0.35740347158E-01  0.35744000000E-01  0.51099999109E-03 0.  1.
       22    1    1    2    0    0  0.41567615512E-02 -0.97297420290E-02  0.34134836140E-01  0.35737005818E-01  0.00000000000E+00 0. -1.
  9000001    1    1    2    0    0 -0.41567615512E-02  0.97297420290E-02 -0.34134836140E-01  0.35750994182E-01  0.10000000475E-02 0.  1.
</event>
<event>
 4   0  0.2441219E-02  0.9118800E+02  0.7818609E-02  0.1379984E+01
      -11   -1    0    0    0    0  0.00000000000E+00  0.00000000000E+00  0.35740347158E-01  0.35744000000E-01  0.51099999109E-03 0.  1.
       11   -1    0    0    0    0 -0.00000000000E+00 -0.00000000000E+00 -0.35740347158E-01  0.35744000000E-01  0.51099999109E-03 0. -1.
       22    1    1    2    0    0  0.45849703684E-02 -0.15271643404E-01 -0.31982628712E-01  0.35737005818E-01  0.00000000000E+00 0. -1.
  9000001    1    1    2    0    0 -0.45849703684E-02  0.15271643404E-01  0.31982628712E-01  0.35750994182E-01  0.10000000475E-02 0.  1.
</event>
<event>
 4   0  0.2441219E-02  0.9118800E+02  0.7818609E-02  0.1379984E+01
      -11   -1    0    0    0    0  0.00000000000E+00  0.00000000000E+00  0.35740347158E-01  0.35744000000E-01  0.51099999109E-03 0.  1.
       11   -1    0    0    0    0 -0.00000000000E+00 -0.00000000000E+00 -0.35740347158E-01  0.35744000000E-01  0.51099999109E-03 0. -1.
       22    1    1    2    0    0  0.35385317980E-01  0.48393468330E-02 -0.12623702218E-02  0.35737005818E-01  0.00000000000E+00 0. -1.
  9000001    1    1    2    0    0 -0.35385317980E-01 -0.48393468330E-02  0.12623702218E-02  0.35750994182E-01  0.10000000475E-02 0.  1.
</event>
<event>
 4   0  0.2441219E-02  0.9118800E+02  0.7818609E-02  0.1379984E+01
      -11   -1    0    0    0    0  0.00000000000E+00  0.00000000000E+00  0.35740347158E-01  0.35744000000E-01  0.51099999109E-03 0. -1.
       11   -1    0    0    0    0 -0.00000000000E+00 -0.00000000000E+00 -0.35740347158E-01  0.35744000000E-01  0.51099999109E-03 0.  1.
       22    1    1    2    0    0 -0.27037784220E-01  0.23274088048E-01 -0.20996749445E-02  0.35737005818E-01  0.00000000000E+00 0.  1.
  9000001    1    1    2    0    0  0.27037784220E-01 -0.23274088048E-01  0.20996749445E-02  0.35750994182E-01  0.10000000475E-02 0. -1.
</event>
<event>
 4   0  0.2441219E-02  0.9118800E+02  0.7818609E-02  0.1379984E+01
      -11   -1    0    0    0    0  0.00000000000E+00  0.00000000000E+00  0.35740347158E-01  0.35744000000E-01  0.51099999109E-03 0. -1.
       11   -1    0    0    0    0 -0.00000000000E+00 -0.00000000000E+00 -0.35740347158E-01  0.35744000000E-01  0.51099999109E-03 0.  1.
       22    1    1    2    0    0  0.69688323218E-03 -0.49705383465E-02  0.35382788007E-01  0.35737005818E-01  0.00000000000E+00 0. -1.
  9000001    1    1    2    0    0 -0.69688323218E-03  0.49705383465E-02 -0.35382788007E-01  0.35750994182E-01  0.10000000475E-02 0.  1.
</event>
<event>
 4   0  0.2441219E-02  0.9118800E+02  0.7818609E-02  0.1379984E+01
      -11   -1    0    0    0    0  0.00000000000E+00  0.00000000000E+00  0.35740347158E-01  0.35744000000E-01  0.51099999109E-03 0.  1.
       11   -1    0    0    0    0 -0.00000000000E+00 -0.00000000000E+00 -0.35740347158E-01  0.35744000000E-01  0.51099999109E-03 0. -1.
       22    1    1    2    0    0 -0.53717456665E-02  0.14497892196E-02 -0.35301218741E-01  0.35737005818E-01  0.00000000000E+00 0. -1.
  9000001    1    1    2    0    0  0.53717456665E-02 -0.14497892196E-02  0.35301218741E-01  0.35750994182E-01  0.10000000475E-02 0.  1.
</event>
<event>
 4   0  0.2441219E-02  0.9118800E+02  0.7818609E-02  0.1379984E+01
      -11   -1    0    0    0    0  0.00000000000E+00  0.00000000000E+00  0.35740347158E-01  0.35744000000E-01  0.51099999109E-03 0.  1.
       11   -1    0    0    0    0 -0.00000000000E+00 -0.00000000000E+00 -0.35740347158E-01  0.35744000000E-01  0.51099999109E-03 0. -1.
       22    1    1    2    0    0  0.36549837910E-02 -0.24871044448E-02 -0.35462501179E-01  0.35737005818E-01  0.00000000000E+00 0. -1.
  9000001    1    1    2    0    0 -0.36549837910E-02  0.24871044448E-02  0.35462501179E-01  0.35750994182E-01  0.10000000475E-02 0.  1.
</event>
<event>
 4   0  0.2441219E-02  0.9118800E+02  0.7818609E-02  0.1379984E+01
      -11   -1    0    0    0    0  0.00000000000E+00  0.00000000000E+00  0.35740347158E-01  0.35744000000E-01  0.51099999109E-03 0. -1.
       11   -1    0    0    0    0 -0.00000000000E+00 -0.00000000000E+00 -0.35740347158E-01  0.35744000000E-01  0.51099999109E-03 0.  1.
       22    1    1    2    0    0 -0.32705566595E-02 -0.73104735711E-02  0.34828063687E-01  0.35737005818E-01  0.00000000000E+00 0. -1.
  9000001    1    1    2    0    0  0.32705566595E-02  0.73104735711E-02 -0.34828063687E-01  0.35750994182E-01  0.10000000475E-02 0.  1.
</event>
<event>
 4   0  0.2441219E-02  0.9118800E+02  0.7818609E-02  0.1379984E+01
      -11   -1    0    0    0    0  0.00000000000E+00  0.00000000000E+00  0.35740347158E-01  0.35744000000E-01  0.51099999109E-03 0.  1.
       11   -1    0    0    0    0 -0.00000000000E+00 -0.00000000000E+00 -0.35740347158E-01  0.35744000000E-01  0.51099999109E-03 0. -1.
       22    1    1    2    0    0 -0.14631500943E-02  0.65818269519E-02  0.35095189566E-01  0.35737005818E-01  0.00000000000E+00 0.  1.
  9000001    1    1    2    0    0  0.14631500943E-02 -0.65818269519E-02 -0.35095189566E-01  0.35750994182E-01  0.10000000475E-02 0. -1.
</event>
<event>
 4   0  0.2441219E-02  0.9118800E+02  0.7818609E-02  0.1379984E+01
      -11   -1    0    0    0    0  0.00000000000E+00  0.00000000000E+00  0.35740347158E-01  0.35744000000E-01  0.51099999109E-03 0.  1.
       11   -1    0    0    0    0 -0.00000000000E+00 -0.00000000000E+00 -0.35740347158E-01  0.35744000000E-01  0.51099999109E-03 0. -1.
       22    1    1    2    0    0 -0.88599621524E-02 -0.30683802674E-01 -0.16035551410E-01  0.35737005818E-01  0.00000000000E+00 0. -1.
  9000001    1    1    2    0    0  0.88599621524E-02  0.30683802674E-01  0.16035551410E-01  0.35750994182E-01  0.10000000475E-02 0.  1.
</event>
<event>
 4   0  0.2441219E-02  0.9118800E+02  0.7818609E-02  0.1379984E+01
      -11   -1    0    0    0    0  0.00000000000E+00  0.00000000000E+00  0.35740347158E-01  0.35744000000E-01  0.51099999109E-03 0. -1.
       11   -1    0    0    0    0 -0.00000000000E+00 -0.00000000000E+00 -0.35740347158E-01  0.35744000000E-01  0.51099999109E-03 0.  1.
       22    1    1    2    0    0 -0.19294439537E-01  0.22034960841E-01 -0.20477272489E-01  0.35737005818E-01  0.00000000000E+00 0.  1.
  9000001    1    1    2    0    0  0.19294439537E-01 -0.22034960841E-01  0.20477272489E-01  0.35750994182E-01  0.10000000475E-02 0. -1.
</event>
<event>
 4   0  0.2441219E-02  0.9118800E+02  0.7818609E-02  0.1379984E+01
      -11   -1    0    0    0    0  0.00000000000E+00  0.00000000000E+00  0.35740347158E-01  0.35744000000E-01  0.51099999109E-03 0. -1.
       11   -1    0    0    0    0 -0.00000000000E+00 -0.00000000000E+00 -0.35740347158E-01  0.35744000000E-01  0.51099999109E-03 0.  1.
       22    1    1    2    0    0 -0.14499774448E-01  0.11436633015E-01  0.30595645950E-01  0.35737005818E-01  0.00000000000E+00 0. -1.
  9000001    1    1    2    0    0  0.14499774448E-01 -0.11436633015E-01 -0.30595645950E-01  0.35750994182E-01  0.10000000475E-02 0.  1.
</event>
<event>
 4   0  0.2441219E-02  0.9118800E+02  0.7818609E-02  0.1379984E+01
      -11   -1    0    0    0    0  0.00000000000E+00  0.00000000000E+00  0.35740347158E-01  0.35744000000E-01  0.51099999109E-03 0.  1.
       11   -1    0    0    0    0 -0.00000000000E+00 -0.00000000000E+00 -0.35740347158E-01  0.35744000000E-01  0.51099999109E-03 0. -1.
       22    1    1    2    0    0  0.70155120022E-03  0.38478194537E-02 -0.35522326729E-01  0.35737005818E-01  0.00000000000E+00 0. -1.
  9000001    1    1    2    0    0 -0.70155120022E-03 -0.38478194537E-02  0.35522326729E-01  0.35750994182E-01  0.10000000475E-02 0.  1.
</event>
<event>
 4   0  0.2441219E-02  0.9118800E+02  0.7818609E-02  0.1379984E+01
      -11   -1    0    0    0    0  0.00000000000E+00  0.00000000000E+00  0.35740347158E-01  0.35744000000E-01  0.51099999109E-03 0.  1.
       11   -1    0    0    0    0 -0.00000000000E+00 -0.00000000000E+00 -0.35740347158E-01  0.35744000000E-01  0.51099999109E-03 0. -1.
       22    1    1    2    0    0  0.14802336379E-01  0.74032174064E-02  0.31673597753E-01  0.35737005818E-01  0.00000000000E+00 0.  1.
  9000001    1    1    2    0    0 -0.14802336379E-01 -0.74032174064E-02 -0.31673597753E-01  0.35750994182E-01  0.10000000475E-02 0. -1.
</event>
<event>
 4   0  0.2441219E-02  0.9118800E+02  0.7818609E-02  0.1379984E+01
      -11   -1    0    0    0    0  0.00000000000E+00  0.00000000000E+00  0.35740347158E-01  0.35744000000E-01  0.51099999109E-03 0.  1.
       11   -1    0    0    0    0 -0.00000000000E+00 -0.00000000000E+00 -0.35740347158E-01  0.35744000000E-01  0.51099999109E-03 0. -1.
       22    1    1    2    0    0 -0.18634066091E-01 -0.18534302044E-01  0.24215383820E-01  0.35737005818E-01  0.00000000000E+00 0.  1.
  9000001    1    1    2    0    0  0.18634066091E-01  0.18534302044E-01 -0.24215383820E-01  0.35750994182E-01  0.10000000475E-02 0. -1.
</event>
<event>
 4   0  0.2441219E-02  0.9118800E+02  0.7818609E-02  0.1379984E+01
      -11   -1    0    0    0    0  0.00000000000E+00  0.00000000000E+00  0.35740347158E-01  0.35744000000E-01  0.51099999109E-03 0.  1.
       11   -1    0    0    0    0 -0.00000000000E+00 -0.00000000000E+00 -0.35740347158E-01  0.35744000000E-01  0.51099999109E-03 0. -1.
       22    1    1    2    0    0  0.27704118840E-02 -0.16463059924E-02 -0.35591404573E-01  0.35737005818E-01  0.00000000000E+00 0. -1.
  9000001    1    1    2    0    0 -0.27704118840E-02  0.16463059924E-02  0.35591404573E-01  0.35750994182E-01  0.10000000475E-02 0.  1.
</event>
<event>
 4   0  0.2441219E-02  0.9118800E+02  0.7818609E-02  0.1379984E+01
      -11   -1    0    0    0    0  0.00000000000E+00  0.00000000000E+00  0.35740347158E-01  0.35744000000E-01  0.51099999109E-03 0.  1.
       11   -1    0    0    0    0 -0.00000000000E+00 -0.00000000000E+00 -0.35740347158E-01  0.35744000000E-01  0.51099999109E-03 0. -1.
       22    1    1    2    0    0 -0.87258598551E-03 -0.17121051315E-01  0.31356686375E-01  0.35737005818E-01  0.00000000000E+00 0.  1.
  9000001    1    1    2    0    0  0.87258598551E-03  0.17121051315E-01 -0.31356686375E-01  0.35750994182E-01  0.10000000475E-02 0. -1.
</event>
<event>
 4   0  0.2441219E-02  0.9118800E+02  0.7818609E-02  0.1379984E+01
      -11   -1    0    0    0    0  0.00000000000E+00  0.00000000000E+00  0.35740347158E-01  0.35744000000E-01  0.51099999109E-03 0.  1.
       11   -1    0    0    0    0 -0.00000000000E+00 -0.00000000000E+00 -0.35740347158E-01  0.35744000000E-01  0.51099999109E-03 0. -1.
       22    1    1    2    0    0  0.14265168370E-02 -0.36373299490E-02 -0.35522787974E-01  0.35737005818E-01  0.00000000000E+00 0. -1.
  9000001    1    1    2    0    0 -0.14265168370E-02  0.36373299490E-02  0.35522787974E-01  0.35750994182E-01  0.10000000475E-02 0.  1.
</event>
<event>
 4   0  0.2441219E-02  0.9118800E+02  0.7818609E-02  0.1379984E+01
      -11   -1    0    0    0    0  0.00000000000E+00  0.00000000000E+00  0.35740347158E-01  0.35744000000E-01  0.51099999109E-03 0.  1.
       11   -1    0    0    0    0 -0.00000000000E+00 -0.00000000000E+00 -0.35740347158E-01  0.35744000000E-01  0.51099999109E-03 0. -1.
       22    1    1    2    0    0  0.38016821713E-02 -0.16134278037E-03 -0.35533853802E-01  0.35737005818E-01  0.00000000000E+00 0. -1.
  9000001    1    1    2    0    0 -0.38016821713E-02  0.16134278037E-03  0.35533853802E-01  0.35750994182E-01  0.10000000475E-02 0.  1.
</event>
<event>
 4   0  0.2441219E-02  0.9118800E+02  0.7818609E-02  0.1379984E+01
      -11   -1    0    0    0    0  0.00000000000E+00  0.00000000000E+00  0.35740347158E-01  0.35744000000E-01  0.51099999109E-03 0.  1.
       11   -1    0    0    0    0 -0.00000000000E+00 -0.00000000000E+00 -0.35740347158E-01  0.35744000000E-01  0.51099999109E-03 0. -1.
       22    1    1    2    0    0  0.40181407843E-02  0.46235717523E-02  0.35208105796E-01  0.35737005818E-01  0.00000000000E+00 0.  1.
  9000001    1    1    2    0    0 -0.40181407843E-02 -0.46235717523E-02 -0.35208105796E-01  0.35750994182E-01  0.10000000475E-02 0. -1.
</event>
<event>
 4   0  0.2441219E-02  0.9118800E+02  0.7818609E-02  0.1379984E+01
      -11   -1    0    0    0    0  0.00000000000E+00  0.00000000000E+00  0.35740347158E-01  0.35744000000E-01  0.51099999109E-03 0. -1.
       11   -1    0    0    0    0 -0.00000000000E+00 -0.00000000000E+00 -0.35740347158E-01  0.35744000000E-01  0.51099999109E-03 0.  1.
       22    1    1    2    0    0 -0.15034799407E-01  0.23781198181E-01  0.22035040384E-01  0.35737005818E-01  0.00000000000E+00 0. -1.
  9000001    1    1    2    0    0  0.15034799407E-01 -0.23781198181E-01 -0.22035040384E-01  0.35750994182E-01  0.10000000475E-02 0.  1.
</event>
<event>
 4   0  0.2441219E-02  0.9118800E+02  0.7818609E-02  0.1379984E+01
      -11   -1    0    0    0    0  0.00000000000E+00  0.00000000000E+00  0.35740347158E-01  0.35744000000E-01  0.51099999109E-03 0. -1.
       11   -1    0    0    0    0 -0.00000000000E+00 -0.00000000000E+00 -0.35740347158E-01  0.35744000000E-01  0.51099999109E-03 0.  1.
       22    1    1    2    0    0 -0.26047256384E-01  0.87941799885E-02  0.22832792603E-01  0.35737005818E-01  0.00000000000E+00 0. -1.
  9000001    1    1    2    0    0  0.26047256384E-01 -0.87941799885E-02 -0.22832792603E-01  0.35750994182E-01  0.10000000475E-02 0.  1.
</event>
<event>
 4   0  0.2441219E-02  0.9118800E+02  0.7818609E-02  0.1379984E+01
      -11   -1    0    0    0    0  0.00000000000E+00  0.00000000000E+00  0.35740347158E-01  0.35744000000E-01  0.51099999109E-03 0. -1.
       11   -1    0    0    0    0 -0.00000000000E+00 -0.00000000000E+00 -0.35740347158E-01  0.35744000000E-01  0.51099999109E-03 0.  1.
       22    1    1    2    0    0  0.43601393189E-02 -0.11683155316E-03  0.35469833949E-01  0.35737005818E-01  0.00000000000E+00 0. -1.
  9000001    1    1    2    0    0 -0.43601393189E-02  0.11683155316E-03 -0.35469833949E-01  0.35750994182E-01  0.10000000475E-02 0.  1.
</event>
<event>
 4   0  0.2441219E-02  0.9118800E+02  0.7818609E-02  0.1379984E+01
      -11   -1    0    0    0    0  0.00000000000E+00  0.00000000000E+00  0.35740347158E-01  0.35744000000E-01  0.51099999109E-03 0.  1.
       11   -1    0    0    0    0 -0.00000000000E+00 -0.00000000000E+00 -0.35740347158E-01  0.35744000000E-01  0.51099999109E-03 0. -1.
       22    1    1    2    0    0  0.10814540588E-02 -0.10633344120E-01  0.34101261484E-01  0.35737005818E-01  0.00000000000E+00 0.  1.
  9000001    1    1    2    0    0 -0.10814540588E-02  0.10633344120E-01 -0.34101261484E-01  0.35750994182E-01  0.10000000475E-02 0. -1.
</event>
<event>
 4   0  0.2441219E-02  0.9118800E+02  0.7818609E-02  0.1379984E+01
      -11   -1    0    0    0    0  0.00000000000E+00  0.00000000000E+00  0.35740347158E-01  0.35744000000E-01  0.51099999109E-03 0.  1.
       11   -1    0    0    0    0 -0.00000000000E+00 -0.00000000000E+00 -0.35740347158E-01  0.35744000000E-01  0.51099999109E-03 0. -1.
       22    1    1    2    0    0  0.10744957630E-01 -0.30007590933E-02 -0.33951066482E-01  0.35737005818E-01  0.00000000000E+00 0. -1.
  9000001    1    1    2    0    0 -0.10744957630E-01  0.30007590933E-02  0.33951066482E-01  0.35750994182E-01  0.10000000475E-02 0.  1.
</event>
<event>
 4   0  0.2441219E-02  0.9118800E+02  0.7818609E-02  0.1379984E+01
      -11   -1    0    0    0    0  0.00000000000E+00  0.00000000000E+00  0.35740347158E-01  0.35744000000E-01  0.51099999109E-03 0. -1.
       11   -1    0    0    0    0 -0.00000000000E+00 -0.00000000000E+00 -0.35740347158E-01  0.35744000000E-01  0.51099999109E-03 0.  1.
       22    1    1    2    0    0  0.76552943362E-03 -0.11020370436E-01 -0.33986747197E-01  0.35737005818E-01  0.00000000000E+00 0.  1.
  9000001    1    1    2    0    0 -0.76552943362E-03  0.11020370436E-01  0.33986747197E-01  0.35750994182E-01  0.10000000475E-02 0. -1.
</event>
<event>
 4   0  0.2441219E-02  0.9118800E+02  0.7818609E-02  0.1379984E+01
      -11   -1    0    0    0    0  0.00000000000E+00  0.00000000000E+00  0.35740347158E-01  0.35744000000E-01  0.51099999109E-03 0. -1.
       11   -1    0    0    0    0 -0.00000000000E+00 -0.00000000000E+00 -0.35740347158E-01  0.35744000000E-01  0.51099999109E-03 0.  1.
       22    1    1    2    0    0  0.58800911251E-02  0.38525279112E-02  0.35038780543E-01  0.35737005818E-01  0.00000000000E+00 0. -1.
  9000001    1    1    2    0    0 -0.58800911251E-02 -0.38525279112E-02 -0.35038780543E-01  0.35750994182E-01  0.10000000475E-02 0.  1.
</event>
<event>
 4   0  0.2441219E-02  0.9118800E+02  0.7818609E-02  0.1379984E+01
      -11   -1    0    0    0    0  0.00000000000E+00  0.00000000000E+00  0.35740347158E-01  0.35744000000E-01  0.51099999109E-03 0. -1.
       11   -1    0    0    0    0 -0.00000000000E+00 -0.00000000000E+00 -0.35740347158E-01  0.35744000000E-01  0.51099999109E-03 0.  1.
       22    1    1    2    0    0 -0.19444649008E-02  0.58723969468E-02  0.35197550983E-01  0.35737005818E-01  0.00000000000E+00 0. -1.
  9000001    1    1    2    0    0  0.19444649008E-02 -0.58723969468E-02 -0.35197550983E-01  0.35750994182E-01  0.10000000475E-02 0.  1.
</event>
<event>
 4   0  0.2441219E-02  0.9118800E+02  0.7818609E-02  0.1379984E+01
      -11   -1    0    0    0    0  0.00000000000E+00  0.00000000000E+00  0.35740347158E-01  0.35744000000E-01  0.51099999109E-03 0.  1.
       11   -1    0    0    0    0 -0.00000000000E+00 -0.00000000000E+00 -0.35740347158E-01  0.35744000000E-01  0.51099999109E-03 0. -1.
       22    1    1    2    0    0  0.53231007337E-02 -0.10618205208E-01  0.33705369032E-01  0.35737005818E-01  0.00000000000E+00 0.  1.
  9000001    1    1    2    0    0 -0.53231007337E-02  0.10618205208E-01 -0.33705369032E-01  0.35750994182E-01  0.10000000475E-02 0. -1.
</event>
<event>
 4   0  0.2441219E-02  0.9118800E+02  0.7818609E-02  0.1379984E+01
      -11   -1    0    0    0    0  0.00000000000E+00  0.00000000000E+00  0.35740347158E-01  0.35744000000E-01  0.51099999109E-03 0.  1.
       11   -1    0    0    0    0 -0.00000000000E+00 -0.00000000000E+00 -0.35740347158E-01  0.35744000000E-01  0.51099999109E-03 0. -1.
       22    1    1    2    0    0  0.59985353173E-02 -0.38771929239E-03  0.35227841726E-01  0.35737005818E-01  0.00000000000E+00 0.  1.
  9000001    1    1    2    0    0 -0.59985353173E-02  0.38771929239E-03 -0.35227841726E-01  0.35750994182E-01  0.10000000475E-02 0. -1.
</event>
<event>
 4   0  0.2441219E-02  0.9118800E+02  0.7818609E-02  0.1379984E+01
      -11   -1    0    0    0    0  0.00000000000E+00  0.00000000000E+00  0.35740347158E-01  0.35744000000E-01  0.51099999109E-03 0. -1.
       11   -1    0    0    0    0 -0.00000000000E+00 -0.00000000000E+00 -0.35740347158E-01  0.35744000000E-01  0.51099999109E-03 0.  1.
       22    1    1    2    0    0  0.33036557889E-01 -0.52295688092E-02 -0.12584555526E-01  0.35737005818E-01  0.00000000000E+00 0. -1.
  9000001    1    1    2    0    0 -0.33036557889E-01  0.52295688092E-02  0.12584555526E-01  0.35750994182E-01  0.10000000475E-02 0.  1.
</event>
<event>
 4   0  0.2441219E-02  0.9118800E+02  0.7818609E-02  0.1379984E+01
      -11   -1    0    0    0    0  0.00000000000E+00  0.00000000000E+00  0.35740347158E-01  0.35744000000E-01  0.51099999109E-03 0.  1.
       11   -1    0    0    0    0 -0.00000000000E+00 -0.00000000000E+00 -0.35740347158E-01  0.35744000000E-01  0.51099999109E-03 0. -1.
       22    1    1    2    0    0 -0.34364417664E-01  0.53287821644E-02 -0.82355609499E-02  0.35737005818E-01  0.00000000000E+00 0. -1.
  9000001    1    1    2    0    0  0.34364417664E-01 -0.53287821644E-02  0.82355609499E-02  0.35750994182E-01  0.10000000475E-02 0.  1.
</event>
<event>
 4   0  0.2441219E-02  0.9118800E+02  0.7818609E-02  0.1379984E+01
      -11   -1    0    0    0    0  0.00000000000E+00  0.00000000000E+00  0.35740347158E-01  0.35744000000E-01  0.51099999109E-03 0.  1.
       11   -1    0    0    0    0 -0.00000000000E+00 -0.00000000000E+00 -0.35740347158E-01  0.35744000000E-01  0.51099999109E-03 0. -1.
       22    1    1    2    0    0  0.41861440306E-02  0.74258291435E-03 -0.35483212279E-01  0.35737005818E-01  0.00000000000E+00 0. -1.
  9000001    1    1    2    0    0 -0.41861440306E-02 -0.74258291435E-03  0.35483212279E-01  0.35750994182E-01  0.10000000475E-02 0.  1.
</event>
<event>
 4   0  0.2441219E-02  0.9118800E+02  0.7818609E-02  0.1379984E+01
      -11   -1    0    0    0    0  0.00000000000E+00  0.00000000000E+00  0.35740347158E-01  0.35744000000E-01  0.51099999109E-03 0. -1.
       11   -1    0    0    0    0 -0.00000000000E+00 -0.00000000000E+00 -0.35740347158E-01  0.35744000000E-01  0.51099999109E-03 0.  1.
       22    1    1    2    0    0  0.57485710243E-02  0.79925351603E-02 -0.34354139456E-01  0.35737005818E-01  0.00000000000E+00 0.  1.
  9000001    1    1    2    0    0 -0.57485710243E-02 -0.79925351603E-02  0.34354139456E-01  0.35750994182E-01  0.10000000475E-02 0. -1.
</event>
<event>
 4   0  0.2441219E-02  0.9118800E+02  0.7818609E-02  0.1379984E+01
      -11   -1    0    0    0    0  0.00000000000E+00  0.00000000000E+00  0.35740347158E-01  0.35744000000E-01  0.51099999109E-03 0.  1.
       11   -1    0    0    0    0 -0.00000000000E+00 -0.00000000000E+00 -0.35740347158E-01  0.35744000000E-01  0.51099999109E-03 0. -1.
       22    1    1    2    0    0  0.17177291885E-01 -0.19330115939E-01  0.24666188318E-01  0.35737005818E-01  0.00000000000E+00 0.  1.
  9000001    1    1    2    0    0 -0.17177291885E-01  0.19330115939E-01 -0.24666188318E-01  0.35750994182E-01  0.10000000475E-02 0. -1.
</event>
<event>
 4   0  0.2441219E-02  0.9118800E+02  0.7818609E-02  0.1379984E+01
      -11   -1    0    0    0    0  0.00000000000E+00  0.00000000000E+00  0.35740347158E-01  0.35744000000E-01  0.51099999109E-03 0.  1.
       11   -1    0    0    0    0 -0.00000000000E+00 -0.00000000000E+00 -0.35740347158E-01  0.35744000000E-01  0.51099999109E-03 0. -1.
       22    1    1    2    0    0  0.76751750625E-02 -0.30523928053E-01  0.16926756595E-01  0.35737005818E-01  0.00000000000E+00 0.  1.
  9000001    1    1    2    0    0 -0.76751750625E-02  0.30523928053E-01 -0.16926756595E-01  0.35750994182E-01  0.10000000475E-02 0. -1.
</event>
<event>
 4   0  0.2441219E-02  0.9118800E+02  0.7818609E-02  0.1379984E+01
      -11   -1    0    0    0    0  0.00000000000E+00  0.00000000000E+00  0.35740347158E-01  0.35744000000E-01  0.51099999109E-03 0.  1.
       11   -1    0    0    0    0 -0.00000000000E+00 -0.00000000000E+00 -0.35740347158E-01  0.35744000000E-01  0.51099999109E-03 0. -1.
       22    1    1    2    0    0  0.39791922116E-02  0.10968597030E-01  0.33778535987E-01  0.35737005818E-01  0.00000000000E+00 0.  1.
  9000001    1    1    2    0    0 -0.39791922116E-02 -0.10968597030E-01 -0.33778535987E-01  0.35750994182E-01  0.10000000475E-02 0. -1.
</event>
<event>
 4   0  0.2441219E-02  0.9118800E+02  0.7818609E-02  0.1379984E+01
      -11   -1    0    0    0    0  0.00000000000E+00  0.00000000000E+00  0.35740347158E-01  0.35744000000E-01  0.51099999109E-03 0. -1.
       11   -1    0    0    0    0 -0.00000000000E+00 -0.00000000000E+00 -0.35740347158E-01  0.35744000000E-01  0.51099999109E-03 0.  1.
       22    1    1    2    0    0  0.54424359172E-02 -0.35029862651E-01 -0.45190926976E-02  0.35737005818E-01  0.00000000000E+00 0.  1.
  9000001    1    1    2    0    0 -0.54424359172E-02  0.35029862651E-01  0.45190926976E-02  0.35750994182E-01  0.10000000475E-02 0. -1.
</event>
<event>
 4   0  0.2441219E-02  0.9118800E+02  0.7818609E-02  0.1379984E+01
      -11   -1    0    0    0    0  0.00000000000E+00  0.00000000000E+00  0.35740347158E-01  0.35744000000E-01  0.51099999109E-03 0. -1.
       11   -1    0    0    0    0 -0.00000000000E+00 -0.00000000000E+00 -0.35740347158E-01  0.35744000000E-01  0.51099999109E-03 0.  1.
       22    1    1    2    0    0  0.15174559737E-02 -0.13148273222E-01  0.33195689834E-01  0.35737005818E-01  0.00000000000E+00 0. -1.
  9000001    1    1    2    0    0 -0.15174559737E-02  0.13148273222E-01 -0.33195689834E-01  0.35750994182E-01  0.10000000475E-02 0.  1.
</event>
<event>
 4   0  0.2441219E-02  0.9118800E+02  0.7818609E-02  0.1379984E+01
      -11   -1    0    0    0    0  0.00000000000E+00  0.00000000000E+00  0.35740347158E-01  0.35744000000E-01  0.51099999109E-03 0. -1.
       11   -1    0    0    0    0 -0.00000000000E+00 -0.00000000000E+00 -0.35740347158E-01  0.35744000000E-01  0.51099999109E-03 0.  1.
       22    1    1    2    0    0 -0.13051668370E-02 -0.53854880149E-02 -0.35304767996E-01  0.35737005818E-01  0.00000000000E+00 0.  1.
  9000001    1    1    2    0    0  0.13051668370E-02  0.53854880149E-02  0.35304767996E-01  0.35750994182E-01  0.10000000475E-02 0. -1.
</event>
<event>
 4   0  0.2441219E-02  0.9118800E+02  0.7818609E-02  0.1379984E+01
      -11   -1    0    0    0    0  0.00000000000E+00  0.00000000000E+00  0.35740347158E-01  0.35744000000E-01  0.51099999109E-03 0.  1.
       11   -1    0    0    0    0 -0.00000000000E+00 -0.00000000000E+00 -0.35740347158E-01  0.35744000000E-01  0.51099999109E-03 0. -1.
       22    1    1    2    0    0  0.25259095731E-01 -0.10478525139E-01  0.23006785491E-01  0.35737005818E-01  0.00000000000E+00 0.  1.
  9000001    1    1    2    0    0 -0.25259095731E-01  0.10478525139E-01 -0.23006785491E-01  0.35750994182E-01  0.10000000475E-02 0. -1.
</event>
<event>
 4   0  0.2441219E-02  0.9118800E+02  0.7818609E-02  0.1379984E+01
      -11   -1    0    0    0    0  0.00000000000E+00  0.00000000000E+00  0.35740347158E-01  0.35744000000E-01  0.51099999109E-03 0.  1.
       11   -1    0    0    0    0 -0.00000000000E+00 -0.00000000000E+00 -0.35740347158E-01  0.35744000000E-01  0.51099999109E-03 0. -1.
       22    1    1    2    0    0  0.83012196920E-02 -0.25301007404E-01  0.23834478405E-01  0.35737005818E-01  0.00000000000E+00 0.  1.
  9000001    1    1    2    0    0 -0.83012196920E-02  0.25301007404E-01 -0.23834478405E-01  0.35750994182E-01  0.10000000475E-02 0. -1.
</event>
<event>
 4   0  0.2441219E-02  0.9118800E+02  0.7818609E-02  0.1379984E+01
      -11   -1    0    0    0    0  0.00000000000E+00  0.00000000000E+00  0.35740347158E-01  0.35744000000E-01  0.51099999109E-03 0.  1.
       11   -1    0    0    0    0 -0.00000000000E+00 -0.00000000000E+00 -0.35740347158E-01  0.35744000000E-01  0.51099999109E-03 0. -1.
       22    1    1    2    0    0  0.27079422926E-02 -0.15100204100E-02 -0.35602253746E-01  0.35737005818E-01  0.00000000000E+00 0. -1.
  9000001    1    1    2    0    0 -0.27079422926E-02  0.15100204100E-02  0.35602253746E-01  0.35750994182E-01  0.10000000475E-02 0.  1.
</event>
<event>
 4   0  0.2441219E-02  0.9118800E+02  0.7818609E-02  0.1379984E+01
      -11   -1    0    0    0    0  0.00000000000E+00  0.00000000000E+00  0.35740347158E-01  0.35744000000E-01  0.51099999109E-03 0.  1.
       11   -1    0    0    0    0 -0.00000000000E+00 -0.00000000000E+00 -0.35740347158E-01  0.35744000000E-01  0.51099999109E-03 0. -1.
       22    1    1    2    0    0 -0.22779587162E-02 -0.23231325012E-02 -0.35588587277E-01  0.35737005818E-01  0.00000000000E+00 0. -1.
  9000001    1    1    2    0    0  0.22779587162E-02  0.23231325012E-02  0.35588587277E-01  0.35750994182E-01  0.10000000475E-02 0.  1.
</event>
<event>
 4   0  0.2441219E-02  0.9118800E+02  0.7818609E-02  0.1379984E+01
      -11   -1    0    0    0    0  0.00000000000E+00  0.00000000000E+00  0.35740347158E-01  0.35744000000E-01  0.51099999109E-03 0. -1.
       11   -1    0    0    0    0 -0.00000000000E+00 -0.00000000000E+00 -0.35740347158E-01  0.35744000000E-01  0.51099999109E-03 0.  1.
       22    1    1    2    0    0  0.98698527872E-02 -0.11193604377E-01 -0.32471877246E-01  0.35737005818E-01  0.00000000000E+00 0.  1.
  9000001    1    1    2    0    0 -0.98698527872E-02  0.11193604377E-01  0.32471877246E-01  0.35750994182E-01  0.10000000475E-02 0. -1.
</event>
<event>
 4   0  0.2441219E-02  0.9118800E+02  0.7818609E-02  0.1379984E+01
      -11   -1    0    0    0    0  0.00000000000E+00  0.00000000000E+00  0.35740347158E-01  0.35744000000E-01  0.51099999109E-03 0. -1.
       11   -1    0    0    0    0 -0.00000000000E+00 -0.00000000000E+00 -0.35740347158E-01  0.35744000000E-01  0.51099999109E-03 0.  1.
       22    1    1    2    0    0 -0.45998813788E-03  0.19525731914E-01 -0.29927709385E-01  0.35737005818E-01  0.00000000000E+00 0.  1.
  9000001    1    1    2    0    0  0.45998813788E-03 -0.19525731914E-01  0.29927709385E-01  0.35750994182E-01  0.10000000475E-02 0. -1.
</event>
<event>
 4   0  0.2441219E-02  0.9118800E+02  0.7818609E-02  0.1379984E+01
      -11   -1    0    0    0    0  0.00000000000E+00  0.00000000000E+00  0.35740347158E-01  0.35744000000E-01  0.51099999109E-03 0.  1.
       11   -1    0    0    0    0 -0.00000000000E+00 -0.00000000000E+00 -0.35740347158E-01  0.35744000000E-01  0.51099999109E-03 0. -1.
       22    1    1    2    0    0  0.40537958848E-02  0.17054831785E-01 -0.31142142453E-01  0.35737005818E-01  0.00000000000E+00 0. -1.
  9000001    1    1    2    0    0 -0.40537958848E-02 -0.17054831785E-01  0.31142142453E-01  0.35750994182E-01  0.10000000475E-02 0.  1.
</event>
<event>
 4   0  0.2441219E-02  0.9118800E+02  0.7818609E-02  0.1379984E+01
      -11   -1    0    0    0    0  0.00000000000E+00  0.00000000000E+00  0.35740347158E-01  0.35744000000E-01  0.51099999109E-03 0. -1.
       11   -1    0    0    0    0 -0.00000000000E+00 -0.00000000000E+00 -0.35740347158E-01  0.35744000000E-01  0.51099999109E-03 0.  1.
       22    1    1    2    0    0 -0.70527190263E-02  0.44309500334E-02 -0.34752833280E-01  0.35737005818E-01  0.00000000000E+00 0.  1.
  9000001    1    1    2    0    0  0.70527190263E-02 -0.44309500334E-02  0.34752833280E-01  0.35750994182E-01  0.10000000475E-02 0. -1.
</event>
<event>
 4   0  0.2441219E-02  0.9118800E+02  0.7818609E-02  0.1379984E+01
      -11   -1    0    0    0    0  0.00000000000E+00  0.00000000000E+00  0.35740347158E-01  0.35744000000E-01  0.51099999109E-03 0.  1.
       11   -1    0    0    0    0 -0.00000000000E+00 -0.00000000000E+00 -0.35740347158E-01  0.35744000000E-01  0.51099999109E-03 0. -1.
       22    1    1    2    0    0  0.63182760969E-02  0.10790453331E-01 -0.33478038905E-01  0.35737005818E-01  0.00000000000E+00 0. -1.
  9000001    1    1    2    0    0 -0.63182760969E-02 -0.10790453331E-01  0.33478038905E-01  0.35750994182E-01  0.10000000475E-02 0.  1.
</event>
<event>
 4   0  0.2441219E-02  0.9118800E+02  0.7818609E-02  0.1379984E+01
      -11   -1    0    0    0    0  0.00000000000E+00  0.00000000000E+00  0.35740347158E-01  0.35744000000E-01  0.51099999109E-03 0. -1.
       11   -1    0    0    0    0 -0.00000000000E+00 -0.00000000000E+00 -0.35740347158E-01  0.35744000000E-01  0.51099999109E-03 0.  1.
       22    1    1    2    0    0 -0.91059629118E-03 -0.51776902584E-02 -0.35348209613E-01  0.35737005818E-01  0.00000000000E+00 0.  1.
  9000001    1    1    2    0    0  0.91059629118E-03  0.51776902584E-02  0.35348209613E-01  0.35750994182E-01  0.10000000475E-02 0. -1.
</event>
<event>
 4   0  0.2441219E-02  0.9118800E+02  0.7818609E-02  0.1379984E+01
      -11   -1    0    0    0    0  0.00000000000E+00  0.00000000000E+00  0.35740347158E-01  0.35744000000E-01  0.51099999109E-03 0. -1.
       11   -1    0    0    0    0 -0.00000000000E+00 -0.00000000000E+00 -0.35740347158E-01  0.35744000000E-01  0.51099999109E-03 0.  1.
       22    1    1    2    0    0 -0.32098465456E-02 -0.42606036444E-02  0.35336634342E-01  0.35737005818E-01  0.00000000000E+00 0. -1.
  9000001    1    1    2    0    0  0.32098465456E-02  0.42606036444E-02 -0.35336634342E-01  0.35750994182E-01  0.10000000475E-02 0.  1.
</event>
<event>
 4   0  0.2441219E-02  0.9118800E+02  0.7818609E-02  0.1379984E+01
      -11   -1    0    0    0    0  0.00000000000E+00  0.00000000000E+00  0.35740347158E-01  0.35744000000E-01  0.51099999109E-03 0. -1.
       11   -1    0    0    0    0 -0.00000000000E+00 -0.00000000000E+00 -0.35740347158E-01  0.35744000000E-01  0.51099999109E-03 0.  1.
       22    1    1    2    0    0 -0.31285444127E-02 -0.79332737138E-02  0.34704595703E-01  0.35737005818E-01  0.00000000000E+00 0. -1.
  9000001    1    1    2    0    0  0.31285444127E-02  0.79332737138E-02 -0.34704595703E-01  0.35750994182E-01  0.10000000475E-02 0.  1.
</event>
<event>
 4   0  0.2441219E-02  0.9118800E+02  0.7818609E-02  0.1379984E+01
      -11   -1    0    0    0    0  0.00000000000E+00  0.00000000000E+00  0.35740347158E-01  0.35744000000E-01  0.51099999109E-03 0. -1.
       11   -1    0    0    0    0 -0.00000000000E+00 -0.00000000000E+00 -0.35740347158E-01  0.35744000000E-01  0.51099999109E-03 0.  1.
       22    1    1    2    0    0 -0.58269795726E-02  0.35138063687E-01 -0.29148540735E-02  0.35737005818E-01  0.00000000000E+00 0.  1.
  9000001    1    1    2    0    0  0.58269795726E-02 -0.35138063687E-01  0.29148540735E-02  0.35750994182E-01  0.10000000475E-02 0. -1.
</event>
<event>
 4   0  0.2441219E-02  0.9118800E+02  0.7818609E-02  0.1379984E+01
      -11   -1    0    0    0    0  0.00000000000E+00  0.00000000000E+00  0.35740347158E-01  0.35744000000E-01  0.51099999109E-03 0. -1.
       11   -1    0    0    0    0 -0.00000000000E+00 -0.00000000000E+00 -0.35740347158E-01  0.35744000000E-01  0.51099999109E-03 0.  1.
       22    1    1    2    0    0  0.14819022775E-01  0.88445205220E-03  0.32507658996E-01  0.35737005818E-01  0.00000000000E+00 0. -1.
  9000001    1    1    2    0    0 -0.14819022775E-01 -0.88445205220E-03 -0.32507658996E-01  0.35750994182E-01  0.10000000475E-02 0.  1.
</event>
<event>
 4   0  0.2441219E-02  0.9118800E+02  0.7818609E-02  0.1379984E+01
      -11   -1    0    0    0    0  0.00000000000E+00  0.00000000000E+00  0.35740347158E-01  0.35744000000E-01  0.51099999109E-03 0.  1.
       11   -1    0    0    0    0 -0.00000000000E+00 -0.00000000000E+00 -0.35740347158E-01  0.35744000000E-01  0.51099999109E-03 0. -1.
       22    1    1    2    0    0 -0.16535379070E-01 -0.15663152120E-01 -0.27538708930E-01  0.35737005818E-01  0.00000000000E+00 0. -1.
  9000001    1    1    2    0    0  0.16535379070E-01  0.15663152120E-01  0.27538708930E-01  0.35750994182E-01  0.10000000475E-02 0.  1.
</event>
<event>
 4   0  0.2441219E-02  0.9118800E+02  0.7818609E-02  0.1379984E+01
      -11   -1    0    0    0    0  0.00000000000E+00  0.00000000000E+00  0.35740347158E-01  0.35744000000E-01  0.51099999109E-03 0. -1.
       11   -1    0    0    0    0 -0.00000000000E+00 -0.00000000000E+00 -0.35740347158E-01  0.35744000000E-01  0.51099999109E-03 0.  1.
       22    1    1    2    0    0 -0.33317455797E-02 -0.16408915439E-02 -0.35543501955E-01  0.35737005818E-01  0.00000000000E+00 0.  1.
  9000001    1    1    2    0    0  0.33317455797E-02  0.16408915439E-02  0.35543501955E-01  0.35750994182E-01  0.10000000475E-02 0. -1.
</event>
<event>
 4   0  0.2441219E-02  0.9118800E+02  0.7818609E-02  0.1379984E+01
      -11   -1    0    0    0    0  0.00000000000E+00  0.00000000000E+00  0.35740347158E-01  0.35744000000E-01  0.51099999109E-03 0. -1.
       11   -1    0    0    0    0 -0.00000000000E+00 -0.00000000000E+00 -0.35740347158E-01  0.35744000000E-01  0.51099999109E-03 0.  1.
       22    1    1    2    0    0 -0.55274788659E-02  0.21625739759E-02 -0.35240656011E-01  0.35737005818E-01  0.00000000000E+00 0.  1.
  9000001    1    1    2    0    0  0.55274788659E-02 -0.21625739759E-02  0.35240656011E-01  0.35750994182E-01  0.10000000475E-02 0. -1.
</event>
<event>
 4   0  0.2441219E-02  0.9118800E+02  0.7818609E-02  0.1379984E+01
      -11   -1    0    0    0    0  0.00000000000E+00  0.00000000000E+00  0.35740347158E-01  0.35744000000E-01  0.51099999109E-03 0.  1.
       11   -1    0    0    0    0 -0.00000000000E+00 -0.00000000000E+00 -0.35740347158E-01  0.35744000000E-01  0.51099999109E-03 0. -1.
       22    1    1    2    0    0 -0.15514140929E-01 -0.23264176346E-02  0.32109699424E-01  0.35737005818E-01  0.00000000000E+00 0.  1.
  9000001    1    1    2    0    0  0.15514140929E-01  0.23264176346E-02 -0.32109699424E-01  0.35750994182E-01  0.10000000475E-02 0. -1.
</event>
<event>
 4   0  0.2441219E-02  0.9118800E+02  0.7818609E-02  0.1379984E+01
      -11   -1    0    0    0    0  0.00000000000E+00  0.00000000000E+00  0.35740347158E-01  0.35744000000E-01  0.51099999109E-03 0. -1.
       11   -1    0    0    0    0 -0.00000000000E+00 -0.00000000000E+00 -0.35740347158E-01  0.35744000000E-01  0.51099999109E-03 0.  1.
       22    1    1    2    0    0  0.23057359884E-02 -0.22034239653E-02 -0.35594410927E-01  0.35737005818E-01  0.00000000000E+00 0.  1.
  9000001    1    1    2    0    0 -0.23057359884E-02  0.22034239653E-02  0.35594410927E-01  0.35750994182E-01  0.10000000475E-02 0. -1.
</event>
<event>
 4   0  0.2441219E-02  0.9118800E+02  0.7818609E-02  0.1379984E+01
      -11   -1    0    0    0    0  0.00000000000E+00  0.00000000000E+00  0.35740347158E-01  0.35744000000E-01  0.51099999109E-03 0.  1.
       11   -1    0    0    0    0 -0.00000000000E+00 -0.00000000000E+00 -0.35740347158E-01  0.35744000000E-01  0.51099999109E-03 0. -1.
       22    1    1    2    0    0 -0.21518911973E-01  0.28529564415E-01 -0.36601461534E-03  0.35737005818E-01  0.00000000000E+00 0. -1.
  9000001    1    1    2    0    0  0.21518911973E-01 -0.28529564415E-01  0.36601461534E-03  0.35750994182E-01  0.10000000475E-02 0.  1.
</event>
<event>
 4   0  0.2441219E-02  0.9118800E+02  0.7818609E-02  0.1379984E+01
      -11   -1    0    0    0    0  0.00000000000E+00  0.00000000000E+00  0.35740347158E-01  0.35744000000E-01  0.51099999109E-03 0. -1.
       11   -1    0    0    0    0 -0.00000000000E+00 -0.00000000000E+00 -0.35740347158E-01  0.35744000000E-01  0.51099999109E-03 0.  1.
       22    1    1    2    0    0 -0.25446784433E-02 -0.44305336693E-02  0.35369882215E-01  0.35737005818E-01  0.00000000000E+00 0. -1.
  9000001    1    1    2    0    0  0.25446784433E-02  0.44305336693E-02 -0.35369882215E-01  0.35750994182E-01  0.10000000475E-02 0.  1.
</event>
<event>
 4   0  0.2441219E-02  0.9118800E+02  0.7818609E-02  0.1379984E+01
      -11   -1    0    0    0    0  0.00000000000E+00  0.00000000000E+00  0.35740347158E-01  0.35744000000E-01  0.51099999109E-03 0. -1.
       11   -1    0    0    0    0 -0.00000000000E+00 -0.00000000000E+00 -0.35740347158E-01  0.35744000000E-01  0.51099999109E-03 0.  1.
       22    1    1    2    0    0  0.31108937538E-02 -0.71641351787E-02 -0.34873071159E-01  0.35737005818E-01  0.00000000000E+00 0.  1.
  9000001    1    1    2    0    0 -0.31108937538E-02  0.71641351787E-02  0.34873071159E-01  0.35750994182E-01  0.10000000475E-02 0. -1.
</event>
<event>
 4   0  0.2441219E-02  0.9118800E+02  0.7818609E-02  0.1379984E+01
      -11   -1    0    0    0    0  0.00000000000E+00  0.00000000000E+00  0.35740347158E-01  0.35744000000E-01  0.51099999109E-03 0.  1.
       11   -1    0    0    0    0 -0.00000000000E+00 -0.00000000000E+00 -0.35740347158E-01  0.35744000000E-01  0.51099999109E-03 0. -1.
       22    1    1    2    0    0 -0.46346118267E-02  0.83890182318E-03 -0.35425276313E-01  0.35737005818E-01  0.00000000000E+00 0. -1.
  9000001    1    1    2    0    0  0.46346118267E-02 -0.83890182318E-03  0.35425276313E-01  0.35750994182E-01  0.10000000475E-02 0.  1.
</event>
<event>
 4   0  0.2441219E-02  0.9118800E+02  0.7818609E-02  0.1379984E+01
      -11   -1    0    0    0    0  0.00000000000E+00  0.00000000000E+00  0.35740347158E-01  0.35744000000E-01  0.51099999109E-03 0.  1.
       11   -1    0    0    0    0 -0.00000000000E+00 -0.00000000000E+00 -0.35740347158E-01  0.35744000000E-01  0.51099999109E-03 0. -1.
       22    1    1    2    0    0 -0.40877435043E-02 -0.82399964225E-02  0.34532975500E-01  0.35737005818E-01  0.00000000000E+00 0.  1.
  9000001    1    1    2    0    0  0.40877435043E-02  0.82399964225E-02 -0.34532975500E-01  0.35750994182E-01  0.10000000475E-02 0. -1.
</event>
<event>
 4   0  0.2441219E-02  0.9118800E+02  0.7818609E-02  0.1379984E+01
      -11   -1    0    0    0    0  0.00000000000E+00  0.00000000000E+00  0.35740347158E-01  0.35744000000E-01  0.51099999109E-03 0. -1.
       11   -1    0    0    0    0 -0.00000000000E+00 -0.00000000000E+00 -0.35740347158E-01  0.35744000000E-01  0.51099999109E-03 0.  1.
       22    1    1    2    0    0 -0.12771111982E-02  0.94814472402E-02 -0.34432611433E-01  0.35737005818E-01  0.00000000000E+00 0.  1.
  9000001    1    1    2    0    0  0.12771111982E-02 -0.94814472402E-02  0.34432611433E-01  0.35750994182E-01  0.10000000475E-02 0. -1.
</event>
<event>
 4   0  0.2441219E-02  0.9118800E+02  0.7818609E-02  0.1379984E+01
      -11   -1    0    0    0    0  0.00000000000E+00  0.00000000000E+00  0.35740347158E-01  0.35744000000E-01  0.51099999109E-03 0. -1.
       11   -1    0    0    0    0 -0.00000000000E+00 -0.00000000000E+00 -0.35740347158E-01  0.35744000000E-01  0.51099999109E-03 0.  1.
       22    1    1    2    0    0  0.13804114489E-01  0.24346278867E-02 -0.32873280869E-01  0.35737005818E-01  0.00000000000E+00 0.  1.
  9000001    1    1    2    0    0 -0.13804114489E-01 -0.24346278867E-02  0.32873280869E-01  0.35750994182E-01  0.10000000475E-02 0. -1.
</event>
<event>
 4   0  0.2441219E-02  0.9118800E+02  0.7818609E-02  0.1379984E+01
      -11   -1    0    0    0    0  0.00000000000E+00  0.00000000000E+00  0.35740347158E-01  0.35744000000E-01  0.51099999109E-03 0. -1.
       11   -1    0    0    0    0 -0.00000000000E+00 -0.00000000000E+00 -0.35740347158E-01  0.35744000000E-01  0.51099999109E-03 0.  1.
       22    1    1    2    0    0 -0.27897980678E-03 -0.75911072700E-02 -0.34920350021E-01  0.35737005818E-01  0.00000000000E+00 0.  1.
  9000001    1    1    2    0    0  0.27897980678E-03  0.75911072700E-02  0.34920350021E-01  0.35750994182E-01  0.10000000475E-02 0. -1.
</event>
<event>
 4   0  0.2441219E-02  0.9118800E+02  0.7818609E-02  0.1379984E+01
      -11   -1    0    0    0    0  0.00000000000E+00  0.00000000000E+00  0.35740347158E-01  0.35744000000E-01  0.51099999109E-03 0.  1.
       11   -1    0    0    0    0 -0.00000000000E+00 -0.00000000000E+00 -0.35740347158E-01  0.35744000000E-01  0.51099999109E-03 0. -1.
       22    1    1    2    0    0  0.11291460818E-02  0.11165839553E-01  0.33929082526E-01  0.35737005818E-01  0.00000000000E+00 0.  1.
  9000001    1    1    2    0    0 -0.11291460818E-02 -0.11165839553E-01 -0.33929082526E-01  0.35750994182E-01  0.10000000475E-02 0. -1.
</event>
<event>
 4   0  0.2441219E-02  0.9118800E+02  0.7818609E-02  0.1379984E+01
      -11   -1    0    0    0    0  0.00000000000E+00  0.00000000000E+00  0.35740347158E-01  0.35744000000E-01  0.51099999109E-03 0.  1.
       11   -1    0    0    0    0 -0.00000000000E+00 -0.00000000000E+00 -0.35740347158E-01  0.35744000000E-01  0.51099999109E-03 0. -1.
       22    1    1    2    0    0  0.56829983743E-02 -0.39715866967E-02  0.35058003558E-01  0.35737005818E-01  0.00000000000E+00 0.  1.
  9000001    1    1    2    0    0 -0.56829983743E-02  0.39715866967E-02 -0.35058003558E-01  0.35750994182E-01  0.10000000475E-02 0. -1.
</event>
<event>
 4   0  0.2441219E-02  0.9118800E+02  0.7818609E-02  0.1379984E+01
      -11   -1    0    0    0    0  0.00000000000E+00  0.00000000000E+00  0.35740347158E-01  0.35744000000E-01  0.51099999109E-03 0. -1.
       11   -1    0    0    0    0 -0.00000000000E+00 -0.00000000000E+00 -0.35740347158E-01  0.35744000000E-01  0.51099999109E-03 0.  1.
       22    1    1    2    0    0  0.67950984179E-03  0.39110887770E-02  0.35515844856E-01  0.35737005818E-01  0.00000000000E+00 0. -1.
  9000001    1    1    2    0    0 -0.67950984179E-03 -0.39110887770E-02 -0.35515844856E-01  0.35750994182E-01  0.10000000475E-02 0.  1.
</event>
<event>
 4   0  0.2441219E-02  0.9118800E+02  0.7818609E-02  0.1379984E+01
      -11   -1    0    0    0    0  0.00000000000E+00  0.00000000000E+00  0.35740347158E-01  0.35744000000E-01  0.51099999109E-03 0.  1.
       11   -1    0    0    0    0 -0.00000000000E+00 -0.00000000000E+00 -0.35740347158E-01  0.35744000000E-01  0.51099999109E-03 0. -1.
       22    1    1    2    0    0 -0.21012514453E-02  0.52256135571E-02  0.35290385237E-01  0.35737005818E-01  0.00000000000E+00 0.  1.
  9000001    1    1    2    0    0  0.21012514453E-02 -0.52256135571E-02 -0.35290385237E-01  0.35750994182E-01  0.10000000475E-02 0. -1.
</event>
<event>
 4   0  0.2441219E-02  0.9118800E+02  0.7818609E-02  0.1379984E+01
      -11   -1    0    0    0    0  0.00000000000E+00  0.00000000000E+00  0.35740347158E-01  0.35744000000E-01  0.51099999109E-03 0. -1.
       11   -1    0    0    0    0 -0.00000000000E+00 -0.00000000000E+00 -0.35740347158E-01  0.35744000000E-01  0.51099999109E-03 0.  1.
       22    1    1    2    0    0  0.76120358114E-02  0.98369725550E-03 -0.34903049084E-01  0.35737005818E-01  0.00000000000E+00 0.  1.
  9000001    1    1    2    0    0 -0.76120358114E-02 -0.98369725550E-03  0.34903049084E-01  0.35750994182E-01  0.10000000475E-02 0. -1.
</event>
<event>
 4   0  0.2441219E-02  0.9118800E+02  0.7818609E-02  0.1379984E+01
      -11   -1    0    0    0    0  0.00000000000E+00  0.00000000000E+00  0.35740347158E-01  0.35744000000E-01  0.51099999109E-03 0.  1.
       11   -1    0    0    0    0 -0.00000000000E+00 -0.00000000000E+00 -0.35740347158E-01  0.35744000000E-01  0.51099999109E-03 0. -1.
       22    1    1    2    0    0 -0.13568242511E-02 -0.48924807786E-02  0.35374514055E-01  0.35737005818E-01  0.00000000000E+00 0.  1.
  9000001    1    1    2    0    0  0.13568242511E-02  0.48924807786E-02 -0.35374514055E-01  0.35750994182E-01  0.10000000475E-02 0. -1.
</event>
<event>
 4   0  0.2441219E-02  0.9118800E+02  0.7818609E-02  0.1379984E+01
      -11   -1    0    0    0    0  0.00000000000E+00  0.00000000000E+00  0.35740347158E-01  0.35744000000E-01  0.51099999109E-03 0. -1.
       11   -1    0    0    0    0 -0.00000000000E+00 -0.00000000000E+00 -0.35740347158E-01  0.35744000000E-01  0.51099999109E-03 0.  1.
       22    1    1    2    0    0  0.64428732851E-02 -0.11322597553E-02 -0.35133188818E-01  0.35737005818E-01  0.00000000000E+00 0.  1.
  9000001    1    1    2    0    0 -0.64428732851E-02  0.11322597553E-02  0.35133188818E-01  0.35750994182E-01  0.10000000475E-02 0. -1.
</event>
<event>
 4   0  0.2441219E-02  0.9118800E+02  0.7818609E-02  0.1379984E+01
      -11   -1    0    0    0    0  0.00000000000E+00  0.00000000000E+00  0.35740347158E-01  0.35744000000E-01  0.51099999109E-03 0.  1.
       11   -1    0    0    0    0 -0.00000000000E+00 -0.00000000000E+00 -0.35740347158E-01  0.35744000000E-01  0.51099999109E-03 0. -1.
       22    1    1    2    0    0 -0.24529841683E-02 -0.85316449142E-02 -0.34616867111E-01  0.35737005818E-01  0.00000000000E+00 0. -1.
  9000001    1    1    2    0    0  0.24529841683E-02  0.85316449142E-02  0.34616867111E-01  0.35750994182E-01  0.10000000475E-02 0.  1.
</event>
<event>
 4   0  0.2441219E-02  0.9118800E+02  0.7818609E-02  0.1379984E+01
      -11   -1    0    0    0    0  0.00000000000E+00  0.00000000000E+00  0.35740347158E-01  0.35744000000E-01  0.51099999109E-03 0.  1.
       11   -1    0    0    0    0 -0.00000000000E+00 -0.00000000000E+00 -0.35740347158E-01  0.35744000000E-01  0.51099999109E-03 0. -1.
       22    1    1    2    0    0  0.11079155707E-01  0.11597189435E-01  0.31935733762E-01  0.35737005818E-01  0.00000000000E+00 0.  1.
  9000001    1    1    2    0    0 -0.11079155707E-01 -0.11597189435E-01 -0.31935733762E-01  0.35750994182E-01  0.10000000475E-02 0. -1.
</event>
<event>
 4   0  0.2441219E-02  0.9118800E+02  0.7818609E-02  0.1379984E+01
      -11   -1    0    0    0    0  0.00000000000E+00  0.00000000000E+00  0.35740347158E-01  0.35744000000E-01  0.51099999109E-03 0. -1.
       11   -1    0    0    0    0 -0.00000000000E+00 -0.00000000000E+00 -0.35740347158E-01  0.35744000000E-01  0.51099999109E-03 0.  1.
       22    1    1    2    0    0  0.14141136909E-02  0.19649100396E-01  0.29816886507E-01  0.35737005818E-01  0.00000000000E+00 0. -1.
  9000001    1    1    2    0    0 -0.14141136909E-02 -0.19649100396E-01 -0.29816886507E-01  0.35750994182E-01  0.10000000475E-02 0.  1.
</event>
<event>
 4   0  0.2441219E-02  0.9118800E+02  0.7818609E-02  0.1379984E+01
      -11   -1    0    0    0    0  0.00000000000E+00  0.00000000000E+00  0.35740347158E-01  0.35744000000E-01  0.51099999109E-03 0. -1.
       11   -1    0    0    0    0 -0.00000000000E+00 -0.00000000000E+00 -0.35740347158E-01  0.35744000000E-01  0.51099999109E-03 0.  1.
       22    1    1    2    0    0 -0.53061949995E-02  0.45508640239E-02  0.35046647716E-01  0.35737005818E-01  0.00000000000E+00 0. -1.
  9000001    1    1    2    0    0  0.53061949995E-02 -0.45508640239E-02 -0.35046647716E-01  0.35750994182E-01  0.10000000475E-02 0.  1.
</event>
<event>
 4   0  0.2441219E-02  0.9118800E+02  0.7818609E-02  0.1379984E+01
      -11   -1    0    0    0    0  0.00000000000E+00  0.00000000000E+00  0.35740347158E-01  0.35744000000E-01  0.51099999109E-03 0. -1.
       11   -1    0    0    0    0 -0.00000000000E+00 -0.00000000000E+00 -0.35740347158E-01  0.35744000000E-01  0.51099999109E-03 0.  1.
       22    1    1    2    0    0  0.30283731393E-04 -0.21077026581E-01  0.28859861716E-01  0.35737005818E-01  0.00000000000E+00 0. -1.
  9000001    1    1    2    0    0 -0.30283731393E-04  0.21077026581E-01 -0.28859861716E-01  0.35750994182E-01  0.10000000475E-02 0.  1.
</event>
<event>
 4   0  0.2441219E-02  0.9118800E+02  0.7818609E-02  0.1379984E+01
      -11   -1    0    0    0    0  0.00000000000E+00  0.00000000000E+00  0.35740347158E-01  0.35744000000E-01  0.51099999109E-03 0.  1.
       11   -1    0    0    0    0 -0.00000000000E+00 -0.00000000000E+00 -0.35740347158E-01  0.35744000000E-01  0.51099999109E-03 0. -1.
       22    1    1    2    0    0  0.81608052310E-02 -0.46146567299E-02  0.34485356111E-01  0.35737005818E-01  0.00000000000E+00 0.  1.
  9000001    1    1    2    0    0 -0.81608052310E-02  0.46146567299E-02 -0.34485356111E-01  0.35750994182E-01  0.10000000475E-02 0. -1.
</event>
<event>
 4   0  0.2441219E-02  0.9118800E+02  0.7818609E-02  0.1379984E+01
      -11   -1    0    0    0    0  0.00000000000E+00  0.00000000000E+00  0.35740347158E-01  0.35744000000E-01  0.51099999109E-03 0.  1.
       11   -1    0    0    0    0 -0.00000000000E+00 -0.00000000000E+00 -0.35740347158E-01  0.35744000000E-01  0.51099999109E-03 0. -1.
       22    1    1    2    0    0  0.33164593071E-02 -0.55594070481E-02  0.35145805949E-01  0.35737005818E-01  0.00000000000E+00 0.  1.
  9000001    1    1    2    0    0 -0.33164593071E-02  0.55594070481E-02 -0.35145805949E-01  0.35750994182E-01  0.10000000475E-02 0. -1.
</event>
<event>
 4   0  0.2441219E-02  0.9118800E+02  0.7818609E-02  0.1379984E+01
      -11   -1    0    0    0    0  0.00000000000E+00  0.00000000000E+00  0.35740347158E-01  0.35744000000E-01  0.51099999109E-03 0. -1.
       11   -1    0    0    0    0 -0.00000000000E+00 -0.00000000000E+00 -0.35740347158E-01  0.35744000000E-01  0.51099999109E-03 0.  1.
       22    1    1    2    0    0 -0.56047668153E-02 -0.88633582003E-03 -0.35283630519E-01  0.35737005818E-01  0.00000000000E+00 0.  1.
  9000001    1    1    2    0    0  0.56047668153E-02  0.88633582003E-03  0.35283630519E-01  0.35750994182E-01  0.10000000475E-02 0. -1.
</event>
<event>
 4   0  0.2441219E-02  0.9118800E+02  0.7818609E-02  0.1379984E+01
      -11   -1    0    0    0    0  0.00000000000E+00  0.00000000000E+00  0.35740347158E-01  0.35744000000E-01  0.51099999109E-03 0. -1.
       11   -1    0    0    0    0 -0.00000000000E+00 -0.00000000000E+00 -0.35740347158E-01  0.35744000000E-01  0.51099999109E-03 0.  1.
       22    1    1    2    0    0 -0.21926134111E-01 -0.72577487823E-02  0.27270924268E-01  0.35737005818E-01  0.00000000000E+00 0. -1.
  9000001    1    1    2    0    0  0.21926134111E-01  0.72577487823E-02 -0.27270924268E-01  0.35750994182E-01  0.10000000475E-02 0.  1.
</event>
<event>
 4   0  0.2441219E-02  0.9118800E+02  0.7818609E-02  0.1379984E+01
      -11   -1    0    0    0    0  0.00000000000E+00  0.00000000000E+00  0.35740347158E-01  0.35744000000E-01  0.51099999109E-03 0. -1.
       11   -1    0    0    0    0 -0.00000000000E+00 -0.00000000000E+00 -0.35740347158E-01  0.35744000000E-01  0.51099999109E-03 0.  1.
       22    1    1    2    0    0 -0.52630080344E-02  0.43163892798E-02  0.35082803692E-01  0.35737005818E-01  0.00000000000E+00 0. -1.
  9000001    1    1    2    0    0  0.52630080344E-02 -0.43163892798E-02 -0.35082803692E-01  0.35750994182E-01  0.10000000475E-02 0.  1.
</event>
<event>
 4   0  0.2441219E-02  0.9118800E+02  0.7818609E-02  0.1379984E+01
      -11   -1    0    0    0    0  0.00000000000E+00  0.00000000000E+00  0.35740347158E-01  0.35744000000E-01  0.51099999109E-03 0.  1.
       11   -1    0    0    0    0 -0.00000000000E+00 -0.00000000000E+00 -0.35740347158E-01  0.35744000000E-01  0.51099999109E-03 0. -1.
       22    1    1    2    0    0  0.14096602380E-01  0.12993911416E-01 -0.30159205101E-01  0.35737005818E-01  0.00000000000E+00 0. -1.
  9000001    1    1    2    0    0 -0.14096602380E-01 -0.12993911416E-01  0.30159205101E-01  0.35750994182E-01  0.10000000475E-02 0.  1.
</event>
<event>
 4   0  0.2441219E-02  0.9118800E+02  0.7818609E-02  0.1379984E+01
      -11   -1    0    0    0    0  0.00000000000E+00  0.00000000000E+00  0.35740347158E-01  0.35744000000E-01  0.51099999109E-03 0.  1.
       11   -1    0    0    0    0 -0.00000000000E+00 -0.00000000000E+00 -0.35740347158E-01  0.35744000000E-01  0.51099999109E-03 0. -1.
       22    1    1    2    0    0 -0.20043782520E-01  0.21128474583E-01 -0.20711540960E-01  0.35737005818E-01  0.00000000000E+00 0. -1.
  9000001    1    1    2    0    0  0.20043782520E-01 -0.21128474583E-01  0.20711540960E-01  0.35750994182E-01  0.10000000475E-02 0.  1.
</event>
<event>
 4   0  0.2441219E-02  0.9118800E+02  0.7818609E-02  0.1379984E+01
      -11   -1    0    0    0    0  0.00000000000E+00  0.00000000000E+00  0.35740347158E-01  0.35744000000E-01  0.51099999109E-03 0. -1.
       11   -1    0    0    0    0 -0.00000000000E+00 -0.00000000000E+00 -0.35740347158E-01  0.35744000000E-01  0.51099999109E-03 0.  1.
       22    1    1    2    0    0 -0.67001704227E-02 -0.55863027231E-02  0.34655944989E-01  0.35737005818E-01  0.00000000000E+00 0. -1.
  9000001    1    1    2    0    0  0.67001704227E-02  0.55863027231E-02 -0.34655944989E-01  0.35750994182E-01  0.10000000475E-02 0.  1.
</event>
<event>
 4   0  0.2441219E-02  0.9118800E+02  0.7818609E-02  0.1379984E+01
      -11   -1    0    0    0    0  0.00000000000E+00  0.00000000000E+00  0.35740347158E-01  0.35744000000E-01  0.51099999109E-03 0. -1.
       11   -1    0    0    0    0 -0.00000000000E+00 -0.00000000000E+00 -0.35740347158E-01  0.35744000000E-01  0.51099999109E-03 0.  1.
       22    1    1    2    0    0 -0.18066804184E-02  0.26280710067E-02  0.35594419977E-01  0.35737005818E-01  0.00000000000E+00 0. -1.
  9000001    1    1    2    0    0  0.18066804184E-02 -0.26280710067E-02 -0.35594419977E-01  0.35750994182E-01  0.10000000475E-02 0.  1.
</event>
<event>
 4   0  0.2441219E-02  0.9118800E+02  0.7818609E-02  0.1379984E+01
      -11   -1    0    0    0    0  0.00000000000E+00  0.00000000000E+00  0.35740347158E-01  0.35744000000E-01  0.51099999109E-03 0.  1.
       11   -1    0    0    0    0 -0.00000000000E+00 -0.00000000000E+00 -0.35740347158E-01  0.35744000000E-01  0.51099999109E-03 0. -1.
       22    1    1    2    0    0  0.41079371831E-02  0.14647911429E-01  0.32337240571E-01  0.35737005818E-01  0.00000000000E+00 0.  1.
  9000001    1    1    2    0    0 -0.41079371831E-02 -0.14647911429E-01 -0.32337240571E-01  0.35750994182E-01  0.10000000475E-02 0. -1.
</event>
<event>
 4   0  0.2441219E-02  0.9118800E+02  0.7818609E-02  0.1379984E+01
      -11   -1    0    0    0    0  0.00000000000E+00  0.00000000000E+00  0.35740347158E-01  0.35744000000E-01  0.51099999109E-03 0.  1.
       11   -1    0    0    0    0 -0.00000000000E+00 -0.00000000000E+00 -0.35740347158E-01  0.35744000000E-01  0.51099999109E-03 0. -1.
       22    1    1    2    0    0  0.73659079879E-02  0.55745053147E-02 -0.34522483614E-01  0.35737005818E-01  0.00000000000E+00 0. -1.
  9000001    1    1    2    0    0 -0.73659079879E-02 -0.55745053147E-02  0.34522483614E-01  0.35750994182E-01  0.10000000475E-02 0.  1.
</event>
<event>
 4   0  0.2441219E-02  0.9118800E+02  0.7818609E-02  0.1379984E+01
      -11   -1    0    0    0    0  0.00000000000E+00  0.00000000000E+00  0.35740347158E-01  0.35744000000E-01  0.51099999109E-03 0.  1.
       11   -1    0    0    0    0 -0.00000000000E+00 -0.00000000000E+00 -0.35740347158E-01  0.35744000000E-01  0.51099999109E-03 0. -1.
       22    1    1    2    0    0 -0.26378178650E-01  0.11758798523E-01  0.21048893872E-01  0.35737005818E-01  0.00000000000E+00 0.  1.
  9000001    1    1    2    0    0  0.26378178650E-01 -0.11758798523E-01 -0.21048893872E-01  0.35750994182E-01  0.10000000475E-02 0. -1.
</event>
<event>
 4   0  0.2441219E-02  0.9118800E+02  0.7818609E-02  0.1379984E+01
      -11   -1    0    0    0    0  0.00000000000E+00  0.00000000000E+00  0.35740347158E-01  0.35744000000E-01  0.51099999109E-03 0. -1.
       11   -1    0    0    0    0 -0.00000000000E+00 -0.00000000000E+00 -0.35740347158E-01  0.35744000000E-01  0.51099999109E-03 0.  1.
       22    1    1    2    0    0  0.16643089746E-01  0.22897313279E-02 -0.31542008164E-01  0.35737005818E-01  0.00000000000E+00 0.  1.
  9000001    1    1    2    0    0 -0.16643089746E-01 -0.22897313279E-02  0.31542008164E-01  0.35750994182E-01  0.10000000475E-02 0. -1.
</event>
<event>
 4   0  0.2441219E-02  0.9118800E+02  0.7818609E-02  0.1379984E+01
      -11   -1    0    0    0    0  0.00000000000E+00  0.00000000000E+00  0.35740347158E-01  0.35744000000E-01  0.51099999109E-03 0. -1.
       11   -1    0    0    0    0 -0.00000000000E+00 -0.00000000000E+00 -0.35740347158E-01  0.35744000000E-01  0.51099999109E-03 0.  1.
       22    1    1    2    0    0  0.20141142018E-01  0.22722087050E-01  0.18846080313E-01  0.35737005818E-01  0.00000000000E+00 0. -1.
  9000001    1    1    2    0    0 -0.20141142018E-01 -0.22722087050E-01 -0.18846080313E-01  0.35750994182E-01  0.10000000475E-02 0.  1.
</event>
<event>
 4   0  0.2441219E-02  0.9118800E+02  0.7818609E-02  0.1379984E+01
      -11   -1    0    0    0    0  0.00000000000E+00  0.00000000000E+00  0.35740347158E-01  0.35744000000E-01  0.51099999109E-03 0.  1.
       11   -1    0    0    0    0 -0.00000000000E+00 -0.00000000000E+00 -0.35740347158E-01  0.35744000000E-01  0.51099999109E-03 0. -1.
       22    1    1    2    0    0  0.13371142098E-01 -0.31974349471E-01  0.87170591231E-02  0.35737005818E-01  0.00000000000E+00 0.  1.
  9000001    1    1    2    0    0 -0.13371142098E-01  0.31974349471E-01 -0.87170591231E-02  0.35750994182E-01  0.10000000475E-02 0. -1.
</event>
<event>
 4   0  0.2441219E-02  0.9118800E+02  0.7818609E-02  0.1379984E+01
      -11   -1    0    0    0    0  0.00000000000E+00  0.00000000000E+00  0.35740347158E-01  0.35744000000E-01  0.51099999109E-03 0. -1.
       11   -1    0    0    0    0 -0.00000000000E+00 -0.00000000000E+00 -0.35740347158E-01  0.35744000000E-01  0.51099999109E-03 0.  1.
       22    1    1    2    0    0  0.23771760414E-01 -0.23320645296E-02  0.26581919921E-01  0.35737005818E-01  0.00000000000E+00 0. -1.
  9000001    1    1    2    0    0 -0.23771760414E-01  0.23320645296E-02 -0.26581919921E-01  0.35750994182E-01  0.10000000475E-02 0.  1.
</event>
<event>
 4   0  0.2441219E-02  0.9118800E+02  0.7818609E-02  0.1379984E+01
      -11   -1    0    0    0    0  0.00000000000E+00  0.00000000000E+00  0.35740347158E-01  0.35744000000E-01  0.51099999109E-03 0. -1.
       11   -1    0    0    0    0 -0.00000000000E+00 -0.00000000000E+00 -0.35740347158E-01  0.35744000000E-01  0.51099999109E-03 0.  1.
       22    1    1    2    0    0 -0.10848152671E-02 -0.21199436017E-01  0.28749620402E-01  0.35737005818E-01  0.00000000000E+00 0. -1.
  9000001    1    1    2    0    0  0.10848152671E-02  0.21199436017E-01 -0.28749620402E-01  0.35750994182E-01  0.10000000475E-02 0.  1.
</event>
<event>
 4   0  0.2441219E-02  0.9118800E+02  0.7818609E-02  0.1379984E+01
      -11   -1    0    0    0    0  0.00000000000E+00  0.00000000000E+00  0.35740347158E-01  0.35744000000E-01  0.51099999109E-03 0. -1.
       11   -1    0    0    0    0 -0.00000000000E+00 -0.00000000000E+00 -0.35740347158E-01  0.35744000000E-01  0.51099999109E-03 0.  1.
       22    1    1    2    0    0  0.23670939442E-02 -0.21780305075E-01  0.28233823014E-01  0.35737005818E-01  0.00000000000E+00 0. -1.
  9000001    1    1    2    0    0 -0.23670939442E-02  0.21780305075E-01 -0.28233823014E-01  0.35750994182E-01  0.10000000475E-02 0.  1.
</event>
<event>
 4   0  0.2441219E-02  0.9118800E+02  0.7818609E-02  0.1379984E+01
      -11   -1    0    0    0    0  0.00000000000E+00  0.00000000000E+00  0.35740347158E-01  0.35744000000E-01  0.51099999109E-03 0.  1.
       11   -1    0    0    0    0 -0.00000000000E+00 -0.00000000000E+00 -0.35740347158E-01  0.35744000000E-01  0.51099999109E-03 0. -1.
       22    1    1    2    0    0 -0.27991395931E-01  0.50318182259E-02 -0.21640151202E-01  0.35737005818E-01  0.00000000000E+00 0. -1.
  9000001    1    1    2    0    0  0.27991395931E-01 -0.50318182259E-02  0.21640151202E-01  0.35750994182E-01  0.10000000475E-02 0.  1.
</event>
<event>
 4   0  0.2441219E-02  0.9118800E+02  0.7818609E-02  0.1379984E+01
      -11   -1    0    0    0    0  0.00000000000E+00  0.00000000000E+00  0.35740347158E-01  0.35744000000E-01  0.51099999109E-03 0. -1.
       11   -1    0    0    0    0 -0.00000000000E+00 -0.00000000000E+00 -0.35740347158E-01  0.35744000000E-01  0.51099999109E-03 0.  1.
       22    1    1    2    0    0 -0.53254100418E-02 -0.93923423858E-03  0.35325506816E-01  0.35737005818E-01  0.00000000000E+00 0. -1.
  9000001    1    1    2    0    0  0.53254100418E-02  0.93923423858E-03 -0.35325506816E-01  0.35750994182E-01  0.10000000475E-02 0.  1.
</event>
<event>
 4   0  0.2441219E-02  0.9118800E+02  0.7818609E-02  0.1379984E+01
      -11   -1    0    0    0    0  0.00000000000E+00  0.00000000000E+00  0.35740347158E-01  0.35744000000E-01  0.51099999109E-03 0.  1.
       11   -1    0    0    0    0 -0.00000000000E+00 -0.00000000000E+00 -0.35740347158E-01  0.35744000000E-01  0.51099999109E-03 0. -1.
       22    1    1    2    0    0  0.80827110341E-02 -0.14482199078E-01 -0.31655477837E-01  0.35737005818E-01  0.00000000000E+00 0. -1.
  9000001    1    1    2    0    0 -0.80827110341E-02  0.14482199078E-01  0.31655477837E-01  0.35750994182E-01  0.10000000475E-02 0.  1.
</event>
<event>
 4   0  0.2441219E-02  0.9118800E+02  0.7818609E-02  0.1379984E+01
      -11   -1    0    0    0    0  0.00000000000E+00  0.00000000000E+00  0.35740347158E-01  0.35744000000E-01  0.51099999109E-03 0.  1.
       11   -1    0    0    0    0 -0.00000000000E+00 -0.00000000000E+00 -0.35740347158E-01  0.35744000000E-01  0.51099999109E-03 0. -1.
       22    1    1    2    0    0 -0.18360872989E-01  0.13025004889E-01  0.27755381020E-01  0.35737005818E-01  0.00000000000E+00 0.  1.
  9000001    1    1    2    0    0  0.18360872989E-01 -0.13025004889E-01 -0.27755381020E-01  0.35750994182E-01  0.10000000475E-02 0. -1.
</event>
<event>
 4   0  0.2441219E-02  0.9118800E+02  0.7818609E-02  0.1379984E+01
      -11   -1    0    0    0    0  0.00000000000E+00  0.00000000000E+00  0.35740347158E-01  0.35744000000E-01  0.51099999109E-03 0.  1.
       11   -1    0    0    0    0 -0.00000000000E+00 -0.00000000000E+00 -0.35740347158E-01  0.35744000000E-01  0.51099999109E-03 0. -1.
       22    1    1    2    0    0 -0.59037494811E-02  0.93061161705E-03  0.35233695363E-01  0.35737005818E-01  0.00000000000E+00 0.  1.
  9000001    1    1    2    0    0  0.59037494811E-02 -0.93061161705E-03 -0.35233695363E-01  0.35750994182E-01  0.10000000475E-02 0. -1.
</event>
<event>
 4   0  0.2441219E-02  0.9118800E+02  0.7818609E-02  0.1379984E+01
      -11   -1    0    0    0    0  0.00000000000E+00  0.00000000000E+00  0.35740347158E-01  0.35744000000E-01  0.51099999109E-03 0.  1.
       11   -1    0    0    0    0 -0.00000000000E+00 -0.00000000000E+00 -0.35740347158E-01  0.35744000000E-01  0.51099999109E-03 0. -1.
       22    1    1    2    0    0  0.53999385197E-03 -0.36408449521E-02 -0.35546958232E-01  0.35737005818E-01  0.00000000000E+00 0. -1.
  9000001    1    1    2    0    0 -0.53999385197E-03  0.36408449521E-02  0.35546958232E-01  0.35750994182E-01  0.10000000475E-02 0.  1.
</event>
<event>
 4   0  0.2441219E-02  0.9118800E+02  0.7818609E-02  0.1379984E+01
      -11   -1    0    0    0    0  0.00000000000E+00  0.00000000000E+00  0.35740347158E-01  0.35744000000E-01  0.51099999109E-03 0. -1.
       11   -1    0    0    0    0 -0.00000000000E+00 -0.00000000000E+00 -0.35740347158E-01  0.35744000000E-01  0.51099999109E-03 0.  1.
       22    1    1    2    0    0 -0.81398262590E-02  0.18680561734E-01  0.29358362125E-01  0.35737005818E-01  0.00000000000E+00 0. -1.
  9000001    1    1    2    0    0  0.81398262590E-02 -0.18680561734E-01 -0.29358362125E-01  0.35750994182E-01  0.10000000475E-02 0.  1.
</event>
<event>
 4   0  0.2441219E-02  0.9118800E+02  0.7818609E-02  0.1379984E+01
      -11   -1    0    0    0    0  0.00000000000E+00  0.00000000000E+00  0.35740347158E-01  0.35744000000E-01  0.51099999109E-03 0.  1.
       11   -1    0    0    0    0 -0.00000000000E+00 -0.00000000000E+00 -0.35740347158E-01  0.35744000000E-01  0.51099999109E-03 0. -1.
       22    1    1    2    0    0 -0.47103856061E-03 -0.26415096504E-01  0.24065626612E-01  0.35737005818E-01  0.00000000000E+00 0.  1.
  9000001    1    1    2    0    0  0.47103856061E-03  0.26415096504E-01 -0.24065626612E-01  0.35750994182E-01  0.10000000475E-02 0. -1.
</event>
<event>
 4   0  0.2441219E-02  0.9118800E+02  0.7818609E-02  0.1379984E+01
      -11   -1    0    0    0    0  0.00000000000E+00  0.00000000000E+00  0.35740347158E-01  0.35744000000E-01  0.51099999109E-03 0.  1.
       11   -1    0    0    0    0 -0.00000000000E+00 -0.00000000000E+00 -0.35740347158E-01  0.35744000000E-01  0.51099999109E-03 0. -1.
       22    1    1    2    0    0  0.31967077835E-02 -0.49334085455E-02  0.35250193253E-01  0.35737005818E-01  0.00000000000E+00 0.  1.
  9000001    1    1    2    0    0 -0.31967077835E-02  0.49334085455E-02 -0.35250193253E-01  0.35750994182E-01  0.10000000475E-02 0. -1.
</event>
<event>
 4   0  0.2441219E-02  0.9118800E+02  0.7818609E-02  0.1379984E+01
      -11   -1    0    0    0    0  0.00000000000E+00  0.00000000000E+00  0.35740347158E-01  0.35744000000E-01  0.51099999109E-03 0. -1.
       11   -1    0    0    0    0 -0.00000000000E+00 -0.00000000000E+00 -0.35740347158E-01  0.35744000000E-01  0.51099999109E-03 0.  1.
       22    1    1    2    0    0 -0.23673060738E-01  0.16589431098E-01 -0.21012152579E-01  0.35737005818E-01  0.00000000000E+00 0.  1.
  9000001    1    1    2    0    0  0.23673060738E-01 -0.16589431098E-01  0.21012152579E-01  0.35750994182E-01  0.10000000475E-02 0. -1.
</event>
<event>
 4   0  0.2441219E-02  0.9118800E+02  0.7818609E-02  0.1379984E+01
      -11   -1    0    0    0    0  0.00000000000E+00  0.00000000000E+00  0.35740347158E-01  0.35744000000E-01  0.51099999109E-03 0.  1.
       11   -1    0    0    0    0 -0.00000000000E+00 -0.00000000000E+00 -0.35740347158E-01  0.35744000000E-01  0.51099999109E-03 0. -1.
       22    1    1    2    0    0 -0.44079156814E-02 -0.77083735642E-02  0.34616251114E-01  0.35737005818E-01  0.00000000000E+00 0.  1.
  9000001    1    1    2    0    0  0.44079156814E-02  0.77083735642E-02 -0.34616251114E-01  0.35750994182E-01  0.10000000475E-02 0. -1.
</event>
<event>
 4   0  0.2441219E-02  0.9118800E+02  0.7818609E-02  0.1379984E+01
      -11   -1    0    0    0    0  0.00000000000E+00  0.00000000000E+00  0.35740347158E-01  0.35744000000E-01  0.51099999109E-03 0.  1.
       11   -1    0    0    0    0 -0.00000000000E+00 -0.00000000000E+00 -0.35740347158E-01  0.35744000000E-01  0.51099999109E-03 0. -1.
       22    1    1    2    0    0  0.39165671983E-02 -0.13745107801E-01  0.32754634753E-01  0.35737005818E-01  0.00000000000E+00 0.  1.
  9000001    1    1    2    0    0 -0.39165671983E-02  0.13745107801E-01 -0.32754634753E-01  0.35750994182E-01  0.10000000475E-02 0. -1.
</event>
<event>
 4   0  0.2441219E-02  0.9118800E+02  0.7818609E-02  0.1379984E+01
      -11   -1    0    0    0    0  0.00000000000E+00  0.00000000000E+00  0.35740347158E-01  0.35744000000E-01  0.51099999109E-03 0. -1.
       11   -1    0    0    0    0 -0.00000000000E+00 -0.00000000000E+00 -0.35740347158E-01  0.35744000000E-01  0.51099999109E-03 0.  1.
       22    1    1    2    0    0  0.78103608104E-02 -0.76880599877E-04 -0.34872997265E-01  0.35737005818E-01  0.00000000000E+00 0.  1.
  9000001    1    1    2    0    0 -0.78103608104E-02  0.76880599877E-04  0.34872997265E-01  0.35750994182E-01  0.10000000475E-02 0. -1.
</event>
<event>
 4   0  0.2441219E-02  0.9118800E+02  0.7818609E-02  0.1379984E+01
      -11   -1    0    0    0    0  0.00000000000E+00  0.00000000000E+00  0.35740347158E-01  0.35744000000E-01  0.51099999109E-03 0. -1.
       11   -1    0    0    0    0 -0.00000000000E+00 -0.00000000000E+00 -0.35740347158E-01  0.35744000000E-01  0.51099999109E-03 0.  1.
       22    1    1    2    0    0 -0.23721033712E-01  0.80513639993E-02 -0.25487677067E-01  0.35737005818E-01  0.00000000000E+00 0.  1.
  9000001    1    1    2    0    0  0.23721033712E-01 -0.80513639993E-02  0.25487677067E-01  0.35750994182E-01  0.10000000475E-02 0. -1.
</event>
<event>
 4   0  0.2441219E-02  0.9118800E+02  0.7818609E-02  0.1379984E+01
      -11   -1    0    0    0    0  0.00000000000E+00  0.00000000000E+00  0.35740347158E-01  0.35744000000E-01  0.51099999109E-03 0. -1.
       11   -1    0    0    0    0 -0.00000000000E+00 -0.00000000000E+00 -0.35740347158E-01  0.35744000000E-01  0.51099999109E-03 0.  1.
       22    1    1    2    0    0  0.35157578711E-02 -0.52596991057E-02 -0.35172554596E-01  0.35737005818E-01  0.00000000000E+00 0.  1.
  9000001    1    1    2    0    0 -0.35157578711E-02  0.52596991057E-02  0.35172554596E-01  0.35750994182E-01  0.10000000475E-02 0. -1.
</event>
<event>
 4   0  0.2441219E-02  0.9118800E+02  0.7818609E-02  0.1379984E+01
      -11   -1    0    0    0    0  0.00000000000E+00  0.00000000000E+00  0.35740347158E-01  0.35744000000E-01  0.51099999109E-03 0.  1.
       11   -1    0    0    0    0 -0.00000000000E+00 -0.00000000000E+00 -0.35740347158E-01  0.35744000000E-01  0.51099999109E-03 0. -1.
       22    1    1    2    0    0  0.79642484033E-02  0.55509967024E-02 -0.34393179089E-01  0.35737005818E-01  0.00000000000E+00 0. -1.
  9000001    1    1    2    0    0 -0.79642484033E-02 -0.55509967024E-02  0.34393179089E-01  0.35750994182E-01  0.10000000475E-02 0.  1.
</event>
<event>
 4   0  0.2441219E-02  0.9118800E+02  0.7818609E-02  0.1379984E+01
      -11   -1    0    0    0    0  0.00000000000E+00  0.00000000000E+00  0.35740347158E-01  0.35744000000E-01  0.51099999109E-03 0.  1.
       11   -1    0    0    0    0 -0.00000000000E+00 -0.00000000000E+00 -0.35740347158E-01  0.35744000000E-01  0.51099999109E-03 0. -1.
       22    1    1    2    0    0 -0.11562893013E-01  0.29492358066E-02  0.33685829338E-01  0.35737005818E-01  0.00000000000E+00 0.  1.
  9000001    1    1    2    0    0  0.11562893013E-01 -0.29492358066E-02 -0.33685829338E-01  0.35750994182E-01  0.10000000475E-02 0. -1.
</event>
<event>
 4   0  0.2441219E-02  0.9118800E+02  0.7818609E-02  0.1379984E+01
      -11   -1    0    0    0    0  0.00000000000E+00  0.00000000000E+00  0.35740347158E-01  0.35744000000E-01  0.51099999109E-03 0.  1.
       11   -1    0    0    0    0 -0.00000000000E+00 -0.00000000000E+00 -0.35740347158E-01  0.35744000000E-01  0.51099999109E-03 0. -1.
       22    1    1    2    0    0  0.74015460413E-02  0.11404602230E-01 -0.33049746581E-01  0.35737005818E-01  0.00000000000E+00 0. -1.
  9000001    1    1    2    0    0 -0.74015460413E-02 -0.11404602230E-01  0.33049746581E-01  0.35750994182E-01  0.10000000475E-02 0.  1.
</event>
<event>
 4   0  0.2441219E-02  0.9118800E+02  0.7818609E-02  0.1379984E+01
      -11   -1    0    0    0    0  0.00000000000E+00  0.00000000000E+00  0.35740347158E-01  0.35744000000E-01  0.51099999109E-03 0.  1.
       11   -1    0    0    0    0 -0.00000000000E+00 -0.00000000000E+00 -0.35740347158E-01  0.35744000000E-01  0.51099999109E-03 0. -1.
       22    1    1    2    0    0 -0.88770287590E-03  0.40750127314E-02 -0.35492813917E-01  0.35737005818E-01  0.00000000000E+00 0. -1.
  9000001    1    1    2    0    0  0.88770287590E-03 -0.40750127314E-02  0.35492813917E-01  0.35750994182E-01  0.10000000475E-02 0.  1.
</event>
<event>
 4   0  0.2441219E-02  0.9118800E+02  0.7818609E-02  0.1379984E+01
      -11   -1    0    0    0    0  0.00000000000E+00  0.00000000000E+00  0.35740347158E-01  0.35744000000E-01  0.51099999109E-03 0.  1.
       11   -1    0    0    0    0 -0.00000000000E+00 -0.00000000000E+00 -0.35740347158E-01  0.35744000000E-01  0.51099999109E-03 0. -1.
       22    1    1    2    0    0  0.10738728268E-01 -0.19540406201E-02 -0.34029325960E-01  0.35737005818E-01  0.00000000000E+00 0. -1.
  9000001    1    1    2    0    0 -0.10738728268E-01  0.19540406201E-02  0.34029325960E-01  0.35750994182E-01  0.10000000475E-02 0.  1.
</event>
<event>
 4   0  0.2441219E-02  0.9118800E+02  0.7818609E-02  0.1379984E+01
      -11   -1    0    0    0    0  0.00000000000E+00  0.00000000000E+00  0.35740347158E-01  0.35744000000E-01  0.51099999109E-03 0.  1.
       11   -1    0    0    0    0 -0.00000000000E+00 -0.00000000000E+00 -0.35740347158E-01  0.35744000000E-01  0.51099999109E-03 0. -1.
       22    1    1    2    0    0 -0.36203803451E-02 -0.86200680373E-03  0.35542697918E-01  0.35737005818E-01  0.00000000000E+00 0.  1.
  9000001    1    1    2    0    0  0.36203803451E-02  0.86200680373E-03 -0.35542697918E-01  0.35750994182E-01  0.10000000475E-02 0. -1.
</event>
<event>
 4   0  0.2441219E-02  0.9118800E+02  0.7818609E-02  0.1379984E+01
      -11   -1    0    0    0    0  0.00000000000E+00  0.00000000000E+00  0.35740347158E-01  0.35744000000E-01  0.51099999109E-03 0.  1.
       11   -1    0    0    0    0 -0.00000000000E+00 -0.00000000000E+00 -0.35740347158E-01  0.35744000000E-01  0.51099999109E-03 0. -1.
       22    1    1    2    0    0 -0.29470778839E-02  0.14273100675E-02  0.35586670296E-01  0.35737005818E-01  0.00000000000E+00 0.  1.
  9000001    1    1    2    0    0  0.29470778839E-02 -0.14273100675E-02 -0.35586670296E-01  0.35750994182E-01  0.10000000475E-02 0. -1.
</event>
<event>
 4   0  0.2441219E-02  0.9118800E+02  0.7818609E-02  0.1379984E+01
      -11   -1    0    0    0    0  0.00000000000E+00  0.00000000000E+00  0.35740347158E-01  0.35744000000E-01  0.51099999109E-03 0.  1.
       11   -1    0    0    0    0 -0.00000000000E+00 -0.00000000000E+00 -0.35740347158E-01  0.35744000000E-01  0.51099999109E-03 0. -1.
       22    1    1    2    0    0  0.11406321475E-01 -0.20514000640E-01 -0.26948194615E-01  0.35737005818E-01  0.00000000000E+00 0. -1.
  9000001    1    1    2    0    0 -0.11406321475E-01  0.20514000640E-01  0.26948194615E-01  0.35750994182E-01  0.10000000475E-02 0.  1.
</event>
<event>
 4   0  0.2441219E-02  0.9118800E+02  0.7818609E-02  0.1379984E+01
      -11   -1    0    0    0    0  0.00000000000E+00  0.00000000000E+00  0.35740347158E-01  0.35744000000E-01  0.51099999109E-03 0.  1.
       11   -1    0    0    0    0 -0.00000000000E+00 -0.00000000000E+00 -0.35740347158E-01  0.35744000000E-01  0.51099999109E-03 0. -1.
       22    1    1    2    0    0  0.10692522290E-01  0.72377595554E-02 -0.33322940875E-01  0.35737005818E-01  0.00000000000E+00 0. -1.
  9000001    1    1    2    0    0 -0.10692522290E-01 -0.72377595554E-02  0.33322940875E-01  0.35750994182E-01  0.10000000475E-02 0.  1.
</event>
<event>
 4   0  0.2441219E-02  0.9118800E+02  0.7818609E-02  0.1379984E+01
      -11   -1    0    0    0    0  0.00000000000E+00  0.00000000000E+00  0.35740347158E-01  0.35744000000E-01  0.51099999109E-03 0. -1.
       11   -1    0    0    0    0 -0.00000000000E+00 -0.00000000000E+00 -0.35740347158E-01  0.35744000000E-01  0.51099999109E-03 0.  1.
       22    1    1    2    0    0  0.16782523314E-01  0.13879452288E-02  0.31520693269E-01  0.35737005818E-01  0.00000000000E+00 0. -1.
  9000001    1    1    2    0    0 -0.16782523314E-01 -0.13879452288E-02 -0.31520693269E-01  0.35750994182E-01  0.10000000475E-02 0.  1.
</event>
<event>
 4   0  0.2441219E-02  0.9118800E+02  0.7818609E-02  0.1379984E+01
      -11   -1    0    0    0    0  0.00000000000E+00  0.00000000000E+00  0.35740347158E-01  0.35744000000E-01  0.51099999109E-03 0. -1.
       11   -1    0    0    0    0 -0.00000000000E+00 -0.00000000000E+00 -0.35740347158E-01  0.35744000000E-01  0.51099999109E-03 0.  1.
       22    1    1    2    0    0  0.46767538561E-02 -0.38742911970E-02  0.35217203551E-01  0.35737005818E-01  0.00000000000E+00 0. -1.
  9000001    1    1    2    0    0 -0.46767538561E-02  0.38742911970E-02 -0.35217203551E-01  0.35750994182E-01  0.10000000475E-02 0.  1.
</event>
<event>
 4   0  0.2441219E-02  0.9118800E+02  0.7818609E-02  0.1379984E+01
      -11   -1    0    0    0    0  0.00000000000E+00  0.00000000000E+00  0.35740347158E-01  0.35744000000E-01  0.51099999109E-03 0.  1.
       11   -1    0    0    0    0 -0.00000000000E+00 -0.00000000000E+00 -0.35740347158E-01  0.35744000000E-01  0.51099999109E-03 0. -1.
       22    1    1    2    0    0 -0.74997463350E-02  0.20978283440E-01  0.27942781066E-01  0.35737005818E-01  0.00000000000E+00 0.  1.
  9000001    1    1    2    0    0  0.74997463350E-02 -0.20978283440E-01 -0.27942781066E-01  0.35750994182E-01  0.10000000475E-02 0. -1.
</event>
<event>
 4   0  0.2441219E-02  0.9118800E+02  0.7818609E-02  0.1379984E+01
      -11   -1    0    0    0    0  0.00000000000E+00  0.00000000000E+00  0.35740347158E-01  0.35744000000E-01  0.51099999109E-03 0.  1.
       11   -1    0    0    0    0 -0.00000000000E+00 -0.00000000000E+00 -0.35740347158E-01  0.35744000000E-01  0.51099999109E-03 0. -1.
       22    1    1    2    0    0 -0.28907284253E-01  0.46203441017E-02  0.20497680903E-01  0.35737005818E-01  0.00000000000E+00 0.  1.
  9000001    1    1    2    0    0  0.28907284253E-01 -0.46203441017E-02 -0.20497680903E-01  0.35750994182E-01  0.10000000475E-02 0. -1.
</event>
<event>
 4   0  0.2441219E-02  0.9118800E+02  0.7818609E-02  0.1379984E+01
      -11   -1    0    0    0    0  0.00000000000E+00  0.00000000000E+00  0.35740347158E-01  0.35744000000E-01  0.51099999109E-03 0. -1.
       11   -1    0    0    0    0 -0.00000000000E+00 -0.00000000000E+00 -0.35740347158E-01  0.35744000000E-01  0.51099999109E-03 0.  1.
       22    1    1    2    0    0  0.52950779317E-02  0.17762962434E-02 -0.35297882461E-01  0.35737005818E-01  0.00000000000E+00 0.  1.
  9000001    1    1    2    0    0 -0.52950779317E-02 -0.17762962434E-02  0.35297882461E-01  0.35750994182E-01  0.10000000475E-02 0. -1.
</event>
<event>
 4   0  0.2441219E-02  0.9118800E+02  0.7818609E-02  0.1379984E+01
      -11   -1    0    0    0    0  0.00000000000E+00  0.00000000000E+00  0.35740347158E-01  0.35744000000E-01  0.51099999109E-03 0.  1.
       11   -1    0    0    0    0 -0.00000000000E+00 -0.00000000000E+00 -0.35740347158E-01  0.35744000000E-01  0.51099999109E-03 0. -1.
       22    1    1    2    0    0  0.37799935274E-02  0.21473675313E-02 -0.35471594925E-01  0.35737005818E-01  0.00000000000E+00 0. -1.
  9000001    1    1    2    0    0 -0.37799935274E-02 -0.21473675313E-02  0.35471594925E-01  0.35750994182E-01  0.10000000475E-02 0.  1.
</event>
<event>
 4   0  0.2441219E-02  0.9118800E+02  0.7818609E-02  0.1379984E+01
      -11   -1    0    0    0    0  0.00000000000E+00  0.00000000000E+00  0.35740347158E-01  0.35744000000E-01  0.51099999109E-03 0.  1.
       11   -1    0    0    0    0 -0.00000000000E+00 -0.00000000000E+00 -0.35740347158E-01  0.35744000000E-01  0.51099999109E-03 0. -1.
       22    1    1    2    0    0  0.35476307787E-01  0.16465457239E-02  0.39817154392E-02  0.35737005818E-01  0.00000000000E+00 0.  1.
  9000001    1    1    2    0    0 -0.35476307787E-01 -0.16465457239E-02 -0.39817154392E-02  0.35750994182E-01  0.10000000475E-02 0. -1.
</event>
<event>
 4   0  0.2441219E-02  0.9118800E+02  0.7818609E-02  0.1379984E+01
      -11   -1    0    0    0    0  0.00000000000E+00  0.00000000000E+00  0.35740347158E-01  0.35744000000E-01  0.51099999109E-03 0. -1.
       11   -1    0    0    0    0 -0.00000000000E+00 -0.00000000000E+00 -0.35740347158E-01  0.35744000000E-01  0.51099999109E-03 0.  1.
       22    1    1    2    0    0  0.24238726256E-01  0.11869356157E-01  0.23425117263E-01  0.35737005818E-01  0.00000000000E+00 0. -1.
  9000001    1    1    2    0    0 -0.24238726256E-01 -0.11869356157E-01 -0.23425117263E-01  0.35750994182E-01  0.10000000475E-02 0.  1.
</event>
<event>
 4   0  0.2441219E-02  0.9118800E+02  0.7818609E-02  0.1379984E+01
      -11   -1    0    0    0    0  0.00000000000E+00  0.00000000000E+00  0.35740347158E-01  0.35744000000E-01  0.51099999109E-03 0.  1.
       11   -1    0    0    0    0 -0.00000000000E+00 -0.00000000000E+00 -0.35740347158E-01  0.35744000000E-01  0.51099999109E-03 0. -1.
       22    1    1    2    0    0  0.89696496429E-02 -0.45639567831E-02 -0.34290658621E-01  0.35737005818E-01  0.00000000000E+00 0. -1.
  9000001    1    1    2    0    0 -0.89696496429E-02  0.45639567831E-02  0.34290658621E-01  0.35750994182E-01  0.10000000475E-02 0.  1.
</event>
<event>
 4   0  0.2441219E-02  0.9118800E+02  0.7818609E-02  0.1379984E+01
      -11   -1    0    0    0    0  0.00000000000E+00  0.00000000000E+00  0.35740347158E-01  0.35744000000E-01  0.51099999109E-03 0.  1.
       11   -1    0    0    0    0 -0.00000000000E+00 -0.00000000000E+00 -0.35740347158E-01  0.35744000000E-01  0.51099999109E-03 0. -1.
       22    1    1    2    0    0 -0.21850984980E-02 -0.24054187568E-02 -0.35588943368E-01  0.35737005818E-01  0.00000000000E+00 0. -1.
  9000001    1    1    2    0    0  0.21850984980E-02  0.24054187568E-02  0.35588943368E-01  0.35750994182E-01  0.10000000475E-02 0.  1.
</event>
<event>
 4   0  0.2441219E-02  0.9118800E+02  0.7818609E-02  0.1379984E+01
      -11   -1    0    0    0    0  0.00000000000E+00  0.00000000000E+00  0.35740347158E-01  0.35744000000E-01  0.51099999109E-03 0.  1.
       11   -1    0    0    0    0 -0.00000000000E+00 -0.00000000000E+00 -0.35740347158E-01  0.35744000000E-01  0.51099999109E-03 0. -1.
       22    1    1    2    0    0 -0.21521117559E-02  0.26732009119E-02 -0.35571842752E-01  0.35737005818E-01  0.00000000000E+00 0. -1.
  9000001    1    1    2    0    0  0.21521117559E-02 -0.26732009119E-02  0.35571842752E-01  0.35750994182E-01  0.10000000475E-02 0.  1.
</event>
<event>
 4   0  0.2441219E-02  0.9118800E+02  0.7818609E-02  0.1379984E+01
      -11   -1    0    0    0    0  0.00000000000E+00  0.00000000000E+00  0.35740347158E-01  0.35744000000E-01  0.51099999109E-03 0.  1.
       11   -1    0    0    0    0 -0.00000000000E+00 -0.00000000000E+00 -0.35740347158E-01  0.35744000000E-01  0.51099999109E-03 0. -1.
       22    1    1    2    0    0  0.41307613871E-02  0.32063639521E-02  0.35352363789E-01  0.35737005818E-01  0.00000000000E+00 0.  1.
  9000001    1    1    2    0    0 -0.41307613871E-02 -0.32063639521E-02 -0.35352363789E-01  0.35750994182E-01  0.10000000475E-02 0. -1.
</event>
<event>
 4   0  0.2441219E-02  0.9118800E+02  0.7818609E-02  0.1379984E+01
      -11   -1    0    0    0    0  0.00000000000E+00  0.00000000000E+00  0.35740347158E-01  0.35744000000E-01  0.51099999109E-03 0. -1.
       11   -1    0    0    0    0 -0.00000000000E+00 -0.00000000000E+00 -0.35740347158E-01  0.35744000000E-01  0.51099999109E-03 0.  1.
       22    1    1    2    0    0  0.23892373061E-03 -0.37585105179E-02  0.35538009216E-01  0.35737005818E-01  0.00000000000E+00 0. -1.
  9000001    1    1    2    0    0 -0.23892373061E-03  0.37585105179E-02 -0.35538009216E-01  0.35750994182E-01  0.10000000475E-02 0.  1.
</event>
<event>
 4   0  0.2441219E-02  0.9118800E+02  0.7818609E-02  0.1379984E+01
      -11   -1    0    0    0    0  0.00000000000E+00  0.00000000000E+00  0.35740347158E-01  0.35744000000E-01  0.51099999109E-03 0. -1.
       11   -1    0    0    0    0 -0.00000000000E+00 -0.00000000000E+00 -0.35740347158E-01  0.35744000000E-01  0.51099999109E-03 0.  1.
       22    1    1    2    0    0 -0.34710221662E-01  0.39056497618E-02 -0.75551305093E-02  0.35737005818E-01  0.00000000000E+00 0. -1.
  9000001    1    1    2    0    0  0.34710221662E-01 -0.39056497618E-02  0.75551305093E-02  0.35750994182E-01  0.10000000475E-02 0.  1.
</event>
<event>
 4   0  0.2441219E-02  0.9118800E+02  0.7818609E-02  0.1379984E+01
      -11   -1    0    0    0    0  0.00000000000E+00  0.00000000000E+00  0.35740347158E-01  0.35744000000E-01  0.51099999109E-03 0. -1.
       11   -1    0    0    0    0 -0.00000000000E+00 -0.00000000000E+00 -0.35740347158E-01  0.35744000000E-01  0.51099999109E-03 0.  1.
       22    1    1    2    0    0 -0.72644416334E-02  0.73406803075E-02  0.34212218362E-01  0.35737005818E-01  0.00000000000E+00 0. -1.
  9000001    1    1    2    0    0  0.72644416334E-02 -0.73406803075E-02 -0.34212218362E-01  0.35750994182E-01  0.10000000475E-02 0.  1.
</event>
<event>
 4   0  0.2441219E-02  0.9118800E+02  0.7818609E-02  0.1379984E+01
      -11   -1    0    0    0    0  0.00000000000E+00  0.00000000000E+00  0.35740347158E-01  0.35744000000E-01  0.51099999109E-03 0. -1.
       11   -1    0    0    0    0 -0.00000000000E+00 -0.00000000000E+00 -0.35740347158E-01  0.35744000000E-01  0.51099999109E-03 0.  1.
       22    1    1    2    0    0  0.33904274838E-02  0.25652534341E-03 -0.35574889755E-01  0.35737005818E-01  0.00000000000E+00 0.  1.
  9000001    1    1    2    0    0 -0.33904274838E-02 -0.25652534341E-03  0.35574889755E-01  0.35750994182E-01  0.10000000475E-02 0. -1.
</event>
<event>
 4   0  0.2441219E-02  0.9118800E+02  0.7818609E-02  0.1379984E+01
      -11   -1    0    0    0    0  0.00000000000E+00  0.00000000000E+00  0.35740347158E-01  0.35744000000E-01  0.51099999109E-03 0. -1.
       11   -1    0    0    0    0 -0.00000000000E+00 -0.00000000000E+00 -0.35740347158E-01  0.35744000000E-01  0.51099999109E-03 0.  1.
       22    1    1    2    0    0 -0.35715955452E-01 -0.12230264692E-02  0.91198991235E-04  0.35737005818E-01  0.00000000000E+00 0.  1.
  9000001    1    1    2    0    0  0.35715955452E-01  0.12230264692E-02 -0.91198991235E-04  0.35750994182E-01  0.10000000475E-02 0. -1.
</event>
<event>
 4   0  0.2441219E-02  0.9118800E+02  0.7818609E-02  0.1379984E+01
      -11   -1    0    0    0    0  0.00000000000E+00  0.00000000000E+00  0.35740347158E-01  0.35744000000E-01  0.51099999109E-03 0. -1.
       11   -1    0    0    0    0 -0.00000000000E+00 -0.00000000000E+00 -0.35740347158E-01  0.35744000000E-01  0.51099999109E-03 0.  1.
       22    1    1    2    0    0  0.20172625705E-02  0.53635450227E-02 -0.35274588890E-01  0.35737005818E-01  0.00000000000E+00 0.  1.
  9000001    1    1    2    0    0 -0.20172625705E-02 -0.53635450227E-02  0.35274588890E-01  0.35750994182E-01  0.10000000475E-02 0. -1.
</event>
<event>
 4   0  0.2441219E-02  0.9118800E+02  0.7818609E-02  0.1379984E+01
      -11   -1    0    0    0    0  0.00000000000E+00  0.00000000000E+00  0.35740347158E-01  0.35744000000E-01  0.51099999109E-03 0.  1.
       11   -1    0    0    0    0 -0.00000000000E+00 -0.00000000000E+00 -0.35740347158E-01  0.35744000000E-01  0.51099999109E-03 0. -1.
       22    1    1    2    0    0 -0.12991814838E-01  0.75420837105E-03  0.33283291632E-01  0.35737005818E-01  0.00000000000E+00 0.  1.
  9000001    1    1    2    0    0  0.12991814838E-01 -0.75420837105E-03 -0.33283291632E-01  0.35750994182E-01  0.10000000475E-02 0. -1.
</event>
<event>
 4   0  0.2441219E-02  0.9118800E+02  0.7818609E-02  0.1379984E+01
      -11   -1    0    0    0    0  0.00000000000E+00  0.00000000000E+00  0.35740347158E-01  0.35744000000E-01  0.51099999109E-03 0. -1.
       11   -1    0    0    0    0 -0.00000000000E+00 -0.00000000000E+00 -0.35740347158E-01  0.35744000000E-01  0.51099999109E-03 0.  1.
       22    1    1    2    0    0  0.57961154170E-02 -0.71644902238E-02  0.34528375444E-01  0.35737005818E-01  0.00000000000E+00 0. -1.
  9000001    1    1    2    0    0 -0.57961154170E-02  0.71644902238E-02 -0.34528375444E-01  0.35750994182E-01  0.10000000475E-02 0.  1.
</event>
<event>
 4   0  0.2441219E-02  0.9118800E+02  0.7818609E-02  0.1379984E+01
      -11   -1    0    0    0    0  0.00000000000E+00  0.00000000000E+00  0.35740347158E-01  0.35744000000E-01  0.51099999109E-03 0. -1.
       11   -1    0    0    0    0 -0.00000000000E+00 -0.00000000000E+00 -0.35740347158E-01  0.35744000000E-01  0.51099999109E-03 0.  1.
       22    1    1    2    0    0 -0.82746461599E-02  0.53578607976E-02 -0.34350504268E-01  0.35737005818E-01  0.00000000000E+00 0.  1.
  9000001    1    1    2    0    0  0.82746461599E-02 -0.53578607976E-02  0.34350504268E-01  0.35750994182E-01  0.10000000475E-02 0. -1.
</event>
<event>
 4   0  0.2441219E-02  0.9118800E+02  0.7818609E-02  0.1379984E+01
      -11   -1    0    0    0    0  0.00000000000E+00  0.00000000000E+00  0.35740347158E-01  0.35744000000E-01  0.51099999109E-03 0. -1.
       11   -1    0    0    0    0 -0.00000000000E+00 -0.00000000000E+00 -0.35740347158E-01  0.35744000000E-01  0.51099999109E-03 0.  1.
       22    1    1    2    0    0  0.16686206027E-01 -0.20132245583E-01 -0.24359737295E-01  0.35737005818E-01  0.00000000000E+00 0. -1.
  9000001    1    1    2    0    0 -0.16686206027E-01  0.20132245583E-01  0.24359737295E-01  0.35750994182E-01  0.10000000475E-02 0.  1.
</event>
<event>
 4   0  0.2441219E-02  0.9118800E+02  0.7818609E-02  0.1379984E+01
      -11   -1    0    0    0    0  0.00000000000E+00  0.00000000000E+00  0.35740347158E-01  0.35744000000E-01  0.51099999109E-03 0. -1.
       11   -1    0    0    0    0 -0.00000000000E+00 -0.00000000000E+00 -0.35740347158E-01  0.35744000000E-01  0.51099999109E-03 0.  1.
       22    1    1    2    0    0  0.55710174074E-02 -0.15995206726E-01  0.31468249264E-01  0.35737005818E-01  0.00000000000E+00 0. -1.
  9000001    1    1    2    0    0 -0.55710174074E-02  0.15995206726E-01 -0.31468249264E-01  0.35750994182E-01  0.10000000475E-02 0.  1.
</event>
<event>
 4   0  0.2441219E-02  0.9118800E+02  0.7818609E-02  0.1379984E+01
      -11   -1    0    0    0    0  0.00000000000E+00  0.00000000000E+00  0.35740347158E-01  0.35744000000E-01  0.51099999109E-03 0. -1.
       11   -1    0    0    0    0 -0.00000000000E+00 -0.00000000000E+00 -0.35740347158E-01  0.35744000000E-01  0.51099999109E-03 0.  1.
       22    1    1    2    0    0  0.50384581223E-02 -0.81081814643E-02  0.34438422118E-01  0.35737005818E-01  0.00000000000E+00 0. -1.
  9000001    1    1    2    0    0 -0.50384581223E-02  0.81081814643E-02 -0.34438422118E-01  0.35750994182E-01  0.10000000475E-02 0.  1.
</event>
<event>
 4   0  0.2441219E-02  0.9118800E+02  0.7818609E-02  0.1379984E+01
      -11   -1    0    0    0    0  0.00000000000E+00  0.00000000000E+00  0.35740347158E-01  0.35744000000E-01  0.51099999109E-03 0. -1.
       11   -1    0    0    0    0 -0.00000000000E+00 -0.00000000000E+00 -0.35740347158E-01  0.35744000000E-01  0.51099999109E-03 0.  1.
       22    1    1    2    0    0  0.12423450698E-01 -0.69927181860E-02 -0.32770312022E-01  0.35737005818E-01  0.00000000000E+00 0.  1.
  9000001    1    1    2    0    0 -0.12423450698E-01  0.69927181860E-02  0.32770312022E-01  0.35750994182E-01  0.10000000475E-02 0. -1.
</event>
<event>
 4   0  0.2441219E-02  0.9118800E+02  0.7818609E-02  0.1379984E+01
      -11   -1    0    0    0    0  0.00000000000E+00  0.00000000000E+00  0.35740347158E-01  0.35744000000E-01  0.51099999109E-03 0.  1.
       11   -1    0    0    0    0 -0.00000000000E+00 -0.00000000000E+00 -0.35740347158E-01  0.35744000000E-01  0.51099999109E-03 0. -1.
       22    1    1    2    0    0  0.11902190997E-01 -0.17173648547E-01 -0.28992020108E-01  0.35737005818E-01  0.00000000000E+00 0. -1.
  9000001    1    1    2    0    0 -0.11902190997E-01  0.17173648547E-01  0.28992020108E-01  0.35750994182E-01  0.10000000475E-02 0.  1.
</event>
<event>
 4   0  0.2441219E-02  0.9118800E+02  0.7818609E-02  0.1379984E+01
      -11   -1    0    0    0    0  0.00000000000E+00  0.00000000000E+00  0.35740347158E-01  0.35744000000E-01  0.51099999109E-03 0.  1.
       11   -1    0    0    0    0 -0.00000000000E+00 -0.00000000000E+00 -0.35740347158E-01  0.35744000000E-01  0.51099999109E-03 0. -1.
       22    1    1    2    0    0  0.34297431898E-01  0.77607136013E-02 -0.63711124995E-02  0.35737005818E-01  0.00000000000E+00 0.  1.
  9000001    1    1    2    0    0 -0.34297431898E-01 -0.77607136013E-02  0.63711124995E-02  0.35750994182E-01  0.10000000475E-02 0. -1.
</event>
<event>
 4   0  0.2441219E-02  0.9118800E+02  0.7818609E-02  0.1379984E+01
      -11   -1    0    0    0    0  0.00000000000E+00  0.00000000000E+00  0.35740347158E-01  0.35744000000E-01  0.51099999109E-03 0. -1.
       11   -1    0    0    0    0 -0.00000000000E+00 -0.00000000000E+00 -0.35740347158E-01  0.35744000000E-01  0.51099999109E-03 0.  1.
       22    1    1    2    0    0  0.58949467711E-04  0.58886069297E-02  0.35248466892E-01  0.35737005818E-01  0.00000000000E+00 0. -1.
  9000001    1    1    2    0    0 -0.58949467711E-04 -0.58886069297E-02 -0.35248466892E-01  0.35750994182E-01  0.10000000475E-02 0.  1.
</event>
<event>
 4   0  0.2441219E-02  0.9118800E+02  0.7818609E-02  0.1379984E+01
      -11   -1    0    0    0    0  0.00000000000E+00  0.00000000000E+00  0.35740347158E-01  0.35744000000E-01  0.51099999109E-03 0.  1.
       11   -1    0    0    0    0 -0.00000000000E+00 -0.00000000000E+00 -0.35740347158E-01  0.35744000000E-01  0.51099999109E-03 0. -1.
       22    1    1    2    0    0 -0.25390008207E-02  0.16173181485E-02 -0.35609989353E-01  0.35737005818E-01  0.00000000000E+00 0. -1.
  9000001    1    1    2    0    0  0.25390008207E-02 -0.16173181485E-02  0.35609989353E-01  0.35750994182E-01  0.10000000475E-02 0.  1.
</event>
<event>
 4   0  0.2441219E-02  0.9118800E+02  0.7818609E-02  0.1379984E+01
      -11   -1    0    0    0    0  0.00000000000E+00  0.00000000000E+00  0.35740347158E-01  0.35744000000E-01  0.51099999109E-03 0. -1.
       11   -1    0    0    0    0 -0.00000000000E+00 -0.00000000000E+00 -0.35740347158E-01  0.35744000000E-01  0.51099999109E-03 0.  1.
       22    1    1    2    0    0 -0.66748713940E-02 -0.15958413585E-01 -0.31271531983E-01  0.35737005818E-01  0.00000000000E+00 0.  1.
  9000001    1    1    2    0    0  0.66748713940E-02  0.15958413585E-01  0.31271531983E-01  0.35750994182E-01  0.10000000475E-02 0. -1.
</event>
<event>
 4   0  0.2441219E-02  0.9118800E+02  0.7818609E-02  0.1379984E+01
      -11   -1    0    0    0    0  0.00000000000E+00  0.00000000000E+00  0.35740347158E-01  0.35744000000E-01  0.51099999109E-03 0.  1.
       11   -1    0    0    0    0 -0.00000000000E+00 -0.00000000000E+00 -0.35740347158E-01  0.35744000000E-01  0.51099999109E-03 0. -1.
       22    1    1    2    0    0 -0.16616548092E-01 -0.26725721858E-02  0.31525882577E-01  0.35737005818E-01  0.00000000000E+00 0.  1.
  9000001    1    1    2    0    0  0.16616548092E-01  0.26725721858E-02 -0.31525882577E-01  0.35750994182E-01  0.10000000475E-02 0. -1.
</event>
<event>
 4   0  0.2441219E-02  0.9118800E+02  0.7818609E-02  0.1379984E+01
      -11   -1    0    0    0    0  0.00000000000E+00  0.00000000000E+00  0.35740347158E-01  0.35744000000E-01  0.51099999109E-03 0.  1.
       11   -1    0    0    0    0 -0.00000000000E+00 -0.00000000000E+00 -0.35740347158E-01  0.35744000000E-01  0.51099999109E-03 0. -1.
       22    1    1    2    0    0 -0.16539085719E-01  0.19554382226E-01 -0.24924252530E-01  0.35737005818E-01  0.00000000000E+00 0. -1.
  9000001    1    1    2    0    0  0.16539085719E-01 -0.19554382226E-01  0.24924252530E-01  0.35750994182E-01  0.10000000475E-02 0.  1.
</event>
<event>
 4   0  0.2441219E-02  0.9118800E+02  0.7818609E-02  0.1379984E+01
      -11   -1    0    0    0    0  0.00000000000E+00  0.00000000000E+00  0.35740347158E-01  0.35744000000E-01  0.51099999109E-03 0. -1.
       11   -1    0    0    0    0 -0.00000000000E+00 -0.00000000000E+00 -0.35740347158E-01  0.35744000000E-01  0.51099999109E-03 0.  1.
       22    1    1    2    0    0  0.28550422300E-01  0.82475148866E-02 -0.19849067222E-01  0.35737005818E-01  0.00000000000E+00 0.  1.
  9000001    1    1    2    0    0 -0.28550422300E-01 -0.82475148866E-02  0.19849067222E-01  0.35750994182E-01  0.10000000475E-02 0. -1.
</event>
<event>
 4   0  0.2441219E-02  0.9118800E+02  0.7818609E-02  0.1379984E+01
      -11   -1    0    0    0    0  0.00000000000E+00  0.00000000000E+00  0.35740347158E-01  0.35744000000E-01  0.51099999109E-03 0. -1.
       11   -1    0    0    0    0 -0.00000000000E+00 -0.00000000000E+00 -0.35740347158E-01  0.35744000000E-01  0.51099999109E-03 0.  1.
       22    1    1    2    0    0  0.29802234587E-02  0.19435789980E-02 -0.35559448163E-01  0.35737005818E-01  0.00000000000E+00 0.  1.
  9000001    1    1    2    0    0 -0.29802234587E-02 -0.19435789980E-02  0.35559448163E-01  0.35750994182E-01  0.10000000475E-02 0. -1.
</event>
<event>
 4   0  0.2441219E-02  0.9118800E+02  0.7818609E-02  0.1379984E+01
      -11   -1    0    0    0    0  0.00000000000E+00  0.00000000000E+00  0.35740347158E-01  0.35744000000E-01  0.51099999109E-03 0. -1.
       11   -1    0    0    0    0 -0.00000000000E+00 -0.00000000000E+00 -0.35740347158E-01  0.35744000000E-01  0.51099999109E-03 0.  1.
       22    1    1    2    0    0 -0.25838353530E-01  0.21505202988E-01  0.12125976917E-01  0.35737005818E-01  0.00000000000E+00 0. -1.
  9000001    1    1    2    0    0  0.25838353530E-01 -0.21505202988E-01 -0.12125976917E-01  0.35750994182E-01  0.10000000475E-02 0.  1.
</event>
<event>
 4   0  0.2441219E-02  0.9118800E+02  0.7818609E-02  0.1379984E+01
      -11   -1    0    0    0    0  0.00000000000E+00  0.00000000000E+00  0.35740347158E-01  0.35744000000E-01  0.51099999109E-03 0.  1.
       11   -1    0    0    0    0 -0.00000000000E+00 -0.00000000000E+00 -0.35740347158E-01  0.35744000000E-01  0.51099999109E-03 0. -1.
       22    1    1    2    0    0 -0.37881718899E-02 -0.51562424365E-02  0.35159586211E-01  0.35737005818E-01  0.00000000000E+00 0.  1.
  9000001    1    1    2    0    0  0.37881718899E-02  0.51562424365E-02 -0.35159586211E-01  0.35750994182E-01  0.10000000475E-02 0. -1.
</event>
<event>
 4   0  0.2441219E-02  0.9118800E+02  0.7818609E-02  0.1379984E+01
      -11   -1    0    0    0    0  0.00000000000E+00  0.00000000000E+00  0.35740347158E-01  0.35744000000E-01  0.51099999109E-03 0. -1.
       11   -1    0    0    0    0 -0.00000000000E+00 -0.00000000000E+00 -0.35740347158E-01  0.35744000000E-01  0.51099999109E-03 0.  1.
       22    1    1    2    0    0  0.44541747135E-02  0.13761932786E-01 -0.32678786980E-01  0.35737005818E-01  0.00000000000E+00 0.  1.
  9000001    1    1    2    0    0 -0.44541747135E-02 -0.13761932786E-01  0.32678786980E-01  0.35750994182E-01  0.10000000475E-02 0. -1.
</event>
<event>
 4   0  0.2441219E-02  0.9118800E+02  0.7818609E-02  0.1379984E+01
      -11   -1    0    0    0    0  0.00000000000E+00  0.00000000000E+00  0.35740347158E-01  0.35744000000E-01  0.51099999109E-03 0. -1.
       11   -1    0    0    0    0 -0.00000000000E+00 -0.00000000000E+00 -0.35740347158E-01  0.35744000000E-01  0.51099999109E-03 0.  1.
       22    1    1    2    0    0 -0.24805352534E-02 -0.24868138606E-02  0.35563974561E-01  0.35737005818E-01  0.00000000000E+00 0. -1.
  9000001    1    1    2    0    0  0.24805352534E-02  0.24868138606E-02 -0.35563974561E-01  0.35750994182E-01  0.10000000475E-02 0.  1.
</event>
<event>
 4   0  0.2441219E-02  0.9118800E+02  0.7818609E-02  0.1379984E+01
      -11   -1    0    0    0    0  0.00000000000E+00  0.00000000000E+00  0.35740347158E-01  0.35744000000E-01  0.51099999109E-03 0. -1.
       11   -1    0    0    0    0 -0.00000000000E+00 -0.00000000000E+00 -0.35740347158E-01  0.35744000000E-01  0.51099999109E-03 0.  1.
       22    1    1    2    0    0 -0.32315626656E-02 -0.95347956854E-02  0.34289623195E-01  0.35737005818E-01  0.00000000000E+00 0. -1.
  9000001    1    1    2    0    0  0.32315626656E-02  0.95347956854E-02 -0.34289623195E-01  0.35750994182E-01  0.10000000475E-02 0.  1.
</event>
<event>
 4   0  0.2441219E-02  0.9118800E+02  0.7818609E-02  0.1379984E+01
      -11   -1    0    0    0    0  0.00000000000E+00  0.00000000000E+00  0.35740347158E-01  0.35744000000E-01  0.51099999109E-03 0. -1.
       11   -1    0    0    0    0 -0.00000000000E+00 -0.00000000000E+00 -0.35740347158E-01  0.35744000000E-01  0.51099999109E-03 0.  1.
       22    1    1    2    0    0  0.36850120669E-02  0.79041349138E-02  0.34656585553E-01  0.35737005818E-01  0.00000000000E+00 0. -1.
  9000001    1    1    2    0    0 -0.36850120669E-02 -0.79041349138E-02 -0.34656585553E-01  0.35750994182E-01  0.10000000475E-02 0.  1.
</event>
<event>
 4   0  0.2441219E-02  0.9118800E+02  0.7818609E-02  0.1379984E+01
      -11   -1    0    0    0    0  0.00000000000E+00  0.00000000000E+00  0.35740347158E-01  0.35744000000E-01  0.51099999109E-03 0.  1.
       11   -1    0    0    0    0 -0.00000000000E+00 -0.00000000000E+00 -0.35740347158E-01  0.35744000000E-01  0.51099999109E-03 0. -1.
       22    1    1    2    0    0  0.34864067602E-01  0.74530542967E-02  0.24662434480E-02  0.35737005818E-01  0.00000000000E+00 0. -1.
  9000001    1    1    2    0    0 -0.34864067602E-01 -0.74530542967E-02 -0.24662434480E-02  0.35750994182E-01  0.10000000475E-02 0.  1.
</event>
<event>
 4   0  0.2441219E-02  0.9118800E+02  0.7818609E-02  0.1379984E+01
      -11   -1    0    0    0    0  0.00000000000E+00  0.00000000000E+00  0.35740347158E-01  0.35744000000E-01  0.51099999109E-03 0. -1.
       11   -1    0    0    0    0 -0.00000000000E+00 -0.00000000000E+00 -0.35740347158E-01  0.35744000000E-01  0.51099999109E-03 0.  1.
       22    1    1    2    0    0  0.54709573520E-02  0.10525124255E-02  0.35300062721E-01  0.35737005818E-01  0.00000000000E+00 0. -1.
  9000001    1    1    2    0    0 -0.54709573520E-02 -0.10525124255E-02 -0.35300062721E-01  0.35750994182E-01  0.10000000475E-02 0.  1.
</event>
<event>
 4   0  0.2441219E-02  0.9118800E+02  0.7818609E-02  0.1379984E+01
      -11   -1    0    0    0    0  0.00000000000E+00  0.00000000000E+00  0.35740347158E-01  0.35744000000E-01  0.51099999109E-03 0.  1.
       11   -1    0    0    0    0 -0.00000000000E+00 -0.00000000000E+00 -0.35740347158E-01  0.35744000000E-01  0.51099999109E-03 0. -1.
       22    1    1    2    0    0 -0.26596920376E-02 -0.89547158795E-02 -0.34494531257E-01  0.35737005818E-01  0.00000000000E+00 0. -1.
  9000001    1    1    2    0    0  0.26596920376E-02  0.89547158795E-02  0.34494531257E-01  0.35750994182E-01  0.10000000475E-02 0.  1.
</event>
<event>
 4   0  0.2441219E-02  0.9118800E+02  0.7818609E-02  0.1379984E+01
      -11   -1    0    0    0    0  0.00000000000E+00  0.00000000000E+00  0.35740347158E-01  0.35744000000E-01  0.51099999109E-03 0. -1.
       11   -1    0    0    0    0 -0.00000000000E+00 -0.00000000000E+00 -0.35740347158E-01  0.35744000000E-01  0.51099999109E-03 0.  1.
       22    1    1    2    0    0  0.54175332967E-02 -0.29228871248E-02 -0.35202850008E-01  0.35737005818E-01  0.00000000000E+00 0.  1.
  9000001    1    1    2    0    0 -0.54175332967E-02  0.29228871248E-02  0.35202850008E-01  0.35750994182E-01  0.10000000475E-02 0. -1.
</event>
<event>
 4   0  0.2441219E-02  0.9118800E+02  0.7818609E-02  0.1379984E+01
      -11   -1    0    0    0    0  0.00000000000E+00  0.00000000000E+00  0.35740347158E-01  0.35744000000E-01  0.51099999109E-03 0. -1.
       11   -1    0    0    0    0 -0.00000000000E+00 -0.00000000000E+00 -0.35740347158E-01  0.35744000000E-01  0.51099999109E-03 0.  1.
       22    1    1    2    0    0 -0.30635091619E-02 -0.40914495011E-02  0.35369599057E-01  0.35737005818E-01  0.00000000000E+00 0. -1.
  9000001    1    1    2    0    0  0.30635091619E-02  0.40914495011E-02 -0.35369599057E-01  0.35750994182E-01  0.10000000475E-02 0.  1.
</event>
<event>
 4   0  0.2441219E-02  0.9118800E+02  0.7818609E-02  0.1379984E+01
      -11   -1    0    0    0    0  0.00000000000E+00  0.00000000000E+00  0.35740347158E-01  0.35744000000E-01  0.51099999109E-03 0.  1.
       11   -1    0    0    0    0 -0.00000000000E+00 -0.00000000000E+00 -0.35740347158E-01  0.35744000000E-01  0.51099999109E-03 0. -1.
       22    1    1    2    0    0 -0.98460612774E-02  0.21795654494E-01  0.26554436680E-01  0.35737005818E-01  0.00000000000E+00 0.  1.
  9000001    1    1    2    0    0  0.98460612774E-02 -0.21795654494E-01 -0.26554436680E-01  0.35750994182E-01  0.10000000475E-02 0. -1.
</event>
<event>
 4   0  0.2441219E-02  0.9118800E+02  0.7818609E-02  0.1379984E+01
      -11   -1    0    0    0    0  0.00000000000E+00  0.00000000000E+00  0.35740347158E-01  0.35744000000E-01  0.51099999109E-03 0.  1.
       11   -1    0    0    0    0 -0.00000000000E+00 -0.00000000000E+00 -0.35740347158E-01  0.35744000000E-01  0.51099999109E-03 0. -1.
       22    1    1    2    0    0  0.42667361640E-02  0.21066574336E-02  0.35418787978E-01  0.35737005818E-01  0.00000000000E+00 0.  1.
  9000001    1    1    2    0    0 -0.42667361640E-02 -0.21066574336E-02 -0.35418787978E-01  0.35750994182E-01  0.10000000475E-02 0. -1.
</event>
<event>
 4   0  0.2441219E-02  0.9118800E+02  0.7818609E-02  0.1379984E+01
      -11   -1    0    0    0    0  0.00000000000E+00  0.00000000000E+00  0.35740347158E-01  0.35744000000E-01  0.51099999109E-03 0. -1.
       11   -1    0    0    0    0 -0.00000000000E+00 -0.00000000000E+00 -0.35740347158E-01  0.35744000000E-01  0.51099999109E-03 0.  1.
       22    1    1    2    0    0  0.35855673002E-02  0.29280730928E-02  0.35435909470E-01  0.35737005818E-01  0.00000000000E+00 0. -1.
  9000001    1    1    2    0    0 -0.35855673002E-02 -0.29280730928E-02 -0.35435909470E-01  0.35750994182E-01  0.10000000475E-02 0.  1.
</event>
<event>
 4   0  0.2441219E-02  0.9118800E+02  0.7818609E-02  0.1379984E+01
      -11   -1    0    0    0    0  0.00000000000E+00  0.00000000000E+00  0.35740347158E-01  0.35744000000E-01  0.51099999109E-03 0. -1.
       11   -1    0    0    0    0 -0.00000000000E+00 -0.00000000000E+00 -0.35740347158E-01  0.35744000000E-01  0.51099999109E-03 0.  1.
       22    1    1    2    0    0  0.20053157866E-02  0.24459999290E-02 -0.35596760777E-01  0.35737005818E-01  0.00000000000E+00 0.  1.
  9000001    1    1    2    0    0 -0.20053157866E-02 -0.24459999290E-02  0.35596760777E-01  0.35750994182E-01  0.10000000475E-02 0. -1.
</event>
<event>
 4   0  0.2441219E-02  0.9118800E+02  0.7818609E-02  0.1379984E+01
      -11   -1    0    0    0    0  0.00000000000E+00  0.00000000000E+00  0.35740347158E-01  0.35744000000E-01  0.51099999109E-03 0.  1.
       11   -1    0    0    0    0 -0.00000000000E+00 -0.00000000000E+00 -0.35740347158E-01  0.35744000000E-01  0.51099999109E-03 0. -1.
       22    1    1    2    0    0 -0.74139759334E-02  0.26198256043E-01  0.23147741273E-01  0.35737005818E-01  0.00000000000E+00 0.  1.
  9000001    1    1    2    0    0  0.74139759334E-02 -0.26198256043E-01 -0.23147741273E-01  0.35750994182E-01  0.10000000475E-02 0. -1.
</event>
<event>
 4   0  0.2441219E-02  0.9118800E+02  0.7818609E-02  0.1379984E+01
      -11   -1    0    0    0    0  0.00000000000E+00  0.00000000000E+00  0.35740347158E-01  0.35744000000E-01  0.51099999109E-03 0. -1.
       11   -1    0    0    0    0 -0.00000000000E+00 -0.00000000000E+00 -0.35740347158E-01  0.35744000000E-01  0.51099999109E-03 0.  1.
       22    1    1    2    0    0  0.11799479074E-01 -0.13496276460E-01 -0.30915310126E-01  0.35737005818E-01  0.00000000000E+00 0.  1.
  9000001    1    1    2    0    0 -0.11799479074E-01  0.13496276460E-01  0.30915310126E-01  0.35750994182E-01  0.10000000475E-02 0. -1.
</event>
<event>
 4   0  0.2441219E-02  0.9118800E+02  0.7818609E-02  0.1379984E+01
      -11   -1    0    0    0    0  0.00000000000E+00  0.00000000000E+00  0.35740347158E-01  0.35744000000E-01  0.51099999109E-03 0.  1.
       11   -1    0    0    0    0 -0.00000000000E+00 -0.00000000000E+00 -0.35740347158E-01  0.35744000000E-01  0.51099999109E-03 0. -1.
       22    1    1    2    0    0  0.27983910858E-04 -0.24106210045E-01 -0.26382256140E-01  0.35737005818E-01  0.00000000000E+00 0. -1.
  9000001    1    1    2    0    0 -0.27983910858E-04  0.24106210045E-01  0.26382256140E-01  0.35750994182E-01  0.10000000475E-02 0.  1.
</event>
<event>
 4   0  0.2441219E-02  0.9118800E+02  0.7818609E-02  0.1379984E+01
      -11   -1    0    0    0    0  0.00000000000E+00  0.00000000000E+00  0.35740347158E-01  0.35744000000E-01  0.51099999109E-03 0. -1.
       11   -1    0    0    0    0 -0.00000000000E+00 -0.00000000000E+00 -0.35740347158E-01  0.35744000000E-01  0.51099999109E-03 0.  1.
       22    1    1    2    0    0 -0.92642696304E-02 -0.19506720863E-01 -0.28474457576E-01  0.35737005818E-01  0.00000000000E+00 0.  1.
  9000001    1    1    2    0    0  0.92642696304E-02  0.19506720863E-01  0.28474457576E-01  0.35750994182E-01  0.10000000475E-02 0. -1.
</event>
<event>
 4   0  0.2441219E-02  0.9118800E+02  0.7818609E-02  0.1379984E+01
      -11   -1    0    0    0    0  0.00000000000E+00  0.00000000000E+00  0.35740347158E-01  0.35744000000E-01  0.51099999109E-03 0.  1.
       11   -1    0    0    0    0 -0.00000000000E+00 -0.00000000000E+00 -0.35740347158E-01  0.35744000000E-01  0.51099999109E-03 0. -1.
       22    1    1    2    0    0  0.19027114955E-02  0.40111418572E-02  0.35460175054E-01  0.35737005818E-01  0.00000000000E+00 0.  1.
  9000001    1    1    2    0    0 -0.19027114955E-02 -0.40111418572E-02 -0.35460175054E-01  0.35750994182E-01  0.10000000475E-02 0. -1.
</event>
<event>
 4   0  0.2441219E-02  0.9118800E+02  0.7818609E-02  0.1379984E+01
      -11   -1    0    0    0    0  0.00000000000E+00  0.00000000000E+00  0.35740347158E-01  0.35744000000E-01  0.51099999109E-03 0.  1.
       11   -1    0    0    0    0 -0.00000000000E+00 -0.00000000000E+00 -0.35740347158E-01  0.35744000000E-01  0.51099999109E-03 0. -1.
       22    1    1    2    0    0  0.12362017427E-01 -0.32552539004E-02 -0.33372405248E-01  0.35737005818E-01  0.00000000000E+00 0. -1.
  9000001    1    1    2    0    0 -0.12362017427E-01  0.32552539004E-02  0.33372405248E-01  0.35750994182E-01  0.10000000475E-02 0.  1.
</event>
<event>
 4   0  0.2441219E-02  0.9118800E+02  0.7818609E-02  0.1379984E+01
      -11   -1    0    0    0    0  0.00000000000E+00  0.00000000000E+00  0.35740347158E-01  0.35744000000E-01  0.51099999109E-03 0.  1.
       11   -1    0    0    0    0 -0.00000000000E+00 -0.00000000000E+00 -0.35740347158E-01  0.35744000000E-01  0.51099999109E-03 0. -1.
       22    1    1    2    0    0  0.18209565473E-02 -0.76573724924E-02 -0.34859465696E-01  0.35737005818E-01  0.00000000000E+00 0. -1.
  9000001    1    1    2    0    0 -0.18209565473E-02  0.76573724924E-02  0.34859465696E-01  0.35750994182E-01  0.10000000475E-02 0.  1.
</event>
<event>
 4   0  0.2441219E-02  0.9118800E+02  0.7818609E-02  0.1379984E+01
      -11   -1    0    0    0    0  0.00000000000E+00  0.00000000000E+00  0.35740347158E-01  0.35744000000E-01  0.51099999109E-03 0.  1.
       11   -1    0    0    0    0 -0.00000000000E+00 -0.00000000000E+00 -0.35740347158E-01  0.35744000000E-01  0.51099999109E-03 0. -1.
       22    1    1    2    0    0 -0.37850839472E-02 -0.64809650688E-03 -0.35530081555E-01  0.35737005818E-01  0.00000000000E+00 0. -1.
  9000001    1    1    2    0    0  0.37850839472E-02  0.64809650688E-03  0.35530081555E-01  0.35750994182E-01  0.10000000475E-02 0.  1.
</event>
<event>
 4   0  0.2441219E-02  0.9118800E+02  0.7818609E-02  0.1379984E+01
      -11   -1    0    0    0    0  0.00000000000E+00  0.00000000000E+00  0.35740347158E-01  0.35744000000E-01  0.51099999109E-03 0.  1.
       11   -1    0    0    0    0 -0.00000000000E+00 -0.00000000000E+00 -0.35740347158E-01  0.35744000000E-01  0.51099999109E-03 0. -1.
       22    1    1    2    0    0 -0.12460587062E-01  0.96335990133E-02 -0.32078982605E-01  0.35737005818E-01  0.00000000000E+00 0. -1.
  9000001    1    1    2    0    0  0.12460587062E-01 -0.96335990133E-02  0.32078982605E-01  0.35750994182E-01  0.10000000475E-02 0.  1.
</event>
<event>
 4   0  0.2441219E-02  0.9118800E+02  0.7818609E-02  0.1379984E+01
      -11   -1    0    0    0    0  0.00000000000E+00  0.00000000000E+00  0.35740347158E-01  0.35744000000E-01  0.51099999109E-03 0. -1.
       11   -1    0    0    0    0 -0.00000000000E+00 -0.00000000000E+00 -0.35740347158E-01  0.35744000000E-01  0.51099999109E-03 0.  1.
       22    1    1    2    0    0  0.34432142248E-02  0.26117469514E-03  0.35569785612E-01  0.35737005818E-01  0.00000000000E+00 0. -1.
  9000001    1    1    2    0    0 -0.34432142248E-02 -0.26117469514E-03 -0.35569785612E-01  0.35750994182E-01  0.10000000475E-02 0.  1.
</event>
<event>
 4   0  0.2441219E-02  0.9118800E+02  0.7818609E-02  0.1379984E+01
      -11   -1    0    0    0    0  0.00000000000E+00  0.00000000000E+00  0.35740347158E-01  0.35744000000E-01  0.51099999109E-03 0.  1.
       11   -1    0    0    0    0 -0.00000000000E+00 -0.00000000000E+00 -0.35740347158E-01  0.35744000000E-01  0.51099999109E-03 0. -1.
       22    1    1    2    0    0 -0.12746311238E-01 -0.16467138778E-01  0.29043045212E-01  0.35737005818E-01  0.00000000000E+00 0.  1.
  9000001    1    1    2    0    0  0.12746311238E-01  0.16467138778E-01 -0.29043045212E-01  0.35750994182E-01  0.10000000475E-02 0. -1.
</event>
<event>
 4   0  0.2441219E-02  0.9118800E+02  0.7818609E-02  0.1379984E+01
      -11   -1    0    0    0    0  0.00000000000E+00  0.00000000000E+00  0.35740347158E-01  0.35744000000E-01  0.51099999109E-03 0.  1.
       11   -1    0    0    0    0 -0.00000000000E+00 -0.00000000000E+00 -0.35740347158E-01  0.35744000000E-01  0.51099999109E-03 0. -1.
       22    1    1    2    0    0  0.29556282108E-01 -0.17139810233E-02 -0.20015545006E-01  0.35737005818E-01  0.00000000000E+00 0. -1.
  9000001    1    1    2    0    0 -0.29556282108E-01  0.17139810233E-02  0.20015545006E-01  0.35750994182E-01  0.10000000475E-02 0.  1.
</event>
<event>
 4   0  0.2441219E-02  0.9118800E+02  0.7818609E-02  0.1379984E+01
      -11   -1    0    0    0    0  0.00000000000E+00  0.00000000000E+00  0.35740347158E-01  0.35744000000E-01  0.51099999109E-03 0.  1.
       11   -1    0    0    0    0 -0.00000000000E+00 -0.00000000000E+00 -0.35740347158E-01  0.35744000000E-01  0.51099999109E-03 0. -1.
       22    1    1    2    0    0 -0.29269092831E-02  0.54179414994E-02  0.35202452994E-01  0.35737005818E-01  0.00000000000E+00 0.  1.
  9000001    1    1    2    0    0  0.29269092831E-02 -0.54179414994E-02 -0.35202452994E-01  0.35750994182E-01  0.10000000475E-02 0. -1.
</event>
<event>
 4   0  0.2441219E-02  0.9118800E+02  0.7818609E-02  0.1379984E+01
      -11   -1    0    0    0    0  0.00000000000E+00  0.00000000000E+00  0.35740347158E-01  0.35744000000E-01  0.51099999109E-03 0. -1.
       11   -1    0    0    0    0 -0.00000000000E+00 -0.00000000000E+00 -0.35740347158E-01  0.35744000000E-01  0.51099999109E-03 0.  1.
       22    1    1    2    0    0 -0.19216687226E-01 -0.15178591977E-01 -0.26028116769E-01  0.35737005818E-01  0.00000000000E+00 0.  1.
  9000001    1    1    2    0    0  0.19216687226E-01  0.15178591977E-01  0.26028116769E-01  0.35750994182E-01  0.10000000475E-02 0. -1.
</event>
<event>
 4   0  0.2441219E-02  0.9118800E+02  0.7818609E-02  0.1379984E+01
      -11   -1    0    0    0    0  0.00000000000E+00  0.00000000000E+00  0.35740347158E-01  0.35744000000E-01  0.51099999109E-03 0. -1.
       11   -1    0    0    0    0 -0.00000000000E+00 -0.00000000000E+00 -0.35740347158E-01  0.35744000000E-01  0.51099999109E-03 0.  1.
       22    1    1    2    0    0 -0.34625264967E-02  0.20386110766E-02  0.35510400730E-01  0.35737005818E-01  0.00000000000E+00 0. -1.
  9000001    1    1    2    0    0  0.34625264967E-02 -0.20386110766E-02 -0.35510400730E-01  0.35750994182E-01  0.10000000475E-02 0.  1.
</event>
<event>
 4   0  0.2441219E-02  0.9118800E+02  0.7818609E-02  0.1379984E+01
      -11   -1    0    0    0    0  0.00000000000E+00  0.00000000000E+00  0.35740347158E-01  0.35744000000E-01  0.51099999109E-03 0. -1.
       11   -1    0    0    0    0 -0.00000000000E+00 -0.00000000000E+00 -0.35740347158E-01  0.35744000000E-01  0.51099999109E-03 0.  1.
       22    1    1    2    0    0  0.43168321571E-02 -0.39731783253E-02 -0.35252126163E-01  0.35737005818E-01  0.00000000000E+00 0.  1.
  9000001    1    1    2    0    0 -0.43168321571E-02  0.39731783253E-02  0.35252126163E-01  0.35750994182E-01  0.10000000475E-02 0. -1.
</event>
<event>
 4   0  0.2441219E-02  0.9118800E+02  0.7818609E-02  0.1379984E+01
      -11   -1    0    0    0    0  0.00000000000E+00  0.00000000000E+00  0.35740347158E-01  0.35744000000E-01  0.51099999109E-03 0.  1.
       11   -1    0    0    0    0 -0.00000000000E+00 -0.00000000000E+00 -0.35740347158E-01  0.35744000000E-01  0.51099999109E-03 0. -1.
       22    1    1    2    0    0  0.50195677229E-02  0.22449021703E-03 -0.35382017027E-01  0.35737005818E-01  0.00000000000E+00 0. -1.
  9000001    1    1    2    0    0 -0.50195677229E-02 -0.22449021703E-03  0.35382017027E-01  0.35750994182E-01  0.10000000475E-02 0.  1.
</event>
<event>
 4   0  0.2441219E-02  0.9118800E+02  0.7818609E-02  0.1379984E+01
      -11   -1    0    0    0    0  0.00000000000E+00  0.00000000000E+00  0.35740347158E-01  0.35744000000E-01  0.51099999109E-03 0.  1.
       11   -1    0    0    0    0 -0.00000000000E+00 -0.00000000000E+00 -0.35740347158E-01  0.35744000000E-01  0.51099999109E-03 0. -1.
       22    1    1    2    0    0 -0.10231510360E-01  0.79943648176E-02 -0.33294743005E-01  0.35737005818E-01  0.00000000000E+00 0. -1.
  9000001    1    1    2    0    0  0.10231510360E-01 -0.79943648176E-02  0.33294743005E-01  0.35750994182E-01  0.10000000475E-02 0.  1.
</event>
<event>
 4   0  0.2441219E-02  0.9118800E+02  0.7818609E-02  0.1379984E+01
      -11   -1    0    0    0    0  0.00000000000E+00  0.00000000000E+00  0.35740347158E-01  0.35744000000E-01  0.51099999109E-03 0. -1.
       11   -1    0    0    0    0 -0.00000000000E+00 -0.00000000000E+00 -0.35740347158E-01  0.35744000000E-01  0.51099999109E-03 0.  1.
       22    1    1    2    0    0  0.36014164622E-02  0.44287462503E-02 -0.35278174428E-01  0.35737005818E-01  0.00000000000E+00 0.  1.
  9000001    1    1    2    0    0 -0.36014164622E-02 -0.44287462503E-02  0.35278174428E-01  0.35750994182E-01  0.10000000475E-02 0. -1.
</event>
<event>
 4   0  0.2441219E-02  0.9118800E+02  0.7818609E-02  0.1379984E+01
      -11   -1    0    0    0    0  0.00000000000E+00  0.00000000000E+00  0.35740347158E-01  0.35744000000E-01  0.51099999109E-03 0. -1.
       11   -1    0    0    0    0 -0.00000000000E+00 -0.00000000000E+00 -0.35740347158E-01  0.35744000000E-01  0.51099999109E-03 0.  1.
       22    1    1    2    0    0 -0.26861263675E-01 -0.22321363113E-02 -0.23465371639E-01  0.35737005818E-01  0.00000000000E+00 0.  1.
  9000001    1    1    2    0    0  0.26861263675E-01  0.22321363113E-02  0.23465371639E-01  0.35750994182E-01  0.10000000475E-02 0. -1.
</event>
<event>
 4   0  0.2441219E-02  0.9118800E+02  0.7818609E-02  0.1379984E+01
      -11   -1    0    0    0    0  0.00000000000E+00  0.00000000000E+00  0.35740347158E-01  0.35744000000E-01  0.51099999109E-03 0.  1.
       11   -1    0    0    0    0 -0.00000000000E+00 -0.00000000000E+00 -0.35740347158E-01  0.35744000000E-01  0.51099999109E-03 0. -1.
       22    1    1    2    0    0  0.93620959198E-02 -0.11873250168E-01 -0.32380714558E-01  0.35737005818E-01  0.00000000000E+00 0. -1.
  9000001    1    1    2    0    0 -0.93620959198E-02  0.11873250168E-01  0.32380714558E-01  0.35750994182E-01  0.10000000475E-02 0.  1.
</event>
<event>
 4   0  0.2441219E-02  0.9118800E+02  0.7818609E-02  0.1379984E+01
      -11   -1    0    0    0    0  0.00000000000E+00  0.00000000000E+00  0.35740347158E-01  0.35744000000E-01  0.51099999109E-03 0.  1.
       11   -1    0    0    0    0 -0.00000000000E+00 -0.00000000000E+00 -0.35740347158E-01  0.35744000000E-01  0.51099999109E-03 0. -1.
       22    1    1    2    0    0 -0.89406919531E-02 -0.92893816981E-03 -0.34588071443E-01  0.35737005818E-01  0.00000000000E+00 0. -1.
  9000001    1    1    2    0    0  0.89406919531E-02  0.92893816981E-03  0.34588071443E-01  0.35750994182E-01  0.10000000475E-02 0.  1.
</event>
<event>
 4   0  0.2441219E-02  0.9118800E+02  0.7818609E-02  0.1379984E+01
      -11   -1    0    0    0    0  0.00000000000E+00  0.00000000000E+00  0.35740347158E-01  0.35744000000E-01  0.51099999109E-03 0.  1.
       11   -1    0    0    0    0 -0.00000000000E+00 -0.00000000000E+00 -0.35740347158E-01  0.35744000000E-01  0.51099999109E-03 0. -1.
       22    1    1    2    0    0 -0.52353559722E-02  0.40321264169E-03 -0.35349145001E-01  0.35737005818E-01  0.00000000000E+00 0. -1.
  9000001    1    1    2    0    0  0.52353559722E-02 -0.40321264169E-03  0.35349145001E-01  0.35750994182E-01  0.10000000475E-02 0.  1.
</event>
<event>
 4   0  0.2441219E-02  0.9118800E+02  0.7818609E-02  0.1379984E+01
      -11   -1    0    0    0    0  0.00000000000E+00  0.00000000000E+00  0.35740347158E-01  0.35744000000E-01  0.51099999109E-03 0.  1.
       11   -1    0    0    0    0 -0.00000000000E+00 -0.00000000000E+00 -0.35740347158E-01  0.35744000000E-01  0.51099999109E-03 0. -1.
       22    1    1    2    0    0 -0.19749207333E-01 -0.19967735384E-01  0.22099591359E-01  0.35737005818E-01  0.00000000000E+00 0.  1.
  9000001    1    1    2    0    0  0.19749207333E-01  0.19967735384E-01 -0.22099591359E-01  0.35750994182E-01  0.10000000475E-02 0. -1.
</event>
<event>
 4   0  0.2441219E-02  0.9118800E+02  0.7818609E-02  0.1379984E+01
      -11   -1    0    0    0    0  0.00000000000E+00  0.00000000000E+00  0.35740347158E-01  0.35744000000E-01  0.51099999109E-03 0.  1.
       11   -1    0    0    0    0 -0.00000000000E+00 -0.00000000000E+00 -0.35740347158E-01  0.35744000000E-01  0.51099999109E-03 0. -1.
       22    1    1    2    0    0  0.67819806505E-02  0.33522873627E-01 -0.10361238687E-01  0.35737005818E-01  0.00000000000E+00 0. -1.
  9000001    1    1    2    0    0 -0.67819806505E-02 -0.33522873627E-01  0.10361238687E-01  0.35750994182E-01  0.10000000475E-02 0.  1.
</event>
<event>
 4   0  0.2441219E-02  0.9118800E+02  0.7818609E-02  0.1379984E+01
      -11   -1    0    0    0    0  0.00000000000E+00  0.00000000000E+00  0.35740347158E-01  0.35744000000E-01  0.51099999109E-03 0.  1.
       11   -1    0    0    0    0 -0.00000000000E+00 -0.00000000000E+00 -0.35740347158E-01  0.35744000000E-01  0.51099999109E-03 0. -1.
       22    1    1    2    0    0  0.40188883373E-02  0.89696684252E-02 -0.34358800470E-01  0.35737005818E-01  0.00000000000E+00 0. -1.
  9000001    1    1    2    0    0 -0.40188883373E-02 -0.89696684252E-02  0.34358800470E-01  0.35750994182E-01  0.10000000475E-02 0.  1.
</event>
<event>
 4   0  0.2441219E-02  0.9118800E+02  0.7818609E-02  0.1379984E+01
      -11   -1    0    0    0    0  0.00000000000E+00  0.00000000000E+00  0.35740347158E-01  0.35744000000E-01  0.51099999109E-03 0.  1.
       11   -1    0    0    0    0 -0.00000000000E+00 -0.00000000000E+00 -0.35740347158E-01  0.35744000000E-01  0.51099999109E-03 0. -1.
       22    1    1    2    0    0  0.26654494374E-02  0.33674596562E-02  0.35478009804E-01  0.35737005818E-01  0.00000000000E+00 0.  1.
  9000001    1    1    2    0    0 -0.26654494374E-02 -0.33674596562E-02 -0.35478009804E-01  0.35750994182E-01  0.10000000475E-02 0. -1.
</event>
<event>
 4   0  0.2441219E-02  0.9118800E+02  0.7818609E-02  0.1379984E+01
      -11   -1    0    0    0    0  0.00000000000E+00  0.00000000000E+00  0.35740347158E-01  0.35744000000E-01  0.51099999109E-03 0.  1.
       11   -1    0    0    0    0 -0.00000000000E+00 -0.00000000000E+00 -0.35740347158E-01  0.35744000000E-01  0.51099999109E-03 0. -1.
       22    1    1    2    0    0  0.11098406048E-01  0.13197442398E-01 -0.31301541212E-01  0.35737005818E-01  0.00000000000E+00 0. -1.
  9000001    1    1    2    0    0 -0.11098406048E-01 -0.13197442398E-01  0.31301541212E-01  0.35750994182E-01  0.10000000475E-02 0.  1.
</event>
<event>
 4   0  0.2441219E-02  0.9118800E+02  0.7818609E-02  0.1379984E+01
      -11   -1    0    0    0    0  0.00000000000E+00  0.00000000000E+00  0.35740347158E-01  0.35744000000E-01  0.51099999109E-03 0. -1.
       11   -1    0    0    0    0 -0.00000000000E+00 -0.00000000000E+00 -0.35740347158E-01  0.35744000000E-01  0.51099999109E-03 0.  1.
       22    1    1    2    0    0 -0.30857953210E-01 -0.16732859888E-01  0.67031118549E-02  0.35737005818E-01  0.00000000000E+00 0. -1.
  9000001    1    1    2    0    0  0.30857953210E-01  0.16732859888E-01 -0.67031118549E-02  0.35750994182E-01  0.10000000475E-02 0.  1.
</event>
<event>
 4   0  0.2441219E-02  0.9118800E+02  0.7818609E-02  0.1379984E+01
      -11   -1    0    0    0    0  0.00000000000E+00  0.00000000000E+00  0.35740347158E-01  0.35744000000E-01  0.51099999109E-03 0.  1.
       11   -1    0    0    0    0 -0.00000000000E+00 -0.00000000000E+00 -0.35740347158E-01  0.35744000000E-01  0.51099999109E-03 0. -1.
       22    1    1    2    0    0 -0.32108910498E-02  0.11030587438E-03 -0.35592296865E-01  0.35737005818E-01  0.00000000000E+00 0. -1.
  9000001    1    1    2    0    0  0.32108910498E-02 -0.11030587438E-03  0.35592296865E-01  0.35750994182E-01  0.10000000475E-02 0.  1.
</event>
<event>
 4   0  0.2441219E-02  0.9118800E+02  0.7818609E-02  0.1379984E+01
      -11   -1    0    0    0    0  0.00000000000E+00  0.00000000000E+00  0.35740347158E-01  0.35744000000E-01  0.51099999109E-03 0.  1.
       11   -1    0    0    0    0 -0.00000000000E+00 -0.00000000000E+00 -0.35740347158E-01  0.35744000000E-01  0.51099999109E-03 0. -1.
       22    1    1    2    0    0  0.29947165484E-02 -0.30849458384E-02  0.35477434615E-01  0.35737005818E-01  0.00000000000E+00 0.  1.
  9000001    1    1    2    0    0 -0.29947165484E-02  0.30849458384E-02 -0.35477434615E-01  0.35750994182E-01  0.10000000475E-02 0. -1.
</event>
<event>
 4   0  0.2441219E-02  0.9118800E+02  0.7818609E-02  0.1379984E+01
      -11   -1    0    0    0    0  0.00000000000E+00  0.00000000000E+00  0.35740347158E-01  0.35744000000E-01  0.51099999109E-03 0.  1.
       11   -1    0    0    0    0 -0.00000000000E+00 -0.00000000000E+00 -0.35740347158E-01  0.35744000000E-01  0.51099999109E-03 0. -1.
       22    1    1    2    0    0 -0.19334261857E-01  0.79512866124E-02  0.28984425896E-01  0.35737005818E-01  0.00000000000E+00 0.  1.
  9000001    1    1    2    0    0  0.19334261857E-01 -0.79512866124E-02 -0.28984425896E-01  0.35750994182E-01  0.10000000475E-02 0. -1.
</event>
<event>
 4   0  0.2441219E-02  0.9118800E+02  0.7818609E-02  0.1379984E+01
      -11   -1    0    0    0    0  0.00000000000E+00  0.00000000000E+00  0.35740347158E-01  0.35744000000E-01  0.51099999109E-03 0. -1.
       11   -1    0    0    0    0 -0.00000000000E+00 -0.00000000000E+00 -0.35740347158E-01  0.35744000000E-01  0.51099999109E-03 0.  1.
       22    1    1    2    0    0 -0.37393176666E-02 -0.41137193750E-02 -0.35301960302E-01  0.35737005818E-01  0.00000000000E+00 0.  1.
  9000001    1    1    2    0    0  0.37393176666E-02  0.41137193750E-02  0.35301960302E-01  0.35750994182E-01  0.10000000475E-02 0. -1.
</event>
<event>
 4   0  0.2441219E-02  0.9118800E+02  0.7818609E-02  0.1379984E+01
      -11   -1    0    0    0    0  0.00000000000E+00  0.00000000000E+00  0.35740347158E-01  0.35744000000E-01  0.51099999109E-03 0.  1.
       11   -1    0    0    0    0 -0.00000000000E+00 -0.00000000000E+00 -0.35740347158E-01  0.35744000000E-01  0.51099999109E-03 0. -1.
       22    1    1    2    0    0  0.10629096796E-01  0.88900123958E-03 -0.34108145112E-01  0.35737005818E-01  0.00000000000E+00 0. -1.
  9000001    1    1    2    0    0 -0.10629096796E-01 -0.88900123958E-03  0.34108145112E-01  0.35750994182E-01  0.10000000475E-02 0.  1.
</event>
<event>
 4   0  0.2441219E-02  0.9118800E+02  0.7818609E-02  0.1379984E+01
      -11   -1    0    0    0    0  0.00000000000E+00  0.00000000000E+00  0.35740347158E-01  0.35744000000E-01  0.51099999109E-03 0. -1.
       11   -1    0    0    0    0 -0.00000000000E+00 -0.00000000000E+00 -0.35740347158E-01  0.35744000000E-01  0.51099999109E-03 0.  1.
       22    1    1    2    0    0 -0.67845001788E-02  0.35819866599E-03  0.35085265225E-01  0.35737005818E-01  0.00000000000E+00 0. -1.
  9000001    1    1    2    0    0  0.67845001788E-02 -0.35819866599E-03 -0.35085265225E-01  0.35750994182E-01  0.10000000475E-02 0.  1.
</event>
<event>
 4   0  0.2441219E-02  0.9118800E+02  0.7818609E-02  0.1379984E+01
      -11   -1    0    0    0    0  0.00000000000E+00  0.00000000000E+00  0.35740347158E-01  0.35744000000E-01  0.51099999109E-03 0.  1.
       11   -1    0    0    0    0 -0.00000000000E+00 -0.00000000000E+00 -0.35740347158E-01  0.35744000000E-01  0.51099999109E-03 0. -1.
       22    1    1    2    0    0  0.77533651722E-02  0.12221843891E-01 -0.32674844227E-01  0.35737005818E-01  0.00000000000E+00 0. -1.
  9000001    1    1    2    0    0 -0.77533651722E-02 -0.12221843891E-01  0.32674844227E-01  0.35750994182E-01  0.10000000475E-02 0.  1.
</event>
<event>
 4   0  0.2441219E-02  0.9118800E+02  0.7818609E-02  0.1379984E+01
      -11   -1    0    0    0    0  0.00000000000E+00  0.00000000000E+00  0.35740347158E-01  0.35744000000E-01  0.51099999109E-03 0.  1.
       11   -1    0    0    0    0 -0.00000000000E+00 -0.00000000000E+00 -0.35740347158E-01  0.35744000000E-01  0.51099999109E-03 0. -1.
       22    1    1    2    0    0  0.57030421116E-02  0.41807446206E-02  0.35030419209E-01  0.35737005818E-01  0.00000000000E+00 0.  1.
  9000001    1    1    2    0    0 -0.57030421116E-02 -0.41807446206E-02 -0.35030419209E-01  0.35750994182E-01  0.10000000475E-02 0. -1.
</event>
<event>
 4   0  0.2441219E-02  0.9118800E+02  0.7818609E-02  0.1379984E+01
      -11   -1    0    0    0    0  0.00000000000E+00  0.00000000000E+00  0.35740347158E-01  0.35744000000E-01  0.51099999109E-03 0. -1.
       11   -1    0    0    0    0 -0.00000000000E+00 -0.00000000000E+00 -0.35740347158E-01  0.35744000000E-01  0.51099999109E-03 0.  1.
       22    1    1    2    0    0  0.17491989723E-01  0.62016249299E-03 -0.31157331062E-01  0.35737005818E-01  0.00000000000E+00 0.  1.
  9000001    1    1    2    0    0 -0.17491989723E-01 -0.62016249299E-03  0.31157331062E-01  0.35750994182E-01  0.10000000475E-02 0. -1.
</event>
<event>
 4   0  0.2441219E-02  0.9118800E+02  0.7818609E-02  0.1379984E+01
      -11   -1    0    0    0    0  0.00000000000E+00  0.00000000000E+00  0.35740347158E-01  0.35744000000E-01  0.51099999109E-03 0. -1.
       11   -1    0    0    0    0 -0.00000000000E+00 -0.00000000000E+00 -0.35740347158E-01  0.35744000000E-01  0.51099999109E-03 0.  1.
       22    1    1    2    0    0  0.31693962890E-02 -0.47057868768E-03 -0.35593076121E-01  0.35737005818E-01  0.00000000000E+00 0.  1.
  9000001    1    1    2    0    0 -0.31693962890E-02  0.47057868768E-03  0.35593076121E-01  0.35750994182E-01  0.10000000475E-02 0. -1.
</event>
<event>
 4   0  0.2441219E-02  0.9118800E+02  0.7818609E-02  0.1379984E+01
      -11   -1    0    0    0    0  0.00000000000E+00  0.00000000000E+00  0.35740347158E-01  0.35744000000E-01  0.51099999109E-03 0.  1.
       11   -1    0    0    0    0 -0.00000000000E+00 -0.00000000000E+00 -0.35740347158E-01  0.35744000000E-01  0.51099999109E-03 0. -1.
       22    1    1    2    0    0 -0.70404234826E-02  0.65907282480E-02  0.34411165677E-01  0.35737005818E-01  0.00000000000E+00 0.  1.
  9000001    1    1    2    0    0  0.70404234826E-02 -0.65907282480E-02 -0.34411165677E-01  0.35750994182E-01  0.10000000475E-02 0. -1.
</event>
<event>
 4   0  0.2441219E-02  0.9118800E+02  0.7818609E-02  0.1379984E+01
      -11   -1    0    0    0    0  0.00000000000E+00  0.00000000000E+00  0.35740347158E-01  0.35744000000E-01  0.51099999109E-03 0. -1.
       11   -1    0    0    0    0 -0.00000000000E+00 -0.00000000000E+00 -0.35740347158E-01  0.35744000000E-01  0.51099999109E-03 0.  1.
       22    1    1    2    0    0 -0.92736100421E-02 -0.16307883916E-01 -0.30416881231E-01  0.35737005818E-01  0.00000000000E+00 0.  1.
  9000001    1    1    2    0    0  0.92736100421E-02  0.16307883916E-01  0.30416881231E-01  0.35750994182E-01  0.10000000475E-02 0. -1.
</event>
<event>
 4   0  0.2441219E-02  0.9118800E+02  0.7818609E-02  0.1379984E+01
      -11   -1    0    0    0    0  0.00000000000E+00  0.00000000000E+00  0.35740347158E-01  0.35744000000E-01  0.51099999109E-03 0. -1.
       11   -1    0    0    0    0 -0.00000000000E+00 -0.00000000000E+00 -0.35740347158E-01  0.35744000000E-01  0.51099999109E-03 0.  1.
       22    1    1    2    0    0 -0.36573507778E-02  0.27127918421E-01 -0.22974625401E-01  0.35737005818E-01  0.00000000000E+00 0.  1.
  9000001    1    1    2    0    0  0.36573507778E-02 -0.27127918421E-01  0.22974625401E-01  0.35750994182E-01  0.10000000475E-02 0. -1.
</event>
<event>
 4   0  0.2441219E-02  0.9118800E+02  0.7818609E-02  0.1379984E+01
      -11   -1    0    0    0    0  0.00000000000E+00  0.00000000000E+00  0.35740347158E-01  0.35744000000E-01  0.51099999109E-03 0. -1.
       11   -1    0    0    0    0 -0.00000000000E+00 -0.00000000000E+00 -0.35740347158E-01  0.35744000000E-01  0.51099999109E-03 0.  1.
       22    1    1    2    0    0 -0.59068358705E-02 -0.15747628963E-01  0.31531810239E-01  0.35737005818E-01  0.00000000000E+00 0. -1.
  9000001    1    1    2    0    0  0.59068358705E-02  0.15747628963E-01 -0.31531810239E-01  0.35750994182E-01  0.10000000475E-02 0.  1.
</event>
<event>
 4   0  0.2441219E-02  0.9118800E+02  0.7818609E-02  0.1379984E+01
      -11   -1    0    0    0    0  0.00000000000E+00  0.00000000000E+00  0.35740347158E-01  0.35744000000E-01  0.51099999109E-03 0.  1.
       11   -1    0    0    0    0 -0.00000000000E+00 -0.00000000000E+00 -0.35740347158E-01  0.35744000000E-01  0.51099999109E-03 0. -1.
       22    1    1    2    0    0  0.12511768364E-01  0.14549175618E-02  0.33443571164E-01  0.35737005818E-01  0.00000000000E+00 0.  1.
  9000001    1    1    2    0    0 -0.12511768364E-01 -0.14549175618E-02 -0.33443571164E-01  0.35750994182E-01  0.10000000475E-02 0. -1.
</event>
<event>
 4   0  0.2441219E-02  0.9118800E+02  0.7818609E-02  0.1379984E+01
      -11   -1    0    0    0    0  0.00000000000E+00  0.00000000000E+00  0.35740347158E-01  0.35744000000E-01  0.51099999109E-03 0.  1.
       11   -1    0    0    0    0 -0.00000000000E+00 -0.00000000000E+00 -0.35740347158E-01  0.35744000000E-01  0.51099999109E-03 0. -1.
       22    1    1    2    0    0 -0.27944339383E-01  0.11402073468E-01 -0.19137403219E-01  0.35737005818E-01  0.00000000000E+00 0. -1.
  9000001    1    1    2    0    0  0.27944339383E-01 -0.11402073468E-01  0.19137403219E-01  0.35750994182E-01  0.10000000475E-02 0.  1.
</event>
<event>
 4   0  0.2441219E-02  0.9118800E+02  0.7818609E-02  0.1379984E+01
      -11   -1    0    0    0    0  0.00000000000E+00  0.00000000000E+00  0.35740347158E-01  0.35744000000E-01  0.51099999109E-03 0.  1.
       11   -1    0    0    0    0 -0.00000000000E+00 -0.00000000000E+00 -0.35740347158E-01  0.35744000000E-01  0.51099999109E-03 0. -1.
       22    1    1    2    0    0  0.11791904836E-01  0.10481235748E-01 -0.32065998540E-01  0.35737005818E-01  0.00000000000E+00 0. -1.
  9000001    1    1    2    0    0 -0.11791904836E-01 -0.10481235748E-01  0.32065998540E-01  0.35750994182E-01  0.10000000475E-02 0.  1.
</event>
<event>
 4   0  0.2441219E-02  0.9118800E+02  0.7818609E-02  0.1379984E+01
      -11   -1    0    0    0    0  0.00000000000E+00  0.00000000000E+00  0.35740347158E-01  0.35744000000E-01  0.51099999109E-03 0. -1.
       11   -1    0    0    0    0 -0.00000000000E+00 -0.00000000000E+00 -0.35740347158E-01  0.35744000000E-01  0.51099999109E-03 0.  1.
       22    1    1    2    0    0 -0.28851956887E-01  0.11831839258E-01  0.17455822767E-01  0.35737005818E-01  0.00000000000E+00 0. -1.
  9000001    1    1    2    0    0  0.28851956887E-01 -0.11831839258E-01 -0.17455822767E-01  0.35750994182E-01  0.10000000475E-02 0.  1.
</event>
<event>
 4   0  0.2441219E-02  0.9118800E+02  0.7818609E-02  0.1379984E+01
      -11   -1    0    0    0    0  0.00000000000E+00  0.00000000000E+00  0.35740347158E-01  0.35744000000E-01  0.51099999109E-03 0. -1.
       11   -1    0    0    0    0 -0.00000000000E+00 -0.00000000000E+00 -0.35740347158E-01  0.35744000000E-01  0.51099999109E-03 0.  1.
       22    1    1    2    0    0  0.11391940099E-02  0.10289760861E-01  0.34204628975E-01  0.35737005818E-01  0.00000000000E+00 0. -1.
  9000001    1    1    2    0    0 -0.11391940099E-02 -0.10289760861E-01 -0.34204628975E-01  0.35750994182E-01  0.10000000475E-02 0.  1.
</event>
<event>
 4   0  0.2441219E-02  0.9118800E+02  0.7818609E-02  0.1379984E+01
      -11   -1    0    0    0    0  0.00000000000E+00  0.00000000000E+00  0.35740347158E-01  0.35744000000E-01  0.51099999109E-03 0.  1.
       11   -1    0    0    0    0 -0.00000000000E+00 -0.00000000000E+00 -0.35740347158E-01  0.35744000000E-01  0.51099999109E-03 0. -1.
       22    1    1    2    0    0 -0.74061298080E-02 -0.48459282747E-02  0.34623688499E-01  0.35737005818E-01  0.00000000000E+00 0.  1.
  9000001    1    1    2    0    0  0.74061298080E-02  0.48459282747E-02 -0.34623688499E-01  0.35750994182E-01  0.10000000475E-02 0. -1.
</event>
<event>
 4   0  0.2441219E-02  0.9118800E+02  0.7818609E-02  0.1379984E+01
      -11   -1    0    0    0    0  0.00000000000E+00  0.00000000000E+00  0.35740347158E-01  0.35744000000E-01  0.51099999109E-03 0.  1.
       11   -1    0    0    0    0 -0.00000000000E+00 -0.00000000000E+00 -0.35740347158E-01  0.35744000000E-01  0.51099999109E-03 0. -1.
       22    1    1    2    0    0  0.37947145168E-02 -0.24137066906E-02 -0.35452894757E-01  0.35737005818E-01  0.00000000000E+00 0. -1.
  9000001    1    1    2    0    0 -0.37947145168E-02  0.24137066906E-02  0.35452894757E-01  0.35750994182E-01  0.10000000475E-02 0.  1.
</event>
<event>
 4   0  0.2441219E-02  0.9118800E+02  0.7818609E-02  0.1379984E+01
      -11   -1    0    0    0    0  0.00000000000E+00  0.00000000000E+00  0.35740347158E-01  0.35744000000E-01  0.51099999109E-03 0.  1.
       11   -1    0    0    0    0 -0.00000000000E+00 -0.00000000000E+00 -0.35740347158E-01  0.35744000000E-01  0.51099999109E-03 0. -1.
       22    1    1    2    0    0 -0.14373067693E-03 -0.35952657922E-02 -0.35555407328E-01  0.35737005818E-01  0.00000000000E+00 0. -1.
  9000001    1    1    2    0    0  0.14373067693E-03  0.35952657922E-02  0.35555407328E-01  0.35750994182E-01  0.10000000475E-02 0.  1.
</event>
<event>
 4   0  0.2441219E-02  0.9118800E+02  0.7818609E-02  0.1379984E+01
      -11   -1    0    0    0    0  0.00000000000E+00  0.00000000000E+00  0.35740347158E-01  0.35744000000E-01  0.51099999109E-03 0. -1.
       11   -1    0    0    0    0 -0.00000000000E+00 -0.00000000000E+00 -0.35740347158E-01  0.35744000000E-01  0.51099999109E-03 0.  1.
       22    1    1    2    0    0  0.17459118034E-02 -0.57132953394E-02 -0.35234125975E-01  0.35737005818E-01  0.00000000000E+00 0.  1.
  9000001    1    1    2    0    0 -0.17459118034E-02  0.57132953394E-02  0.35234125975E-01  0.35750994182E-01  0.10000000475E-02 0. -1.
</event>
<event>
 4   0  0.2441219E-02  0.9118800E+02  0.7818609E-02  0.1379984E+01
      -11   -1    0    0    0    0  0.00000000000E+00  0.00000000000E+00  0.35740347158E-01  0.35744000000E-01  0.51099999109E-03 0. -1.
       11   -1    0    0    0    0 -0.00000000000E+00 -0.00000000000E+00 -0.35740347158E-01  0.35744000000E-01  0.51099999109E-03 0.  1.
       22    1    1    2    0    0  0.12621115096E-01 -0.29864874356E-01 -0.15030978620E-01  0.35737005818E-01  0.00000000000E+00 0.  1.
  9000001    1    1    2    0    0 -0.12621115096E-01  0.29864874356E-01  0.15030978620E-01  0.35750994182E-01  0.10000000475E-02 0. -1.
</event>
<event>
 4   0  0.2441219E-02  0.9118800E+02  0.7818609E-02  0.1379984E+01
      -11   -1    0    0    0    0  0.00000000000E+00  0.00000000000E+00  0.35740347158E-01  0.35744000000E-01  0.51099999109E-03 0. -1.
       11   -1    0    0    0    0 -0.00000000000E+00 -0.00000000000E+00 -0.35740347158E-01  0.35744000000E-01  0.51099999109E-03 0.  1.
       22    1    1    2    0    0 -0.26120953878E-01 -0.21848139250E-01  0.10839195759E-01  0.35737005818E-01  0.00000000000E+00 0. -1.
  9000001    1    1    2    0    0  0.26120953878E-01  0.21848139250E-01 -0.10839195759E-01  0.35750994182E-01  0.10000000475E-02 0.  1.
</event>
<event>
 4   0  0.2441219E-02  0.9118800E+02  0.7818609E-02  0.1379984E+01
      -11   -1    0    0    0    0  0.00000000000E+00  0.00000000000E+00  0.35740347158E-01  0.35744000000E-01  0.51099999109E-03 0.  1.
       11   -1    0    0    0    0 -0.00000000000E+00 -0.00000000000E+00 -0.35740347158E-01  0.35744000000E-01  0.51099999109E-03 0. -1.
       22    1    1    2    0    0  0.17980105576E-01 -0.11469530219E-02  0.30863147719E-01  0.35737005818E-01  0.00000000000E+00 0.  1.
  9000001    1    1    2    0    0 -0.17980105576E-01  0.11469530219E-02 -0.30863147719E-01  0.35750994182E-01  0.10000000475E-02 0. -1.
</event>
<event>
 4   0  0.2441219E-02  0.9118800E+02  0.7818609E-02  0.1379984E+01
      -11   -1    0    0    0    0  0.00000000000E+00  0.00000000000E+00  0.35740347158E-01  0.35744000000E-01  0.51099999109E-03 0. -1.
       11   -1    0    0    0    0 -0.00000000000E+00 -0.00000000000E+00 -0.35740347158E-01  0.35744000000E-01  0.51099999109E-03 0.  1.
       22    1    1    2    0    0  0.86081294671E-02  0.13182573846E-01  0.32081979969E-01  0.35737005818E-01  0.00000000000E+00 0. -1.
  9000001    1    1    2    0    0 -0.86081294671E-02 -0.13182573846E-01 -0.32081979969E-01  0.35750994182E-01  0.10000000475E-02 0.  1.
</event>
<event>
 4   0  0.2441219E-02  0.9118800E+02  0.7818609E-02  0.1379984E+01
      -11   -1    0    0    0    0  0.00000000000E+00  0.00000000000E+00  0.35740347158E-01  0.35744000000E-01  0.51099999109E-03 0.  1.
       11   -1    0    0    0    0 -0.00000000000E+00 -0.00000000000E+00 -0.35740347158E-01  0.35744000000E-01  0.51099999109E-03 0. -1.
       22    1    1    2    0    0  0.13779749102E-01  0.14635253456E-01  0.29547613369E-01  0.35737005818E-01  0.00000000000E+00 0.  1.
  9000001    1    1    2    0    0 -0.13779749102E-01 -0.14635253456E-01 -0.29547613369E-01  0.35750994182E-01  0.10000000475E-02 0. -1.
</event>
<event>
 4   0  0.2441219E-02  0.9118800E+02  0.7818609E-02  0.1379984E+01
      -11   -1    0    0    0    0  0.00000000000E+00  0.00000000000E+00  0.35740347158E-01  0.35744000000E-01  0.51099999109E-03 0. -1.
       11   -1    0    0    0    0 -0.00000000000E+00 -0.00000000000E+00 -0.35740347158E-01  0.35744000000E-01  0.51099999109E-03 0.  1.
       22    1    1    2    0    0  0.32532250647E-01  0.71887227176E-02 -0.12927046004E-01  0.35737005818E-01  0.00000000000E+00 0. -1.
  9000001    1    1    2    0    0 -0.32532250647E-01 -0.71887227176E-02  0.12927046004E-01  0.35750994182E-01  0.10000000475E-02 0.  1.
</event>
<event>
 4   0  0.2441219E-02  0.9118800E+02  0.7818609E-02  0.1379984E+01
      -11   -1    0    0    0    0  0.00000000000E+00  0.00000000000E+00  0.35740347158E-01  0.35744000000E-01  0.51099999109E-03 0.  1.
       11   -1    0    0    0    0 -0.00000000000E+00 -0.00000000000E+00 -0.35740347158E-01  0.35744000000E-01  0.51099999109E-03 0. -1.
       22    1    1    2    0    0 -0.11350305692E-01 -0.13724321114E-01  0.30983013984E-01  0.35737005818E-01  0.00000000000E+00 0.  1.
  9000001    1    1    2    0    0  0.11350305692E-01  0.13724321114E-01 -0.30983013984E-01  0.35750994182E-01  0.10000000475E-02 0. -1.
</event>
<event>
 4   0  0.2441219E-02  0.9118800E+02  0.7818609E-02  0.1379984E+01
      -11   -1    0    0    0    0  0.00000000000E+00  0.00000000000E+00  0.35740347158E-01  0.35744000000E-01  0.51099999109E-03 0.  1.
       11   -1    0    0    0    0 -0.00000000000E+00 -0.00000000000E+00 -0.35740347158E-01  0.35744000000E-01  0.51099999109E-03 0. -1.
       22    1    1    2    0    0 -0.61818578255E-02 -0.18169780858E-02 -0.35151341501E-01  0.35737005818E-01  0.00000000000E+00 0. -1.
  9000001    1    1    2    0    0  0.61818578255E-02  0.18169780858E-02  0.35151341501E-01  0.35750994182E-01  0.10000000475E-02 0.  1.
</event>
<event>
 4   0  0.2441219E-02  0.9118800E+02  0.7818609E-02  0.1379984E+01
      -11   -1    0    0    0    0  0.00000000000E+00  0.00000000000E+00  0.35740347158E-01  0.35744000000E-01  0.51099999109E-03 0. -1.
       11   -1    0    0    0    0 -0.00000000000E+00 -0.00000000000E+00 -0.35740347158E-01  0.35744000000E-01  0.51099999109E-03 0.  1.
       22    1    1    2    0    0  0.65235730762E-03  0.33495769425E-01 -0.12439511463E-01  0.35737005818E-01  0.00000000000E+00 0.  1.
  9000001    1    1    2    0    0 -0.65235730762E-03 -0.33495769425E-01  0.12439511463E-01  0.35750994182E-01  0.10000000475E-02 0. -1.
</event>
<event>
 4   0  0.2441219E-02  0.9118800E+02  0.7818609E-02  0.1379984E+01
      -11   -1    0    0    0    0  0.00000000000E+00  0.00000000000E+00  0.35740347158E-01  0.35744000000E-01  0.51099999109E-03 0.  1.
       11   -1    0    0    0    0 -0.00000000000E+00 -0.00000000000E+00 -0.35740347158E-01  0.35744000000E-01  0.51099999109E-03 0. -1.
       22    1    1    2    0    0 -0.10740338272E-01  0.88660274760E-02  0.32911582695E-01  0.35737005818E-01  0.00000000000E+00 0.  1.
  9000001    1    1    2    0    0  0.10740338272E-01 -0.88660274760E-02 -0.32911582695E-01  0.35750994182E-01  0.10000000475E-02 0. -1.
</event>
<event>
 4   0  0.2441219E-02  0.9118800E+02  0.7818609E-02  0.1379984E+01
      -11   -1    0    0    0    0  0.00000000000E+00  0.00000000000E+00  0.35740347158E-01  0.35744000000E-01  0.51099999109E-03 0.  1.
       11   -1    0    0    0    0 -0.00000000000E+00 -0.00000000000E+00 -0.35740347158E-01  0.35744000000E-01  0.51099999109E-03 0. -1.
       22    1    1    2    0    0 -0.12678670212E-01  0.14369442501E-02 -0.33381433429E-01  0.35737005818E-01  0.00000000000E+00 0. -1.
  9000001    1    1    2    0    0  0.12678670212E-01 -0.14369442501E-02  0.33381433429E-01  0.35750994182E-01  0.10000000475E-02 0.  1.
</event>
<event>
 4   0  0.2441219E-02  0.9118800E+02  0.7818609E-02  0.1379984E+01
      -11   -1    0    0    0    0  0.00000000000E+00  0.00000000000E+00  0.35740347158E-01  0.35744000000E-01  0.51099999109E-03 0.  1.
       11   -1    0    0    0    0 -0.00000000000E+00 -0.00000000000E+00 -0.35740347158E-01  0.35744000000E-01  0.51099999109E-03 0. -1.
       22    1    1    2    0    0  0.24011216609E-04  0.11992587115E-01 -0.33664682720E-01  0.35737005818E-01  0.00000000000E+00 0. -1.
  9000001    1    1    2    0    0 -0.24011216609E-04 -0.11992587115E-01  0.33664682720E-01  0.35750994182E-01  0.10000000475E-02 0.  1.
</event>
<event>
 4   0  0.2441219E-02  0.9118800E+02  0.7818609E-02  0.1379984E+01
      -11   -1    0    0    0    0  0.00000000000E+00  0.00000000000E+00  0.35740347158E-01  0.35744000000E-01  0.51099999109E-03 0. -1.
       11   -1    0    0    0    0 -0.00000000000E+00 -0.00000000000E+00 -0.35740347158E-01  0.35744000000E-01  0.51099999109E-03 0.  1.
       22    1    1    2    0    0  0.43250273604E-02 -0.48708016289E-03  0.35470980761E-01  0.35737005818E-01  0.00000000000E+00 0. -1.
  9000001    1    1    2    0    0 -0.43250273604E-02  0.48708016289E-03 -0.35470980761E-01  0.35750994182E-01  0.10000000475E-02 0.  1.
</event>
<event>
 4   0  0.2441219E-02  0.9118800E+02  0.7818609E-02  0.1379984E+01
      -11   -1    0    0    0    0  0.00000000000E+00  0.00000000000E+00  0.35740347158E-01  0.35744000000E-01  0.51099999109E-03 0. -1.
       11   -1    0    0    0    0 -0.00000000000E+00 -0.00000000000E+00 -0.35740347158E-01  0.35744000000E-01  0.51099999109E-03 0.  1.
       22    1    1    2    0    0 -0.17608828338E-01 -0.34100379634E-03  0.31095762828E-01  0.35737005818E-01  0.00000000000E+00 0. -1.
  9000001    1    1    2    0    0  0.17608828338E-01  0.34100379634E-03 -0.31095762828E-01  0.35750994182E-01  0.10000000475E-02 0.  1.
</event>
<event>
 4   0  0.2441219E-02  0.9118800E+02  0.7818609E-02  0.1379984E+01
      -11   -1    0    0    0    0  0.00000000000E+00  0.00000000000E+00  0.35740347158E-01  0.35744000000E-01  0.51099999109E-03 0.  1.
       11   -1    0    0    0    0 -0.00000000000E+00 -0.00000000000E+00 -0.35740347158E-01  0.35744000000E-01  0.51099999109E-03 0. -1.
       22    1    1    2    0    0 -0.11405918085E-01  0.24671021328E-03 -0.33867059978E-01  0.35737005818E-01  0.00000000000E+00 0. -1.
  9000001    1    1    2    0    0  0.11405918085E-01 -0.24671021328E-03  0.33867059978E-01  0.35750994182E-01  0.10000000475E-02 0.  1.
</event>
<event>
 4   0  0.2441219E-02  0.9118800E+02  0.7818609E-02  0.1379984E+01
      -11   -1    0    0    0    0  0.00000000000E+00  0.00000000000E+00  0.35740347158E-01  0.35744000000E-01  0.51099999109E-03 0. -1.
       11   -1    0    0    0    0 -0.00000000000E+00 -0.00000000000E+00 -0.35740347158E-01  0.35744000000E-01  0.51099999109E-03 0.  1.
       22    1    1    2    0    0  0.74310360248E-03  0.39129515133E-02  0.35514366000E-01  0.35737005818E-01  0.00000000000E+00 0. -1.
  9000001    1    1    2    0    0 -0.74310360248E-03 -0.39129515133E-02 -0.35514366000E-01  0.35750994182E-01  0.10000000475E-02 0.  1.
</event>
<event>
 4   0  0.2441219E-02  0.9118800E+02  0.7818609E-02  0.1379984E+01
      -11   -1    0    0    0    0  0.00000000000E+00  0.00000000000E+00  0.35740347158E-01  0.35744000000E-01  0.51099999109E-03 0. -1.
       11   -1    0    0    0    0 -0.00000000000E+00 -0.00000000000E+00 -0.35740347158E-01  0.35744000000E-01  0.51099999109E-03 0.  1.
       22    1    1    2    0    0 -0.13855142028E-01  0.28685215529E-02  0.32816767183E-01  0.35737005818E-01  0.00000000000E+00 0. -1.
  9000001    1    1    2    0    0  0.13855142028E-01 -0.28685215529E-02 -0.32816767183E-01  0.35750994182E-01  0.10000000475E-02 0.  1.
</event>
<event>
 4   0  0.2441219E-02  0.9118800E+02  0.7818609E-02  0.1379984E+01
      -11   -1    0    0    0    0  0.00000000000E+00  0.00000000000E+00  0.35740347158E-01  0.35744000000E-01  0.51099999109E-03 0. -1.
       11   -1    0    0    0    0 -0.00000000000E+00 -0.00000000000E+00 -0.35740347158E-01  0.35744000000E-01  0.51099999109E-03 0.  1.
       22    1    1    2    0    0 -0.34226992402E-01 -0.61922664036E-02  0.82038047730E-02  0.35737005818E-01  0.00000000000E+00 0. -1.
  9000001    1    1    2    0    0  0.34226992402E-01  0.61922664036E-02 -0.82038047730E-02  0.35750994182E-01  0.10000000475E-02 0.  1.
</event>
<event>
 4   0  0.2441219E-02  0.9118800E+02  0.7818609E-02  0.1379984E+01
      -11   -1    0    0    0    0  0.00000000000E+00  0.00000000000E+00  0.35740347158E-01  0.35744000000E-01  0.51099999109E-03 0. -1.
       11   -1    0    0    0    0 -0.00000000000E+00 -0.00000000000E+00 -0.35740347158E-01  0.35744000000E-01  0.51099999109E-03 0.  1.
       22    1    1    2    0    0 -0.18989932924E-01 -0.17742665811E-01 -0.24529856142E-01  0.35737005818E-01  0.00000000000E+00 0.  1.
  9000001    1    1    2    0    0  0.18989932924E-01  0.17742665811E-01  0.24529856142E-01  0.35750994182E-01  0.10000000475E-02 0. -1.
</event>
<event>
 4   0  0.2441219E-02  0.9118800E+02  0.7818609E-02  0.1379984E+01
      -11   -1    0    0    0    0  0.00000000000E+00  0.00000000000E+00  0.35740347158E-01  0.35744000000E-01  0.51099999109E-03 0. -1.
       11   -1    0    0    0    0 -0.00000000000E+00 -0.00000000000E+00 -0.35740347158E-01  0.35744000000E-01  0.51099999109E-03 0.  1.
       22    1    1    2    0    0  0.22707859754E-01  0.23065829717E-01  0.15147745367E-01  0.35737005818E-01  0.00000000000E+00 0. -1.
  9000001    1    1    2    0    0 -0.22707859754E-01 -0.23065829717E-01 -0.15147745367E-01  0.35750994182E-01  0.10000000475E-02 0.  1.
</event>
<event>
 4   0  0.2441219E-02  0.9118800E+02  0.7818609E-02  0.1379984E+01
      -11   -1    0    0    0    0  0.00000000000E+00  0.00000000000E+00  0.35740347158E-01  0.35744000000E-01  0.51099999109E-03 0. -1.
       11   -1    0    0    0    0 -0.00000000000E+00 -0.00000000000E+00 -0.35740347158E-01  0.35744000000E-01  0.51099999109E-03 0.  1.
       22    1    1    2    0    0  0.21300831023E-01 -0.16214034175E-01  0.23675161633E-01  0.35737005818E-01  0.00000000000E+00 0.  1.
  9000001    1    1    2    0    0 -0.21300831023E-01  0.16214034175E-01 -0.23675161633E-01  0.35750994182E-01  0.10000000475E-02 0. -1.
</event>
<event>
 4   0  0.2441219E-02  0.9118800E+02  0.7818609E-02  0.1379984E+01
      -11   -1    0    0    0    0  0.00000000000E+00  0.00000000000E+00  0.35740347158E-01  0.35744000000E-01  0.51099999109E-03 0.  1.
       11   -1    0    0    0    0 -0.00000000000E+00 -0.00000000000E+00 -0.35740347158E-01  0.35744000000E-01  0.51099999109E-03 0. -1.
       22    1    1    2    0    0 -0.36337643625E-02  0.31767307496E-03  0.35550364629E-01  0.35737005818E-01  0.00000000000E+00 0.  1.
  9000001    1    1    2    0    0  0.36337643625E-02 -0.31767307496E-03 -0.35550364629E-01  0.35750994182E-01  0.10000000475E-02 0. -1.
</event>
<event>
 4   0  0.2441219E-02  0.9118800E+02  0.7818609E-02  0.1379984E+01
      -11   -1    0    0    0    0  0.00000000000E+00  0.00000000000E+00  0.35740347158E-01  0.35744000000E-01  0.51099999109E-03 0. -1.
       11   -1    0    0    0    0 -0.00000000000E+00 -0.00000000000E+00 -0.35740347158E-01  0.35744000000E-01  0.51099999109E-03 0.  1.
       22    1    1    2    0    0 -0.93939163778E-02 -0.23111122339E-02  0.34402713268E-01  0.35737005818E-01  0.00000000000E+00 0. -1.
  9000001    1    1    2    0    0  0.93939163778E-02  0.23111122339E-02 -0.34402713268E-01  0.35750994182E-01  0.10000000475E-02 0.  1.
</event>
<event>
 4   0  0.2441219E-02  0.9118800E+02  0.7818609E-02  0.1379984E+01
      -11   -1    0    0    0    0  0.00000000000E+00  0.00000000000E+00  0.35740347158E-01  0.35744000000E-01  0.51099999109E-03 0.  1.
       11   -1    0    0    0    0 -0.00000000000E+00 -0.00000000000E+00 -0.35740347158E-01  0.35744000000E-01  0.51099999109E-03 0. -1.
       22    1    1    2    0    0  0.50888833465E-02  0.43012033677E-02  0.35110347488E-01  0.35737005818E-01  0.00000000000E+00 0.  1.
  9000001    1    1    2    0    0 -0.50888833465E-02 -0.43012033677E-02 -0.35110347488E-01  0.35750994182E-01  0.10000000475E-02 0. -1.
</event>
<event>
 4   0  0.2441219E-02  0.9118800E+02  0.7818609E-02  0.1379984E+01
      -11   -1    0    0    0    0  0.00000000000E+00  0.00000000000E+00  0.35740347158E-01  0.35744000000E-01  0.51099999109E-03 0. -1.
       11   -1    0    0    0    0 -0.00000000000E+00 -0.00000000000E+00 -0.35740347158E-01  0.35744000000E-01  0.51099999109E-03 0.  1.
       22    1    1    2    0    0 -0.26212648116E-02  0.25695477841E-02 -0.35547995441E-01  0.35737005818E-01  0.00000000000E+00 0.  1.
  9000001    1    1    2    0    0  0.26212648116E-02 -0.25695477841E-02  0.35547995441E-01  0.35750994182E-01  0.10000000475E-02 0. -1.
</event>
<event>
 4   0  0.2441219E-02  0.9118800E+02  0.7818609E-02  0.1379984E+01
      -11   -1    0    0    0    0  0.00000000000E+00  0.00000000000E+00  0.35740347158E-01  0.35744000000E-01  0.51099999109E-03 0.  1.
       11   -1    0    0    0    0 -0.00000000000E+00 -0.00000000000E+00 -0.35740347158E-01  0.35744000000E-01  0.51099999109E-03 0. -1.
       22    1    1    2    0    0  0.29282827028E-02  0.25512612438E-02  0.35525340411E-01  0.35737005818E-01  0.00000000000E+00 0.  1.
  9000001    1    1    2    0    0 -0.29282827028E-02 -0.25512612438E-02 -0.35525340411E-01  0.35750994182E-01  0.10000000475E-02 0. -1.
</event>
<event>
 4   0  0.2441219E-02  0.9118800E+02  0.7818609E-02  0.1379984E+01
      -11   -1    0    0    0    0  0.00000000000E+00  0.00000000000E+00  0.35740347158E-01  0.35744000000E-01  0.51099999109E-03 0.  1.
       11   -1    0    0    0    0 -0.00000000000E+00 -0.00000000000E+00 -0.35740347158E-01  0.35744000000E-01  0.51099999109E-03 0. -1.
       22    1    1    2    0    0 -0.87352001623E-04 -0.32828451191E-02  0.35585796077E-01  0.35737005818E-01  0.00000000000E+00 0.  1.
  9000001    1    1    2    0    0  0.87352001623E-04  0.32828451191E-02 -0.35585796077E-01  0.35750994182E-01  0.10000000475E-02 0. -1.
</event>
<event>
 4   0  0.2441219E-02  0.9118800E+02  0.7818609E-02  0.1379984E+01
      -11   -1    0    0    0    0  0.00000000000E+00  0.00000000000E+00  0.35740347158E-01  0.35744000000E-01  0.51099999109E-03 0. -1.
       11   -1    0    0    0    0 -0.00000000000E+00 -0.00000000000E+00 -0.35740347158E-01  0.35744000000E-01  0.51099999109E-03 0.  1.
       22    1    1    2    0    0 -0.42322217746E-02 -0.64290929603E-02 -0.34898261381E-01  0.35737005818E-01  0.00000000000E+00 0.  1.
  9000001    1    1    2    0    0  0.42322217746E-02  0.64290929603E-02  0.34898261381E-01  0.35750994182E-01  0.10000000475E-02 0. -1.
</event>
<event>
 4   0  0.2441219E-02  0.9118800E+02  0.7818609E-02  0.1379984E+01
      -11   -1    0    0    0    0  0.00000000000E+00  0.00000000000E+00  0.35740347158E-01  0.35744000000E-01  0.51099999109E-03 0. -1.
       11   -1    0    0    0    0 -0.00000000000E+00 -0.00000000000E+00 -0.35740347158E-01  0.35744000000E-01  0.51099999109E-03 0.  1.
       22    1    1    2    0    0 -0.12583844362E-01  0.50197372885E-02 -0.33069361704E-01  0.35737005818E-01  0.00000000000E+00 0.  1.
  9000001    1    1    2    0    0  0.12583844362E-01 -0.50197372885E-02  0.33069361704E-01  0.35750994182E-01  0.10000000475E-02 0. -1.
</event>
<event>
 4   0  0.2441219E-02  0.9118800E+02  0.7818609E-02  0.1379984E+01
      -11   -1    0    0    0    0  0.00000000000E+00  0.00000000000E+00  0.35740347158E-01  0.35744000000E-01  0.51099999109E-03 0.  1.
       11   -1    0    0    0    0 -0.00000000000E+00 -0.00000000000E+00 -0.35740347158E-01  0.35744000000E-01  0.51099999109E-03 0. -1.
       22    1    1    2    0    0  0.53177744071E-02  0.56026361357E-02 -0.34892195812E-01  0.35737005818E-01  0.00000000000E+00 0. -1.
  9000001    1    1    2    0    0 -0.53177744071E-02 -0.56026361357E-02  0.34892195812E-01  0.35750994182E-01  0.10000000475E-02 0.  1.
</event>
<event>
 4   0  0.2441219E-02  0.9118800E+02  0.7818609E-02  0.1379984E+01
      -11   -1    0    0    0    0  0.00000000000E+00  0.00000000000E+00  0.35740347158E-01  0.35744000000E-01  0.51099999109E-03 0. -1.
       11   -1    0    0    0    0 -0.00000000000E+00 -0.00000000000E+00 -0.35740347158E-01  0.35744000000E-01  0.51099999109E-03 0.  1.
       22    1    1    2    0    0  0.20698183344E-01  0.25736373456E-01 -0.13651295633E-01  0.35737005818E-01  0.00000000000E+00 0.  1.
  9000001    1    1    2    0    0 -0.20698183344E-01 -0.25736373456E-01  0.13651295633E-01  0.35750994182E-01  0.10000000475E-02 0. -1.
</event>
<event>
 4   0  0.2441219E-02  0.9118800E+02  0.7818609E-02  0.1379984E+01
      -11   -1    0    0    0    0  0.00000000000E+00  0.00000000000E+00  0.35740347158E-01  0.35744000000E-01  0.51099999109E-03 0. -1.
       11   -1    0    0    0    0 -0.00000000000E+00 -0.00000000000E+00 -0.35740347158E-01  0.35744000000E-01  0.51099999109E-03 0.  1.
       22    1    1    2    0    0  0.28153847331E-02 -0.38270151285E-02 -0.35419784710E-01  0.35737005818E-01  0.00000000000E+00 0.  1.
  9000001    1    1    2    0    0 -0.28153847331E-02  0.38270151285E-02  0.35419784710E-01  0.35750994182E-01  0.10000000475E-02 0. -1.
</event>
<event>
 4   0  0.2441219E-02  0.9118800E+02  0.7818609E-02  0.1379984E+01
      -11   -1    0    0    0    0  0.00000000000E+00  0.00000000000E+00  0.35740347158E-01  0.35744000000E-01  0.51099999109E-03 0.  1.
       11   -1    0    0    0    0 -0.00000000000E+00 -0.00000000000E+00 -0.35740347158E-01  0.35744000000E-01  0.51099999109E-03 0. -1.
       22    1    1    2    0    0 -0.10976701850E-02  0.57770224724E-02 -0.35249889594E-01  0.35737005818E-01  0.00000000000E+00 0. -1.
  9000001    1    1    2    0    0  0.10976701850E-02 -0.57770224724E-02  0.35249889594E-01  0.35750994182E-01  0.10000000475E-02 0.  1.
</event>
<event>
 4   0  0.2441219E-02  0.9118800E+02  0.7818609E-02  0.1379984E+01
      -11   -1    0    0    0    0  0.00000000000E+00  0.00000000000E+00  0.35740347158E-01  0.35744000000E-01  0.51099999109E-03 0.  1.
       11   -1    0    0    0    0 -0.00000000000E+00 -0.00000000000E+00 -0.35740347158E-01  0.35744000000E-01  0.51099999109E-03 0. -1.
       22    1    1    2    0    0  0.25367554835E-01  0.22916781020E-01 -0.10413543789E-01  0.35737005818E-01  0.00000000000E+00 0.  1.
  9000001    1    1    2    0    0 -0.25367554835E-01 -0.22916781020E-01  0.10413543789E-01  0.35750994182E-01  0.10000000475E-02 0. -1.
</event>
<event>
 4   0  0.2441219E-02  0.9118800E+02  0.7818609E-02  0.1379984E+01
      -11   -1    0    0    0    0  0.00000000000E+00  0.00000000000E+00  0.35740347158E-01  0.35744000000E-01  0.51099999109E-03 0. -1.
       11   -1    0    0    0    0 -0.00000000000E+00 -0.00000000000E+00 -0.35740347158E-01  0.35744000000E-01  0.51099999109E-03 0.  1.
       22    1    1    2    0    0 -0.55001618654E-02  0.75951730308E-03 -0.35303044313E-01  0.35737005818E-01  0.00000000000E+00 0.  1.
  9000001    1    1    2    0    0  0.55001618654E-02 -0.75951730308E-03  0.35303044313E-01  0.35750994182E-01  0.10000000475E-02 0. -1.
</event>
<event>
 4   0  0.2441219E-02  0.9118800E+02  0.7818609E-02  0.1379984E+01
      -11   -1    0    0    0    0  0.00000000000E+00  0.00000000000E+00  0.35740347158E-01  0.35744000000E-01  0.51099999109E-03 0.  1.
       11   -1    0    0    0    0 -0.00000000000E+00 -0.00000000000E+00 -0.35740347158E-01  0.35744000000E-01  0.51099999109E-03 0. -1.
       22    1    1    2    0    0  0.41993513891E-02 -0.19195913786E-02 -0.35437468896E-01  0.35737005818E-01  0.00000000000E+00 0. -1.
  9000001    1    1    2    0    0 -0.41993513891E-02  0.19195913786E-02  0.35437468896E-01  0.35750994182E-01  0.10000000475E-02 0.  1.
</event>
<event>
 4   0  0.2441219E-02  0.9118800E+02  0.7818609E-02  0.1379984E+01
      -11   -1    0    0    0    0  0.00000000000E+00  0.00000000000E+00  0.35740347158E-01  0.35744000000E-01  0.51099999109E-03 0.  1.
       11   -1    0    0    0    0 -0.00000000000E+00 -0.00000000000E+00 -0.35740347158E-01  0.35744000000E-01  0.51099999109E-03 0. -1.
       22    1    1    2    0    0  0.65664037042E-03 -0.54045630057E-02  0.35319868446E-01  0.35737005818E-01  0.00000000000E+00 0.  1.
  9000001    1    1    2    0    0 -0.65664037042E-03  0.54045630057E-02 -0.35319868446E-01  0.35750994182E-01  0.10000000475E-02 0. -1.
</event>
<event>
 4   0  0.2441219E-02  0.9118800E+02  0.7818609E-02  0.1379984E+01
      -11   -1    0    0    0    0  0.00000000000E+00  0.00000000000E+00  0.35740347158E-01  0.35744000000E-01  0.51099999109E-03 0.  1.
       11   -1    0    0    0    0 -0.00000000000E+00 -0.00000000000E+00 -0.35740347158E-01  0.35744000000E-01  0.51099999109E-03 0. -1.
       22    1    1    2    0    0  0.10408950039E-01  0.25209161861E-01 -0.23092975171E-01  0.35737005818E-01  0.00000000000E+00 0. -1.
  9000001    1    1    2    0    0 -0.10408950039E-01 -0.25209161861E-01  0.23092975171E-01  0.35750994182E-01  0.10000000475E-02 0.  1.
</event>
<event>
 4   0  0.2441219E-02  0.9118800E+02  0.7818609E-02  0.1379984E+01
      -11   -1    0    0    0    0  0.00000000000E+00  0.00000000000E+00  0.35740347158E-01  0.35744000000E-01  0.51099999109E-03 0.  1.
       11   -1    0    0    0    0 -0.00000000000E+00 -0.00000000000E+00 -0.35740347158E-01  0.35744000000E-01  0.51099999109E-03 0. -1.
       22    1    1    2    0    0  0.47377883030E-02 -0.38988394847E-02  0.35206334622E-01  0.35737005818E-01  0.00000000000E+00 0.  1.
  9000001    1    1    2    0    0 -0.47377883030E-02  0.38988394847E-02 -0.35206334622E-01  0.35750994182E-01  0.10000000475E-02 0. -1.
</event>
<event>
 4   0  0.2441219E-02  0.9118800E+02  0.7818609E-02  0.1379984E+01
      -11   -1    0    0    0    0  0.00000000000E+00  0.00000000000E+00  0.35740347158E-01  0.35744000000E-01  0.51099999109E-03 0.  1.
       11   -1    0    0    0    0 -0.00000000000E+00 -0.00000000000E+00 -0.35740347158E-01  0.35744000000E-01  0.51099999109E-03 0. -1.
       22    1    1    2    0    0  0.82181791003E-03 -0.65525035643E-02  0.35121544631E-01  0.35737005818E-01  0.00000000000E+00 0.  1.
  9000001    1    1    2    0    0 -0.82181791003E-03  0.65525035643E-02 -0.35121544631E-01  0.35750994182E-01  0.10000000475E-02 0. -1.
</event>
<event>
 4   0  0.2441219E-02  0.9118800E+02  0.7818609E-02  0.1379984E+01
      -11   -1    0    0    0    0  0.00000000000E+00  0.00000000000E+00  0.35740347158E-01  0.35744000000E-01  0.51099999109E-03 0.  1.
       11   -1    0    0    0    0 -0.00000000000E+00 -0.00000000000E+00 -0.35740347158E-01  0.35744000000E-01  0.51099999109E-03 0. -1.
       22    1    1    2    0    0  0.56423210957E-02 -0.32149661729E-02 -0.35142023135E-01  0.35737005818E-01  0.00000000000E+00 0. -1.
  9000001    1    1    2    0    0 -0.56423210957E-02  0.32149661729E-02  0.35142023135E-01  0.35750994182E-01  0.10000000475E-02 0.  1.
</event>
<event>
 4   0  0.2441219E-02  0.9118800E+02  0.7818609E-02  0.1379984E+01
      -11   -1    0    0    0    0  0.00000000000E+00  0.00000000000E+00  0.35740347158E-01  0.35744000000E-01  0.51099999109E-03 0. -1.
       11   -1    0    0    0    0 -0.00000000000E+00 -0.00000000000E+00 -0.35740347158E-01  0.35744000000E-01  0.51099999109E-03 0.  1.
       22    1    1    2    0    0  0.19111918734E-01 -0.16831344051E-01  0.25071378195E-01  0.35737005818E-01  0.00000000000E+00 0. -1.
  9000001    1    1    2    0    0 -0.19111918734E-01  0.16831344051E-01 -0.25071378195E-01  0.35750994182E-01  0.10000000475E-02 0.  1.
</event>
<event>
 4   0  0.2441219E-02  0.9118800E+02  0.7818609E-02  0.1379984E+01
      -11   -1    0    0    0    0  0.00000000000E+00  0.00000000000E+00  0.35740347158E-01  0.35744000000E-01  0.51099999109E-03 0. -1.
       11   -1    0    0    0    0 -0.00000000000E+00 -0.00000000000E+00 -0.35740347158E-01  0.35744000000E-01  0.51099999109E-03 0.  1.
       22    1    1    2    0    0  0.87741519544E-02  0.20671755246E-01  0.27799754988E-01  0.35737005818E-01  0.00000000000E+00 0. -1.
  9000001    1    1    2    0    0 -0.87741519544E-02 -0.20671755246E-01 -0.27799754988E-01  0.35750994182E-01  0.10000000475E-02 0.  1.
</event>
<event>
 4   0  0.2441219E-02  0.9118800E+02  0.7818609E-02  0.1379984E+01
      -11   -1    0    0    0    0  0.00000000000E+00  0.00000000000E+00  0.35740347158E-01  0.35744000000E-01  0.51099999109E-03 0.  1.
       11   -1    0    0    0    0 -0.00000000000E+00 -0.00000000000E+00 -0.35740347158E-01  0.35744000000E-01  0.51099999109E-03 0. -1.
       22    1    1    2    0    0 -0.63103768683E-02  0.29911694465E-01 -0.18509545184E-01  0.35737005818E-01  0.00000000000E+00 0. -1.
  9000001    1    1    2    0    0  0.63103768683E-02 -0.29911694465E-01  0.18509545184E-01  0.35750994182E-01  0.10000000475E-02 0.  1.
</event>
<event>
 4   0  0.2441219E-02  0.9118800E+02  0.7818609E-02  0.1379984E+01
      -11   -1    0    0    0    0  0.00000000000E+00  0.00000000000E+00  0.35740347158E-01  0.35744000000E-01  0.51099999109E-03 0. -1.
       11   -1    0    0    0    0 -0.00000000000E+00 -0.00000000000E+00 -0.35740347158E-01  0.35744000000E-01  0.51099999109E-03 0.  1.
       22    1    1    2    0    0  0.18991275494E-03 -0.72392759237E-02 -0.34995576894E-01  0.35737005818E-01  0.00000000000E+00 0.  1.
  9000001    1    1    2    0    0 -0.18991275494E-03  0.72392759237E-02  0.34995576894E-01  0.35750994182E-01  0.10000000475E-02 0. -1.
</event>
<event>
 4   0  0.2441219E-02  0.9118800E+02  0.7818609E-02  0.1379984E+01
      -11   -1    0    0    0    0  0.00000000000E+00  0.00000000000E+00  0.35740347158E-01  0.35744000000E-01  0.51099999109E-03 0. -1.
       11   -1    0    0    0    0 -0.00000000000E+00 -0.00000000000E+00 -0.35740347158E-01  0.35744000000E-01  0.51099999109E-03 0.  1.
       22    1    1    2    0    0  0.12111452985E-02  0.44517358426E-02 -0.35437956486E-01  0.35737005818E-01  0.00000000000E+00 0.  1.
  9000001    1    1    2    0    0 -0.12111452985E-02 -0.44517358426E-02  0.35437956486E-01  0.35750994182E-01  0.10000000475E-02 0. -1.
</event>
<event>
 4   0  0.2441219E-02  0.9118800E+02  0.7818609E-02  0.1379984E+01
      -11   -1    0    0    0    0  0.00000000000E+00  0.00000000000E+00  0.35740347158E-01  0.35744000000E-01  0.51099999109E-03 0.  1.
       11   -1    0    0    0    0 -0.00000000000E+00 -0.00000000000E+00 -0.35740347158E-01  0.35744000000E-01  0.51099999109E-03 0. -1.
       22    1    1    2    0    0 -0.18837576584E-02 -0.68243910563E-02 -0.35028741466E-01  0.35737005818E-01  0.00000000000E+00 0. -1.
  9000001    1    1    2    0    0  0.18837576584E-02  0.68243910563E-02  0.35028741466E-01  0.35750994182E-01  0.10000000475E-02 0.  1.
</event>
<event>
 4   0  0.2441219E-02  0.9118800E+02  0.7818609E-02  0.1379984E+01
      -11   -1    0    0    0    0  0.00000000000E+00  0.00000000000E+00  0.35740347158E-01  0.35744000000E-01  0.51099999109E-03 0.  1.
       11   -1    0    0    0    0 -0.00000000000E+00 -0.00000000000E+00 -0.35740347158E-01  0.35744000000E-01  0.51099999109E-03 0. -1.
       22    1    1    2    0    0  0.13364139054E-01  0.77450972044E-02  0.32226492852E-01  0.35737005818E-01  0.00000000000E+00 0.  1.
  9000001    1    1    2    0    0 -0.13364139054E-01 -0.77450972044E-02 -0.32226492852E-01  0.35750994182E-01  0.10000000475E-02 0. -1.
</event>
<event>
 4   0  0.2441219E-02  0.9118800E+02  0.7818609E-02  0.1379984E+01
      -11   -1    0    0    0    0  0.00000000000E+00  0.00000000000E+00  0.35740347158E-01  0.35744000000E-01  0.51099999109E-03 0.  1.
       11   -1    0    0    0    0 -0.00000000000E+00 -0.00000000000E+00 -0.35740347158E-01  0.35744000000E-01  0.51099999109E-03 0. -1.
       22    1    1    2    0    0  0.61965947333E-02 -0.39098836493E-02 -0.34977830242E-01  0.35737005818E-01  0.00000000000E+00 0. -1.
  9000001    1    1    2    0    0 -0.61965947333E-02  0.39098836493E-02  0.34977830242E-01  0.35750994182E-01  0.10000000475E-02 0.  1.
</event>
<event>
 4   0  0.2441219E-02  0.9118800E+02  0.7818609E-02  0.1379984E+01
      -11   -1    0    0    0    0  0.00000000000E+00  0.00000000000E+00  0.35740347158E-01  0.35744000000E-01  0.51099999109E-03 0. -1.
       11   -1    0    0    0    0 -0.00000000000E+00 -0.00000000000E+00 -0.35740347158E-01  0.35744000000E-01  0.51099999109E-03 0.  1.
       22    1    1    2    0    0 -0.19136386786E-02  0.66452204932E-02 -0.35061554679E-01  0.35737005818E-01  0.00000000000E+00 0.  1.
  9000001    1    1    2    0    0  0.19136386786E-02 -0.66452204932E-02  0.35061554679E-01  0.35750994182E-01  0.10000000475E-02 0. -1.
</event>
<event>
 4   0  0.2441219E-02  0.9118800E+02  0.7818609E-02  0.1379984E+01
      -11   -1    0    0    0    0  0.00000000000E+00  0.00000000000E+00  0.35740347158E-01  0.35744000000E-01  0.51099999109E-03 0. -1.
       11   -1    0    0    0    0 -0.00000000000E+00 -0.00000000000E+00 -0.35740347158E-01  0.35744000000E-01  0.51099999109E-03 0.  1.
       22    1    1    2    0    0  0.59503868636E-03  0.70808988773E-02  0.35023426230E-01  0.35737005818E-01  0.00000000000E+00 0. -1.
  9000001    1    1    2    0    0 -0.59503868636E-03 -0.70808988773E-02 -0.35023426230E-01  0.35750994182E-01  0.10000000475E-02 0.  1.
</event>
<event>
 4   0  0.2441219E-02  0.9118800E+02  0.7818609E-02  0.1379984E+01
      -11   -1    0    0    0    0  0.00000000000E+00  0.00000000000E+00  0.35740347158E-01  0.35744000000E-01  0.51099999109E-03 0.  1.
       11   -1    0    0    0    0 -0.00000000000E+00 -0.00000000000E+00 -0.35740347158E-01  0.35744000000E-01  0.51099999109E-03 0. -1.
       22    1    1    2    0    0  0.10516850604E-01  0.11392675341E-01  0.32198391059E-01  0.35737005818E-01  0.00000000000E+00 0.  1.
  9000001    1    1    2    0    0 -0.10516850604E-01 -0.11392675341E-01 -0.32198391059E-01  0.35750994182E-01  0.10000000475E-02 0. -1.
</event>
<event>
 4   0  0.2441219E-02  0.9118800E+02  0.7818609E-02  0.1379984E+01
      -11   -1    0    0    0    0  0.00000000000E+00  0.00000000000E+00  0.35740347158E-01  0.35744000000E-01  0.51099999109E-03 0.  1.
       11   -1    0    0    0    0 -0.00000000000E+00 -0.00000000000E+00 -0.35740347158E-01  0.35744000000E-01  0.51099999109E-03 0. -1.
       22    1    1    2    0    0  0.34675521188E-02  0.18046085886E-01 -0.30650423347E-01  0.35737005818E-01  0.00000000000E+00 0. -1.
  9000001    1    1    2    0    0 -0.34675521188E-02 -0.18046085886E-01  0.30650423347E-01  0.35750994182E-01  0.10000000475E-02 0.  1.
</event>
<event>
 4   0  0.2441219E-02  0.9118800E+02  0.7818609E-02  0.1379984E+01
      -11   -1    0    0    0    0  0.00000000000E+00  0.00000000000E+00  0.35740347158E-01  0.35744000000E-01  0.51099999109E-03 0.  1.
       11   -1    0    0    0    0 -0.00000000000E+00 -0.00000000000E+00 -0.35740347158E-01  0.35744000000E-01  0.51099999109E-03 0. -1.
       22    1    1    2    0    0  0.63483915987E-02  0.44982281561E-02 -0.34879757058E-01  0.35737005818E-01  0.00000000000E+00 0. -1.
  9000001    1    1    2    0    0 -0.63483915987E-02 -0.44982281561E-02  0.34879757058E-01  0.35750994182E-01  0.10000000475E-02 0.  1.
</event>
<event>
 4   0  0.2441219E-02  0.9118800E+02  0.7818609E-02  0.1379984E+01
      -11   -1    0    0    0    0  0.00000000000E+00  0.00000000000E+00  0.35740347158E-01  0.35744000000E-01  0.51099999109E-03 0.  1.
       11   -1    0    0    0    0 -0.00000000000E+00 -0.00000000000E+00 -0.35740347158E-01  0.35744000000E-01  0.51099999109E-03 0. -1.
       22    1    1    2    0    0 -0.55788364541E-02  0.68011119949E-03  0.35292316691E-01  0.35737005818E-01  0.00000000000E+00 0.  1.
  9000001    1    1    2    0    0  0.55788364541E-02 -0.68011119949E-03 -0.35292316691E-01  0.35750994182E-01  0.10000000475E-02 0. -1.
</event>
<event>
 4   0  0.2441219E-02  0.9118800E+02  0.7818609E-02  0.1379984E+01
      -11   -1    0    0    0    0  0.00000000000E+00  0.00000000000E+00  0.35740347158E-01  0.35744000000E-01  0.51099999109E-03 0.  1.
       11   -1    0    0    0    0 -0.00000000000E+00 -0.00000000000E+00 -0.35740347158E-01  0.35744000000E-01  0.51099999109E-03 0. -1.
       22    1    1    2    0    0  0.60971526374E-03  0.39318196623E-02 -0.35514822628E-01  0.35737005818E-01  0.00000000000E+00 0. -1.
  9000001    1    1    2    0    0 -0.60971526374E-03 -0.39318196623E-02  0.35514822628E-01  0.35750994182E-01  0.10000000475E-02 0.  1.
</event>
<event>
 4   0  0.2441219E-02  0.9118800E+02  0.7818609E-02  0.1379984E+01
      -11   -1    0    0    0    0  0.00000000000E+00  0.00000000000E+00  0.35740347158E-01  0.35744000000E-01  0.51099999109E-03 0. -1.
       11   -1    0    0    0    0 -0.00000000000E+00 -0.00000000000E+00 -0.35740347158E-01  0.35744000000E-01  0.51099999109E-03 0.  1.
       22    1    1    2    0    0  0.22449911054E-02 -0.12283639498E-01 -0.33484411306E-01  0.35737005818E-01  0.00000000000E+00 0.  1.
  9000001    1    1    2    0    0 -0.22449911054E-02  0.12283639498E-01  0.33484411306E-01  0.35750994182E-01  0.10000000475E-02 0. -1.
</event>
<event>
 4   0  0.2441219E-02  0.9118800E+02  0.7818609E-02  0.1379984E+01
      -11   -1    0    0    0    0  0.00000000000E+00  0.00000000000E+00  0.35740347158E-01  0.35744000000E-01  0.51099999109E-03 0.  1.
       11   -1    0    0    0    0 -0.00000000000E+00 -0.00000000000E+00 -0.35740347158E-01  0.35744000000E-01  0.51099999109E-03 0. -1.
       22    1    1    2    0    0 -0.24992028746E-02 -0.11245847196E-01  0.33829254954E-01  0.35737005818E-01  0.00000000000E+00 0.  1.
  9000001    1    1    2    0    0  0.24992028746E-02  0.11245847196E-01 -0.33829254954E-01  0.35750994182E-01  0.10000000475E-02 0. -1.
</event>
<event>
 4   0  0.2441219E-02  0.9118800E+02  0.7818609E-02  0.1379984E+01
      -11   -1    0    0    0    0  0.00000000000E+00  0.00000000000E+00  0.35740347158E-01  0.35744000000E-01  0.51099999109E-03 0. -1.
       11   -1    0    0    0    0 -0.00000000000E+00 -0.00000000000E+00 -0.35740347158E-01  0.35744000000E-01  0.51099999109E-03 0.  1.
       22    1    1    2    0    0 -0.12126143936E-01 -0.42419868325E-02 -0.33348099883E-01  0.35737005818E-01  0.00000000000E+00 0.  1.
  9000001    1    1    2    0    0  0.12126143936E-01  0.42419868325E-02  0.33348099883E-01  0.35750994182E-01  0.10000000475E-02 0. -1.
</event>
<event>
 4   0  0.2441219E-02  0.9118800E+02  0.7818609E-02  0.1379984E+01
      -11   -1    0    0    0    0  0.00000000000E+00  0.00000000000E+00  0.35740347158E-01  0.35744000000E-01  0.51099999109E-03 0. -1.
       11   -1    0    0    0    0 -0.00000000000E+00 -0.00000000000E+00 -0.35740347158E-01  0.35744000000E-01  0.51099999109E-03 0.  1.
       22    1    1    2    0    0  0.30911891622E-02 -0.19879453936E-02 -0.35547520413E-01  0.35737005818E-01  0.00000000000E+00 0.  1.
  9000001    1    1    2    0    0 -0.30911891622E-02  0.19879453936E-02  0.35547520413E-01  0.35750994182E-01  0.10000000475E-02 0. -1.
</event>
<event>
 4   0  0.2441219E-02  0.9118800E+02  0.7818609E-02  0.1379984E+01
      -11   -1    0    0    0    0  0.00000000000E+00  0.00000000000E+00  0.35740347158E-01  0.35744000000E-01  0.51099999109E-03 0.  1.
       11   -1    0    0    0    0 -0.00000000000E+00 -0.00000000000E+00 -0.35740347158E-01  0.35744000000E-01  0.51099999109E-03 0. -1.
       22    1    1    2    0    0  0.23977099032E-02 -0.31955776051E-02  0.35512995591E-01  0.35737005818E-01  0.00000000000E+00 0.  1.
  9000001    1    1    2    0    0 -0.23977099032E-02  0.31955776051E-02 -0.35512995591E-01  0.35750994182E-01  0.10000000475E-02 0. -1.
</event>
<event>
 4   0  0.2441219E-02  0.9118800E+02  0.7818609E-02  0.1379984E+01
      -11   -1    0    0    0    0  0.00000000000E+00  0.00000000000E+00  0.35740347158E-01  0.35744000000E-01  0.51099999109E-03 0.  1.
       11   -1    0    0    0    0 -0.00000000000E+00 -0.00000000000E+00 -0.35740347158E-01  0.35744000000E-01  0.51099999109E-03 0. -1.
       22    1    1    2    0    0 -0.80084113817E-02  0.77879926402E-02 -0.33946223688E-01  0.35737005818E-01  0.00000000000E+00 0. -1.
  9000001    1    1    2    0    0  0.80084113817E-02 -0.77879926402E-02  0.33946223688E-01  0.35750994182E-01  0.10000000475E-02 0.  1.
</event>
<event>
 4   0  0.2441219E-02  0.9118800E+02  0.7818609E-02  0.1379984E+01
      -11   -1    0    0    0    0  0.00000000000E+00  0.00000000000E+00  0.35740347158E-01  0.35744000000E-01  0.51099999109E-03 0. -1.
       11   -1    0    0    0    0 -0.00000000000E+00 -0.00000000000E+00 -0.35740347158E-01  0.35744000000E-01  0.51099999109E-03 0.  1.
       22    1    1    2    0    0  0.85318836753E-03 -0.10387650621E-01 -0.34183363923E-01  0.35737005818E-01  0.00000000000E+00 0.  1.
  9000001    1    1    2    0    0 -0.85318836753E-03  0.10387650621E-01  0.34183363923E-01  0.35750994182E-01  0.10000000475E-02 0. -1.
</event>
<event>
 4   0  0.2441219E-02  0.9118800E+02  0.7818609E-02  0.1379984E+01
      -11   -1    0    0    0    0  0.00000000000E+00  0.00000000000E+00  0.35740347158E-01  0.35744000000E-01  0.51099999109E-03 0.  1.
       11   -1    0    0    0    0 -0.00000000000E+00 -0.00000000000E+00 -0.35740347158E-01  0.35744000000E-01  0.51099999109E-03 0. -1.
       22    1    1    2    0    0  0.13642208329E-01 -0.84911416197E-02 -0.31920592895E-01  0.35737005818E-01  0.00000000000E+00 0. -1.
  9000001    1    1    2    0    0 -0.13642208329E-01  0.84911416197E-02  0.31920592895E-01  0.35750994182E-01  0.10000000475E-02 0.  1.
</event>
<event>
 4   0  0.2441219E-02  0.9118800E+02  0.7818609E-02  0.1379984E+01
      -11   -1    0    0    0    0  0.00000000000E+00  0.00000000000E+00  0.35740347158E-01  0.35744000000E-01  0.51099999109E-03 0.  1.
       11   -1    0    0    0    0 -0.00000000000E+00 -0.00000000000E+00 -0.35740347158E-01  0.35744000000E-01  0.51099999109E-03 0. -1.
       22    1    1    2    0    0  0.64906435728E-02  0.85962136434E-03 -0.35132124644E-01  0.35737005818E-01  0.00000000000E+00 0. -1.
  9000001    1    1    2    0    0 -0.64906435728E-02 -0.85962136434E-03  0.35132124644E-01  0.35750994182E-01  0.10000000475E-02 0.  1.
</event>
<event>
 4   0  0.2441219E-02  0.9118800E+02  0.7818609E-02  0.1379984E+01
      -11   -1    0    0    0    0  0.00000000000E+00  0.00000000000E+00  0.35740347158E-01  0.35744000000E-01  0.51099999109E-03 0.  1.
       11   -1    0    0    0    0 -0.00000000000E+00 -0.00000000000E+00 -0.35740347158E-01  0.35744000000E-01  0.51099999109E-03 0. -1.
       22    1    1    2    0    0 -0.86995010133E-03  0.53707717752E-02 -0.35320413110E-01  0.35737005818E-01  0.00000000000E+00 0. -1.
  9000001    1    1    2    0    0  0.86995010133E-03 -0.53707717752E-02  0.35320413110E-01  0.35750994182E-01  0.10000000475E-02 0.  1.
</event>
<event>
 4   0  0.2441219E-02  0.9118800E+02  0.7818609E-02  0.1379984E+01
      -11   -1    0    0    0    0  0.00000000000E+00  0.00000000000E+00  0.35740347158E-01  0.35744000000E-01  0.51099999109E-03 0. -1.
       11   -1    0    0    0    0 -0.00000000000E+00 -0.00000000000E+00 -0.35740347158E-01  0.35744000000E-01  0.51099999109E-03 0.  1.
       22    1    1    2    0    0  0.41839758616E-02 -0.22520877709E-01  0.27430603313E-01  0.35737005818E-01  0.00000000000E+00 0. -1.
  9000001    1    1    2    0    0 -0.41839758616E-02  0.22520877709E-01 -0.27430603313E-01  0.35750994182E-01  0.10000000475E-02 0.  1.
</event>
<event>
 4   0  0.2441219E-02  0.9118800E+02  0.7818609E-02  0.1379984E+01
      -11   -1    0    0    0    0  0.00000000000E+00  0.00000000000E+00  0.35740347158E-01  0.35744000000E-01  0.51099999109E-03 0. -1.
       11   -1    0    0    0    0 -0.00000000000E+00 -0.00000000000E+00 -0.35740347158E-01  0.35744000000E-01  0.51099999109E-03 0.  1.
       22    1    1    2    0    0  0.10142824783E-01 -0.20637590675E-02  0.34205227507E-01  0.35737005818E-01  0.00000000000E+00 0. -1.
  9000001    1    1    2    0    0 -0.10142824783E-01  0.20637590675E-02 -0.34205227507E-01  0.35750994182E-01  0.10000000475E-02 0.  1.
</event>
<event>
 4   0  0.2441219E-02  0.9118800E+02  0.7818609E-02  0.1379984E+01
      -11   -1    0    0    0    0  0.00000000000E+00  0.00000000000E+00  0.35740347158E-01  0.35744000000E-01  0.51099999109E-03 0. -1.
       11   -1    0    0    0    0 -0.00000000000E+00 -0.00000000000E+00 -0.35740347158E-01  0.35744000000E-01  0.51099999109E-03 0.  1.
       22    1    1    2    0    0 -0.18216565214E-02  0.67480398394E-02 -0.35046813132E-01  0.35737005818E-01  0.00000000000E+00 0.  1.
  9000001    1    1    2    0    0  0.18216565214E-02 -0.67480398394E-02  0.35046813132E-01  0.35750994182E-01  0.10000000475E-02 0. -1.
</event>
<event>
 4   0  0.2441219E-02  0.9118800E+02  0.7818609E-02  0.1379984E+01
      -11   -1    0    0    0    0  0.00000000000E+00  0.00000000000E+00  0.35740347158E-01  0.35744000000E-01  0.51099999109E-03 0.  1.
       11   -1    0    0    0    0 -0.00000000000E+00 -0.00000000000E+00 -0.35740347158E-01  0.35744000000E-01  0.51099999109E-03 0. -1.
       22    1    1    2    0    0 -0.28746851796E-02 -0.21076826375E-02 -0.35558788560E-01  0.35737005818E-01  0.00000000000E+00 0. -1.
  9000001    1    1    2    0    0  0.28746851796E-02  0.21076826375E-02  0.35558788560E-01  0.35750994182E-01  0.10000000475E-02 0.  1.
</event>
<event>
 4   0  0.2441219E-02  0.9118800E+02  0.7818609E-02  0.1379984E+01
      -11   -1    0    0    0    0  0.00000000000E+00  0.00000000000E+00  0.35740347158E-01  0.35744000000E-01  0.51099999109E-03 0.  1.
       11   -1    0    0    0    0 -0.00000000000E+00 -0.00000000000E+00 -0.35740347158E-01  0.35744000000E-01  0.51099999109E-03 0. -1.
       22    1    1    2    0    0 -0.33916577391E-01 -0.54532221834E-02  0.98519912098E-02  0.35737005818E-01  0.00000000000E+00 0.  1.
  9000001    1    1    2    0    0  0.33916577391E-01  0.54532221834E-02 -0.98519912098E-02  0.35750994182E-01  0.10000000475E-02 0. -1.
</event>
<event>
 4   0  0.2441219E-02  0.9118800E+02  0.7818609E-02  0.1379984E+01
      -11   -1    0    0    0    0  0.00000000000E+00  0.00000000000E+00  0.35740347158E-01  0.35744000000E-01  0.51099999109E-03 0. -1.
       11   -1    0    0    0    0 -0.00000000000E+00 -0.00000000000E+00 -0.35740347158E-01  0.35744000000E-01  0.51099999109E-03 0.  1.
       22    1    1    2    0    0 -0.57477501176E-02  0.10692395883E-01  0.33612045813E-01  0.35737005818E-01  0.00000000000E+00 0. -1.
  9000001    1    1    2    0    0  0.57477501176E-02 -0.10692395883E-01 -0.33612045813E-01  0.35750994182E-01  0.10000000475E-02 0.  1.
</event>
<event>
 4   0  0.2441219E-02  0.9118800E+02  0.7818609E-02  0.1379984E+01
      -11   -1    0    0    0    0  0.00000000000E+00  0.00000000000E+00  0.35740347158E-01  0.35744000000E-01  0.51099999109E-03 0.  1.
       11   -1    0    0    0    0 -0.00000000000E+00 -0.00000000000E+00 -0.35740347158E-01  0.35744000000E-01  0.51099999109E-03 0. -1.
       22    1    1    2    0    0  0.12726375843E-01  0.21023115953E-02 -0.33327964665E-01  0.35737005818E-01  0.00000000000E+00 0. -1.
  9000001    1    1    2    0    0 -0.12726375843E-01 -0.21023115953E-02  0.33327964665E-01  0.35750994182E-01  0.10000000475E-02 0.  1.
</event>
<event>
 4   0  0.2441219E-02  0.9118800E+02  0.7818609E-02  0.1379984E+01
      -11   -1    0    0    0    0  0.00000000000E+00  0.00000000000E+00  0.35740347158E-01  0.35744000000E-01  0.51099999109E-03 0. -1.
       11   -1    0    0    0    0 -0.00000000000E+00 -0.00000000000E+00 -0.35740347158E-01  0.35744000000E-01  0.51099999109E-03 0.  1.
       22    1    1    2    0    0 -0.31825678835E-01 -0.15935141179E-01 -0.32141915247E-02  0.35737005818E-01  0.00000000000E+00 0.  1.
  9000001    1    1    2    0    0  0.31825678835E-01  0.15935141179E-01  0.32141915247E-02  0.35750994182E-01  0.10000000475E-02 0. -1.
</event>
<event>
 4   0  0.2441219E-02  0.9118800E+02  0.7818609E-02  0.1379984E+01
      -11   -1    0    0    0    0  0.00000000000E+00  0.00000000000E+00  0.35740347158E-01  0.35744000000E-01  0.51099999109E-03 0.  1.
       11   -1    0    0    0    0 -0.00000000000E+00 -0.00000000000E+00 -0.35740347158E-01  0.35744000000E-01  0.51099999109E-03 0. -1.
       22    1    1    2    0    0 -0.21041321873E-01 -0.81739652993E-02  0.27705281987E-01  0.35737005818E-01  0.00000000000E+00 0.  1.
  9000001    1    1    2    0    0  0.21041321873E-01  0.81739652993E-02 -0.27705281987E-01  0.35750994182E-01  0.10000000475E-02 0. -1.
</event>
<event>
 4   0  0.2441219E-02  0.9118800E+02  0.7818609E-02  0.1379984E+01
      -11   -1    0    0    0    0  0.00000000000E+00  0.00000000000E+00  0.35740347158E-01  0.35744000000E-01  0.51099999109E-03 0. -1.
       11   -1    0    0    0    0 -0.00000000000E+00 -0.00000000000E+00 -0.35740347158E-01  0.35744000000E-01  0.51099999109E-03 0.  1.
       22    1    1    2    0    0 -0.24741574092E-01  0.10910290962E-01  0.23365651017E-01  0.35737005818E-01  0.00000000000E+00 0. -1.
  9000001    1    1    2    0    0  0.24741574092E-01 -0.10910290962E-01 -0.23365651017E-01  0.35750994182E-01  0.10000000475E-02 0.  1.
</event>
<event>
 4   0  0.2441219E-02  0.9118800E+02  0.7818609E-02  0.1379984E+01
      -11   -1    0    0    0    0  0.00000000000E+00  0.00000000000E+00  0.35740347158E-01  0.35744000000E-01  0.51099999109E-03 0.  1.
       11   -1    0    0    0    0 -0.00000000000E+00 -0.00000000000E+00 -0.35740347158E-01  0.35744000000E-01  0.51099999109E-03 0. -1.
       22    1    1    2    0    0 -0.12331357196E-01 -0.93692033736E-02  0.32206975063E-01  0.35737005818E-01  0.00000000000E+00 0.  1.
  9000001    1    1    2    0    0  0.12331357196E-01  0.93692033736E-02 -0.32206975063E-01  0.35750994182E-01  0.10000000475E-02 0. -1.
</event>
<event>
 4   0  0.2441219E-02  0.9118800E+02  0.7818609E-02  0.1379984E+01
      -11   -1    0    0    0    0  0.00000000000E+00  0.00000000000E+00  0.35740347158E-01  0.35744000000E-01  0.51099999109E-03 0. -1.
       11   -1    0    0    0    0 -0.00000000000E+00 -0.00000000000E+00 -0.35740347158E-01  0.35744000000E-01  0.51099999109E-03 0.  1.
       22    1    1    2    0    0 -0.15487841314E-01  0.92411278529E-02 -0.30852259436E-01  0.35737005818E-01  0.00000000000E+00 0.  1.
  9000001    1    1    2    0    0  0.15487841314E-01 -0.92411278529E-02  0.30852259436E-01  0.35750994182E-01  0.10000000475E-02 0. -1.
</event>
<event>
 4   0  0.2441219E-02  0.9118800E+02  0.7818609E-02  0.1379984E+01
      -11   -1    0    0    0    0  0.00000000000E+00  0.00000000000E+00  0.35740347158E-01  0.35744000000E-01  0.51099999109E-03 0. -1.
       11   -1    0    0    0    0 -0.00000000000E+00 -0.00000000000E+00 -0.35740347158E-01  0.35744000000E-01  0.51099999109E-03 0.  1.
       22    1    1    2    0    0 -0.11946546043E-01  0.17632550948E-02 -0.33634871101E-01  0.35737005818E-01  0.00000000000E+00 0.  1.
  9000001    1    1    2    0    0  0.11946546043E-01 -0.17632550948E-02  0.33634871101E-01  0.35750994182E-01  0.10000000475E-02 0. -1.
</event>
<event>
 4   0  0.2441219E-02  0.9118800E+02  0.7818609E-02  0.1379984E+01
      -11   -1    0    0    0    0  0.00000000000E+00  0.00000000000E+00  0.35740347158E-01  0.35744000000E-01  0.51099999109E-03 0. -1.
       11   -1    0    0    0    0 -0.00000000000E+00 -0.00000000000E+00 -0.35740347158E-01  0.35744000000E-01  0.51099999109E-03 0.  1.
       22    1    1    2    0    0  0.31818876066E-01  0.41636411689E-03 -0.16264050900E-01  0.35737005818E-01  0.00000000000E+00 0. -1.
  9000001    1    1    2    0    0 -0.31818876066E-01 -0.41636411689E-03  0.16264050900E-01  0.35750994182E-01  0.10000000475E-02 0.  1.
</event>
<event>
 4   0  0.2441219E-02  0.9118800E+02  0.7818609E-02  0.1379984E+01
      -11   -1    0    0    0    0  0.00000000000E+00  0.00000000000E+00  0.35740347158E-01  0.35744000000E-01  0.51099999109E-03 0.  1.
       11   -1    0    0    0    0 -0.00000000000E+00 -0.00000000000E+00 -0.35740347158E-01  0.35744000000E-01  0.51099999109E-03 0. -1.
       22    1    1    2    0    0 -0.75410007048E-02  0.46060496022E-02  0.34627318699E-01  0.35737005818E-01  0.00000000000E+00 0.  1.
  9000001    1    1    2    0    0  0.75410007048E-02 -0.46060496022E-02 -0.34627318699E-01  0.35750994182E-01  0.10000000475E-02 0. -1.
</event>
<event>
 4   0  0.2441219E-02  0.9118800E+02  0.7818609E-02  0.1379984E+01
      -11   -1    0    0    0    0  0.00000000000E+00  0.00000000000E+00  0.35740347158E-01  0.35744000000E-01  0.51099999109E-03 0. -1.
       11   -1    0    0    0    0 -0.00000000000E+00 -0.00000000000E+00 -0.35740347158E-01  0.35744000000E-01  0.51099999109E-03 0.  1.
       22    1    1    2    0    0 -0.15926489982E-01 -0.31009705015E-01  0.78663013288E-02  0.35737005818E-01  0.00000000000E+00 0. -1.
  9000001    1    1    2    0    0  0.15926489982E-01  0.31009705015E-01 -0.78663013288E-02  0.35750994182E-01  0.10000000475E-02 0.  1.
</event>
<event>
 4   0  0.2441219E-02  0.9118800E+02  0.7818609E-02  0.1379984E+01
      -11   -1    0    0    0    0  0.00000000000E+00  0.00000000000E+00  0.35740347158E-01  0.35744000000E-01  0.51099999109E-03 0. -1.
       11   -1    0    0    0    0 -0.00000000000E+00 -0.00000000000E+00 -0.35740347158E-01  0.35744000000E-01  0.51099999109E-03 0.  1.
       22    1    1    2    0    0 -0.18240202099E-02  0.26760285305E-02 -0.35589962159E-01  0.35737005818E-01  0.00000000000E+00 0.  1.
  9000001    1    1    2    0    0  0.18240202099E-02 -0.26760285305E-02  0.35589962159E-01  0.35750994182E-01  0.10000000475E-02 0. -1.
</event>
<event>
 4   0  0.2441219E-02  0.9118800E+02  0.7818609E-02  0.1379984E+01
      -11   -1    0    0    0    0  0.00000000000E+00  0.00000000000E+00  0.35740347158E-01  0.35744000000E-01  0.51099999109E-03 0.  1.
       11   -1    0    0    0    0 -0.00000000000E+00 -0.00000000000E+00 -0.35740347158E-01  0.35744000000E-01  0.51099999109E-03 0. -1.
       22    1    1    2    0    0  0.90274424473E-02 -0.86572476542E-03 -0.34567172120E-01  0.35737005818E-01  0.00000000000E+00 0. -1.
  9000001    1    1    2    0    0 -0.90274424473E-02  0.86572476542E-03  0.34567172120E-01  0.35750994182E-01  0.10000000475E-02 0.  1.
</event>
<event>
 4   0  0.2441219E-02  0.9118800E+02  0.7818609E-02  0.1379984E+01
      -11   -1    0    0    0    0  0.00000000000E+00  0.00000000000E+00  0.35740347158E-01  0.35744000000E-01  0.51099999109E-03 0. -1.
       11   -1    0    0    0    0 -0.00000000000E+00 -0.00000000000E+00 -0.35740347158E-01  0.35744000000E-01  0.51099999109E-03 0.  1.
       22    1    1    2    0    0 -0.19106117931E-01  0.99699924767E-02  0.28507702336E-01  0.35737005818E-01  0.00000000000E+00 0. -1.
  9000001    1    1    2    0    0  0.19106117931E-01 -0.99699924767E-02 -0.28507702336E-01  0.35750994182E-01  0.10000000475E-02 0.  1.
</event>
<event>
 4   0  0.2441219E-02  0.9118800E+02  0.7818609E-02  0.1379984E+01
      -11   -1    0    0    0    0  0.00000000000E+00  0.00000000000E+00  0.35740347158E-01  0.35744000000E-01  0.51099999109E-03 0.  1.
       11   -1    0    0    0    0 -0.00000000000E+00 -0.00000000000E+00 -0.35740347158E-01  0.35744000000E-01  0.51099999109E-03 0. -1.
       22    1    1    2    0    0  0.34765955240E-02  0.20705064045E-02 -0.35507180565E-01  0.35737005818E-01  0.00000000000E+00 0. -1.
  9000001    1    1    2    0    0 -0.34765955240E-02 -0.20705064045E-02  0.35507180565E-01  0.35750994182E-01  0.10000000475E-02 0.  1.
</event>
<event>
 4   0  0.2441219E-02  0.9118800E+02  0.7818609E-02  0.1379984E+01
      -11   -1    0    0    0    0  0.00000000000E+00  0.00000000000E+00  0.35740347158E-01  0.35744000000E-01  0.51099999109E-03 0.  1.
       11   -1    0    0    0    0 -0.00000000000E+00 -0.00000000000E+00 -0.35740347158E-01  0.35744000000E-01  0.51099999109E-03 0. -1.
       22    1    1    2    0    0  0.21755116304E-02  0.22683166498E-02 -0.35598531902E-01  0.35737005818E-01  0.00000000000E+00 0. -1.
  9000001    1    1    2    0    0 -0.21755116304E-02 -0.22683166498E-02  0.35598531902E-01  0.35750994182E-01  0.10000000475E-02 0.  1.
</event>
<event>
 4   0  0.2441219E-02  0.9118800E+02  0.7818609E-02  0.1379984E+01
      -11   -1    0    0    0    0  0.00000000000E+00  0.00000000000E+00  0.35740347158E-01  0.35744000000E-01  0.51099999109E-03 0. -1.
       11   -1    0    0    0    0 -0.00000000000E+00 -0.00000000000E+00 -0.35740347158E-01  0.35744000000E-01  0.51099999109E-03 0.  1.
       22    1    1    2    0    0 -0.67808499280E-02  0.21313251684E-01 -0.27872907308E-01  0.35737005818E-01  0.00000000000E+00 0. -1.
  9000001    1    1    2    0    0  0.67808499280E-02 -0.21313251684E-01  0.27872907308E-01  0.35750994182E-01  0.10000000475E-02 0.  1.
</event>
<event>
 4   0  0.2441219E-02  0.9118800E+02  0.7818609E-02  0.1379984E+01
      -11   -1    0    0    0    0  0.00000000000E+00  0.00000000000E+00  0.35740347158E-01  0.35744000000E-01  0.51099999109E-03 0. -1.
       11   -1    0    0    0    0 -0.00000000000E+00 -0.00000000000E+00 -0.35740347158E-01  0.35744000000E-01  0.51099999109E-03 0.  1.
       22    1    1    2    0    0 -0.11381282242E-01  0.83543360805E-03 -0.33865942333E-01  0.35737005818E-01  0.00000000000E+00 0.  1.
  9000001    1    1    2    0    0  0.11381282242E-01 -0.83543360805E-03  0.33865942333E-01  0.35750994182E-01  0.10000000475E-02 0. -1.
</event>
<event>
 4   0  0.2441219E-02  0.9118800E+02  0.7818609E-02  0.1379984E+01
      -11   -1    0    0    0    0  0.00000000000E+00  0.00000000000E+00  0.35740347158E-01  0.35744000000E-01  0.51099999109E-03 0.  1.
       11   -1    0    0    0    0 -0.00000000000E+00 -0.00000000000E+00 -0.35740347158E-01  0.35744000000E-01  0.51099999109E-03 0. -1.
       22    1    1    2    0    0  0.11721890116E-01  0.55399372743E-02 -0.33302251755E-01  0.35737005818E-01  0.00000000000E+00 0. -1.
  9000001    1    1    2    0    0 -0.11721890116E-01 -0.55399372743E-02  0.33302251755E-01  0.35750994182E-01  0.10000000475E-02 0.  1.
</event>
<event>
 4   0  0.2441219E-02  0.9118800E+02  0.7818609E-02  0.1379984E+01
      -11   -1    0    0    0    0  0.00000000000E+00  0.00000000000E+00  0.35740347158E-01  0.35744000000E-01  0.51099999109E-03 0.  1.
       11   -1    0    0    0    0 -0.00000000000E+00 -0.00000000000E+00 -0.35740347158E-01  0.35744000000E-01  0.51099999109E-03 0. -1.
       22    1    1    2    0    0  0.18276538031E-01 -0.12037778187E-01 -0.28252320946E-01  0.35737005818E-01  0.00000000000E+00 0. -1.
  9000001    1    1    2    0    0 -0.18276538031E-01  0.12037778187E-01  0.28252320946E-01  0.35750994182E-01  0.10000000475E-02 0.  1.
</event>
<event>
 4   0  0.2441219E-02  0.9118800E+02  0.7818609E-02  0.1379984E+01
      -11   -1    0    0    0    0  0.00000000000E+00  0.00000000000E+00  0.35740347158E-01  0.35744000000E-01  0.51099999109E-03 0.  1.
       11   -1    0    0    0    0 -0.00000000000E+00 -0.00000000000E+00 -0.35740347158E-01  0.35744000000E-01  0.51099999109E-03 0. -1.
       22    1    1    2    0    0 -0.95471698283E-02  0.56620369202E-02  0.33969493241E-01  0.35737005818E-01  0.00000000000E+00 0.  1.
  9000001    1    1    2    0    0  0.95471698283E-02 -0.56620369202E-02 -0.33969493241E-01  0.35750994182E-01  0.10000000475E-02 0. -1.
</event>
<event>
 4   0  0.2441219E-02  0.9118800E+02  0.7818609E-02  0.1379984E+01
      -11   -1    0    0    0    0  0.00000000000E+00  0.00000000000E+00  0.35740347158E-01  0.35744000000E-01  0.51099999109E-03 0. -1.
       11   -1    0    0    0    0 -0.00000000000E+00 -0.00000000000E+00 -0.35740347158E-01  0.35744000000E-01  0.51099999109E-03 0.  1.
       22    1    1    2    0    0  0.11656113366E-01 -0.17695629142E-02 -0.33736289855E-01  0.35737005818E-01  0.00000000000E+00 0.  1.
  9000001    1    1    2    0    0 -0.11656113366E-01  0.17695629142E-02  0.33736289855E-01  0.35750994182E-01  0.10000000475E-02 0. -1.
</event>
<event>
 4   0  0.2441219E-02  0.9118800E+02  0.7818609E-02  0.1379984E+01
      -11   -1    0    0    0    0  0.00000000000E+00  0.00000000000E+00  0.35740347158E-01  0.35744000000E-01  0.51099999109E-03 0. -1.
       11   -1    0    0    0    0 -0.00000000000E+00 -0.00000000000E+00 -0.35740347158E-01  0.35744000000E-01  0.51099999109E-03 0.  1.
       22    1    1    2    0    0  0.14891262464E-01 -0.31450935684E-01  0.81377227587E-02  0.35737005818E-01  0.00000000000E+00 0. -1.
  9000001    1    1    2    0    0 -0.14891262464E-01  0.31450935684E-01 -0.81377227587E-02  0.35750994182E-01  0.10000000475E-02 0.  1.
</event>
<event>
 4   0  0.2441219E-02  0.9118800E+02  0.7818609E-02  0.1379984E+01
      -11   -1    0    0    0    0  0.00000000000E+00  0.00000000000E+00  0.35740347158E-01  0.35744000000E-01  0.51099999109E-03 0.  1.
       11   -1    0    0    0    0 -0.00000000000E+00 -0.00000000000E+00 -0.35740347158E-01  0.35744000000E-01  0.51099999109E-03 0. -1.
       22    1    1    2    0    0  0.23719036307E-01  0.90048323988E-02 -0.25168509988E-01  0.35737005818E-01  0.00000000000E+00 0. -1.
  9000001    1    1    2    0    0 -0.23719036307E-01 -0.90048323988E-02  0.25168509988E-01  0.35750994182E-01  0.10000000475E-02 0.  1.
</event>
<event>
 4   0  0.2441219E-02  0.9118800E+02  0.7818609E-02  0.1379984E+01
      -11   -1    0    0    0    0  0.00000000000E+00  0.00000000000E+00  0.35740347158E-01  0.35744000000E-01  0.51099999109E-03 0.  1.
       11   -1    0    0    0    0 -0.00000000000E+00 -0.00000000000E+00 -0.35740347158E-01  0.35744000000E-01  0.51099999109E-03 0. -1.
       22    1    1    2    0    0 -0.48197733001E-02 -0.51932801008E-03 -0.35406689603E-01  0.35737005818E-01  0.00000000000E+00 0. -1.
  9000001    1    1    2    0    0  0.48197733001E-02  0.51932801008E-03  0.35406689603E-01  0.35750994182E-01  0.10000000475E-02 0.  1.
</event>
<event>
 4   0  0.2441219E-02  0.9118800E+02  0.7818609E-02  0.1379984E+01
      -11   -1    0    0    0    0  0.00000000000E+00  0.00000000000E+00  0.35740347158E-01  0.35744000000E-01  0.51099999109E-03 0. -1.
       11   -1    0    0    0    0 -0.00000000000E+00 -0.00000000000E+00 -0.35740347158E-01  0.35744000000E-01  0.51099999109E-03 0.  1.
       22    1    1    2    0    0 -0.22074850244E-02 -0.25366022249E-02  0.35578451960E-01  0.35737005818E-01  0.00000000000E+00 0. -1.
  9000001    1    1    2    0    0  0.22074850244E-02  0.25366022249E-02 -0.35578451960E-01  0.35750994182E-01  0.10000000475E-02 0.  1.
</event>
<event>
 4   0  0.2441219E-02  0.9118800E+02  0.7818609E-02  0.1379984E+01
      -11   -1    0    0    0    0  0.00000000000E+00  0.00000000000E+00  0.35740347158E-01  0.35744000000E-01  0.51099999109E-03 0.  1.
       11   -1    0    0    0    0 -0.00000000000E+00 -0.00000000000E+00 -0.35740347158E-01  0.35744000000E-01  0.51099999109E-03 0. -1.
       22    1    1    2    0    0 -0.25393550373E-01 -0.68812973749E-02 -0.24185717496E-01  0.35737005818E-01  0.00000000000E+00 0. -1.
  9000001    1    1    2    0    0  0.25393550373E-01  0.68812973749E-02  0.24185717496E-01  0.35750994182E-01  0.10000000475E-02 0.  1.
</event>
<event>
 4   0  0.2441219E-02  0.9118800E+02  0.7818609E-02  0.1379984E+01
      -11   -1    0    0    0    0  0.00000000000E+00  0.00000000000E+00  0.35740347158E-01  0.35744000000E-01  0.51099999109E-03 0.  1.
       11   -1    0    0    0    0 -0.00000000000E+00 -0.00000000000E+00 -0.35740347158E-01  0.35744000000E-01  0.51099999109E-03 0. -1.
       22    1    1    2    0    0  0.25403245140E-01 -0.76177372455E-02  0.23953680312E-01  0.35737005818E-01  0.00000000000E+00 0.  1.
  9000001    1    1    2    0    0 -0.25403245140E-01  0.76177372455E-02 -0.23953680312E-01  0.35750994182E-01  0.10000000475E-02 0. -1.
</event>
<event>
 4   0  0.2441219E-02  0.9118800E+02  0.7818609E-02  0.1379984E+01
      -11   -1    0    0    0    0  0.00000000000E+00  0.00000000000E+00  0.35740347158E-01  0.35744000000E-01  0.51099999109E-03 0. -1.
       11   -1    0    0    0    0 -0.00000000000E+00 -0.00000000000E+00 -0.35740347158E-01  0.35744000000E-01  0.51099999109E-03 0.  1.
       22    1    1    2    0    0  0.88748922771E-02  0.28833298964E-02  0.34497192359E-01  0.35737005818E-01  0.00000000000E+00 0. -1.
  9000001    1    1    2    0    0 -0.88748922771E-02 -0.28833298964E-02 -0.34497192359E-01  0.35750994182E-01  0.10000000475E-02 0.  1.
</event>
<event>
 4   0  0.2441219E-02  0.9118800E+02  0.7818609E-02  0.1379984E+01
      -11   -1    0    0    0    0  0.00000000000E+00  0.00000000000E+00  0.35740347158E-01  0.35744000000E-01  0.51099999109E-03 0.  1.
       11   -1    0    0    0    0 -0.00000000000E+00 -0.00000000000E+00 -0.35740347158E-01  0.35744000000E-01  0.51099999109E-03 0. -1.
       22    1    1    2    0    0  0.22370599139E-01  0.26839585114E-01  0.75051015921E-02  0.35737005818E-01  0.00000000000E+00 0.  1.
  9000001    1    1    2    0    0 -0.22370599139E-01 -0.26839585114E-01 -0.75051015921E-02  0.35750994182E-01  0.10000000475E-02 0. -1.
</event>
<event>
 4   0  0.2441219E-02  0.9118800E+02  0.7818609E-02  0.1379984E+01
      -11   -1    0    0    0    0  0.00000000000E+00  0.00000000000E+00  0.35740347158E-01  0.35744000000E-01  0.51099999109E-03 0.  1.
       11   -1    0    0    0    0 -0.00000000000E+00 -0.00000000000E+00 -0.35740347158E-01  0.35744000000E-01  0.51099999109E-03 0. -1.
       22    1    1    2    0    0 -0.43096817774E-02  0.63562438888E-02  0.34902125888E-01  0.35737005818E-01  0.00000000000E+00 0.  1.
  9000001    1    1    2    0    0  0.43096817774E-02 -0.63562438888E-02 -0.34902125888E-01  0.35750994182E-01  0.10000000475E-02 0. -1.
</event>
<event>
 4   0  0.2441219E-02  0.9118800E+02  0.7818609E-02  0.1379984E+01
      -11   -1    0    0    0    0  0.00000000000E+00  0.00000000000E+00  0.35740347158E-01  0.35744000000E-01  0.51099999109E-03 0.  1.
       11   -1    0    0    0    0 -0.00000000000E+00 -0.00000000000E+00 -0.35740347158E-01  0.35744000000E-01  0.51099999109E-03 0. -1.
       22    1    1    2    0    0 -0.26017993857E-02  0.43401779225E-02  0.35376928646E-01  0.35737005818E-01  0.00000000000E+00 0.  1.
  9000001    1    1    2    0    0  0.26017993857E-02 -0.43401779225E-02 -0.35376928646E-01  0.35750994182E-01  0.10000000475E-02 0. -1.
</event>
<event>
 4   0  0.2441219E-02  0.9118800E+02  0.7818609E-02  0.1379984E+01
      -11   -1    0    0    0    0  0.00000000000E+00  0.00000000000E+00  0.35740347158E-01  0.35744000000E-01  0.51099999109E-03 0.  1.
       11   -1    0    0    0    0 -0.00000000000E+00 -0.00000000000E+00 -0.35740347158E-01  0.35744000000E-01  0.51099999109E-03 0. -1.
       22    1    1    2    0    0 -0.84494011121E-02  0.96260487888E-02  0.33362859446E-01  0.35737005818E-01  0.00000000000E+00 0.  1.
  9000001    1    1    2    0    0  0.84494011121E-02 -0.96260487888E-02 -0.33362859446E-01  0.35750994182E-01  0.10000000475E-02 0. -1.
</event>
<event>
 4   0  0.2441219E-02  0.9118800E+02  0.7818609E-02  0.1379984E+01
      -11   -1    0    0    0    0  0.00000000000E+00  0.00000000000E+00  0.35740347158E-01  0.35744000000E-01  0.51099999109E-03 0. -1.
       11   -1    0    0    0    0 -0.00000000000E+00 -0.00000000000E+00 -0.35740347158E-01  0.35744000000E-01  0.51099999109E-03 0.  1.
       22    1    1    2    0    0  0.46744716609E-02 -0.35496283486E-02  0.35251709720E-01  0.35737005818E-01  0.00000000000E+00 0. -1.
  9000001    1    1    2    0    0 -0.46744716609E-02  0.35496283486E-02 -0.35251709720E-01  0.35750994182E-01  0.10000000475E-02 0.  1.
</event>
<event>
 4   0  0.2441219E-02  0.9118800E+02  0.7818609E-02  0.1379984E+01
      -11   -1    0    0    0    0  0.00000000000E+00  0.00000000000E+00  0.35740347158E-01  0.35744000000E-01  0.51099999109E-03 0. -1.
       11   -1    0    0    0    0 -0.00000000000E+00 -0.00000000000E+00 -0.35740347158E-01  0.35744000000E-01  0.51099999109E-03 0.  1.
       22    1    1    2    0    0  0.35245597530E-02  0.20914120535E-02 -0.35501226162E-01  0.35737005818E-01  0.00000000000E+00 0.  1.
  9000001    1    1    2    0    0 -0.35245597530E-02 -0.20914120535E-02  0.35501226162E-01  0.35750994182E-01  0.10000000475E-02 0. -1.
</event>
<event>
 4   0  0.2441219E-02  0.9118800E+02  0.7818609E-02  0.1379984E+01
      -11   -1    0    0    0    0  0.00000000000E+00  0.00000000000E+00  0.35740347158E-01  0.35744000000E-01  0.51099999109E-03 0.  1.
       11   -1    0    0    0    0 -0.00000000000E+00 -0.00000000000E+00 -0.35740347158E-01  0.35744000000E-01  0.51099999109E-03 0. -1.
       22    1    1    2    0    0 -0.79082355184E-02 -0.25375017748E-01 -0.23889367303E-01  0.35737005818E-01  0.00000000000E+00 0. -1.
  9000001    1    1    2    0    0  0.79082355184E-02  0.25375017748E-01  0.23889367303E-01  0.35750994182E-01  0.10000000475E-02 0.  1.
</event>
<event>
 4   0  0.2441219E-02  0.9118800E+02  0.7818609E-02  0.1379984E+01
      -11   -1    0    0    0    0  0.00000000000E+00  0.00000000000E+00  0.35740347158E-01  0.35744000000E-01  0.51099999109E-03 0.  1.
       11   -1    0    0    0    0 -0.00000000000E+00 -0.00000000000E+00 -0.35740347158E-01  0.35744000000E-01  0.51099999109E-03 0. -1.
       22    1    1    2    0    0 -0.15361411551E-02 -0.45940356480E-02  0.35407184182E-01  0.35737005818E-01  0.00000000000E+00 0.  1.
  9000001    1    1    2    0    0  0.15361411551E-02  0.45940356480E-02 -0.35407184182E-01  0.35750994182E-01  0.10000000475E-02 0. -1.
</event>
<event>
 4   0  0.2441219E-02  0.9118800E+02  0.7818609E-02  0.1379984E+01
      -11   -1    0    0    0    0  0.00000000000E+00  0.00000000000E+00  0.35740347158E-01  0.35744000000E-01  0.51099999109E-03 0. -1.
       11   -1    0    0    0    0 -0.00000000000E+00 -0.00000000000E+00 -0.35740347158E-01  0.35744000000E-01  0.51099999109E-03 0.  1.
       22    1    1    2    0    0 -0.24510212708E-02 -0.31172967605E-01  0.17302374702E-01  0.35737005818E-01  0.00000000000E+00 0. -1.
  9000001    1    1    2    0    0  0.24510212708E-02  0.31172967605E-01 -0.17302374702E-01  0.35750994182E-01  0.10000000475E-02 0.  1.
</event>
<event>
 4   0  0.2441219E-02  0.9118800E+02  0.7818609E-02  0.1379984E+01
      -11   -1    0    0    0    0  0.00000000000E+00  0.00000000000E+00  0.35740347158E-01  0.35744000000E-01  0.51099999109E-03 0.  1.
       11   -1    0    0    0    0 -0.00000000000E+00 -0.00000000000E+00 -0.35740347158E-01  0.35744000000E-01  0.51099999109E-03 0. -1.
       22    1    1    2    0    0 -0.13450804507E-01 -0.17869585523E-01 -0.27872699120E-01  0.35737005818E-01  0.00000000000E+00 0. -1.
  9000001    1    1    2    0    0  0.13450804507E-01  0.17869585523E-01  0.27872699120E-01  0.35750994182E-01  0.10000000475E-02 0.  1.
</event>
<event>
 4   0  0.2441219E-02  0.9118800E+02  0.7818609E-02  0.1379984E+01
      -11   -1    0    0    0    0  0.00000000000E+00  0.00000000000E+00  0.35740347158E-01  0.35744000000E-01  0.51099999109E-03 0. -1.
       11   -1    0    0    0    0 -0.00000000000E+00 -0.00000000000E+00 -0.35740347158E-01  0.35744000000E-01  0.51099999109E-03 0.  1.
       22    1    1    2    0    0  0.70560564149E-02 -0.69245364708E-02  0.34342341903E-01  0.35737005818E-01  0.00000000000E+00 0. -1.
  9000001    1    1    2    0    0 -0.70560564149E-02  0.69245364708E-02 -0.34342341903E-01  0.35750994182E-01  0.10000000475E-02 0.  1.
</event>
<event>
 4   0  0.2441219E-02  0.9118800E+02  0.7818609E-02  0.1379984E+01
      -11   -1    0    0    0    0  0.00000000000E+00  0.00000000000E+00  0.35740347158E-01  0.35744000000E-01  0.51099999109E-03 0. -1.
       11   -1    0    0    0    0 -0.00000000000E+00 -0.00000000000E+00 -0.35740347158E-01  0.35744000000E-01  0.51099999109E-03 0.  1.
       22    1    1    2    0    0  0.67901053081E-02  0.18008832661E-02  0.35039761332E-01  0.35737005818E-01  0.00000000000E+00 0. -1.
  9000001    1    1    2    0    0 -0.67901053081E-02 -0.18008832661E-02 -0.35039761332E-01  0.35750994182E-01  0.10000000475E-02 0.  1.
</event>
<event>
 4   0  0.2441219E-02  0.9118800E+02  0.7818609E-02  0.1379984E+01
      -11   -1    0    0    0    0  0.00000000000E+00  0.00000000000E+00  0.35740347158E-01  0.35744000000E-01  0.51099999109E-03 0. -1.
       11   -1    0    0    0    0 -0.00000000000E+00 -0.00000000000E+00 -0.35740347158E-01  0.35744000000E-01  0.51099999109E-03 0.  1.
       22    1    1    2    0    0 -0.21343564207E-02  0.33326033882E-02 -0.35517205157E-01  0.35737005818E-01  0.00000000000E+00 0.  1.
  9000001    1    1    2    0    0  0.21343564207E-02 -0.33326033882E-02  0.35517205157E-01  0.35750994182E-01  0.10000000475E-02 0. -1.
</event>
<event>
 4   0  0.2441219E-02  0.9118800E+02  0.7818609E-02  0.1379984E+01
      -11   -1    0    0    0    0  0.00000000000E+00  0.00000000000E+00  0.35740347158E-01  0.35744000000E-01  0.51099999109E-03 0.  1.
       11   -1    0    0    0    0 -0.00000000000E+00 -0.00000000000E+00 -0.35740347158E-01  0.35744000000E-01  0.51099999109E-03 0. -1.
       22    1    1    2    0    0 -0.31416759723E-03 -0.58712839183E-02  0.35250005798E-01  0.35737005818E-01  0.00000000000E+00 0.  1.
  9000001    1    1    2    0    0  0.31416759723E-03  0.58712839183E-02 -0.35250005798E-01  0.35750994182E-01  0.10000000475E-02 0. -1.
</event>
<event>
 4   0  0.2441219E-02  0.9118800E+02  0.7818609E-02  0.1379984E+01
      -11   -1    0    0    0    0  0.00000000000E+00  0.00000000000E+00  0.35740347158E-01  0.35744000000E-01  0.51099999109E-03 0.  1.
       11   -1    0    0    0    0 -0.00000000000E+00 -0.00000000000E+00 -0.35740347158E-01  0.35744000000E-01  0.51099999109E-03 0. -1.
       22    1    1    2    0    0 -0.32878153071E-01  0.12606351377E-01 -0.61025028049E-02  0.35737005818E-01  0.00000000000E+00 0. -1.
  9000001    1    1    2    0    0  0.32878153071E-01 -0.12606351377E-01  0.61025028049E-02  0.35750994182E-01  0.10000000475E-02 0.  1.
</event>
<event>
 4   0  0.2441219E-02  0.9118800E+02  0.7818609E-02  0.1379984E+01
      -11   -1    0    0    0    0  0.00000000000E+00  0.00000000000E+00  0.35740347158E-01  0.35744000000E-01  0.51099999109E-03 0.  1.
       11   -1    0    0    0    0 -0.00000000000E+00 -0.00000000000E+00 -0.35740347158E-01  0.35744000000E-01  0.51099999109E-03 0. -1.
       22    1    1    2    0    0  0.85005275286E-03  0.48618336507E-02  0.35394541511E-01  0.35737005818E-01  0.00000000000E+00 0.  1.
  9000001    1    1    2    0    0 -0.85005275286E-03 -0.48618336507E-02 -0.35394541511E-01  0.35750994182E-01  0.10000000475E-02 0. -1.
</event>
<event>
 4   0  0.2441219E-02  0.9118800E+02  0.7818609E-02  0.1379984E+01
      -11   -1    0    0    0    0  0.00000000000E+00  0.00000000000E+00  0.35740347158E-01  0.35744000000E-01  0.51099999109E-03 0. -1.
       11   -1    0    0    0    0 -0.00000000000E+00 -0.00000000000E+00 -0.35740347158E-01  0.35744000000E-01  0.51099999109E-03 0.  1.
       22    1    1    2    0    0 -0.34479224486E-02  0.12452316963E-01 -0.33319442041E-01  0.35737005818E-01  0.00000000000E+00 0.  1.
  9000001    1    1    2    0    0  0.34479224486E-02 -0.12452316963E-01  0.33319442041E-01  0.35750994182E-01  0.10000000475E-02 0. -1.
</event>
<event>
 4   0  0.2441219E-02  0.9118800E+02  0.7818609E-02  0.1379984E+01
      -11   -1    0    0    0    0  0.00000000000E+00  0.00000000000E+00  0.35740347158E-01  0.35744000000E-01  0.51099999109E-03 0.  1.
       11   -1    0    0    0    0 -0.00000000000E+00 -0.00000000000E+00 -0.35740347158E-01  0.35744000000E-01  0.51099999109E-03 0. -1.
       22    1    1    2    0    0 -0.60054435112E-02 -0.10270973778E-01 -0.33698298633E-01  0.35737005818E-01  0.00000000000E+00 0. -1.
  9000001    1    1    2    0    0  0.60054435112E-02  0.10270973778E-01  0.33698298633E-01  0.35750994182E-01  0.10000000475E-02 0.  1.
</event>
<event>
 4   0  0.2441219E-02  0.9118800E+02  0.7818609E-02  0.1379984E+01
      -11   -1    0    0    0    0  0.00000000000E+00  0.00000000000E+00  0.35740347158E-01  0.35744000000E-01  0.51099999109E-03 0. -1.
       11   -1    0    0    0    0 -0.00000000000E+00 -0.00000000000E+00 -0.35740347158E-01  0.35744000000E-01  0.51099999109E-03 0.  1.
       22    1    1    2    0    0 -0.40150266645E-02  0.14261268911E-01 -0.32521213919E-01  0.35737005818E-01  0.00000000000E+00 0.  1.
  9000001    1    1    2    0    0  0.40150266645E-02 -0.14261268911E-01  0.32521213919E-01  0.35750994182E-01  0.10000000475E-02 0. -1.
</event>
<event>
 4   0  0.2441219E-02  0.9118800E+02  0.7818609E-02  0.1379984E+01
      -11   -1    0    0    0    0  0.00000000000E+00  0.00000000000E+00  0.35740347158E-01  0.35744000000E-01  0.51099999109E-03 0. -1.
       11   -1    0    0    0    0 -0.00000000000E+00 -0.00000000000E+00 -0.35740347158E-01  0.35744000000E-01  0.51099999109E-03 0.  1.
       22    1    1    2    0    0 -0.12023000535E-01  0.26753332029E-02  0.33547334250E-01  0.35737005818E-01  0.00000000000E+00 0. -1.
  9000001    1    1    2    0    0  0.12023000535E-01 -0.26753332029E-02 -0.33547334250E-01  0.35750994182E-01  0.10000000475E-02 0.  1.
</event>
<event>
 4   0  0.2441219E-02  0.9118800E+02  0.7818609E-02  0.1379984E+01
      -11   -1    0    0    0    0  0.00000000000E+00  0.00000000000E+00  0.35740347158E-01  0.35744000000E-01  0.51099999109E-03 0.  1.
       11   -1    0    0    0    0 -0.00000000000E+00 -0.00000000000E+00 -0.35740347158E-01  0.35744000000E-01  0.51099999109E-03 0. -1.
       22    1    1    2    0    0 -0.88891097025E-02  0.98140599476E-02 -0.33193396044E-01  0.35737005818E-01  0.00000000000E+00 0. -1.
  9000001    1    1    2    0    0  0.88891097025E-02 -0.98140599476E-02  0.33193396044E-01  0.35750994182E-01  0.10000000475E-02 0.  1.
</event>
<event>
 4   0  0.2441219E-02  0.9118800E+02  0.7818609E-02  0.1379984E+01
      -11   -1    0    0    0    0  0.00000000000E+00  0.00000000000E+00  0.35740347158E-01  0.35744000000E-01  0.51099999109E-03 0.  1.
       11   -1    0    0    0    0 -0.00000000000E+00 -0.00000000000E+00 -0.35740347158E-01  0.35744000000E-01  0.51099999109E-03 0. -1.
       22    1    1    2    0    0  0.21342044336E-02  0.90460996248E-02 -0.34507199798E-01  0.35737005818E-01  0.00000000000E+00 0. -1.
  9000001    1    1    2    0    0 -0.21342044336E-02 -0.90460996248E-02  0.34507199798E-01  0.35750994182E-01  0.10000000475E-02 0.  1.
</event>
<event>
 4   0  0.2441219E-02  0.9118800E+02  0.7818609E-02  0.1379984E+01
      -11   -1    0    0    0    0  0.00000000000E+00  0.00000000000E+00  0.35740347158E-01  0.35744000000E-01  0.51099999109E-03 0.  1.
       11   -1    0    0    0    0 -0.00000000000E+00 -0.00000000000E+00 -0.35740347158E-01  0.35744000000E-01  0.51099999109E-03 0. -1.
       22    1    1    2    0    0  0.57744684043E-02 -0.74514358383E-02  0.34471222831E-01  0.35737005818E-01  0.00000000000E+00 0.  1.
  9000001    1    1    2    0    0 -0.57744684043E-02  0.74514358383E-02 -0.34471222831E-01  0.35750994182E-01  0.10000000475E-02 0. -1.
</event>
<event>
 4   0  0.2441219E-02  0.9118800E+02  0.7818609E-02  0.1379984E+01
      -11   -1    0    0    0    0  0.00000000000E+00  0.00000000000E+00  0.35740347158E-01  0.35744000000E-01  0.51099999109E-03 0. -1.
       11   -1    0    0    0    0 -0.00000000000E+00 -0.00000000000E+00 -0.35740347158E-01  0.35744000000E-01  0.51099999109E-03 0.  1.
       22    1    1    2    0    0 -0.16605699817E-01 -0.16549931128E-01  0.26971913134E-01  0.35737005818E-01  0.00000000000E+00 0. -1.
  9000001    1    1    2    0    0  0.16605699817E-01  0.16549931128E-01 -0.26971913134E-01  0.35750994182E-01  0.10000000475E-02 0.  1.
</event>
<event>
 4   0  0.2441219E-02  0.9118800E+02  0.7818609E-02  0.1379984E+01
      -11   -1    0    0    0    0  0.00000000000E+00  0.00000000000E+00  0.35740347158E-01  0.35744000000E-01  0.51099999109E-03 0. -1.
       11   -1    0    0    0    0 -0.00000000000E+00 -0.00000000000E+00 -0.35740347158E-01  0.35744000000E-01  0.51099999109E-03 0.  1.
       22    1    1    2    0    0  0.11662336283E-02  0.10194841432E-01  0.34232129530E-01  0.35737005818E-01  0.00000000000E+00 0. -1.
  9000001    1    1    2    0    0 -0.11662336283E-02 -0.10194841432E-01 -0.34232129530E-01  0.35750994182E-01  0.10000000475E-02 0.  1.
</event>
<event>
 4   0  0.2441219E-02  0.9118800E+02  0.7818609E-02  0.1379984E+01
      -11   -1    0    0    0    0  0.00000000000E+00  0.00000000000E+00  0.35740347158E-01  0.35744000000E-01  0.51099999109E-03 0. -1.
       11   -1    0    0    0    0 -0.00000000000E+00 -0.00000000000E+00 -0.35740347158E-01  0.35744000000E-01  0.51099999109E-03 0.  1.
       22    1    1    2    0    0 -0.22739375699E-02  0.41360168307E-02 -0.35423948927E-01  0.35737005818E-01  0.00000000000E+00 0.  1.
  9000001    1    1    2    0    0  0.22739375699E-02 -0.41360168307E-02  0.35423948927E-01  0.35750994182E-01  0.10000000475E-02 0. -1.
</event>
<event>
 4   0  0.2441219E-02  0.9118800E+02  0.7818609E-02  0.1379984E+01
      -11   -1    0    0    0    0  0.00000000000E+00  0.00000000000E+00  0.35740347158E-01  0.35744000000E-01  0.51099999109E-03 0.  1.
       11   -1    0    0    0    0 -0.00000000000E+00 -0.00000000000E+00 -0.35740347158E-01  0.35744000000E-01  0.51099999109E-03 0. -1.
       22    1    1    2    0    0  0.87261890826E-02  0.80644117378E-02 -0.33703894023E-01  0.35737005818E-01  0.00000000000E+00 0. -1.
  9000001    1    1    2    0    0 -0.87261890826E-02 -0.80644117378E-02  0.33703894023E-01  0.35750994182E-01  0.10000000475E-02 0.  1.
</event>
<event>
 4   0  0.2441219E-02  0.9118800E+02  0.7818609E-02  0.1379984E+01
      -11   -1    0    0    0    0  0.00000000000E+00  0.00000000000E+00  0.35740347158E-01  0.35744000000E-01  0.51099999109E-03 0.  1.
       11   -1    0    0    0    0 -0.00000000000E+00 -0.00000000000E+00 -0.35740347158E-01  0.35744000000E-01  0.51099999109E-03 0. -1.
       22    1    1    2    0    0  0.27650095920E-01  0.12226305298E-01 -0.19055792801E-01  0.35737005818E-01  0.00000000000E+00 0. -1.
  9000001    1    1    2    0    0 -0.27650095920E-01 -0.12226305298E-01  0.19055792801E-01  0.35750994182E-01  0.10000000475E-02 0.  1.
</event>
<event>
 4   0  0.2441219E-02  0.9118800E+02  0.7818609E-02  0.1379984E+01
      -11   -1    0    0    0    0  0.00000000000E+00  0.00000000000E+00  0.35740347158E-01  0.35744000000E-01  0.51099999109E-03 0. -1.
       11   -1    0    0    0    0 -0.00000000000E+00 -0.00000000000E+00 -0.35740347158E-01  0.35744000000E-01  0.51099999109E-03 0.  1.
       22    1    1    2    0    0  0.48900608144E-02  0.64185224398E-02 -0.34814127302E-01  0.35737005818E-01  0.00000000000E+00 0.  1.
  9000001    1    1    2    0    0 -0.48900608144E-02 -0.64185224398E-02  0.34814127302E-01  0.35750994182E-01  0.10000000475E-02 0. -1.
</event>
<event>
 4   0  0.2441219E-02  0.9118800E+02  0.7818609E-02  0.1379984E+01
      -11   -1    0    0    0    0  0.00000000000E+00  0.00000000000E+00  0.35740347158E-01  0.35744000000E-01  0.51099999109E-03 0.  1.
       11   -1    0    0    0    0 -0.00000000000E+00 -0.00000000000E+00 -0.35740347158E-01  0.35744000000E-01  0.51099999109E-03 0. -1.
       22    1    1    2    0    0 -0.17363588357E-01 -0.32698324198E-03 -0.31233515111E-01  0.35737005818E-01  0.00000000000E+00 0. -1.
  9000001    1    1    2    0    0  0.17363588357E-01  0.32698324198E-03  0.31233515111E-01  0.35750994182E-01  0.10000000475E-02 0.  1.
</event>
<event>
 4   0  0.2441219E-02  0.9118800E+02  0.7818609E-02  0.1379984E+01
      -11   -1    0    0    0    0  0.00000000000E+00  0.00000000000E+00  0.35740347158E-01  0.35744000000E-01  0.51099999109E-03 0. -1.
       11   -1    0    0    0    0 -0.00000000000E+00 -0.00000000000E+00 -0.35740347158E-01  0.35744000000E-01  0.51099999109E-03 0.  1.
       22    1    1    2    0    0  0.34755952560E-02  0.16369675530E-01 -0.31576693075E-01  0.35737005818E-01  0.00000000000E+00 0.  1.
  9000001    1    1    2    0    0 -0.34755952560E-02 -0.16369675530E-01  0.31576693075E-01  0.35750994182E-01  0.10000000475E-02 0. -1.
</event>
<event>
 4   0  0.2441219E-02  0.9118800E+02  0.7818609E-02  0.1379984E+01
      -11   -1    0    0    0    0  0.00000000000E+00  0.00000000000E+00  0.35740347158E-01  0.35744000000E-01  0.51099999109E-03 0. -1.
       11   -1    0    0    0    0 -0.00000000000E+00 -0.00000000000E+00 -0.35740347158E-01  0.35744000000E-01  0.51099999109E-03 0.  1.
       22    1    1    2    0    0  0.17063527321E-01 -0.43753870617E-02  0.31093819455E-01  0.35737005818E-01  0.00000000000E+00 0. -1.
  9000001    1    1    2    0    0 -0.17063527321E-01  0.43753870617E-02 -0.31093819455E-01  0.35750994182E-01  0.10000000475E-02 0.  1.
</event>
<event>
 4   0  0.2441219E-02  0.9118800E+02  0.7818609E-02  0.1379984E+01
      -11   -1    0    0    0    0  0.00000000000E+00  0.00000000000E+00  0.35740347158E-01  0.35744000000E-01  0.51099999109E-03 0. -1.
       11   -1    0    0    0    0 -0.00000000000E+00 -0.00000000000E+00 -0.35740347158E-01  0.35744000000E-01  0.51099999109E-03 0.  1.
       22    1    1    2    0    0  0.85424805255E-02 -0.21128333818E-02  0.34636621464E-01  0.35737005818E-01  0.00000000000E+00 0. -1.
  9000001    1    1    2    0    0 -0.85424805255E-02  0.21128333818E-02 -0.34636621464E-01  0.35750994182E-01  0.10000000475E-02 0.  1.
</event>
<event>
 4   0  0.2441219E-02  0.9118800E+02  0.7818609E-02  0.1379984E+01
      -11   -1    0    0    0    0  0.00000000000E+00  0.00000000000E+00  0.35740347158E-01  0.35744000000E-01  0.51099999109E-03 0. -1.
       11   -1    0    0    0    0 -0.00000000000E+00 -0.00000000000E+00 -0.35740347158E-01  0.35744000000E-01  0.51099999109E-03 0.  1.
       22    1    1    2    0    0  0.24987803152E-01 -0.86969676778E-02  0.24023031277E-01  0.35737005818E-01  0.00000000000E+00 0.  1.
  9000001    1    1    2    0    0 -0.24987803152E-01  0.86969676778E-02 -0.24023031277E-01  0.35750994182E-01  0.10000000475E-02 0. -1.
</event>
<event>
 4   0  0.2441219E-02  0.9118800E+02  0.7818609E-02  0.1379984E+01
      -11   -1    0    0    0    0  0.00000000000E+00  0.00000000000E+00  0.35740347158E-01  0.35744000000E-01  0.51099999109E-03 0.  1.
       11   -1    0    0    0    0 -0.00000000000E+00 -0.00000000000E+00 -0.35740347158E-01  0.35744000000E-01  0.51099999109E-03 0. -1.
       22    1    1    2    0    0  0.12508578611E-01  0.29352785486E-02  0.33347461460E-01  0.35737005818E-01  0.00000000000E+00 0.  1.
  9000001    1    1    2    0    0 -0.12508578611E-01 -0.29352785486E-02 -0.33347461460E-01  0.35750994182E-01  0.10000000475E-02 0. -1.
</event>
<event>
 4   0  0.2441219E-02  0.9118800E+02  0.7818609E-02  0.1379984E+01
      -11   -1    0    0    0    0  0.00000000000E+00  0.00000000000E+00  0.35740347158E-01  0.35744000000E-01  0.51099999109E-03 0.  1.
       11   -1    0    0    0    0 -0.00000000000E+00 -0.00000000000E+00 -0.35740347158E-01  0.35744000000E-01  0.51099999109E-03 0. -1.
       22    1    1    2    0    0 -0.28309085288E-01 -0.21779183890E-01 -0.11817038952E-02  0.35737005818E-01  0.00000000000E+00 0.  1.
  9000001    1    1    2    0    0  0.28309085288E-01  0.21779183890E-01  0.11817038952E-02  0.35750994182E-01  0.10000000475E-02 0. -1.
</event>
<event>
 4   0  0.2441219E-02  0.9118800E+02  0.7818609E-02  0.1379984E+01
      -11   -1    0    0    0    0  0.00000000000E+00  0.00000000000E+00  0.35740347158E-01  0.35744000000E-01  0.51099999109E-03 0. -1.
       11   -1    0    0    0    0 -0.00000000000E+00 -0.00000000000E+00 -0.35740347158E-01  0.35744000000E-01  0.51099999109E-03 0.  1.
       22    1    1    2    0    0  0.16044406837E-01 -0.14395093336E-02 -0.31900445247E-01  0.35737005818E-01  0.00000000000E+00 0.  1.
  9000001    1    1    2    0    0 -0.16044406837E-01  0.14395093336E-02  0.31900445247E-01  0.35750994182E-01  0.10000000475E-02 0. -1.
</event>
<event>
 4   0  0.2441219E-02  0.9118800E+02  0.7818609E-02  0.1379984E+01
      -11   -1    0    0    0    0  0.00000000000E+00  0.00000000000E+00  0.35740347158E-01  0.35744000000E-01  0.51099999109E-03 0. -1.
       11   -1    0    0    0    0 -0.00000000000E+00 -0.00000000000E+00 -0.35740347158E-01  0.35744000000E-01  0.51099999109E-03 0.  1.
       22    1    1    2    0    0  0.24358457424E-01  0.10552202614E-01  0.23925930636E-01  0.35737005818E-01  0.00000000000E+00 0. -1.
  9000001    1    1    2    0    0 -0.24358457424E-01 -0.10552202614E-01 -0.23925930636E-01  0.35750994182E-01  0.10000000475E-02 0.  1.
</event>
<event>
 4   0  0.2441219E-02  0.9118800E+02  0.7818609E-02  0.1379984E+01
      -11   -1    0    0    0    0  0.00000000000E+00  0.00000000000E+00  0.35740347158E-01  0.35744000000E-01  0.51099999109E-03 0. -1.
       11   -1    0    0    0    0 -0.00000000000E+00 -0.00000000000E+00 -0.35740347158E-01  0.35744000000E-01  0.51099999109E-03 0.  1.
       22    1    1    2    0    0 -0.27997811170E-02 -0.11593026820E-02  0.35608297177E-01  0.35737005818E-01  0.00000000000E+00 0. -1.
  9000001    1    1    2    0    0  0.27997811170E-02  0.11593026820E-02 -0.35608297177E-01  0.35750994182E-01  0.10000000475E-02 0.  1.
</event>
<event>
 4   0  0.2441219E-02  0.9118800E+02  0.7818609E-02  0.1379984E+01
      -11   -1    0    0    0    0  0.00000000000E+00  0.00000000000E+00  0.35740347158E-01  0.35744000000E-01  0.51099999109E-03 0. -1.
       11   -1    0    0    0    0 -0.00000000000E+00 -0.00000000000E+00 -0.35740347158E-01  0.35744000000E-01  0.51099999109E-03 0.  1.
       22    1    1    2    0    0  0.87576133721E-02 -0.24673974451E-01  0.24323502578E-01  0.35737005818E-01  0.00000000000E+00 0. -1.
  9000001    1    1    2    0    0 -0.87576133721E-02  0.24673974451E-01 -0.24323502578E-01  0.35750994182E-01  0.10000000475E-02 0.  1.
</event>
<event>
 4   0  0.2441219E-02  0.9118800E+02  0.7818609E-02  0.1379984E+01
      -11   -1    0    0    0    0  0.00000000000E+00  0.00000000000E+00  0.35740347158E-01  0.35744000000E-01  0.51099999109E-03 0.  1.
       11   -1    0    0    0    0 -0.00000000000E+00 -0.00000000000E+00 -0.35740347158E-01  0.35744000000E-01  0.51099999109E-03 0. -1.
       22    1    1    2    0    0 -0.59937841301E-02  0.65808325965E-02  0.34610703244E-01  0.35737005818E-01  0.00000000000E+00 0.  1.
  9000001    1    1    2    0    0  0.59937841301E-02 -0.65808325965E-02 -0.34610703244E-01  0.35750994182E-01  0.10000000475E-02 0. -1.
</event>
<event>
 4   0  0.2441219E-02  0.9118800E+02  0.7818609E-02  0.1379984E+01
      -11   -1    0    0    0    0  0.00000000000E+00  0.00000000000E+00  0.35740347158E-01  0.35744000000E-01  0.51099999109E-03 0. -1.
       11   -1    0    0    0    0 -0.00000000000E+00 -0.00000000000E+00 -0.35740347158E-01  0.35744000000E-01  0.51099999109E-03 0.  1.
       22    1    1    2    0    0 -0.31667300109E-02 -0.17832132061E-01  0.30807798884E-01  0.35737005818E-01  0.00000000000E+00 0. -1.
  9000001    1    1    2    0    0  0.31667300109E-02  0.17832132061E-01 -0.30807798884E-01  0.35750994182E-01  0.10000000475E-02 0.  1.
</event>
<event>
 4   0  0.2441219E-02  0.9118800E+02  0.7818609E-02  0.1379984E+01
      -11   -1    0    0    0    0  0.00000000000E+00  0.00000000000E+00  0.35740347158E-01  0.35744000000E-01  0.51099999109E-03 0.  1.
       11   -1    0    0    0    0 -0.00000000000E+00 -0.00000000000E+00 -0.35740347158E-01  0.35744000000E-01  0.51099999109E-03 0. -1.
       22    1    1    2    0    0  0.16943174313E-01  0.13252125881E-01  0.28538458065E-01  0.35737005818E-01  0.00000000000E+00 0.  1.
  9000001    1    1    2    0    0 -0.16943174313E-01 -0.13252125881E-01 -0.28538458065E-01  0.35750994182E-01  0.10000000475E-02 0. -1.
</event>
<event>
 4   0  0.2441219E-02  0.9118800E+02  0.7818609E-02  0.1379984E+01
      -11   -1    0    0    0    0  0.00000000000E+00  0.00000000000E+00  0.35740347158E-01  0.35744000000E-01  0.51099999109E-03 0. -1.
       11   -1    0    0    0    0 -0.00000000000E+00 -0.00000000000E+00 -0.35740347158E-01  0.35744000000E-01  0.51099999109E-03 0.  1.
       22    1    1    2    0    0 -0.13264252436E-01 -0.22380720531E-03 -0.33183476348E-01  0.35737005818E-01  0.00000000000E+00 0.  1.
  9000001    1    1    2    0    0  0.13264252436E-01  0.22380720531E-03  0.33183476348E-01  0.35750994182E-01  0.10000000475E-02 0. -1.
</event>
<event>
 4   0  0.2441219E-02  0.9118800E+02  0.7818609E-02  0.1379984E+01
      -11   -1    0    0    0    0  0.00000000000E+00  0.00000000000E+00  0.35740347158E-01  0.35744000000E-01  0.51099999109E-03 0.  1.
       11   -1    0    0    0    0 -0.00000000000E+00 -0.00000000000E+00 -0.35740347158E-01  0.35744000000E-01  0.51099999109E-03 0. -1.
       22    1    1    2    0    0  0.21258113419E-01  0.18079773102E-03  0.28726181628E-01  0.35737005818E-01  0.00000000000E+00 0.  1.
  9000001    1    1    2    0    0 -0.21258113419E-01 -0.18079773102E-03 -0.28726181628E-01  0.35750994182E-01  0.10000000475E-02 0. -1.
</event>
<event>
 4   0  0.2441219E-02  0.9118800E+02  0.7818609E-02  0.1379984E+01
      -11   -1    0    0    0    0  0.00000000000E+00  0.00000000000E+00  0.35740347158E-01  0.35744000000E-01  0.51099999109E-03 0.  1.
       11   -1    0    0    0    0 -0.00000000000E+00 -0.00000000000E+00 -0.35740347158E-01  0.35744000000E-01  0.51099999109E-03 0. -1.
       22    1    1    2    0    0  0.47736350592E-02  0.38555450493E-02 -0.35206260318E-01  0.35737005818E-01  0.00000000000E+00 0. -1.
  9000001    1    1    2    0    0 -0.47736350592E-02 -0.38555450493E-02  0.35206260318E-01  0.35750994182E-01  0.10000000475E-02 0.  1.
</event>
<event>
 4   0  0.2441219E-02  0.9118800E+02  0.7818609E-02  0.1379984E+01
      -11   -1    0    0    0    0  0.00000000000E+00  0.00000000000E+00  0.35740347158E-01  0.35744000000E-01  0.51099999109E-03 0.  1.
       11   -1    0    0    0    0 -0.00000000000E+00 -0.00000000000E+00 -0.35740347158E-01  0.35744000000E-01  0.51099999109E-03 0. -1.
       22    1    1    2    0    0 -0.73648899660E-03  0.39447935082E-02  0.35510981020E-01  0.35737005818E-01  0.00000000000E+00 0.  1.
  9000001    1    1    2    0    0  0.73648899660E-03 -0.39447935082E-02 -0.35510981020E-01  0.35750994182E-01  0.10000000475E-02 0. -1.
</event>
<event>
 4   0  0.2441219E-02  0.9118800E+02  0.7818609E-02  0.1379984E+01
      -11   -1    0    0    0    0  0.00000000000E+00  0.00000000000E+00  0.35740347158E-01  0.35744000000E-01  0.51099999109E-03 0. -1.
       11   -1    0    0    0    0 -0.00000000000E+00 -0.00000000000E+00 -0.35740347158E-01  0.35744000000E-01  0.51099999109E-03 0.  1.
       22    1    1    2    0    0  0.30735411952E-01  0.18212920810E-01 -0.87037494873E-03  0.35737005818E-01  0.00000000000E+00 0.  1.
  9000001    1    1    2    0    0 -0.30735411952E-01 -0.18212920810E-01  0.87037494873E-03  0.35750994182E-01  0.10000000475E-02 0. -1.
</event>
<event>
 4   0  0.2441219E-02  0.9118800E+02  0.7818609E-02  0.1379984E+01
      -11   -1    0    0    0    0  0.00000000000E+00  0.00000000000E+00  0.35740347158E-01  0.35744000000E-01  0.51099999109E-03 0.  1.
       11   -1    0    0    0    0 -0.00000000000E+00 -0.00000000000E+00 -0.35740347158E-01  0.35744000000E-01  0.51099999109E-03 0. -1.
       22    1    1    2    0    0 -0.92384038954E-03  0.56620971156E-02 -0.35273513577E-01  0.35737005818E-01  0.00000000000E+00 0. -1.
  9000001    1    1    2    0    0  0.92384038954E-03 -0.56620971156E-02  0.35273513577E-01  0.35750994182E-01  0.10000000475E-02 0.  1.
</event>
<event>
 4   0  0.2441219E-02  0.9118800E+02  0.7818609E-02  0.1379984E+01
      -11   -1    0    0    0    0  0.00000000000E+00  0.00000000000E+00  0.35740347158E-01  0.35744000000E-01  0.51099999109E-03 0.  1.
       11   -1    0    0    0    0 -0.00000000000E+00 -0.00000000000E+00 -0.35740347158E-01  0.35744000000E-01  0.51099999109E-03 0. -1.
       22    1    1    2    0    0  0.53948340110E-02 -0.10715997479E-02  0.35311202540E-01  0.35737005818E-01  0.00000000000E+00 0.  1.
  9000001    1    1    2    0    0 -0.53948340110E-02  0.10715997479E-02 -0.35311202540E-01  0.35750994182E-01  0.10000000475E-02 0. -1.
</event>
<event>
 4   0  0.2441219E-02  0.9118800E+02  0.7818609E-02  0.1379984E+01
      -11   -1    0    0    0    0  0.00000000000E+00  0.00000000000E+00  0.35740347158E-01  0.35744000000E-01  0.51099999109E-03 0.  1.
       11   -1    0    0    0    0 -0.00000000000E+00 -0.00000000000E+00 -0.35740347158E-01  0.35744000000E-01  0.51099999109E-03 0. -1.
       22    1    1    2    0    0  0.30219790661E-02  0.49937949873E-02  0.35257101966E-01  0.35737005818E-01  0.00000000000E+00 0.  1.
  9000001    1    1    2    0    0 -0.30219790661E-02 -0.49937949873E-02 -0.35257101966E-01  0.35750994182E-01  0.10000000475E-02 0. -1.
</event>
<event>
 4   0  0.2441219E-02  0.9118800E+02  0.7818609E-02  0.1379984E+01
      -11   -1    0    0    0    0  0.00000000000E+00  0.00000000000E+00  0.35740347158E-01  0.35744000000E-01  0.51099999109E-03 0.  1.
       11   -1    0    0    0    0 -0.00000000000E+00 -0.00000000000E+00 -0.35740347158E-01  0.35744000000E-01  0.51099999109E-03 0. -1.
       22    1    1    2    0    0  0.14629268428E-01  0.50460857473E-02 -0.32212654482E-01  0.35737005818E-01  0.00000000000E+00 0. -1.
  9000001    1    1    2    0    0 -0.14629268428E-01 -0.50460857473E-02  0.32212654482E-01  0.35750994182E-01  0.10000000475E-02 0.  1.
</event>
<event>
 4   0  0.2441219E-02  0.9118800E+02  0.7818609E-02  0.1379984E+01
      -11   -1    0    0    0    0  0.00000000000E+00  0.00000000000E+00  0.35740347158E-01  0.35744000000E-01  0.51099999109E-03 0. -1.
       11   -1    0    0    0    0 -0.00000000000E+00 -0.00000000000E+00 -0.35740347158E-01  0.35744000000E-01  0.51099999109E-03 0.  1.
       22    1    1    2    0    0 -0.11922567363E-02 -0.35588476734E-02  0.35539368480E-01  0.35737005818E-01  0.00000000000E+00 0. -1.
  9000001    1    1    2    0    0  0.11922567363E-02  0.35588476734E-02 -0.35539368480E-01  0.35750994182E-01  0.10000000475E-02 0.  1.
</event>
<event>
 4   0  0.2441219E-02  0.9118800E+02  0.7818609E-02  0.1379984E+01
      -11   -1    0    0    0    0  0.00000000000E+00  0.00000000000E+00  0.35740347158E-01  0.35744000000E-01  0.51099999109E-03 0.  1.
       11   -1    0    0    0    0 -0.00000000000E+00 -0.00000000000E+00 -0.35740347158E-01  0.35744000000E-01  0.51099999109E-03 0. -1.
       22    1    1    2    0    0 -0.47590503816E-02 -0.43682842598E-02 -0.35148301765E-01  0.35737005818E-01  0.00000000000E+00 0. -1.
  9000001    1    1    2    0    0  0.47590503816E-02  0.43682842598E-02  0.35148301765E-01  0.35750994182E-01  0.10000000475E-02 0.  1.
</event>
<event>
 4   0  0.2441219E-02  0.9118800E+02  0.7818609E-02  0.1379984E+01
      -11   -1    0    0    0    0  0.00000000000E+00  0.00000000000E+00  0.35740347158E-01  0.35744000000E-01  0.51099999109E-03 0.  1.
       11   -1    0    0    0    0 -0.00000000000E+00 -0.00000000000E+00 -0.35740347158E-01  0.35744000000E-01  0.51099999109E-03 0. -1.
       22    1    1    2    0    0 -0.51123850949E-03  0.45431761211E-02 -0.35443360038E-01  0.35737005818E-01  0.00000000000E+00 0. -1.
  9000001    1    1    2    0    0  0.51123850949E-03 -0.45431761211E-02  0.35443360038E-01  0.35750994182E-01  0.10000000475E-02 0.  1.
</event>
<event>
 4   0  0.2441219E-02  0.9118800E+02  0.7818609E-02  0.1379984E+01
      -11   -1    0    0    0    0  0.00000000000E+00  0.00000000000E+00  0.35740347158E-01  0.35744000000E-01  0.51099999109E-03 0. -1.
       11   -1    0    0    0    0 -0.00000000000E+00 -0.00000000000E+00 -0.35740347158E-01  0.35744000000E-01  0.51099999109E-03 0.  1.
       22    1    1    2    0    0 -0.32404624557E-02 -0.58533243424E-04  0.35589739558E-01  0.35737005818E-01  0.00000000000E+00 0. -1.
  9000001    1    1    2    0    0  0.32404624557E-02  0.58533243424E-04 -0.35589739558E-01  0.35750994182E-01  0.10000000475E-02 0.  1.
</event>
<event>
 4   0  0.2441219E-02  0.9118800E+02  0.7818609E-02  0.1379984E+01
      -11   -1    0    0    0    0  0.00000000000E+00  0.00000000000E+00  0.35740347158E-01  0.35744000000E-01  0.51099999109E-03 0. -1.
       11   -1    0    0    0    0 -0.00000000000E+00 -0.00000000000E+00 -0.35740347158E-01  0.35744000000E-01  0.51099999109E-03 0.  1.
       22    1    1    2    0    0  0.62594410891E-02  0.23969719416E-02 -0.35102813386E-01  0.35737005818E-01  0.00000000000E+00 0.  1.
  9000001    1    1    2    0    0 -0.62594410891E-02 -0.23969719416E-02  0.35102813386E-01  0.35750994182E-01  0.10000000475E-02 0. -1.
</event>
<event>
 4   0  0.2441219E-02  0.9118800E+02  0.7818609E-02  0.1379984E+01
      -11   -1    0    0    0    0  0.00000000000E+00  0.00000000000E+00  0.35740347158E-01  0.35744000000E-01  0.51099999109E-03 0.  1.
       11   -1    0    0    0    0 -0.00000000000E+00 -0.00000000000E+00 -0.35740347158E-01  0.35744000000E-01  0.51099999109E-03 0. -1.
       22    1    1    2    0    0 -0.60844974334E-02  0.83515138700E-02 -0.34210593271E-01  0.35737005818E-01  0.00000000000E+00 0. -1.
  9000001    1    1    2    0    0  0.60844974334E-02 -0.83515138700E-02  0.34210593271E-01  0.35750994182E-01  0.10000000475E-02 0.  1.
</event>
<event>
 4   0  0.2441219E-02  0.9118800E+02  0.7818609E-02  0.1379984E+01
      -11   -1    0    0    0    0  0.00000000000E+00  0.00000000000E+00  0.35740347158E-01  0.35744000000E-01  0.51099999109E-03 0.  1.
       11   -1    0    0    0    0 -0.00000000000E+00 -0.00000000000E+00 -0.35740347158E-01  0.35744000000E-01  0.51099999109E-03 0. -1.
       22    1    1    2    0    0 -0.10862548443E-01 -0.92550881516E-02  0.32764034695E-01  0.35737005818E-01  0.00000000000E+00 0.  1.
  9000001    1    1    2    0    0  0.10862548443E-01  0.92550881516E-02 -0.32764034695E-01  0.35750994182E-01  0.10000000475E-02 0. -1.
</event>
<event>
 4   0  0.2441219E-02  0.9118800E+02  0.7818609E-02  0.1379984E+01
      -11   -1    0    0    0    0  0.00000000000E+00  0.00000000000E+00  0.35740347158E-01  0.35744000000E-01  0.51099999109E-03 0.  1.
       11   -1    0    0    0    0 -0.00000000000E+00 -0.00000000000E+00 -0.35740347158E-01  0.35744000000E-01  0.51099999109E-03 0. -1.
       22    1    1    2    0    0 -0.19780189607E-03 -0.18644948185E-01 -0.30487052440E-01  0.35737005818E-01  0.00000000000E+00 0. -1.
  9000001    1    1    2    0    0  0.19780189607E-03  0.18644948185E-01  0.30487052440E-01  0.35750994182E-01  0.10000000475E-02 0.  1.
</event>
<event>
 4   0  0.2441219E-02  0.9118800E+02  0.7818609E-02  0.1379984E+01
      -11   -1    0    0    0    0  0.00000000000E+00  0.00000000000E+00  0.35740347158E-01  0.35744000000E-01  0.51099999109E-03 0.  1.
       11   -1    0    0    0    0 -0.00000000000E+00 -0.00000000000E+00 -0.35740347158E-01  0.35744000000E-01  0.51099999109E-03 0. -1.
       22    1    1    2    0    0  0.58852036671E-02  0.68199233733E-02  0.34583039309E-01  0.35737005818E-01  0.00000000000E+00 0.  1.
  9000001    1    1    2    0    0 -0.58852036671E-02 -0.68199233733E-02 -0.34583039309E-01  0.35750994182E-01  0.10000000475E-02 0. -1.
</event>
<event>
 4   0  0.2441219E-02  0.9118800E+02  0.7818609E-02  0.1379984E+01
      -11   -1    0    0    0    0  0.00000000000E+00  0.00000000000E+00  0.35740347158E-01  0.35744000000E-01  0.51099999109E-03 0.  1.
       11   -1    0    0    0    0 -0.00000000000E+00 -0.00000000000E+00 -0.35740347158E-01  0.35744000000E-01  0.51099999109E-03 0. -1.
       22    1    1    2    0    0 -0.57932768328E-02 -0.55850036367E-02 -0.34819236964E-01  0.35737005818E-01  0.00000000000E+00 0. -1.
  9000001    1    1    2    0    0  0.57932768328E-02  0.55850036367E-02  0.34819236964E-01  0.35750994182E-01  0.10000000475E-02 0.  1.
</event>
<event>
 4   0  0.2441219E-02  0.9118800E+02  0.7818609E-02  0.1379984E+01
      -11   -1    0    0    0    0  0.00000000000E+00  0.00000000000E+00  0.35740347158E-01  0.35744000000E-01  0.51099999109E-03 0. -1.
       11   -1    0    0    0    0 -0.00000000000E+00 -0.00000000000E+00 -0.35740347158E-01  0.35744000000E-01  0.51099999109E-03 0.  1.
       22    1    1    2    0    0  0.47469226228E-03 -0.30922982797E-02  0.35599802576E-01  0.35737005818E-01  0.00000000000E+00 0. -1.
  9000001    1    1    2    0    0 -0.47469226228E-03  0.30922982797E-02 -0.35599802576E-01  0.35750994182E-01  0.10000000475E-02 0.  1.
</event>
<event>
 4   0  0.2441219E-02  0.9118800E+02  0.7818609E-02  0.1379984E+01
      -11   -1    0    0    0    0  0.00000000000E+00  0.00000000000E+00  0.35740347158E-01  0.35744000000E-01  0.51099999109E-03 0. -1.
       11   -1    0    0    0    0 -0.00000000000E+00 -0.00000000000E+00 -0.35740347158E-01  0.35744000000E-01  0.51099999109E-03 0.  1.
       22    1    1    2    0    0  0.14337737720E-01 -0.64141979415E-02  0.32100170198E-01  0.35737005818E-01  0.00000000000E+00 0. -1.
  9000001    1    1    2    0    0 -0.14337737720E-01  0.64141979415E-02 -0.32100170198E-01  0.35750994182E-01  0.10000000475E-02 0.  1.
</event>
<event>
 4   0  0.2441219E-02  0.9118800E+02  0.7818609E-02  0.1379984E+01
      -11   -1    0    0    0    0  0.00000000000E+00  0.00000000000E+00  0.35740347158E-01  0.35744000000E-01  0.51099999109E-03 0. -1.
       11   -1    0    0    0    0 -0.00000000000E+00 -0.00000000000E+00 -0.35740347158E-01  0.35744000000E-01  0.51099999109E-03 0.  1.
       22    1    1    2    0    0 -0.35784962706E-02 -0.10593137192E-01 -0.33942795903E-01  0.35737005818E-01  0.00000000000E+00 0.  1.
  9000001    1    1    2    0    0  0.35784962706E-02  0.10593137192E-01  0.33942795903E-01  0.35750994182E-01  0.10000000475E-02 0. -1.
</event>
<event>
 4   0  0.2441219E-02  0.9118800E+02  0.7818609E-02  0.1379984E+01
      -11   -1    0    0    0    0  0.00000000000E+00  0.00000000000E+00  0.35740347158E-01  0.35744000000E-01  0.51099999109E-03 0. -1.
       11   -1    0    0    0    0 -0.00000000000E+00 -0.00000000000E+00 -0.35740347158E-01  0.35744000000E-01  0.51099999109E-03 0.  1.
       22    1    1    2    0    0  0.24262021973E-02 -0.22845668043E-02 -0.35581285563E-01  0.35737005818E-01  0.00000000000E+00 0.  1.
  9000001    1    1    2    0    0 -0.24262021973E-02  0.22845668043E-02  0.35581285563E-01  0.35750994182E-01  0.10000000475E-02 0. -1.
</event>
<event>
 4   0  0.2441219E-02  0.9118800E+02  0.7818609E-02  0.1379984E+01
      -11   -1    0    0    0    0  0.00000000000E+00  0.00000000000E+00  0.35740347158E-01  0.35744000000E-01  0.51099999109E-03 0.  1.
       11   -1    0    0    0    0 -0.00000000000E+00 -0.00000000000E+00 -0.35740347158E-01  0.35744000000E-01  0.51099999109E-03 0. -1.
       22    1    1    2    0    0 -0.12705129799E-01 -0.15326162859E-01 -0.29678645415E-01  0.35737005818E-01  0.00000000000E+00 0. -1.
  9000001    1    1    2    0    0  0.12705129799E-01  0.15326162859E-01  0.29678645415E-01  0.35750994182E-01  0.10000000475E-02 0.  1.
</event>
<event>
 4   0  0.2441219E-02  0.9118800E+02  0.7818609E-02  0.1379984E+01
      -11   -1    0    0    0    0  0.00000000000E+00  0.00000000000E+00  0.35740347158E-01  0.35744000000E-01  0.51099999109E-03 0. -1.
       11   -1    0    0    0    0 -0.00000000000E+00 -0.00000000000E+00 -0.35740347158E-01  0.35744000000E-01  0.51099999109E-03 0.  1.
       22    1    1    2    0    0 -0.56102543022E-03  0.29527758422E-02  0.35610391042E-01  0.35737005818E-01  0.00000000000E+00 0. -1.
  9000001    1    1    2    0    0  0.56102543022E-03 -0.29527758422E-02 -0.35610391042E-01  0.35750994182E-01  0.10000000475E-02 0.  1.
</event>
<event>
 4   0  0.2441219E-02  0.9118800E+02  0.7818609E-02  0.1379984E+01
      -11   -1    0    0    0    0  0.00000000000E+00  0.00000000000E+00  0.35740347158E-01  0.35744000000E-01  0.51099999109E-03 0. -1.
       11   -1    0    0    0    0 -0.00000000000E+00 -0.00000000000E+00 -0.35740347158E-01  0.35744000000E-01  0.51099999109E-03 0.  1.
       22    1    1    2    0    0 -0.18458662146E-01  0.21391966020E-02 -0.30525976062E-01  0.35737005818E-01  0.00000000000E+00 0.  1.
  9000001    1    1    2    0    0  0.18458662146E-01 -0.21391966020E-02  0.30525976062E-01  0.35750994182E-01  0.10000000475E-02 0. -1.
</event>
<event>
 4   0  0.2441219E-02  0.9118800E+02  0.7818609E-02  0.1379984E+01
      -11   -1    0    0    0    0  0.00000000000E+00  0.00000000000E+00  0.35740347158E-01  0.35744000000E-01  0.51099999109E-03 0.  1.
       11   -1    0    0    0    0 -0.00000000000E+00 -0.00000000000E+00 -0.35740347158E-01  0.35744000000E-01  0.51099999109E-03 0. -1.
       22    1    1    2    0    0 -0.44235679459E-02 -0.26938398971E-02 -0.35359706703E-01  0.35737005818E-01  0.00000000000E+00 0. -1.
  9000001    1    1    2    0    0  0.44235679459E-02  0.26938398971E-02  0.35359706703E-01  0.35750994182E-01  0.10000000475E-02 0.  1.
</event>
<event>
 4   0  0.2441219E-02  0.9118800E+02  0.7818609E-02  0.1379984E+01
      -11   -1    0    0    0    0  0.00000000000E+00  0.00000000000E+00  0.35740347158E-01  0.35744000000E-01  0.51099999109E-03 0. -1.
       11   -1    0    0    0    0 -0.00000000000E+00 -0.00000000000E+00 -0.35740347158E-01  0.35744000000E-01  0.51099999109E-03 0.  1.
       22    1    1    2    0    0 -0.78829681309E-02  0.35666607922E-02 -0.34673784465E-01  0.35737005818E-01  0.00000000000E+00 0.  1.
  9000001    1    1    2    0    0  0.78829681309E-02 -0.35666607922E-02  0.34673784465E-01  0.35750994182E-01  0.10000000475E-02 0. -1.
</event>
<event>
 4   0  0.2441219E-02  0.9118800E+02  0.7818609E-02  0.1379984E+01
      -11   -1    0    0    0    0  0.00000000000E+00  0.00000000000E+00  0.35740347158E-01  0.35744000000E-01  0.51099999109E-03 0. -1.
       11   -1    0    0    0    0 -0.00000000000E+00 -0.00000000000E+00 -0.35740347158E-01  0.35744000000E-01  0.51099999109E-03 0.  1.
       22    1    1    2    0    0 -0.31122056743E-02  0.91041073899E-02 -0.34417480869E-01  0.35737005818E-01  0.00000000000E+00 0.  1.
  9000001    1    1    2    0    0  0.31122056743E-02 -0.91041073899E-02  0.34417480869E-01  0.35750994182E-01  0.10000000475E-02 0. -1.
</event>
<event>
 4   0  0.2441219E-02  0.9118800E+02  0.7818609E-02  0.1379984E+01
      -11   -1    0    0    0    0  0.00000000000E+00  0.00000000000E+00  0.35740347158E-01  0.35744000000E-01  0.51099999109E-03 0. -1.
       11   -1    0    0    0    0 -0.00000000000E+00 -0.00000000000E+00 -0.35740347158E-01  0.35744000000E-01  0.51099999109E-03 0.  1.
       22    1    1    2    0    0 -0.14683550624E-01  0.15583773641E-03  0.32580709639E-01  0.35737005818E-01  0.00000000000E+00 0. -1.
  9000001    1    1    2    0    0  0.14683550624E-01 -0.15583773641E-03 -0.32580709639E-01  0.35750994182E-01  0.10000000475E-02 0.  1.
</event>
<event>
 4   0  0.2441219E-02  0.9118800E+02  0.7818609E-02  0.1379984E+01
      -11   -1    0    0    0    0  0.00000000000E+00  0.00000000000E+00  0.35740347158E-01  0.35744000000E-01  0.51099999109E-03 0.  1.
       11   -1    0    0    0    0 -0.00000000000E+00 -0.00000000000E+00 -0.35740347158E-01  0.35744000000E-01  0.51099999109E-03 0. -1.
       22    1    1    2    0    0  0.34323078140E-02  0.30368746214E-02 -0.35441927720E-01  0.35737005818E-01  0.00000000000E+00 0. -1.
  9000001    1    1    2    0    0 -0.34323078140E-02 -0.30368746214E-02  0.35441927720E-01  0.35750994182E-01  0.10000000475E-02 0.  1.
</event>
<event>
 4   0  0.2441219E-02  0.9118800E+02  0.7818609E-02  0.1379984E+01
      -11   -1    0    0    0    0  0.00000000000E+00  0.00000000000E+00  0.35740347158E-01  0.35744000000E-01  0.51099999109E-03 0.  1.
       11   -1    0    0    0    0 -0.00000000000E+00 -0.00000000000E+00 -0.35740347158E-01  0.35744000000E-01  0.51099999109E-03 0. -1.
       22    1    1    2    0    0 -0.28756763526E-01 -0.19868726790E-01 -0.74441810925E-02  0.35737005818E-01  0.00000000000E+00 0. -1.
  9000001    1    1    2    0    0  0.28756763526E-01  0.19868726790E-01  0.74441810925E-02  0.35750994182E-01  0.10000000475E-02 0.  1.
</event>
<event>
 4   0  0.2441219E-02  0.9118800E+02  0.7818609E-02  0.1379984E+01
      -11   -1    0    0    0    0  0.00000000000E+00  0.00000000000E+00  0.35740347158E-01  0.35744000000E-01  0.51099999109E-03 0. -1.
       11   -1    0    0    0    0 -0.00000000000E+00 -0.00000000000E+00 -0.35740347158E-01  0.35744000000E-01  0.51099999109E-03 0.  1.
       22    1    1    2    0    0 -0.31844188918E-02 -0.47752798024E-02 -0.35273074207E-01  0.35737005818E-01  0.00000000000E+00 0.  1.
  9000001    1    1    2    0    0  0.31844188918E-02  0.47752798024E-02  0.35273074207E-01  0.35750994182E-01  0.10000000475E-02 0. -1.
</event>
<event>
 4   0  0.2441219E-02  0.9118800E+02  0.7818609E-02  0.1379984E+01
      -11   -1    0    0    0    0  0.00000000000E+00  0.00000000000E+00  0.35740347158E-01  0.35744000000E-01  0.51099999109E-03 0.  1.
       11   -1    0    0    0    0 -0.00000000000E+00 -0.00000000000E+00 -0.35740347158E-01  0.35744000000E-01  0.51099999109E-03 0. -1.
       22    1    1    2    0    0  0.12648945044E-01  0.40820009429E-02 -0.33173408665E-01  0.35737005818E-01  0.00000000000E+00 0. -1.
  9000001    1    1    2    0    0 -0.12648945044E-01 -0.40820009429E-02  0.33173408665E-01  0.35750994182E-01  0.10000000475E-02 0.  1.
</event>
<event>
 4   0  0.2441219E-02  0.9118800E+02  0.7818609E-02  0.1379984E+01
      -11   -1    0    0    0    0  0.00000000000E+00  0.00000000000E+00  0.35740347158E-01  0.35744000000E-01  0.51099999109E-03 0. -1.
       11   -1    0    0    0    0 -0.00000000000E+00 -0.00000000000E+00 -0.35740347158E-01  0.35744000000E-01  0.51099999109E-03 0.  1.
       22    1    1    2    0    0 -0.58624982486E-03 -0.33842577695E-02 -0.35571571449E-01  0.35737005818E-01  0.00000000000E+00 0.  1.
  9000001    1    1    2    0    0  0.58624982486E-03  0.33842577695E-02  0.35571571449E-01  0.35750994182E-01  0.10000000475E-02 0. -1.
</event>
<event>
 4   0  0.2441219E-02  0.9118800E+02  0.7818609E-02  0.1379984E+01
      -11   -1    0    0    0    0  0.00000000000E+00  0.00000000000E+00  0.35740347158E-01  0.35744000000E-01  0.51099999109E-03 0.  1.
       11   -1    0    0    0    0 -0.00000000000E+00 -0.00000000000E+00 -0.35740347158E-01  0.35744000000E-01  0.51099999109E-03 0. -1.
       22    1    1    2    0    0  0.12660244231E-01  0.16828296562E-01  0.28873175020E-01  0.35737005818E-01  0.00000000000E+00 0.  1.
  9000001    1    1    2    0    0 -0.12660244231E-01 -0.16828296562E-01 -0.28873175020E-01  0.35750994182E-01  0.10000000475E-02 0. -1.
</event>
<event>
 4   0  0.2441219E-02  0.9118800E+02  0.7818609E-02  0.1379984E+01
      -11   -1    0    0    0    0  0.00000000000E+00  0.00000000000E+00  0.35740347158E-01  0.35744000000E-01  0.51099999109E-03 0.  1.
       11   -1    0    0    0    0 -0.00000000000E+00 -0.00000000000E+00 -0.35740347158E-01  0.35744000000E-01  0.51099999109E-03 0. -1.
       22    1    1    2    0    0 -0.49095585294E-02  0.28601787785E-02  0.35282420513E-01  0.35737005818E-01  0.00000000000E+00 0.  1.
  9000001    1    1    2    0    0  0.49095585294E-02 -0.28601787785E-02 -0.35282420513E-01  0.35750994182E-01  0.10000000475E-02 0. -1.
</event>
<event>
 4   0  0.2441219E-02  0.9118800E+02  0.7818609E-02  0.1379984E+01
      -11   -1    0    0    0    0  0.00000000000E+00  0.00000000000E+00  0.35740347158E-01  0.35744000000E-01  0.51099999109E-03 0. -1.
       11   -1    0    0    0    0 -0.00000000000E+00 -0.00000000000E+00 -0.35740347158E-01  0.35744000000E-01  0.51099999109E-03 0.  1.
       22    1    1    2    0    0  0.24734220120E-01  0.22607570531E-01 -0.12419730053E-01  0.35737005818E-01  0.00000000000E+00 0.  1.
  9000001    1    1    2    0    0 -0.24734220120E-01 -0.22607570531E-01  0.12419730053E-01  0.35750994182E-01  0.10000000475E-02 0. -1.
</event>
<event>
 4   0  0.2441219E-02  0.9118800E+02  0.7818609E-02  0.1379984E+01
      -11   -1    0    0    0    0  0.00000000000E+00  0.00000000000E+00  0.35740347158E-01  0.35744000000E-01  0.51099999109E-03 0. -1.
       11   -1    0    0    0    0 -0.00000000000E+00 -0.00000000000E+00 -0.35740347158E-01  0.35744000000E-01  0.51099999109E-03 0.  1.
       22    1    1    2    0    0  0.68674519062E-02  0.28581548685E-01  0.20324043987E-01  0.35737005818E-01  0.00000000000E+00 0. -1.
  9000001    1    1    2    0    0 -0.68674519062E-02 -0.28581548685E-01 -0.20324043987E-01  0.35750994182E-01  0.10000000475E-02 0.  1.
</event>
<event>
 4   0  0.2441219E-02  0.9118800E+02  0.7818609E-02  0.1379984E+01
      -11   -1    0    0    0    0  0.00000000000E+00  0.00000000000E+00  0.35740347158E-01  0.35744000000E-01  0.51099999109E-03 0.  1.
       11   -1    0    0    0    0 -0.00000000000E+00 -0.00000000000E+00 -0.35740347158E-01  0.35744000000E-01  0.51099999109E-03 0. -1.
       22    1    1    2    0    0  0.34585266811E-01 -0.84121841358E-02  0.31981342306E-02  0.35737005818E-01  0.00000000000E+00 0. -1.
  9000001    1    1    2    0    0 -0.34585266811E-01  0.84121841358E-02 -0.31981342306E-02  0.35750994182E-01  0.10000000475E-02 0.  1.
</event>
<event>
 4   0  0.2441219E-02  0.9118800E+02  0.7818609E-02  0.1379984E+01
      -11   -1    0    0    0    0  0.00000000000E+00  0.00000000000E+00  0.35740347158E-01  0.35744000000E-01  0.51099999109E-03 0. -1.
       11   -1    0    0    0    0 -0.00000000000E+00 -0.00000000000E+00 -0.35740347158E-01  0.35744000000E-01  0.51099999109E-03 0.  1.
       22    1    1    2    0    0 -0.31707766589E-02  0.36890717026E-02 -0.35404385466E-01  0.35737005818E-01  0.00000000000E+00 0.  1.
  9000001    1    1    2    0    0  0.31707766589E-02 -0.36890717026E-02  0.35404385466E-01  0.35750994182E-01  0.10000000475E-02 0. -1.
</event>
<event>
 4   0  0.2441219E-02  0.9118800E+02  0.7818609E-02  0.1379984E+01
      -11   -1    0    0    0    0  0.00000000000E+00  0.00000000000E+00  0.35740347158E-01  0.35744000000E-01  0.51099999109E-03 0.  1.
       11   -1    0    0    0    0 -0.00000000000E+00 -0.00000000000E+00 -0.35740347158E-01  0.35744000000E-01  0.51099999109E-03 0. -1.
       22    1    1    2    0    0  0.21124492808E-01  0.13626603951E-01 -0.25400886859E-01  0.35737005818E-01  0.00000000000E+00 0. -1.
  9000001    1    1    2    0    0 -0.21124492808E-01 -0.13626603951E-01  0.25400886859E-01  0.35750994182E-01  0.10000000475E-02 0.  1.
</event>
<event>
 4   0  0.2441219E-02  0.9118800E+02  0.7818609E-02  0.1379984E+01
      -11   -1    0    0    0    0  0.00000000000E+00  0.00000000000E+00  0.35740347158E-01  0.35744000000E-01  0.51099999109E-03 0.  1.
       11   -1    0    0    0    0 -0.00000000000E+00 -0.00000000000E+00 -0.35740347158E-01  0.35744000000E-01  0.51099999109E-03 0. -1.
       22    1    1    2    0    0  0.45797481486E-02  0.15775720959E-02 -0.35407213362E-01  0.35737005818E-01  0.00000000000E+00 0. -1.
  9000001    1    1    2    0    0 -0.45797481486E-02 -0.15775720959E-02  0.35407213362E-01  0.35750994182E-01  0.10000000475E-02 0.  1.
</event>
<event>
 4   0  0.2441219E-02  0.9118800E+02  0.7818609E-02  0.1379984E+01
      -11   -1    0    0    0    0  0.00000000000E+00  0.00000000000E+00  0.35740347158E-01  0.35744000000E-01  0.51099999109E-03 0.  1.
       11   -1    0    0    0    0 -0.00000000000E+00 -0.00000000000E+00 -0.35740347158E-01  0.35744000000E-01  0.51099999109E-03 0. -1.
       22    1    1    2    0    0 -0.35579083711E-02 -0.27872556854E-02 -0.35450050474E-01  0.35737005818E-01  0.00000000000E+00 0. -1.
  9000001    1    1    2    0    0  0.35579083711E-02  0.27872556854E-02  0.35450050474E-01  0.35750994182E-01  0.10000000475E-02 0.  1.
</event>
<event>
 4   0  0.2441219E-02  0.9118800E+02  0.7818609E-02  0.1379984E+01
      -11   -1    0    0    0    0  0.00000000000E+00  0.00000000000E+00  0.35740347158E-01  0.35744000000E-01  0.51099999109E-03 0.  1.
       11   -1    0    0    0    0 -0.00000000000E+00 -0.00000000000E+00 -0.35740347158E-01  0.35744000000E-01  0.51099999109E-03 0. -1.
       22    1    1    2    0    0 -0.14720222993E-01 -0.34042016578E-02 -0.32386108611E-01  0.35737005818E-01  0.00000000000E+00 0. -1.
  9000001    1    1    2    0    0  0.14720222993E-01  0.34042016578E-02  0.32386108611E-01  0.35750994182E-01  0.10000000475E-02 0.  1.
</event>
<event>
 4   0  0.2441219E-02  0.9118800E+02  0.7818609E-02  0.1379984E+01
      -11   -1    0    0    0    0  0.00000000000E+00  0.00000000000E+00  0.35740347158E-01  0.35744000000E-01  0.51099999109E-03 0. -1.
       11   -1    0    0    0    0 -0.00000000000E+00 -0.00000000000E+00 -0.35740347158E-01  0.35744000000E-01  0.51099999109E-03 0.  1.
       22    1    1    2    0    0 -0.88756714965E-02  0.31648198923E-03  0.34615832787E-01  0.35737005818E-01  0.00000000000E+00 0. -1.
  9000001    1    1    2    0    0  0.88756714965E-02 -0.31648198923E-03 -0.34615832787E-01  0.35750994182E-01  0.10000000475E-02 0.  1.
</event>
<event>
 4   0  0.2441219E-02  0.9118800E+02  0.7818609E-02  0.1379984E+01
      -11   -1    0    0    0    0  0.00000000000E+00  0.00000000000E+00  0.35740347158E-01  0.35744000000E-01  0.51099999109E-03 0.  1.
       11   -1    0    0    0    0 -0.00000000000E+00 -0.00000000000E+00 -0.35740347158E-01  0.35744000000E-01  0.51099999109E-03 0. -1.
       22    1    1    2    0    0  0.43994775410E-02  0.78341046872E-02 -0.34589087672E-01  0.35737005818E-01  0.00000000000E+00 0. -1.
  9000001    1    1    2    0    0 -0.43994775410E-02 -0.78341046872E-02  0.34589087672E-01  0.35750994182E-01  0.10000000475E-02 0.  1.
</event>
<event>
 4   0  0.2441219E-02  0.9118800E+02  0.7818609E-02  0.1379984E+01
      -11   -1    0    0    0    0  0.00000000000E+00  0.00000000000E+00  0.35740347158E-01  0.35744000000E-01  0.51099999109E-03 0.  1.
       11   -1    0    0    0    0 -0.00000000000E+00 -0.00000000000E+00 -0.35740347158E-01  0.35744000000E-01  0.51099999109E-03 0. -1.
       22    1    1    2    0    0  0.30672237922E-01  0.73772596975E-02 -0.16790576080E-01  0.35737005818E-01  0.00000000000E+00 0. -1.
  9000001    1    1    2    0    0 -0.30672237922E-01 -0.73772596975E-02  0.16790576080E-01  0.35750994182E-01  0.10000000475E-02 0.  1.
</event>
<event>
 4   0  0.2441219E-02  0.9118800E+02  0.7818609E-02  0.1379984E+01
      -11   -1    0    0    0    0  0.00000000000E+00  0.00000000000E+00  0.35740347158E-01  0.35744000000E-01  0.51099999109E-03 0.  1.
       11   -1    0    0    0    0 -0.00000000000E+00 -0.00000000000E+00 -0.35740347158E-01  0.35744000000E-01  0.51099999109E-03 0. -1.
       22    1    1    2    0    0 -0.11065748169E-01  0.26880391854E-01  0.20787672696E-01  0.35737005818E-01  0.00000000000E+00 0.  1.
  9000001    1    1    2    0    0  0.11065748169E-01 -0.26880391854E-01 -0.20787672696E-01  0.35750994182E-01  0.10000000475E-02 0. -1.
</event>
<event>
 4   0  0.2441219E-02  0.9118800E+02  0.7818609E-02  0.1379984E+01
      -11   -1    0    0    0    0  0.00000000000E+00  0.00000000000E+00  0.35740347158E-01  0.35744000000E-01  0.51099999109E-03 0. -1.
       11   -1    0    0    0    0 -0.00000000000E+00 -0.00000000000E+00 -0.35740347158E-01  0.35744000000E-01  0.51099999109E-03 0.  1.
       22    1    1    2    0    0 -0.15948152125E-03 -0.18399230618E-01 -0.30636195312E-01  0.35737005818E-01  0.00000000000E+00 0.  1.
  9000001    1    1    2    0    0  0.15948152125E-03  0.18399230618E-01  0.30636195312E-01  0.35750994182E-01  0.10000000475E-02 0. -1.
</event>
<event>
 4   0  0.2441219E-02  0.9118800E+02  0.7818609E-02  0.1379984E+01
      -11   -1    0    0    0    0  0.00000000000E+00  0.00000000000E+00  0.35740347158E-01  0.35744000000E-01  0.51099999109E-03 0. -1.
       11   -1    0    0    0    0 -0.00000000000E+00 -0.00000000000E+00 -0.35740347158E-01  0.35744000000E-01  0.51099999109E-03 0.  1.
       22    1    1    2    0    0  0.16181935423E-02  0.82855545322E-02 -0.34725561488E-01  0.35737005818E-01  0.00000000000E+00 0.  1.
  9000001    1    1    2    0    0 -0.16181935423E-02 -0.82855545322E-02  0.34725561488E-01  0.35750994182E-01  0.10000000475E-02 0. -1.
</event>
<event>
 4   0  0.2441219E-02  0.9118800E+02  0.7818609E-02  0.1379984E+01
      -11   -1    0    0    0    0  0.00000000000E+00  0.00000000000E+00  0.35740347158E-01  0.35744000000E-01  0.51099999109E-03 0. -1.
       11   -1    0    0    0    0 -0.00000000000E+00 -0.00000000000E+00 -0.35740347158E-01  0.35744000000E-01  0.51099999109E-03 0.  1.
       22    1    1    2    0    0 -0.12438699410E-01 -0.25373659600E-01  0.21876694000E-01  0.35737005818E-01  0.00000000000E+00 0. -1.
  9000001    1    1    2    0    0  0.12438699410E-01  0.25373659600E-01 -0.21876694000E-01  0.35750994182E-01  0.10000000475E-02 0.  1.
</event>
<event>
 4   0  0.2441219E-02  0.9118800E+02  0.7818609E-02  0.1379984E+01
      -11   -1    0    0    0    0  0.00000000000E+00  0.00000000000E+00  0.35740347158E-01  0.35744000000E-01  0.51099999109E-03 0. -1.
       11   -1    0    0    0    0 -0.00000000000E+00 -0.00000000000E+00 -0.35740347158E-01  0.35744000000E-01  0.51099999109E-03 0.  1.
       22    1    1    2    0    0 -0.35248593957E-02  0.30484081229E-01  0.18314741133E-01  0.35737005818E-01  0.00000000000E+00 0. -1.
  9000001    1    1    2    0    0  0.35248593957E-02 -0.30484081229E-01 -0.18314741133E-01  0.35750994182E-01  0.10000000475E-02 0.  1.
</event>
<event>
 4   0  0.2441219E-02  0.9118800E+02  0.7818609E-02  0.1379984E+01
      -11   -1    0    0    0    0  0.00000000000E+00  0.00000000000E+00  0.35740347158E-01  0.35744000000E-01  0.51099999109E-03 0.  1.
       11   -1    0    0    0    0 -0.00000000000E+00 -0.00000000000E+00 -0.35740347158E-01  0.35744000000E-01  0.51099999109E-03 0. -1.
       22    1    1    2    0    0 -0.19586649387E-01  0.25161928630E-01  0.16136111621E-01  0.35737005818E-01  0.00000000000E+00 0.  1.
  9000001    1    1    2    0    0  0.19586649387E-01 -0.25161928630E-01 -0.16136111621E-01  0.35750994182E-01  0.10000000475E-02 0. -1.
</event>
<event>
 4   0  0.2441219E-02  0.9118800E+02  0.7818609E-02  0.1379984E+01
      -11   -1    0    0    0    0  0.00000000000E+00  0.00000000000E+00  0.35740347158E-01  0.35744000000E-01  0.51099999109E-03 0.  1.
       11   -1    0    0    0    0 -0.00000000000E+00 -0.00000000000E+00 -0.35740347158E-01  0.35744000000E-01  0.51099999109E-03 0. -1.
       22    1    1    2    0    0  0.55281921153E-02 -0.29293090663E-02  0.35185108003E-01  0.35737005818E-01  0.00000000000E+00 0.  1.
  9000001    1    1    2    0    0 -0.55281921153E-02  0.29293090663E-02 -0.35185108003E-01  0.35750994182E-01  0.10000000475E-02 0. -1.
</event>
<event>
 4   0  0.2441219E-02  0.9118800E+02  0.7818609E-02  0.1379984E+01
      -11   -1    0    0    0    0  0.00000000000E+00  0.00000000000E+00  0.35740347158E-01  0.35744000000E-01  0.51099999109E-03 0. -1.
       11   -1    0    0    0    0 -0.00000000000E+00 -0.00000000000E+00 -0.35740347158E-01  0.35744000000E-01  0.51099999109E-03 0.  1.
       22    1    1    2    0    0  0.32695797985E-02 -0.67878402886E-02 -0.34933775305E-01  0.35737005818E-01  0.00000000000E+00 0.  1.
  9000001    1    1    2    0    0 -0.32695797985E-02  0.67878402886E-02  0.34933775305E-01  0.35750994182E-01  0.10000000475E-02 0. -1.
</event>
<event>
 4   0  0.2441219E-02  0.9118800E+02  0.7818609E-02  0.1379984E+01
      -11   -1    0    0    0    0  0.00000000000E+00  0.00000000000E+00  0.35740347158E-01  0.35744000000E-01  0.51099999109E-03 0.  1.
       11   -1    0    0    0    0 -0.00000000000E+00 -0.00000000000E+00 -0.35740347158E-01  0.35744000000E-01  0.51099999109E-03 0. -1.
       22    1    1    2    0    0 -0.65891490716E-04 -0.89334597884E-02  0.34602348755E-01  0.35737005818E-01  0.00000000000E+00 0.  1.
  9000001    1    1    2    0    0  0.65891490716E-04  0.89334597884E-02 -0.34602348755E-01  0.35750994182E-01  0.10000000475E-02 0. -1.
</event>
<event>
 4   0  0.2441219E-02  0.9118800E+02  0.7818609E-02  0.1379984E+01
      -11   -1    0    0    0    0  0.00000000000E+00  0.00000000000E+00  0.35740347158E-01  0.35744000000E-01  0.51099999109E-03 0. -1.
       11   -1    0    0    0    0 -0.00000000000E+00 -0.00000000000E+00 -0.35740347158E-01  0.35744000000E-01  0.51099999109E-03 0.  1.
       22    1    1    2    0    0  0.80336869161E-03  0.10291077536E-01 -0.34213767795E-01  0.35737005818E-01  0.00000000000E+00 0.  1.
  9000001    1    1    2    0    0 -0.80336869161E-03 -0.10291077536E-01  0.34213767795E-01  0.35750994182E-01  0.10000000475E-02 0. -1.
</event>
<event>
 4   0  0.2441219E-02  0.9118800E+02  0.7818609E-02  0.1379984E+01
      -11   -1    0    0    0    0  0.00000000000E+00  0.00000000000E+00  0.35740347158E-01  0.35744000000E-01  0.51099999109E-03 0. -1.
       11   -1    0    0    0    0 -0.00000000000E+00 -0.00000000000E+00 -0.35740347158E-01  0.35744000000E-01  0.51099999109E-03 0.  1.
       22    1    1    2    0    0  0.66605118277E-02  0.89431716055E-02 -0.33952773800E-01  0.35737005818E-01  0.00000000000E+00 0.  1.
  9000001    1    1    2    0    0 -0.66605118277E-02 -0.89431716055E-02  0.33952773800E-01  0.35750994182E-01  0.10000000475E-02 0. -1.
</event>
<event>
 4   0  0.2441219E-02  0.9118800E+02  0.7818609E-02  0.1379984E+01
      -11   -1    0    0    0    0  0.00000000000E+00  0.00000000000E+00  0.35740347158E-01  0.35744000000E-01  0.51099999109E-03 0.  1.
       11   -1    0    0    0    0 -0.00000000000E+00 -0.00000000000E+00 -0.35740347158E-01  0.35744000000E-01  0.51099999109E-03 0. -1.
       22    1    1    2    0    0  0.10233610132E-01  0.10704371779E-02  0.34223690227E-01  0.35737005818E-01  0.00000000000E+00 0.  1.
  9000001    1    1    2    0    0 -0.10233610132E-01 -0.10704371779E-02 -0.34223690227E-01  0.35750994182E-01  0.10000000475E-02 0. -1.
</event>
<event>
 4   0  0.2441219E-02  0.9118800E+02  0.7818609E-02  0.1379984E+01
      -11   -1    0    0    0    0  0.00000000000E+00  0.00000000000E+00  0.35740347158E-01  0.35744000000E-01  0.51099999109E-03 0.  1.
       11   -1    0    0    0    0 -0.00000000000E+00 -0.00000000000E+00 -0.35740347158E-01  0.35744000000E-01  0.51099999109E-03 0. -1.
       22    1    1    2    0    0 -0.23134666009E-01 -0.26472076795E-01  0.64148237455E-02  0.35737005818E-01  0.00000000000E+00 0. -1.
  9000001    1    1    2    0    0  0.23134666009E-01  0.26472076795E-01 -0.64148237455E-02  0.35750994182E-01  0.10000000475E-02 0.  1.
</event>
<event>
 4   0  0.2441219E-02  0.9118800E+02  0.7818609E-02  0.1379984E+01
      -11   -1    0    0    0    0  0.00000000000E+00  0.00000000000E+00  0.35740347158E-01  0.35744000000E-01  0.51099999109E-03 0. -1.
       11   -1    0    0    0    0 -0.00000000000E+00 -0.00000000000E+00 -0.35740347158E-01  0.35744000000E-01  0.51099999109E-03 0.  1.
       22    1    1    2    0    0  0.22729131685E-02 -0.12994961538E-01  0.33212925575E-01  0.35737005818E-01  0.00000000000E+00 0. -1.
  9000001    1    1    2    0    0 -0.22729131685E-02  0.12994961538E-01 -0.33212925575E-01  0.35750994182E-01  0.10000000475E-02 0.  1.
</event>
<event>
 4   0  0.2441219E-02  0.9118800E+02  0.7818609E-02  0.1379984E+01
      -11   -1    0    0    0    0  0.00000000000E+00  0.00000000000E+00  0.35740347158E-01  0.35744000000E-01  0.51099999109E-03 0.  1.
       11   -1    0    0    0    0 -0.00000000000E+00 -0.00000000000E+00 -0.35740347158E-01  0.35744000000E-01  0.51099999109E-03 0. -1.
       22    1    1    2    0    0  0.80719279960E-02  0.29859451540E-03 -0.34812187587E-01  0.35737005818E-01  0.00000000000E+00 0. -1.
  9000001    1    1    2    0    0 -0.80719279960E-02 -0.29859451540E-03  0.34812187587E-01  0.35750994182E-01  0.10000000475E-02 0.  1.
</event>
<event>
 4   0  0.2441219E-02  0.9118800E+02  0.7818609E-02  0.1379984E+01
      -11   -1    0    0    0    0  0.00000000000E+00  0.00000000000E+00  0.35740347158E-01  0.35744000000E-01  0.51099999109E-03 0.  1.
       11   -1    0    0    0    0 -0.00000000000E+00 -0.00000000000E+00 -0.35740347158E-01  0.35744000000E-01  0.51099999109E-03 0. -1.
       22    1    1    2    0    0  0.66418801697E-02  0.38546365671E-02  0.34902160243E-01  0.35737005818E-01  0.00000000000E+00 0.  1.
  9000001    1    1    2    0    0 -0.66418801697E-02 -0.38546365671E-02 -0.34902160243E-01  0.35750994182E-01  0.10000000475E-02 0. -1.
</event>
<event>
 4   0  0.2441219E-02  0.9118800E+02  0.7818609E-02  0.1379984E+01
      -11   -1    0    0    0    0  0.00000000000E+00  0.00000000000E+00  0.35740347158E-01  0.35744000000E-01  0.51099999109E-03 0. -1.
       11   -1    0    0    0    0 -0.00000000000E+00 -0.00000000000E+00 -0.35740347158E-01  0.35744000000E-01  0.51099999109E-03 0.  1.
       22    1    1    2    0    0 -0.28841773460E-03  0.31335120021E-02  0.35598195216E-01  0.35737005818E-01  0.00000000000E+00 0. -1.
  9000001    1    1    2    0    0  0.28841773460E-03 -0.31335120021E-02 -0.35598195216E-01  0.35750994182E-01  0.10000000475E-02 0.  1.
</event>
<event>
 4   0  0.2441219E-02  0.9118800E+02  0.7818609E-02  0.1379984E+01
      -11   -1    0    0    0    0  0.00000000000E+00  0.00000000000E+00  0.35740347158E-01  0.35744000000E-01  0.51099999109E-03 0. -1.
       11   -1    0    0    0    0 -0.00000000000E+00 -0.00000000000E+00 -0.35740347158E-01  0.35744000000E-01  0.51099999109E-03 0.  1.
       22    1    1    2    0    0  0.13664015325E-02  0.32094845539E-02 -0.35566356865E-01  0.35737005818E-01  0.00000000000E+00 0.  1.
  9000001    1    1    2    0    0 -0.13664015325E-02 -0.32094845539E-02  0.35566356865E-01  0.35750994182E-01  0.10000000475E-02 0. -1.
</event>
<event>
 4   0  0.2441219E-02  0.9118800E+02  0.7818609E-02  0.1379984E+01
      -11   -1    0    0    0    0  0.00000000000E+00  0.00000000000E+00  0.35740347158E-01  0.35744000000E-01  0.51099999109E-03 0. -1.
       11   -1    0    0    0    0 -0.00000000000E+00 -0.00000000000E+00 -0.35740347158E-01  0.35744000000E-01  0.51099999109E-03 0.  1.
       22    1    1    2    0    0  0.25093639345E-01  0.23550323054E-01 -0.96345800808E-02  0.35737005818E-01  0.00000000000E+00 0.  1.
  9000001    1    1    2    0    0 -0.25093639345E-01 -0.23550323054E-01  0.96345800808E-02  0.35750994182E-01  0.10000000475E-02 0. -1.
</event>
<event>
 4   0  0.2441219E-02  0.9118800E+02  0.7818609E-02  0.1379984E+01
      -11   -1    0    0    0    0  0.00000000000E+00  0.00000000000E+00  0.35740347158E-01  0.35744000000E-01  0.51099999109E-03 0. -1.
       11   -1    0    0    0    0 -0.00000000000E+00 -0.00000000000E+00 -0.35740347158E-01  0.35744000000E-01  0.51099999109E-03 0.  1.
       22    1    1    2    0    0  0.42264414805E-02 -0.32001949997E-02 -0.35341611865E-01  0.35737005818E-01  0.00000000000E+00 0.  1.
  9000001    1    1    2    0    0 -0.42264414805E-02  0.32001949997E-02  0.35341611865E-01  0.35750994182E-01  0.10000000475E-02 0. -1.
</event>
<event>
 4   0  0.2441219E-02  0.9118800E+02  0.7818609E-02  0.1379984E+01
      -11   -1    0    0    0    0  0.00000000000E+00  0.00000000000E+00  0.35740347158E-01  0.35744000000E-01  0.51099999109E-03 0.  1.
       11   -1    0    0    0    0 -0.00000000000E+00 -0.00000000000E+00 -0.35740347158E-01  0.35744000000E-01  0.51099999109E-03 0. -1.
       22    1    1    2    0    0 -0.36675468498E-02  0.18492041746E-02 -0.35500184914E-01  0.35737005818E-01  0.00000000000E+00 0. -1.
  9000001    1    1    2    0    0  0.36675468498E-02 -0.18492041746E-02  0.35500184914E-01  0.35750994182E-01  0.10000000475E-02 0.  1.
</event>
<event>
 4   0  0.2441219E-02  0.9118800E+02  0.7818609E-02  0.1379984E+01
      -11   -1    0    0    0    0  0.00000000000E+00  0.00000000000E+00  0.35740347158E-01  0.35744000000E-01  0.51099999109E-03 0.  1.
       11   -1    0    0    0    0 -0.00000000000E+00 -0.00000000000E+00 -0.35740347158E-01  0.35744000000E-01  0.51099999109E-03 0. -1.
       22    1    1    2    0    0  0.33417222161E-01 -0.11933262543E-01  0.42450080127E-02  0.35737005818E-01  0.00000000000E+00 0.  1.
  9000001    1    1    2    0    0 -0.33417222161E-01  0.11933262543E-01 -0.42450080127E-02  0.35750994182E-01  0.10000000475E-02 0. -1.
</event>
<event>
 4   0  0.2441219E-02  0.9118800E+02  0.7818609E-02  0.1379984E+01
      -11   -1    0    0    0    0  0.00000000000E+00  0.00000000000E+00  0.35740347158E-01  0.35744000000E-01  0.51099999109E-03 0. -1.
       11   -1    0    0    0    0 -0.00000000000E+00 -0.00000000000E+00 -0.35740347158E-01  0.35744000000E-01  0.51099999109E-03 0.  1.
       22    1    1    2    0    0  0.35112926086E-02  0.18315041702E-03 -0.35563617153E-01  0.35737005818E-01  0.00000000000E+00 0.  1.
  9000001    1    1    2    0    0 -0.35112926086E-02 -0.18315041702E-03  0.35563617153E-01  0.35750994182E-01  0.10000000475E-02 0. -1.
</event>
<event>
 4   0  0.2441219E-02  0.9118800E+02  0.7818609E-02  0.1379984E+01
      -11   -1    0    0    0    0  0.00000000000E+00  0.00000000000E+00  0.35740347158E-01  0.35744000000E-01  0.51099999109E-03 0. -1.
       11   -1    0    0    0    0 -0.00000000000E+00 -0.00000000000E+00 -0.35740347158E-01  0.35744000000E-01  0.51099999109E-03 0.  1.
       22    1    1    2    0    0  0.45520206580E-02  0.30447847774E-01 -0.18147761811E-01  0.35737005818E-01  0.00000000000E+00 0.  1.
  9000001    1    1    2    0    0 -0.45520206580E-02 -0.30447847774E-01  0.18147761811E-01  0.35750994182E-01  0.10000000475E-02 0. -1.
</event>
<event>
 4   0  0.2441219E-02  0.9118800E+02  0.7818609E-02  0.1379984E+01
      -11   -1    0    0    0    0  0.00000000000E+00  0.00000000000E+00  0.35740347158E-01  0.35744000000E-01  0.51099999109E-03 0.  1.
       11   -1    0    0    0    0 -0.00000000000E+00 -0.00000000000E+00 -0.35740347158E-01  0.35744000000E-01  0.51099999109E-03 0. -1.
       22    1    1    2    0    0  0.12534272688E-01  0.92704843696E-03  0.33453941087E-01  0.35737005818E-01  0.00000000000E+00 0.  1.
  9000001    1    1    2    0    0 -0.12534272688E-01 -0.92704843696E-03 -0.33453941087E-01  0.35750994182E-01  0.10000000475E-02 0. -1.
</event>
<event>
 4   0  0.2441219E-02  0.9118800E+02  0.7818609E-02  0.1379984E+01
      -11   -1    0    0    0    0  0.00000000000E+00  0.00000000000E+00  0.35740347158E-01  0.35744000000E-01  0.51099999109E-03 0. -1.
       11   -1    0    0    0    0 -0.00000000000E+00 -0.00000000000E+00 -0.35740347158E-01  0.35744000000E-01  0.51099999109E-03 0.  1.
       22    1    1    2    0    0  0.37100833466E-02  0.21696453779E-03 -0.35543238356E-01  0.35737005818E-01  0.00000000000E+00 0.  1.
  9000001    1    1    2    0    0 -0.37100833466E-02 -0.21696453779E-03  0.35543238356E-01  0.35750994182E-01  0.10000000475E-02 0. -1.
</event>
<event>
 4   0  0.2441219E-02  0.9118800E+02  0.7818609E-02  0.1379984E+01
      -11   -1    0    0    0    0  0.00000000000E+00  0.00000000000E+00  0.35740347158E-01  0.35744000000E-01  0.51099999109E-03 0.  1.
       11   -1    0    0    0    0 -0.00000000000E+00 -0.00000000000E+00 -0.35740347158E-01  0.35744000000E-01  0.51099999109E-03 0. -1.
       22    1    1    2    0    0  0.27963504292E-02  0.38572169946E-02 -0.35418016407E-01  0.35737005818E-01  0.00000000000E+00 0. -1.
  9000001    1    1    2    0    0 -0.27963504292E-02 -0.38572169946E-02  0.35418016407E-01  0.35750994182E-01  0.10000000475E-02 0.  1.
</event>
<event>
 4   0  0.2441219E-02  0.9118800E+02  0.7818609E-02  0.1379984E+01
      -11   -1    0    0    0    0  0.00000000000E+00  0.00000000000E+00  0.35740347158E-01  0.35744000000E-01  0.51099999109E-03 0. -1.
       11   -1    0    0    0    0 -0.00000000000E+00 -0.00000000000E+00 -0.35740347158E-01  0.35744000000E-01  0.51099999109E-03 0.  1.
       22    1    1    2    0    0 -0.33147461972E-02  0.48887110976E-02  0.35245518103E-01  0.35737005818E-01  0.00000000000E+00 0. -1.
  9000001    1    1    2    0    0  0.33147461972E-02 -0.48887110976E-02 -0.35245518103E-01  0.35750994182E-01  0.10000000475E-02 0.  1.
</event>
<event>
 4   0  0.2441219E-02  0.9118800E+02  0.7818609E-02  0.1379984E+01
      -11   -1    0    0    0    0  0.00000000000E+00  0.00000000000E+00  0.35740347158E-01  0.35744000000E-01  0.51099999109E-03 0.  1.
       11   -1    0    0    0    0 -0.00000000000E+00 -0.00000000000E+00 -0.35740347158E-01  0.35744000000E-01  0.51099999109E-03 0. -1.
       22    1    1    2    0    0  0.10060098432E-01  0.18154850305E-01 -0.29091741351E-01  0.35737005818E-01  0.00000000000E+00 0. -1.
  9000001    1    1    2    0    0 -0.10060098432E-01 -0.18154850305E-01  0.29091741351E-01  0.35750994182E-01  0.10000000475E-02 0.  1.
</event>
<event>
 4   0  0.2441219E-02  0.9118800E+02  0.7818609E-02  0.1379984E+01
      -11   -1    0    0    0    0  0.00000000000E+00  0.00000000000E+00  0.35740347158E-01  0.35744000000E-01  0.51099999109E-03 0.  1.
       11   -1    0    0    0    0 -0.00000000000E+00 -0.00000000000E+00 -0.35740347158E-01  0.35744000000E-01  0.51099999109E-03 0. -1.
       22    1    1    2    0    0 -0.30241211162E-02 -0.69067352217E-02 -0.34932581996E-01  0.35737005818E-01  0.00000000000E+00 0. -1.
  9000001    1    1    2    0    0  0.30241211162E-02  0.69067352217E-02  0.34932581996E-01  0.35750994182E-01  0.10000000475E-02 0.  1.
</event>
<event>
 4   0  0.2441219E-02  0.9118800E+02  0.7818609E-02  0.1379984E+01
      -11   -1    0    0    0    0  0.00000000000E+00  0.00000000000E+00  0.35740347158E-01  0.35744000000E-01  0.51099999109E-03 0.  1.
       11   -1    0    0    0    0 -0.00000000000E+00 -0.00000000000E+00 -0.35740347158E-01  0.35744000000E-01  0.51099999109E-03 0. -1.
       22    1    1    2    0    0 -0.63473920895E-03 -0.58366125308E-02 -0.35251448838E-01  0.35737005818E-01  0.00000000000E+00 0. -1.
  9000001    1    1    2    0    0  0.63473920895E-03  0.58366125308E-02  0.35251448838E-01  0.35750994182E-01  0.10000000475E-02 0.  1.
</event>
<event>
 4   0  0.2441219E-02  0.9118800E+02  0.7818609E-02  0.1379984E+01
      -11   -1    0    0    0    0  0.00000000000E+00  0.00000000000E+00  0.35740347158E-01  0.35744000000E-01  0.51099999109E-03 0.  1.
       11   -1    0    0    0    0 -0.00000000000E+00 -0.00000000000E+00 -0.35740347158E-01  0.35744000000E-01  0.51099999109E-03 0. -1.
       22    1    1    2    0    0 -0.79742563580E-02 -0.48952048056E-02  0.34490314442E-01  0.35737005818E-01  0.00000000000E+00 0.  1.
  9000001    1    1    2    0    0  0.79742563580E-02  0.48952048056E-02 -0.34490314442E-01  0.35750994182E-01  0.10000000475E-02 0. -1.
</event>
<event>
 4   0  0.2441219E-02  0.9118800E+02  0.7818609E-02  0.1379984E+01
      -11   -1    0    0    0    0  0.00000000000E+00  0.00000000000E+00  0.35740347158E-01  0.35744000000E-01  0.51099999109E-03 0. -1.
       11   -1    0    0    0    0 -0.00000000000E+00 -0.00000000000E+00 -0.35740347158E-01  0.35744000000E-01  0.51099999109E-03 0.  1.
       22    1    1    2    0    0 -0.17603385382E-02  0.29194929227E-02 -0.35574026398E-01  0.35737005818E-01  0.00000000000E+00 0.  1.
  9000001    1    1    2    0    0  0.17603385382E-02 -0.29194929227E-02  0.35574026398E-01  0.35750994182E-01  0.10000000475E-02 0. -1.
</event>
<event>
 4   0  0.2441219E-02  0.9118800E+02  0.7818609E-02  0.1379984E+01
      -11   -1    0    0    0    0  0.00000000000E+00  0.00000000000E+00  0.35740347158E-01  0.35744000000E-01  0.51099999109E-03 0. -1.
       11   -1    0    0    0    0 -0.00000000000E+00 -0.00000000000E+00 -0.35740347158E-01  0.35744000000E-01  0.51099999109E-03 0.  1.
       22    1    1    2    0    0 -0.13896651645E-01  0.59623589394E-02 -0.32380039126E-01  0.35737005818E-01  0.00000000000E+00 0.  1.
  9000001    1    1    2    0    0  0.13896651645E-01 -0.59623589394E-02  0.32380039126E-01  0.35750994182E-01  0.10000000475E-02 0. -1.
</event>
<event>
 4   0  0.2441219E-02  0.9118800E+02  0.7818609E-02  0.1379984E+01
      -11   -1    0    0    0    0  0.00000000000E+00  0.00000000000E+00  0.35740347158E-01  0.35744000000E-01  0.51099999109E-03 0.  1.
       11   -1    0    0    0    0 -0.00000000000E+00 -0.00000000000E+00 -0.35740347158E-01  0.35744000000E-01  0.51099999109E-03 0. -1.
       22    1    1    2    0    0  0.19922283045E-01  0.10204969563E-02 -0.29651219353E-01  0.35737005818E-01  0.00000000000E+00 0. -1.
  9000001    1    1    2    0    0 -0.19922283045E-01 -0.10204969563E-02  0.29651219353E-01  0.35750994182E-01  0.10000000475E-02 0.  1.
</event>
<event>
 4   0  0.2441219E-02  0.9118800E+02  0.7818609E-02  0.1379984E+01
      -11   -1    0    0    0    0  0.00000000000E+00  0.00000000000E+00  0.35740347158E-01  0.35744000000E-01  0.51099999109E-03 0. -1.
       11   -1    0    0    0    0 -0.00000000000E+00 -0.00000000000E+00 -0.35740347158E-01  0.35744000000E-01  0.51099999109E-03 0.  1.
       22    1    1    2    0    0  0.65234731939E-02 -0.17650824327E-01 -0.30381347616E-01  0.35737005818E-01  0.00000000000E+00 0.  1.
  9000001    1    1    2    0    0 -0.65234731939E-02  0.17650824327E-01  0.30381347616E-01  0.35750994182E-01  0.10000000475E-02 0. -1.
</event>
<event>
 4   0  0.2441219E-02  0.9118800E+02  0.7818609E-02  0.1379984E+01
      -11   -1    0    0    0    0  0.00000000000E+00  0.00000000000E+00  0.35740347158E-01  0.35744000000E-01  0.51099999109E-03 0. -1.
       11   -1    0    0    0    0 -0.00000000000E+00 -0.00000000000E+00 -0.35740347158E-01  0.35744000000E-01  0.51099999109E-03 0.  1.
       22    1    1    2    0    0  0.15061321498E-02 -0.76477267910E-02  0.34876602841E-01  0.35737005818E-01  0.00000000000E+00 0. -1.
  9000001    1    1    2    0    0 -0.15061321498E-02  0.76477267910E-02 -0.34876602841E-01  0.35750994182E-01  0.10000000475E-02 0.  1.
</event>
<event>
 4   0  0.2441219E-02  0.9118800E+02  0.7818609E-02  0.1379984E+01
      -11   -1    0    0    0    0  0.00000000000E+00  0.00000000000E+00  0.35740347158E-01  0.35744000000E-01  0.51099999109E-03 0.  1.
       11   -1    0    0    0    0 -0.00000000000E+00 -0.00000000000E+00 -0.35740347158E-01  0.35744000000E-01  0.51099999109E-03 0. -1.
       22    1    1    2    0    0 -0.20080052509E-01  0.24084319248E-01 -0.17142655642E-01  0.35737005818E-01  0.00000000000E+00 0. -1.
  9000001    1    1    2    0    0  0.20080052509E-01 -0.24084319248E-01  0.17142655642E-01  0.35750994182E-01  0.10000000475E-02 0.  1.
</event>
<event>
 4   0  0.2441219E-02  0.9118800E+02  0.7818609E-02  0.1379984E+01
      -11   -1    0    0    0    0  0.00000000000E+00  0.00000000000E+00  0.35740347158E-01  0.35744000000E-01  0.51099999109E-03 0. -1.
       11   -1    0    0    0    0 -0.00000000000E+00 -0.00000000000E+00 -0.35740347158E-01  0.35744000000E-01  0.51099999109E-03 0.  1.
       22    1    1    2    0    0 -0.81887807693E-02 -0.29648325415E-01  0.18194896386E-01  0.35737005818E-01  0.00000000000E+00 0.  1.
  9000001    1    1    2    0    0  0.81887807693E-02  0.29648325415E-01 -0.18194896386E-01  0.35750994182E-01  0.10000000475E-02 0. -1.
</event>
<event>
 4   0  0.2441219E-02  0.9118800E+02  0.7818609E-02  0.1379984E+01
      -11   -1    0    0    0    0  0.00000000000E+00  0.00000000000E+00  0.35740347158E-01  0.35744000000E-01  0.51099999109E-03 0.  1.
       11   -1    0    0    0    0 -0.00000000000E+00 -0.00000000000E+00 -0.35740347158E-01  0.35744000000E-01  0.51099999109E-03 0. -1.
       22    1    1    2    0    0  0.60483001346E-02  0.18429712796E-01 -0.30014951884E-01  0.35737005818E-01  0.00000000000E+00 0. -1.
  9000001    1    1    2    0    0 -0.60483001346E-02 -0.18429712796E-01  0.30014951884E-01  0.35750994182E-01  0.10000000475E-02 0.  1.
</event>
<event>
 4   0  0.2441219E-02  0.9118800E+02  0.7818609E-02  0.1379984E+01
      -11   -1    0    0    0    0  0.00000000000E+00  0.00000000000E+00  0.35740347158E-01  0.35744000000E-01  0.51099999109E-03 0.  1.
       11   -1    0    0    0    0 -0.00000000000E+00 -0.00000000000E+00 -0.35740347158E-01  0.35744000000E-01  0.51099999109E-03 0. -1.
       22    1    1    2    0    0  0.26924878398E-02  0.26177924580E-02  0.35539151041E-01  0.35737005818E-01  0.00000000000E+00 0.  1.
  9000001    1    1    2    0    0 -0.26924878398E-02 -0.26177924580E-02 -0.35539151041E-01  0.35750994182E-01  0.10000000475E-02 0. -1.
</event>
<event>
 4   0  0.2441219E-02  0.9118800E+02  0.7818609E-02  0.1379984E+01
      -11   -1    0    0    0    0  0.00000000000E+00  0.00000000000E+00  0.35740347158E-01  0.35744000000E-01  0.51099999109E-03 0. -1.
       11   -1    0    0    0    0 -0.00000000000E+00 -0.00000000000E+00 -0.35740347158E-01  0.35744000000E-01  0.51099999109E-03 0.  1.
       22    1    1    2    0    0  0.44675768873E-02 -0.86150001934E-02  0.34394129053E-01  0.35737005818E-01  0.00000000000E+00 0. -1.
  9000001    1    1    2    0    0 -0.44675768873E-02  0.86150001934E-02 -0.34394129053E-01  0.35750994182E-01  0.10000000475E-02 0.  1.
</event>
<event>
 4   0  0.2441219E-02  0.9118800E+02  0.7818609E-02  0.1379984E+01
      -11   -1    0    0    0    0  0.00000000000E+00  0.00000000000E+00  0.35740347158E-01  0.35744000000E-01  0.51099999109E-03 0. -1.
       11   -1    0    0    0    0 -0.00000000000E+00 -0.00000000000E+00 -0.35740347158E-01  0.35744000000E-01  0.51099999109E-03 0.  1.
       22    1    1    2    0    0 -0.35731532234E-02  0.99422547003E-02 -0.34139679735E-01  0.35737005818E-01  0.00000000000E+00 0.  1.
  9000001    1    1    2    0    0  0.35731532234E-02 -0.99422547003E-02  0.34139679735E-01  0.35750994182E-01  0.10000000475E-02 0. -1.
</event>
<event>
 4   0  0.2441219E-02  0.9118800E+02  0.7818609E-02  0.1379984E+01
      -11   -1    0    0    0    0  0.00000000000E+00  0.00000000000E+00  0.35740347158E-01  0.35744000000E-01  0.51099999109E-03 0. -1.
       11   -1    0    0    0    0 -0.00000000000E+00 -0.00000000000E+00 -0.35740347158E-01  0.35744000000E-01  0.51099999109E-03 0.  1.
       22    1    1    2    0    0  0.27279421456E-01  0.23086068129E-01 -0.14430822377E-04  0.35737005818E-01  0.00000000000E+00 0. -1.
  9000001    1    1    2    0    0 -0.27279421456E-01 -0.23086068129E-01  0.14430822377E-04  0.35750994182E-01  0.10000000475E-02 0.  1.
</event>
<event>
 4   0  0.2441219E-02  0.9118800E+02  0.7818609E-02  0.1379984E+01
      -11   -1    0    0    0    0  0.00000000000E+00  0.00000000000E+00  0.35740347158E-01  0.35744000000E-01  0.51099999109E-03 0.  1.
       11   -1    0    0    0    0 -0.00000000000E+00 -0.00000000000E+00 -0.35740347158E-01  0.35744000000E-01  0.51099999109E-03 0. -1.
       22    1    1    2    0    0 -0.84567787522E-02 -0.12088126811E-02 -0.34700940188E-01  0.35737005818E-01  0.00000000000E+00 0. -1.
  9000001    1    1    2    0    0  0.84567787522E-02  0.12088126811E-02  0.34700940188E-01  0.35750994182E-01  0.10000000475E-02 0.  1.
</event>
<event>
 4   0  0.2441219E-02  0.9118800E+02  0.7818609E-02  0.1379984E+01
      -11   -1    0    0    0    0  0.00000000000E+00  0.00000000000E+00  0.35740347158E-01  0.35744000000E-01  0.51099999109E-03 0.  1.
       11   -1    0    0    0    0 -0.00000000000E+00 -0.00000000000E+00 -0.35740347158E-01  0.35744000000E-01  0.51099999109E-03 0. -1.
       22    1    1    2    0    0 -0.12781798949E-02  0.14266912916E-01 -0.32740724440E-01  0.35737005818E-01  0.00000000000E+00 0. -1.
  9000001    1    1    2    0    0  0.12781798949E-02 -0.14266912916E-01  0.32740724440E-01  0.35750994182E-01  0.10000000475E-02 0.  1.
</event>
<event>
 4   0  0.2441219E-02  0.9118800E+02  0.7818609E-02  0.1379984E+01
      -11   -1    0    0    0    0  0.00000000000E+00  0.00000000000E+00  0.35740347158E-01  0.35744000000E-01  0.51099999109E-03 0.  1.
       11   -1    0    0    0    0 -0.00000000000E+00 -0.00000000000E+00 -0.35740347158E-01  0.35744000000E-01  0.51099999109E-03 0. -1.
       22    1    1    2    0    0 -0.71265451662E-02  0.13462503830E-01 -0.32328113609E-01  0.35737005818E-01  0.00000000000E+00 0. -1.
  9000001    1    1    2    0    0  0.71265451662E-02 -0.13462503830E-01  0.32328113609E-01  0.35750994182E-01  0.10000000475E-02 0.  1.
</event>
<event>
 4   0  0.2441219E-02  0.9118800E+02  0.7818609E-02  0.1379984E+01
      -11   -1    0    0    0    0  0.00000000000E+00  0.00000000000E+00  0.35740347158E-01  0.35744000000E-01  0.51099999109E-03 0.  1.
       11   -1    0    0    0    0 -0.00000000000E+00 -0.00000000000E+00 -0.35740347158E-01  0.35744000000E-01  0.51099999109E-03 0. -1.
       22    1    1    2    0    0 -0.13303345240E-01 -0.16613670466E-02  0.33126944469E-01  0.35737005818E-01  0.00000000000E+00 0.  1.
  9000001    1    1    2    0    0  0.13303345240E-01  0.16613670466E-02 -0.33126944469E-01  0.35750994182E-01  0.10000000475E-02 0. -1.
</event>
<event>
 4   0  0.2441219E-02  0.9118800E+02  0.7818609E-02  0.1379984E+01
      -11   -1    0    0    0    0  0.00000000000E+00  0.00000000000E+00  0.35740347158E-01  0.35744000000E-01  0.51099999109E-03 0. -1.
       11   -1    0    0    0    0 -0.00000000000E+00 -0.00000000000E+00 -0.35740347158E-01  0.35744000000E-01  0.51099999109E-03 0.  1.
       22    1    1    2    0    0 -0.50086300865E-02  0.12810574948E-01  0.32983880594E-01  0.35737005818E-01  0.00000000000E+00 0. -1.
  9000001    1    1    2    0    0  0.50086300865E-02 -0.12810574948E-01 -0.32983880594E-01  0.35750994182E-01  0.10000000475E-02 0.  1.
</event>
<event>
 4   0  0.2441219E-02  0.9118800E+02  0.7818609E-02  0.1379984E+01
      -11   -1    0    0    0    0  0.00000000000E+00  0.00000000000E+00  0.35740347158E-01  0.35744000000E-01  0.51099999109E-03 0.  1.
       11   -1    0    0    0    0 -0.00000000000E+00 -0.00000000000E+00 -0.35740347158E-01  0.35744000000E-01  0.51099999109E-03 0. -1.
       22    1    1    2    0    0 -0.81904894038E-02  0.16793720718E-02  0.34745203664E-01  0.35737005818E-01  0.00000000000E+00 0.  1.
  9000001    1    1    2    0    0  0.81904894038E-02 -0.16793720718E-02 -0.34745203664E-01  0.35750994182E-01  0.10000000475E-02 0. -1.
</event>
<event>
 4   0  0.2441219E-02  0.9118800E+02  0.7818609E-02  0.1379984E+01
      -11   -1    0    0    0    0  0.00000000000E+00  0.00000000000E+00  0.35740347158E-01  0.35744000000E-01  0.51099999109E-03 0. -1.
       11   -1    0    0    0    0 -0.00000000000E+00 -0.00000000000E+00 -0.35740347158E-01  0.35744000000E-01  0.51099999109E-03 0.  1.
       22    1    1    2    0    0  0.24649352995E-02  0.49421625900E-02  0.35307686242E-01  0.35737005818E-01  0.00000000000E+00 0. -1.
  9000001    1    1    2    0    0 -0.24649352995E-02 -0.49421625900E-02 -0.35307686242E-01  0.35750994182E-01  0.10000000475E-02 0.  1.
</event>
<event>
 4   0  0.2441219E-02  0.9118800E+02  0.7818609E-02  0.1379984E+01
      -11   -1    0    0    0    0  0.00000000000E+00  0.00000000000E+00  0.35740347158E-01  0.35744000000E-01  0.51099999109E-03 0. -1.
       11   -1    0    0    0    0 -0.00000000000E+00 -0.00000000000E+00 -0.35740347158E-01  0.35744000000E-01  0.51099999109E-03 0.  1.
       22    1    1    2    0    0  0.17571991486E-01  0.26946356965E-01  0.15564464218E-01  0.35737005818E-01  0.00000000000E+00 0. -1.
  9000001    1    1    2    0    0 -0.17571991486E-01 -0.26946356965E-01 -0.15564464218E-01  0.35750994182E-01  0.10000000475E-02 0.  1.
</event>
<event>
 4   0  0.2441219E-02  0.9118800E+02  0.7818609E-02  0.1379984E+01
      -11   -1    0    0    0    0  0.00000000000E+00  0.00000000000E+00  0.35740347158E-01  0.35744000000E-01  0.51099999109E-03 0.  1.
       11   -1    0    0    0    0 -0.00000000000E+00 -0.00000000000E+00 -0.35740347158E-01  0.35744000000E-01  0.51099999109E-03 0. -1.
       22    1    1    2    0    0 -0.11543064093E-01  0.15139603211E-03  0.33821122623E-01  0.35737005818E-01  0.00000000000E+00 0.  1.
  9000001    1    1    2    0    0  0.11543064093E-01 -0.15139603211E-03 -0.33821122623E-01  0.35750994182E-01  0.10000000475E-02 0. -1.
</event>
<event>
 4   0  0.2441219E-02  0.9118800E+02  0.7818609E-02  0.1379984E+01
      -11   -1    0    0    0    0  0.00000000000E+00  0.00000000000E+00  0.35740347158E-01  0.35744000000E-01  0.51099999109E-03 0. -1.
       11   -1    0    0    0    0 -0.00000000000E+00 -0.00000000000E+00 -0.35740347158E-01  0.35744000000E-01  0.51099999109E-03 0.  1.
       22    1    1    2    0    0  0.14203175586E-01 -0.94293133329E-03 -0.32779784451E-01  0.35737005818E-01  0.00000000000E+00 0.  1.
  9000001    1    1    2    0    0 -0.14203175586E-01  0.94293133329E-03  0.32779784451E-01  0.35750994182E-01  0.10000000475E-02 0. -1.
</event>
<event>
 4   0  0.2441219E-02  0.9118800E+02  0.7818609E-02  0.1379984E+01
      -11   -1    0    0    0    0  0.00000000000E+00  0.00000000000E+00  0.35740347158E-01  0.35744000000E-01  0.51099999109E-03 0.  1.
       11   -1    0    0    0    0 -0.00000000000E+00 -0.00000000000E+00 -0.35740347158E-01  0.35744000000E-01  0.51099999109E-03 0. -1.
       22    1    1    2    0    0  0.17973783487E-01  0.13776182542E-01 -0.27645858399E-01  0.35737005818E-01  0.00000000000E+00 0. -1.
  9000001    1    1    2    0    0 -0.17973783487E-01 -0.13776182542E-01  0.27645858399E-01  0.35750994182E-01  0.10000000475E-02 0.  1.
</event>
<event>
 4   0  0.2441219E-02  0.9118800E+02  0.7818609E-02  0.1379984E+01
      -11   -1    0    0    0    0  0.00000000000E+00  0.00000000000E+00  0.35740347158E-01  0.35744000000E-01  0.51099999109E-03 0.  1.
       11   -1    0    0    0    0 -0.00000000000E+00 -0.00000000000E+00 -0.35740347158E-01  0.35744000000E-01  0.51099999109E-03 0. -1.
       22    1    1    2    0    0  0.32385844206E-02 -0.20156372918E-02  0.35532834986E-01  0.35737005818E-01  0.00000000000E+00 0.  1.
  9000001    1    1    2    0    0 -0.32385844206E-02  0.20156372918E-02 -0.35532834986E-01  0.35750994182E-01  0.10000000475E-02 0. -1.
</event>
<event>
 4   0  0.2441219E-02  0.9118800E+02  0.7818609E-02  0.1379984E+01
      -11   -1    0    0    0    0  0.00000000000E+00  0.00000000000E+00  0.35740347158E-01  0.35744000000E-01  0.51099999109E-03 0.  1.
       11   -1    0    0    0    0 -0.00000000000E+00 -0.00000000000E+00 -0.35740347158E-01  0.35744000000E-01  0.51099999109E-03 0. -1.
       22    1    1    2    0    0  0.13983740408E-01  0.73785495831E-02  0.32049112236E-01  0.35737005818E-01  0.00000000000E+00 0.  1.
  9000001    1    1    2    0    0 -0.13983740408E-01 -0.73785495831E-02 -0.32049112236E-01  0.35750994182E-01  0.10000000475E-02 0. -1.
</event>
<event>
 4   0  0.2441219E-02  0.9118800E+02  0.7818609E-02  0.1379984E+01
      -11   -1    0    0    0    0  0.00000000000E+00  0.00000000000E+00  0.35740347158E-01  0.35744000000E-01  0.51099999109E-03 0.  1.
       11   -1    0    0    0    0 -0.00000000000E+00 -0.00000000000E+00 -0.35740347158E-01  0.35744000000E-01  0.51099999109E-03 0. -1.
       22    1    1    2    0    0  0.39095865023E-02 -0.88591916036E-02 -0.34400050035E-01  0.35737005818E-01  0.00000000000E+00 0. -1.
  9000001    1    1    2    0    0 -0.39095865023E-02  0.88591916036E-02  0.34400050035E-01  0.35750994182E-01  0.10000000475E-02 0.  1.
</event>
<event>
 4   0  0.2441219E-02  0.9118800E+02  0.7818609E-02  0.1379984E+01
      -11   -1    0    0    0    0  0.00000000000E+00  0.00000000000E+00  0.35740347158E-01  0.35744000000E-01  0.51099999109E-03 0. -1.
       11   -1    0    0    0    0 -0.00000000000E+00 -0.00000000000E+00 -0.35740347158E-01  0.35744000000E-01  0.51099999109E-03 0.  1.
       22    1    1    2    0    0  0.77528291838E-03  0.46747089817E-02 -0.35421457017E-01  0.35737005818E-01  0.00000000000E+00 0.  1.
  9000001    1    1    2    0    0 -0.77528291838E-03 -0.46747089817E-02  0.35421457017E-01  0.35750994182E-01  0.10000000475E-02 0. -1.
</event>
<event>
 4   0  0.2441219E-02  0.9118800E+02  0.7818609E-02  0.1379984E+01
      -11   -1    0    0    0    0  0.00000000000E+00  0.00000000000E+00  0.35740347158E-01  0.35744000000E-01  0.51099999109E-03 0.  1.
       11   -1    0    0    0    0 -0.00000000000E+00 -0.00000000000E+00 -0.35740347158E-01  0.35744000000E-01  0.51099999109E-03 0. -1.
       22    1    1    2    0    0  0.25964656632E-02  0.59773635762E-02 -0.35137772775E-01  0.35737005818E-01  0.00000000000E+00 0. -1.
  9000001    1    1    2    0    0 -0.25964656632E-02 -0.59773635762E-02  0.35137772775E-01  0.35750994182E-01  0.10000000475E-02 0.  1.
</event>
<event>
 4   0  0.2441219E-02  0.9118800E+02  0.7818609E-02  0.1379984E+01
      -11   -1    0    0    0    0  0.00000000000E+00  0.00000000000E+00  0.35740347158E-01  0.35744000000E-01  0.51099999109E-03 0. -1.
       11   -1    0    0    0    0 -0.00000000000E+00 -0.00000000000E+00 -0.35740347158E-01  0.35744000000E-01  0.51099999109E-03 0.  1.
       22    1    1    2    0    0 -0.28856681915E-02 -0.74940916228E-02  0.34823054069E-01  0.35737005818E-01  0.00000000000E+00 0. -1.
  9000001    1    1    2    0    0  0.28856681915E-02  0.74940916228E-02 -0.34823054069E-01  0.35750994182E-01  0.10000000475E-02 0.  1.
</event>
<event>
 4   0  0.2441219E-02  0.9118800E+02  0.7818609E-02  0.1379984E+01
      -11   -1    0    0    0    0  0.00000000000E+00  0.00000000000E+00  0.35740347158E-01  0.35744000000E-01  0.51099999109E-03 0.  1.
       11   -1    0    0    0    0 -0.00000000000E+00 -0.00000000000E+00 -0.35740347158E-01  0.35744000000E-01  0.51099999109E-03 0. -1.
       22    1    1    2    0    0  0.66161943037E-02  0.34176035956E-02 -0.34952532719E-01  0.35737005818E-01  0.00000000000E+00 0. -1.
  9000001    1    1    2    0    0 -0.66161943037E-02 -0.34176035956E-02  0.34952532719E-01  0.35750994182E-01  0.10000000475E-02 0.  1.
</event>
<event>
 4   0  0.2441219E-02  0.9118800E+02  0.7818609E-02  0.1379984E+01
      -11   -1    0    0    0    0  0.00000000000E+00  0.00000000000E+00  0.35740347158E-01  0.35744000000E-01  0.51099999109E-03 0.  1.
       11   -1    0    0    0    0 -0.00000000000E+00 -0.00000000000E+00 -0.35740347158E-01  0.35744000000E-01  0.51099999109E-03 0. -1.
       22    1    1    2    0    0 -0.29355050482E-01  0.13045610731E-01  0.15659713813E-01  0.35737005818E-01  0.00000000000E+00 0.  1.
  9000001    1    1    2    0    0  0.29355050482E-01 -0.13045610731E-01 -0.15659713813E-01  0.35750994182E-01  0.10000000475E-02 0. -1.
</event>
<event>
 4   0  0.2441219E-02  0.9118800E+02  0.7818609E-02  0.1379984E+01
      -11   -1    0    0    0    0  0.00000000000E+00  0.00000000000E+00  0.35740347158E-01  0.35744000000E-01  0.51099999109E-03 0. -1.
       11   -1    0    0    0    0 -0.00000000000E+00 -0.00000000000E+00 -0.35740347158E-01  0.35744000000E-01  0.51099999109E-03 0.  1.
       22    1    1    2    0    0 -0.14901041174E-02  0.27845628290E-02  0.35597182254E-01  0.35737005818E-01  0.00000000000E+00 0. -1.
  9000001    1    1    2    0    0  0.14901041174E-02 -0.27845628290E-02 -0.35597182254E-01  0.35750994182E-01  0.10000000475E-02 0.  1.
</event>
<event>
 4   0  0.2441219E-02  0.9118800E+02  0.7818609E-02  0.1379984E+01
      -11   -1    0    0    0    0  0.00000000000E+00  0.00000000000E+00  0.35740347158E-01  0.35744000000E-01  0.51099999109E-03 0. -1.
       11   -1    0    0    0    0 -0.00000000000E+00 -0.00000000000E+00 -0.35740347158E-01  0.35744000000E-01  0.51099999109E-03 0.  1.
       22    1    1    2    0    0 -0.27950846315E-02 -0.38998818210E-02  0.35413443896E-01  0.35737005818E-01  0.00000000000E+00 0. -1.
  9000001    1    1    2    0    0  0.27950846315E-02  0.38998818210E-02 -0.35413443896E-01  0.35750994182E-01  0.10000000475E-02 0.  1.
</event>
<event>
 4   0  0.2441219E-02  0.9118800E+02  0.7818609E-02  0.1379984E+01
      -11   -1    0    0    0    0  0.00000000000E+00  0.00000000000E+00  0.35740347158E-01  0.35744000000E-01  0.51099999109E-03 0.  1.
       11   -1    0    0    0    0 -0.00000000000E+00 -0.00000000000E+00 -0.35740347158E-01  0.35744000000E-01  0.51099999109E-03 0. -1.
       22    1    1    2    0    0 -0.64238898997E-02 -0.34759847529E-01 -0.52554945715E-02  0.35737005818E-01  0.00000000000E+00 0. -1.
  9000001    1    1    2    0    0  0.64238898997E-02  0.34759847529E-01  0.52554945715E-02  0.35750994182E-01  0.10000000475E-02 0.  1.
</event>
<event>
 4   0  0.2441219E-02  0.9118800E+02  0.7818609E-02  0.1379984E+01
      -11   -1    0    0    0    0  0.00000000000E+00  0.00000000000E+00  0.35740347158E-01  0.35744000000E-01  0.51099999109E-03 0. -1.
       11   -1    0    0    0    0 -0.00000000000E+00 -0.00000000000E+00 -0.35740347158E-01  0.35744000000E-01  0.51099999109E-03 0.  1.
       22    1    1    2    0    0 -0.37212268220E-02 -0.68577845531E-02  0.34874874148E-01  0.35737005818E-01  0.00000000000E+00 0. -1.
  9000001    1    1    2    0    0  0.37212268220E-02  0.68577845531E-02 -0.34874874148E-01  0.35750994182E-01  0.10000000475E-02 0.  1.
</event>
<event>
 4   0  0.2441219E-02  0.9118800E+02  0.7818609E-02  0.1379984E+01
      -11   -1    0    0    0    0  0.00000000000E+00  0.00000000000E+00  0.35740347158E-01  0.35744000000E-01  0.51099999109E-03 0.  1.
       11   -1    0    0    0    0 -0.00000000000E+00 -0.00000000000E+00 -0.35740347158E-01  0.35744000000E-01  0.51099999109E-03 0. -1.
       22    1    1    2    0    0 -0.14826261460E-01 -0.22046993956E-01  0.23900745041E-01  0.35737005818E-01  0.00000000000E+00 0.  1.
  9000001    1    1    2    0    0  0.14826261460E-01  0.22046993956E-01 -0.23900745041E-01  0.35750994182E-01  0.10000000475E-02 0. -1.
</event>
<event>
 4   0  0.2441219E-02  0.9118800E+02  0.7818609E-02  0.1379984E+01
      -11   -1    0    0    0    0  0.00000000000E+00  0.00000000000E+00  0.35740347158E-01  0.35744000000E-01  0.51099999109E-03 0.  1.
       11   -1    0    0    0    0 -0.00000000000E+00 -0.00000000000E+00 -0.35740347158E-01  0.35744000000E-01  0.51099999109E-03 0. -1.
       22    1    1    2    0    0 -0.24442779695E-02  0.26952963063E-02 -0.35551293477E-01  0.35737005818E-01  0.00000000000E+00 0. -1.
  9000001    1    1    2    0    0  0.24442779695E-02 -0.26952963063E-02  0.35551293477E-01  0.35750994182E-01  0.10000000475E-02 0.  1.
</event>
<event>
 4   0  0.2441219E-02  0.9118800E+02  0.7818609E-02  0.1379984E+01
      -11   -1    0    0    0    0  0.00000000000E+00  0.00000000000E+00  0.35740347158E-01  0.35744000000E-01  0.51099999109E-03 0. -1.
       11   -1    0    0    0    0 -0.00000000000E+00 -0.00000000000E+00 -0.35740347158E-01  0.35744000000E-01  0.51099999109E-03 0.  1.
       22    1    1    2    0    0 -0.35466011324E-02 -0.33520603486E-02  0.35402244233E-01  0.35737005818E-01  0.00000000000E+00 0. -1.
  9000001    1    1    2    0    0  0.35466011324E-02  0.33520603486E-02 -0.35402244233E-01  0.35750994182E-01  0.10000000475E-02 0.  1.
</event>
<event>
 4   0  0.2441219E-02  0.9118800E+02  0.7818609E-02  0.1379984E+01
      -11   -1    0    0    0    0  0.00000000000E+00  0.00000000000E+00  0.35740347158E-01  0.35744000000E-01  0.51099999109E-03 0.  1.
       11   -1    0    0    0    0 -0.00000000000E+00 -0.00000000000E+00 -0.35740347158E-01  0.35744000000E-01  0.51099999109E-03 0. -1.
       22    1    1    2    0    0  0.24094840509E-02 -0.25828331528E-02 -0.35562015471E-01  0.35737005818E-01  0.00000000000E+00 0. -1.
  9000001    1    1    2    0    0 -0.24094840509E-02  0.25828331528E-02  0.35562015471E-01  0.35750994182E-01  0.10000000475E-02 0.  1.
</event>
<event>
 4   0  0.2441219E-02  0.9118800E+02  0.7818609E-02  0.1379984E+01
      -11   -1    0    0    0    0  0.00000000000E+00  0.00000000000E+00  0.35740347158E-01  0.35744000000E-01  0.51099999109E-03 0.  1.
       11   -1    0    0    0    0 -0.00000000000E+00 -0.00000000000E+00 -0.35740347158E-01  0.35744000000E-01  0.51099999109E-03 0. -1.
       22    1    1    2    0    0 -0.11524500992E-02  0.14278155029E-01 -0.32740490720E-01  0.35737005818E-01  0.00000000000E+00 0. -1.
  9000001    1    1    2    0    0  0.11524500992E-02 -0.14278155029E-01  0.32740490720E-01  0.35750994182E-01  0.10000000475E-02 0.  1.
</event>
<event>
 4   0  0.2441219E-02  0.9118800E+02  0.7818609E-02  0.1379984E+01
      -11   -1    0    0    0    0  0.00000000000E+00  0.00000000000E+00  0.35740347158E-01  0.35744000000E-01  0.51099999109E-03 0. -1.
       11   -1    0    0    0    0 -0.00000000000E+00 -0.00000000000E+00 -0.35740347158E-01  0.35744000000E-01  0.51099999109E-03 0.  1.
       22    1    1    2    0    0  0.96970705741E-04  0.10007956141E-01  0.34306923433E-01  0.35737005818E-01  0.00000000000E+00 0. -1.
  9000001    1    1    2    0    0 -0.96970705741E-04 -0.10007956141E-01 -0.34306923433E-01  0.35750994182E-01  0.10000000475E-02 0.  1.
</event>
<event>
 4   0  0.2441219E-02  0.9118800E+02  0.7818609E-02  0.1379984E+01
      -11   -1    0    0    0    0  0.00000000000E+00  0.00000000000E+00  0.35740347158E-01  0.35744000000E-01  0.51099999109E-03 0. -1.
       11   -1    0    0    0    0 -0.00000000000E+00 -0.00000000000E+00 -0.35740347158E-01  0.35744000000E-01  0.51099999109E-03 0.  1.
       22    1    1    2    0    0  0.53441330595E-02 -0.31068033765E-01 -0.16833036111E-01  0.35737005818E-01  0.00000000000E+00 0.  1.
  9000001    1    1    2    0    0 -0.53441330595E-02  0.31068033765E-01  0.16833036111E-01  0.35750994182E-01  0.10000000475E-02 0. -1.
</event>
<event>
 4   0  0.2441219E-02  0.9118800E+02  0.7818609E-02  0.1379984E+01
      -11   -1    0    0    0    0  0.00000000000E+00  0.00000000000E+00  0.35740347158E-01  0.35744000000E-01  0.51099999109E-03 0. -1.
       11   -1    0    0    0    0 -0.00000000000E+00 -0.00000000000E+00 -0.35740347158E-01  0.35744000000E-01  0.51099999109E-03 0.  1.
       22    1    1    2    0    0  0.30011588380E-01  0.63004693238E-02  0.18350537706E-01  0.35737005818E-01  0.00000000000E+00 0. -1.
  9000001    1    1    2    0    0 -0.30011588380E-01 -0.63004693238E-02 -0.18350537706E-01  0.35750994182E-01  0.10000000475E-02 0.  1.
</event>
<event>
 4   0  0.2441219E-02  0.9118800E+02  0.7818609E-02  0.1379984E+01
      -11   -1    0    0    0    0  0.00000000000E+00  0.00000000000E+00  0.35740347158E-01  0.35744000000E-01  0.51099999109E-03 0. -1.
       11   -1    0    0    0    0 -0.00000000000E+00 -0.00000000000E+00 -0.35740347158E-01  0.35744000000E-01  0.51099999109E-03 0.  1.
       22    1    1    2    0    0  0.24634272226E-02  0.35898321625E-02  0.35470807944E-01  0.35737005818E-01  0.00000000000E+00 0. -1.
  9000001    1    1    2    0    0 -0.24634272226E-02 -0.35898321625E-02 -0.35470807944E-01  0.35750994182E-01  0.10000000475E-02 0.  1.
</event>
<event>
 4   0  0.2441219E-02  0.9118800E+02  0.7818609E-02  0.1379984E+01
      -11   -1    0    0    0    0  0.00000000000E+00  0.00000000000E+00  0.35740347158E-01  0.35744000000E-01  0.51099999109E-03 0.  1.
       11   -1    0    0    0    0 -0.00000000000E+00 -0.00000000000E+00 -0.35740347158E-01  0.35744000000E-01  0.51099999109E-03 0. -1.
       22    1    1    2    0    0 -0.21536873913E-01  0.17332136593E-01  0.22647156291E-01  0.35737005818E-01  0.00000000000E+00 0.  1.
  9000001    1    1    2    0    0  0.21536873913E-01 -0.17332136593E-01 -0.22647156291E-01  0.35750994182E-01  0.10000000475E-02 0. -1.
</event>
<event>
 4   0  0.2441219E-02  0.9118800E+02  0.7818609E-02  0.1379984E+01
      -11   -1    0    0    0    0  0.00000000000E+00  0.00000000000E+00  0.35740347158E-01  0.35744000000E-01  0.51099999109E-03 0.  1.
       11   -1    0    0    0    0 -0.00000000000E+00 -0.00000000000E+00 -0.35740347158E-01  0.35744000000E-01  0.51099999109E-03 0. -1.
       22    1    1    2    0    0  0.21199908943E-02 -0.49257014478E-02  0.35332374513E-01  0.35737005818E-01  0.00000000000E+00 0.  1.
  9000001    1    1    2    0    0 -0.21199908943E-02  0.49257014478E-02 -0.35332374513E-01  0.35750994182E-01  0.10000000475E-02 0. -1.
</event>
<event>
 4   0  0.2441219E-02  0.9118800E+02  0.7818609E-02  0.1379984E+01
      -11   -1    0    0    0    0  0.00000000000E+00  0.00000000000E+00  0.35740347158E-01  0.35744000000E-01  0.51099999109E-03 0. -1.
       11   -1    0    0    0    0 -0.00000000000E+00 -0.00000000000E+00 -0.35740347158E-01  0.35744000000E-01  0.51099999109E-03 0.  1.
       22    1    1    2    0    0 -0.28953655585E-01 -0.11048461971E-02  0.20918860581E-01  0.35737005818E-01  0.00000000000E+00 0. -1.
  9000001    1    1    2    0    0  0.28953655585E-01  0.11048461971E-02 -0.20918860581E-01  0.35750994182E-01  0.10000000475E-02 0.  1.
</event>
<event>
 4   0  0.2441219E-02  0.9118800E+02  0.7818609E-02  0.1379984E+01
      -11   -1    0    0    0    0  0.00000000000E+00  0.00000000000E+00  0.35740347158E-01  0.35744000000E-01  0.51099999109E-03 0. -1.
       11   -1    0    0    0    0 -0.00000000000E+00 -0.00000000000E+00 -0.35740347158E-01  0.35744000000E-01  0.51099999109E-03 0.  1.
       22    1    1    2    0    0  0.22866825572E-01  0.44530460461E-02 -0.27100041587E-01  0.35737005818E-01  0.00000000000E+00 0.  1.
  9000001    1    1    2    0    0 -0.22866825572E-01 -0.44530460461E-02  0.27100041587E-01  0.35750994182E-01  0.10000000475E-02 0. -1.
</event>
<event>
 4   0  0.2441219E-02  0.9118800E+02  0.7818609E-02  0.1379984E+01
      -11   -1    0    0    0    0  0.00000000000E+00  0.00000000000E+00  0.35740347158E-01  0.35744000000E-01  0.51099999109E-03 0.  1.
       11   -1    0    0    0    0 -0.00000000000E+00 -0.00000000000E+00 -0.35740347158E-01  0.35744000000E-01  0.51099999109E-03 0. -1.
       22    1    1    2    0    0  0.22746574618E-02 -0.24072077963E-02 -0.35583210492E-01  0.35737005818E-01  0.00000000000E+00 0. -1.
  9000001    1    1    2    0    0 -0.22746574618E-02  0.24072077963E-02  0.35583210492E-01  0.35750994182E-01  0.10000000475E-02 0.  1.
</event>
<event>
 4   0  0.2441219E-02  0.9118800E+02  0.7818609E-02  0.1379984E+01
      -11   -1    0    0    0    0  0.00000000000E+00  0.00000000000E+00  0.35740347158E-01  0.35744000000E-01  0.51099999109E-03 0. -1.
       11   -1    0    0    0    0 -0.00000000000E+00 -0.00000000000E+00 -0.35740347158E-01  0.35744000000E-01  0.51099999109E-03 0.  1.
       22    1    1    2    0    0  0.10163967315E-01 -0.15589329330E-02  0.34225678684E-01  0.35737005818E-01  0.00000000000E+00 0. -1.
  9000001    1    1    2    0    0 -0.10163967315E-01  0.15589329330E-02 -0.34225678684E-01  0.35750994182E-01  0.10000000475E-02 0.  1.
</event>
<event>
 4   0  0.2441219E-02  0.9118800E+02  0.7818609E-02  0.1379984E+01
      -11   -1    0    0    0    0  0.00000000000E+00  0.00000000000E+00  0.35740347158E-01  0.35744000000E-01  0.51099999109E-03 0. -1.
       11   -1    0    0    0    0 -0.00000000000E+00 -0.00000000000E+00 -0.35740347158E-01  0.35744000000E-01  0.51099999109E-03 0.  1.
       22    1    1    2    0    0 -0.31894723603E-02  0.41996046793E-02  0.35345780108E-01  0.35737005818E-01  0.00000000000E+00 0. -1.
  9000001    1    1    2    0    0  0.31894723603E-02 -0.41996046793E-02 -0.35345780108E-01  0.35750994182E-01  0.10000000475E-02 0.  1.
</event>
<event>
 4   0  0.2441219E-02  0.9118800E+02  0.7818609E-02  0.1379984E+01
      -11   -1    0    0    0    0  0.00000000000E+00  0.00000000000E+00  0.35740347158E-01  0.35744000000E-01  0.51099999109E-03 0. -1.
       11   -1    0    0    0    0 -0.00000000000E+00 -0.00000000000E+00 -0.35740347158E-01  0.35744000000E-01  0.51099999109E-03 0.  1.
       22    1    1    2    0    0 -0.76210883688E-02 -0.49979696134E-02  0.34555359884E-01  0.35737005818E-01  0.00000000000E+00 0. -1.
  9000001    1    1    2    0    0  0.76210883688E-02  0.49979696134E-02 -0.34555359884E-01  0.35750994182E-01  0.10000000475E-02 0.  1.
</event>
<event>
 4   0  0.2441219E-02  0.9118800E+02  0.7818609E-02  0.1379984E+01
      -11   -1    0    0    0    0  0.00000000000E+00  0.00000000000E+00  0.35740347158E-01  0.35744000000E-01  0.51099999109E-03 0.  1.
       11   -1    0    0    0    0 -0.00000000000E+00 -0.00000000000E+00 -0.35740347158E-01  0.35744000000E-01  0.51099999109E-03 0. -1.
       22    1    1    2    0    0 -0.59301435978E-02  0.24045559901E-02  0.35159423947E-01  0.35737005818E-01  0.00000000000E+00 0.  1.
  9000001    1    1    2    0    0  0.59301435978E-02 -0.24045559901E-02 -0.35159423947E-01  0.35750994182E-01  0.10000000475E-02 0. -1.
</event>
<event>
 4   0  0.2441219E-02  0.9118800E+02  0.7818609E-02  0.1379984E+01
      -11   -1    0    0    0    0  0.00000000000E+00  0.00000000000E+00  0.35740347158E-01  0.35744000000E-01  0.51099999109E-03 0.  1.
       11   -1    0    0    0    0 -0.00000000000E+00 -0.00000000000E+00 -0.35740347158E-01  0.35744000000E-01  0.51099999109E-03 0. -1.
       22    1    1    2    0    0 -0.45636855537E-02 -0.18126475116E-01  0.30458779668E-01  0.35737005818E-01  0.00000000000E+00 0.  1.
  9000001    1    1    2    0    0  0.45636855537E-02  0.18126475116E-01 -0.30458779668E-01  0.35750994182E-01  0.10000000475E-02 0. -1.
</event>
<event>
 4   0  0.2441219E-02  0.9118800E+02  0.7818609E-02  0.1379984E+01
      -11   -1    0    0    0    0  0.00000000000E+00  0.00000000000E+00  0.35740347158E-01  0.35744000000E-01  0.51099999109E-03 0. -1.
       11   -1    0    0    0    0 -0.00000000000E+00 -0.00000000000E+00 -0.35740347158E-01  0.35744000000E-01  0.51099999109E-03 0.  1.
       22    1    1    2    0    0  0.54766089339E-02  0.66045450189E-02  0.34691790449E-01  0.35737005818E-01  0.00000000000E+00 0. -1.
  9000001    1    1    2    0    0 -0.54766089339E-02 -0.66045450189E-02 -0.34691790449E-01  0.35750994182E-01  0.10000000475E-02 0.  1.
</event>
<event>
 4   0  0.2441219E-02  0.9118800E+02  0.7818609E-02  0.1379984E+01
      -11   -1    0    0    0    0  0.00000000000E+00  0.00000000000E+00  0.35740347158E-01  0.35744000000E-01  0.51099999109E-03 0. -1.
       11   -1    0    0    0    0 -0.00000000000E+00 -0.00000000000E+00 -0.35740347158E-01  0.35744000000E-01  0.51099999109E-03 0.  1.
       22    1    1    2    0    0  0.12316795633E-01 -0.19353652459E-02  0.33491558512E-01  0.35737005818E-01  0.00000000000E+00 0. -1.
  9000001    1    1    2    0    0 -0.12316795633E-01  0.19353652459E-02 -0.33491558512E-01  0.35750994182E-01  0.10000000475E-02 0.  1.
</event>
<event>
 4   0  0.2441219E-02  0.9118800E+02  0.7818609E-02  0.1379984E+01
      -11   -1    0    0    0    0  0.00000000000E+00  0.00000000000E+00  0.35740347158E-01  0.35744000000E-01  0.51099999109E-03 0. -1.
       11   -1    0    0    0    0 -0.00000000000E+00 -0.00000000000E+00 -0.35740347158E-01  0.35744000000E-01  0.51099999109E-03 0.  1.
       22    1    1    2    0    0  0.30049504362E-01  0.17366880534E-01 -0.85177657294E-02  0.35737005818E-01  0.00000000000E+00 0. -1.
  9000001    1    1    2    0    0 -0.30049504362E-01 -0.17366880534E-01  0.85177657294E-02  0.35750994182E-01  0.10000000475E-02 0.  1.
</event>
<event>
 4   0  0.2441219E-02  0.9118800E+02  0.7818609E-02  0.1379984E+01
      -11   -1    0    0    0    0  0.00000000000E+00  0.00000000000E+00  0.35740347158E-01  0.35744000000E-01  0.51099999109E-03 0.  1.
       11   -1    0    0    0    0 -0.00000000000E+00 -0.00000000000E+00 -0.35740347158E-01  0.35744000000E-01  0.51099999109E-03 0. -1.
       22    1    1    2    0    0  0.35188120540E-02  0.43940667764E-02  0.35290844758E-01  0.35737005818E-01  0.00000000000E+00 0.  1.
  9000001    1    1    2    0    0 -0.35188120540E-02 -0.43940667764E-02 -0.35290844758E-01  0.35750994182E-01  0.10000000475E-02 0. -1.
</event>
<event>
 4   0  0.2441219E-02  0.9118800E+02  0.7818609E-02  0.1379984E+01
      -11   -1    0    0    0    0  0.00000000000E+00  0.00000000000E+00  0.35740347158E-01  0.35744000000E-01  0.51099999109E-03 0.  1.
       11   -1    0    0    0    0 -0.00000000000E+00 -0.00000000000E+00 -0.35740347158E-01  0.35744000000E-01  0.51099999109E-03 0. -1.
       22    1    1    2    0    0 -0.90936537871E-03 -0.16789516855E-01 -0.31534406024E-01  0.35737005818E-01  0.00000000000E+00 0. -1.
  9000001    1    1    2    0    0  0.90936537871E-03  0.16789516855E-01  0.31534406024E-01  0.35750994182E-01  0.10000000475E-02 0.  1.
</event>
<event>
 4   0  0.2441219E-02  0.9118800E+02  0.7818609E-02  0.1379984E+01
      -11   -1    0    0    0    0  0.00000000000E+00  0.00000000000E+00  0.35740347158E-01  0.35744000000E-01  0.51099999109E-03 0.  1.
       11   -1    0    0    0    0 -0.00000000000E+00 -0.00000000000E+00 -0.35740347158E-01  0.35744000000E-01  0.51099999109E-03 0. -1.
       22    1    1    2    0    0 -0.19616653696E-04  0.61930587234E-02  0.35196295596E-01  0.35737005818E-01  0.00000000000E+00 0.  1.
  9000001    1    1    2    0    0  0.19616653696E-04 -0.61930587234E-02 -0.35196295596E-01  0.35750994182E-01  0.10000000475E-02 0. -1.
</event>
<event>
 4   0  0.2441219E-02  0.9118800E+02  0.7818609E-02  0.1379984E+01
      -11   -1    0    0    0    0  0.00000000000E+00  0.00000000000E+00  0.35740347158E-01  0.35744000000E-01  0.51099999109E-03 0. -1.
       11   -1    0    0    0    0 -0.00000000000E+00 -0.00000000000E+00 -0.35740347158E-01  0.35744000000E-01  0.51099999109E-03 0.  1.
       22    1    1    2    0    0 -0.28282531750E-01  0.81479797389E-02  0.20269247861E-01  0.35737005818E-01  0.00000000000E+00 0. -1.
  9000001    1    1    2    0    0  0.28282531750E-01 -0.81479797389E-02 -0.20269247861E-01  0.35750994182E-01  0.10000000475E-02 0.  1.
</event>
<event>
 4   0  0.2441219E-02  0.9118800E+02  0.7818609E-02  0.1379984E+01
      -11   -1    0    0    0    0  0.00000000000E+00  0.00000000000E+00  0.35740347158E-01  0.35744000000E-01  0.51099999109E-03 0.  1.
       11   -1    0    0    0    0 -0.00000000000E+00 -0.00000000000E+00 -0.35740347158E-01  0.35744000000E-01  0.51099999109E-03 0. -1.
       22    1    1    2    0    0 -0.26182274002E-02 -0.21512880478E-02 -0.35575981081E-01  0.35737005818E-01  0.00000000000E+00 0. -1.
  9000001    1    1    2    0    0  0.26182274002E-02  0.21512880478E-02  0.35575981081E-01  0.35750994182E-01  0.10000000475E-02 0.  1.
</event>
<event>
 4   0  0.2441219E-02  0.9118800E+02  0.7818609E-02  0.1379984E+01
      -11   -1    0    0    0    0  0.00000000000E+00  0.00000000000E+00  0.35740347158E-01  0.35744000000E-01  0.51099999109E-03 0.  1.
       11   -1    0    0    0    0 -0.00000000000E+00 -0.00000000000E+00 -0.35740347158E-01  0.35744000000E-01  0.51099999109E-03 0. -1.
       22    1    1    2    0    0 -0.61861700798E-02 -0.15068574262E-01  0.31808850252E-01  0.35737005818E-01  0.00000000000E+00 0.  1.
  9000001    1    1    2    0    0  0.61861700798E-02  0.15068574262E-01 -0.31808850252E-01  0.35750994182E-01  0.10000000475E-02 0. -1.
</event>
<event>
 4   0  0.2441219E-02  0.9118800E+02  0.7818609E-02  0.1379984E+01
      -11   -1    0    0    0    0  0.00000000000E+00  0.00000000000E+00  0.35740347158E-01  0.35744000000E-01  0.51099999109E-03 0. -1.
       11   -1    0    0    0    0 -0.00000000000E+00 -0.00000000000E+00 -0.35740347158E-01  0.35744000000E-01  0.51099999109E-03 0.  1.
       22    1    1    2    0    0 -0.74979733662E-03 -0.37481388297E-02 -0.35531997469E-01  0.35737005818E-01  0.00000000000E+00 0.  1.
  9000001    1    1    2    0    0  0.74979733662E-03  0.37481388297E-02  0.35531997469E-01  0.35750994182E-01  0.10000000475E-02 0. -1.
</event>
<event>
 4   0  0.2441219E-02  0.9118800E+02  0.7818609E-02  0.1379984E+01
      -11   -1    0    0    0    0  0.00000000000E+00  0.00000000000E+00  0.35740347158E-01  0.35744000000E-01  0.51099999109E-03 0.  1.
       11   -1    0    0    0    0 -0.00000000000E+00 -0.00000000000E+00 -0.35740347158E-01  0.35744000000E-01  0.51099999109E-03 0. -1.
       22    1    1    2    0    0 -0.12116907282E-02 -0.50390145933E-02  0.35359209866E-01  0.35737005818E-01  0.00000000000E+00 0.  1.
  9000001    1    1    2    0    0  0.12116907282E-02  0.50390145933E-02 -0.35359209866E-01  0.35750994182E-01  0.10000000475E-02 0. -1.
</event>
<event>
 4   0  0.2441219E-02  0.9118800E+02  0.7818609E-02  0.1379984E+01
      -11   -1    0    0    0    0  0.00000000000E+00  0.00000000000E+00  0.35740347158E-01  0.35744000000E-01  0.51099999109E-03 0. -1.
       11   -1    0    0    0    0 -0.00000000000E+00 -0.00000000000E+00 -0.35740347158E-01  0.35744000000E-01  0.51099999109E-03 0.  1.
       22    1    1    2    0    0  0.27149653905E-01 -0.16600033322E-01 -0.16262495854E-01  0.35737005818E-01  0.00000000000E+00 0.  1.
  9000001    1    1    2    0    0 -0.27149653905E-01  0.16600033322E-01  0.16262495854E-01  0.35750994182E-01  0.10000000475E-02 0. -1.
</event>
<event>
 4   0  0.2441219E-02  0.9118800E+02  0.7818609E-02  0.1379984E+01
      -11   -1    0    0    0    0  0.00000000000E+00  0.00000000000E+00  0.35740347158E-01  0.35744000000E-01  0.51099999109E-03 0.  1.
       11   -1    0    0    0    0 -0.00000000000E+00 -0.00000000000E+00 -0.35740347158E-01  0.35744000000E-01  0.51099999109E-03 0. -1.
       22    1    1    2    0    0 -0.38593934181E-02 -0.40979744379E-02 -0.35290866705E-01  0.35737005818E-01  0.00000000000E+00 0. -1.
  9000001    1    1    2    0    0  0.38593934181E-02  0.40979744379E-02  0.35290866705E-01  0.35750994182E-01  0.10000000475E-02 0.  1.
</event>
<event>
 4   0  0.2441219E-02  0.9118800E+02  0.7818609E-02  0.1379984E+01
      -11   -1    0    0    0    0  0.00000000000E+00  0.00000000000E+00  0.35740347158E-01  0.35744000000E-01  0.51099999109E-03 0.  1.
       11   -1    0    0    0    0 -0.00000000000E+00 -0.00000000000E+00 -0.35740347158E-01  0.35744000000E-01  0.51099999109E-03 0. -1.
       22    1    1    2    0    0  0.13571682165E-01 -0.11582327812E-01 -0.30964378091E-01  0.35737005818E-01  0.00000000000E+00 0. -1.
  9000001    1    1    2    0    0 -0.13571682165E-01  0.11582327812E-01  0.30964378091E-01  0.35750994182E-01  0.10000000475E-02 0.  1.
</event>
<event>
 4   0  0.2441219E-02  0.9118800E+02  0.7818609E-02  0.1379984E+01
      -11   -1    0    0    0    0  0.00000000000E+00  0.00000000000E+00  0.35740347158E-01  0.35744000000E-01  0.51099999109E-03 0. -1.
       11   -1    0    0    0    0 -0.00000000000E+00 -0.00000000000E+00 -0.35740347158E-01  0.35744000000E-01  0.51099999109E-03 0.  1.
       22    1    1    2    0    0 -0.19202831407E-01  0.14462889925E-01  0.26442572980E-01  0.35737005818E-01  0.00000000000E+00 0. -1.
  9000001    1    1    2    0    0  0.19202831407E-01 -0.14462889925E-01 -0.26442572980E-01  0.35750994182E-01  0.10000000475E-02 0.  1.
</event>
<event>
 4   0  0.2441219E-02  0.9118800E+02  0.7818609E-02  0.1379984E+01
      -11   -1    0    0    0    0  0.00000000000E+00  0.00000000000E+00  0.35740347158E-01  0.35744000000E-01  0.51099999109E-03 0. -1.
       11   -1    0    0    0    0 -0.00000000000E+00 -0.00000000000E+00 -0.35740347158E-01  0.35744000000E-01  0.51099999109E-03 0.  1.
       22    1    1    2    0    0 -0.28992410496E-01 -0.98694946925E-02  0.18416481560E-01  0.35737005818E-01  0.00000000000E+00 0.  1.
  9000001    1    1    2    0    0  0.28992410496E-01  0.98694946925E-02 -0.18416481560E-01  0.35750994182E-01  0.10000000475E-02 0. -1.
</event>
<event>
 4   0  0.2441219E-02  0.9118800E+02  0.7818609E-02  0.1379984E+01
      -11   -1    0    0    0    0  0.00000000000E+00  0.00000000000E+00  0.35740347158E-01  0.35744000000E-01  0.51099999109E-03 0. -1.
       11   -1    0    0    0    0 -0.00000000000E+00 -0.00000000000E+00 -0.35740347158E-01  0.35744000000E-01  0.51099999109E-03 0.  1.
       22    1    1    2    0    0  0.27634263218E-03  0.29521301263E-01 -0.20138271806E-01  0.35737005818E-01  0.00000000000E+00 0.  1.
  9000001    1    1    2    0    0 -0.27634263218E-03 -0.29521301263E-01  0.20138271806E-01  0.35750994182E-01  0.10000000475E-02 0. -1.
</event>
<event>
 4   0  0.2441219E-02  0.9118800E+02  0.7818609E-02  0.1379984E+01
      -11   -1    0    0    0    0  0.00000000000E+00  0.00000000000E+00  0.35740347158E-01  0.35744000000E-01  0.51099999109E-03 0.  1.
       11   -1    0    0    0    0 -0.00000000000E+00 -0.00000000000E+00 -0.35740347158E-01  0.35744000000E-01  0.51099999109E-03 0. -1.
       22    1    1    2    0    0 -0.49490741513E-02  0.36261403517E-02 -0.35206410724E-01  0.35737005818E-01  0.00000000000E+00 0. -1.
  9000001    1    1    2    0    0  0.49490741513E-02 -0.36261403517E-02  0.35206410724E-01  0.35750994182E-01  0.10000000475E-02 0.  1.
</event>
<event>
 4   0  0.2441219E-02  0.9118800E+02  0.7818609E-02  0.1379984E+01
      -11   -1    0    0    0    0  0.00000000000E+00  0.00000000000E+00  0.35740347158E-01  0.35744000000E-01  0.51099999109E-03 0.  1.
       11   -1    0    0    0    0 -0.00000000000E+00 -0.00000000000E+00 -0.35740347158E-01  0.35744000000E-01  0.51099999109E-03 0. -1.
       22    1    1    2    0    0  0.16664031532E-01 -0.31546633089E-01  0.20624206033E-02  0.35737005818E-01  0.00000000000E+00 0.  1.
  9000001    1    1    2    0    0 -0.16664031532E-01  0.31546633089E-01 -0.20624206033E-02  0.35750994182E-01  0.10000000475E-02 0. -1.
</event>
<event>
 4   0  0.2441219E-02  0.9118800E+02  0.7818609E-02  0.1379984E+01
      -11   -1    0    0    0    0  0.00000000000E+00  0.00000000000E+00  0.35740347158E-01  0.35744000000E-01  0.51099999109E-03 0.  1.
       11   -1    0    0    0    0 -0.00000000000E+00 -0.00000000000E+00 -0.35740347158E-01  0.35744000000E-01  0.51099999109E-03 0. -1.
       22    1    1    2    0    0  0.15471291977E-01  0.24994456923E-01 -0.20323627445E-01  0.35737005818E-01  0.00000000000E+00 0. -1.
  9000001    1    1    2    0    0 -0.15471291977E-01 -0.24994456923E-01  0.20323627445E-01  0.35750994182E-01  0.10000000475E-02 0.  1.
</event>
<event>
 4   0  0.2441219E-02  0.9118800E+02  0.7818609E-02  0.1379984E+01
      -11   -1    0    0    0    0  0.00000000000E+00  0.00000000000E+00  0.35740347158E-01  0.35744000000E-01  0.51099999109E-03 0. -1.
       11   -1    0    0    0    0 -0.00000000000E+00 -0.00000000000E+00 -0.35740347158E-01  0.35744000000E-01  0.51099999109E-03 0.  1.
       22    1    1    2    0    0 -0.31812852985E-01  0.13794081032E-01  0.86486587570E-02  0.35737005818E-01  0.00000000000E+00 0. -1.
  9000001    1    1    2    0    0  0.31812852985E-01 -0.13794081032E-01 -0.86486587570E-02  0.35750994182E-01  0.10000000475E-02 0.  1.
</event>
<event>
 4   0  0.2441219E-02  0.9118800E+02  0.7818609E-02  0.1379984E+01
      -11   -1    0    0    0    0  0.00000000000E+00  0.00000000000E+00  0.35740347158E-01  0.35744000000E-01  0.51099999109E-03 0. -1.
       11   -1    0    0    0    0 -0.00000000000E+00 -0.00000000000E+00 -0.35740347158E-01  0.35744000000E-01  0.51099999109E-03 0.  1.
       22    1    1    2    0    0 -0.22328450056E-02  0.11777696161E-01 -0.33666509489E-01  0.35737005818E-01  0.00000000000E+00 0.  1.
  9000001    1    1    2    0    0  0.22328450056E-02 -0.11777696161E-01  0.33666509489E-01  0.35750994182E-01  0.10000000475E-02 0. -1.
</event>
<event>
 4   0  0.2441219E-02  0.9118800E+02  0.7818609E-02  0.1379984E+01
      -11   -1    0    0    0    0  0.00000000000E+00  0.00000000000E+00  0.35740347158E-01  0.35744000000E-01  0.51099999109E-03 0.  1.
       11   -1    0    0    0    0 -0.00000000000E+00 -0.00000000000E+00 -0.35740347158E-01  0.35744000000E-01  0.51099999109E-03 0. -1.
       22    1    1    2    0    0 -0.10064993208E-02 -0.16695691870E-01  0.31581235203E-01  0.35737005818E-01  0.00000000000E+00 0. -1.
  9000001    1    1    2    0    0  0.10064993208E-02  0.16695691870E-01 -0.31581235203E-01  0.35750994182E-01  0.10000000475E-02 0.  1.
</event>
<event>
 4   0  0.2441219E-02  0.9118800E+02  0.7818609E-02  0.1379984E+01
      -11   -1    0    0    0    0  0.00000000000E+00  0.00000000000E+00  0.35740347158E-01  0.35744000000E-01  0.51099999109E-03 0.  1.
       11   -1    0    0    0    0 -0.00000000000E+00 -0.00000000000E+00 -0.35740347158E-01  0.35744000000E-01  0.51099999109E-03 0. -1.
       22    1    1    2    0    0 -0.17281111944E-01  0.17277648145E-02 -0.31233180812E-01  0.35737005818E-01  0.00000000000E+00 0. -1.
  9000001    1    1    2    0    0  0.17281111944E-01 -0.17277648145E-02  0.31233180812E-01  0.35750994182E-01  0.10000000475E-02 0.  1.
</event>
<event>
 4   0  0.2441219E-02  0.9118800E+02  0.7818609E-02  0.1379984E+01
      -11   -1    0    0    0    0  0.00000000000E+00  0.00000000000E+00  0.35740347158E-01  0.35744000000E-01  0.51099999109E-03 0. -1.
       11   -1    0    0    0    0 -0.00000000000E+00 -0.00000000000E+00 -0.35740347158E-01  0.35744000000E-01  0.51099999109E-03 0.  1.
       22    1    1    2    0    0  0.17239579857E-01 -0.10232219972E-01 -0.29584322633E-01  0.35737005818E-01  0.00000000000E+00 0.  1.
  9000001    1    1    2    0    0 -0.17239579857E-01  0.10232219972E-01  0.29584322633E-01  0.35750994182E-01  0.10000000475E-02 0. -1.
</event>
<event>
 4   0  0.2441219E-02  0.9118800E+02  0.7818609E-02  0.1379984E+01
      -11   -1    0    0    0    0  0.00000000000E+00  0.00000000000E+00  0.35740347158E-01  0.35744000000E-01  0.51099999109E-03 0.  1.
       11   -1    0    0    0    0 -0.00000000000E+00 -0.00000000000E+00 -0.35740347158E-01  0.35744000000E-01  0.51099999109E-03 0. -1.
       22    1    1    2    0    0 -0.36881279900E-02  0.25360563616E-01 -0.24907290296E-01  0.35737005818E-01  0.00000000000E+00 0. -1.
  9000001    1    1    2    0    0  0.36881279900E-02 -0.25360563616E-01  0.24907290296E-01  0.35750994182E-01  0.10000000475E-02 0.  1.
</event>
<event>
 4   0  0.2441219E-02  0.9118800E+02  0.7818609E-02  0.1379984E+01
      -11   -1    0    0    0    0  0.00000000000E+00  0.00000000000E+00  0.35740347158E-01  0.35744000000E-01  0.51099999109E-03 0. -1.
       11   -1    0    0    0    0 -0.00000000000E+00 -0.00000000000E+00 -0.35740347158E-01  0.35744000000E-01  0.51099999109E-03 0.  1.
       22    1    1    2    0    0 -0.29926070258E-01  0.10930206296E-01  0.16189332726E-01  0.35737005818E-01  0.00000000000E+00 0. -1.
  9000001    1    1    2    0    0  0.29926070258E-01 -0.10930206296E-01 -0.16189332726E-01  0.35750994182E-01  0.10000000475E-02 0.  1.
</event>
<event>
 4   0  0.2441219E-02  0.9118800E+02  0.7818609E-02  0.1379984E+01
      -11   -1    0    0    0    0  0.00000000000E+00  0.00000000000E+00  0.35740347158E-01  0.35744000000E-01  0.51099999109E-03 0. -1.
       11   -1    0    0    0    0 -0.00000000000E+00 -0.00000000000E+00 -0.35740347158E-01  0.35744000000E-01  0.51099999109E-03 0.  1.
       22    1    1    2    0    0 -0.63555516315E-02  0.57384457221E-02 -0.34695976554E-01  0.35737005818E-01  0.00000000000E+00 0.  1.
  9000001    1    1    2    0    0  0.63555516315E-02 -0.57384457221E-02  0.34695976554E-01  0.35750994182E-01  0.10000000475E-02 0. -1.
</event>
<event>
 4   0  0.2441219E-02  0.9118800E+02  0.7818609E-02  0.1379984E+01
      -11   -1    0    0    0    0  0.00000000000E+00  0.00000000000E+00  0.35740347158E-01  0.35744000000E-01  0.51099999109E-03 0.  1.
       11   -1    0    0    0    0 -0.00000000000E+00 -0.00000000000E+00 -0.35740347158E-01  0.35744000000E-01  0.51099999109E-03 0. -1.
       22    1    1    2    0    0  0.12280331796E-03  0.30658301587E-02 -0.35605044441E-01  0.35737005818E-01  0.00000000000E+00 0. -1.
  9000001    1    1    2    0    0 -0.12280331796E-03 -0.30658301587E-02  0.35605044441E-01  0.35750994182E-01  0.10000000475E-02 0.  1.
</event>
<event>
 4   0  0.2441219E-02  0.9118800E+02  0.7818609E-02  0.1379984E+01
      -11   -1    0    0    0    0  0.00000000000E+00  0.00000000000E+00  0.35740347158E-01  0.35744000000E-01  0.51099999109E-03 0. -1.
       11   -1    0    0    0    0 -0.00000000000E+00 -0.00000000000E+00 -0.35740347158E-01  0.35744000000E-01  0.51099999109E-03 0.  1.
       22    1    1    2    0    0 -0.97050842307E-03  0.20342565502E-01 -0.29366166367E-01  0.35737005818E-01  0.00000000000E+00 0.  1.
  9000001    1    1    2    0    0  0.97050842307E-03 -0.20342565502E-01  0.29366166367E-01  0.35750994182E-01  0.10000000475E-02 0. -1.
</event>
<event>
 4   0  0.2441219E-02  0.9118800E+02  0.7818609E-02  0.1379984E+01
      -11   -1    0    0    0    0  0.00000000000E+00  0.00000000000E+00  0.35740347158E-01  0.35744000000E-01  0.51099999109E-03 0.  1.
       11   -1    0    0    0    0 -0.00000000000E+00 -0.00000000000E+00 -0.35740347158E-01  0.35744000000E-01  0.51099999109E-03 0. -1.
       22    1    1    2    0    0 -0.45680594846E-02 -0.11651390622E-01  0.33474042391E-01  0.35737005818E-01  0.00000000000E+00 0.  1.
  9000001    1    1    2    0    0  0.45680594846E-02  0.11651390622E-01 -0.33474042391E-01  0.35750994182E-01  0.10000000475E-02 0. -1.
</event>
<event>
 4   0  0.2441219E-02  0.9118800E+02  0.7818609E-02  0.1379984E+01
      -11   -1    0    0    0    0  0.00000000000E+00  0.00000000000E+00  0.35740347158E-01  0.35744000000E-01  0.51099999109E-03 0.  1.
       11   -1    0    0    0    0 -0.00000000000E+00 -0.00000000000E+00 -0.35740347158E-01  0.35744000000E-01  0.51099999109E-03 0. -1.
       22    1    1    2    0    0  0.20835757058E-01 -0.67454538308E-02  0.28240107389E-01  0.35737005818E-01  0.00000000000E+00 0.  1.
  9000001    1    1    2    0    0 -0.20835757058E-01  0.67454538308E-02 -0.28240107389E-01  0.35750994182E-01  0.10000000475E-02 0. -1.
</event>
<event>
 4   0  0.2441219E-02  0.9118800E+02  0.7818609E-02  0.1379984E+01
      -11   -1    0    0    0    0  0.00000000000E+00  0.00000000000E+00  0.35740347158E-01  0.35744000000E-01  0.51099999109E-03 0.  1.
       11   -1    0    0    0    0 -0.00000000000E+00 -0.00000000000E+00 -0.35740347158E-01  0.35744000000E-01  0.51099999109E-03 0. -1.
       22    1    1    2    0    0 -0.70741231090E-02 -0.36692173891E-02 -0.34837152738E-01  0.35737005818E-01  0.00000000000E+00 0. -1.
  9000001    1    1    2    0    0  0.70741231090E-02  0.36692173891E-02  0.34837152738E-01  0.35750994182E-01  0.10000000475E-02 0.  1.
</event>
<event>
 4   0  0.2441219E-02  0.9118800E+02  0.7818609E-02  0.1379984E+01
      -11   -1    0    0    0    0  0.00000000000E+00  0.00000000000E+00  0.35740347158E-01  0.35744000000E-01  0.51099999109E-03 0. -1.
       11   -1    0    0    0    0 -0.00000000000E+00 -0.00000000000E+00 -0.35740347158E-01  0.35744000000E-01  0.51099999109E-03 0.  1.
       22    1    1    2    0    0  0.16871407231E-03  0.35303994377E-02  0.35561796921E-01  0.35737005818E-01  0.00000000000E+00 0. -1.
  9000001    1    1    2    0    0 -0.16871407231E-03 -0.35303994377E-02 -0.35561796921E-01  0.35750994182E-01  0.10000000475E-02 0.  1.
</event>
<event>
 4   0  0.2441219E-02  0.9118800E+02  0.7818609E-02  0.1379984E+01
      -11   -1    0    0    0    0  0.00000000000E+00  0.00000000000E+00  0.35740347158E-01  0.35744000000E-01  0.51099999109E-03 0. -1.
       11   -1    0    0    0    0 -0.00000000000E+00 -0.00000000000E+00 -0.35740347158E-01  0.35744000000E-01  0.51099999109E-03 0.  1.
       22    1    1    2    0    0  0.34805493747E-02  0.26687983294E-02  0.35466841929E-01  0.35737005818E-01  0.00000000000E+00 0. -1.
  9000001    1    1    2    0    0 -0.34805493747E-02 -0.26687983294E-02 -0.35466841929E-01  0.35750994182E-01  0.10000000475E-02 0.  1.
</event>
<event>
 4   0  0.2441219E-02  0.9118800E+02  0.7818609E-02  0.1379984E+01
      -11   -1    0    0    0    0  0.00000000000E+00  0.00000000000E+00  0.35740347158E-01  0.35744000000E-01  0.51099999109E-03 0. -1.
       11   -1    0    0    0    0 -0.00000000000E+00 -0.00000000000E+00 -0.35740347158E-01  0.35744000000E-01  0.51099999109E-03 0.  1.
       22    1    1    2    0    0  0.29866034910E-02  0.26982869998E-02 -0.35509618862E-01  0.35737005818E-01  0.00000000000E+00 0.  1.
  9000001    1    1    2    0    0 -0.29866034910E-02 -0.26982869998E-02  0.35509618862E-01  0.35750994182E-01  0.10000000475E-02 0. -1.
</event>
<event>
 4   0  0.2441219E-02  0.9118800E+02  0.7818609E-02  0.1379984E+01
      -11   -1    0    0    0    0  0.00000000000E+00  0.00000000000E+00  0.35740347158E-01  0.35744000000E-01  0.51099999109E-03 0.  1.
       11   -1    0    0    0    0 -0.00000000000E+00 -0.00000000000E+00 -0.35740347158E-01  0.35744000000E-01  0.51099999109E-03 0. -1.
       22    1    1    2    0    0  0.91967927179E-02  0.30877169966E-02  0.34395037321E-01  0.35737005818E-01  0.00000000000E+00 0.  1.
  9000001    1    1    2    0    0 -0.91967927179E-02 -0.30877169966E-02 -0.34395037321E-01  0.35750994182E-01  0.10000000475E-02 0. -1.
</event>
<event>
 4   0  0.2441219E-02  0.9118800E+02  0.7818609E-02  0.1379984E+01
      -11   -1    0    0    0    0  0.00000000000E+00  0.00000000000E+00  0.35740347158E-01  0.35744000000E-01  0.51099999109E-03 0.  1.
       11   -1    0    0    0    0 -0.00000000000E+00 -0.00000000000E+00 -0.35740347158E-01  0.35744000000E-01  0.51099999109E-03 0. -1.
       22    1    1    2    0    0 -0.16805467954E-01  0.19064121264E-01  0.25125069395E-01  0.35737005818E-01  0.00000000000E+00 0.  1.
  9000001    1    1    2    0    0  0.16805467954E-01 -0.19064121264E-01 -0.25125069395E-01  0.35750994182E-01  0.10000000475E-02 0. -1.
</event>
<event>
 4   0  0.2441219E-02  0.9118800E+02  0.7818609E-02  0.1379984E+01
      -11   -1    0    0    0    0  0.00000000000E+00  0.00000000000E+00  0.35740347158E-01  0.35744000000E-01  0.51099999109E-03 0. -1.
       11   -1    0    0    0    0 -0.00000000000E+00 -0.00000000000E+00 -0.35740347158E-01  0.35744000000E-01  0.51099999109E-03 0.  1.
       22    1    1    2    0    0 -0.28197988047E-01  0.11624981163E-01  0.18624362215E-01  0.35737005818E-01  0.00000000000E+00 0. -1.
  9000001    1    1    2    0    0  0.28197988047E-01 -0.11624981163E-01 -0.18624362215E-01  0.35750994182E-01  0.10000000475E-02 0.  1.
</event>
<event>
 4   0  0.2441219E-02  0.9118800E+02  0.7818609E-02  0.1379984E+01
      -11   -1    0    0    0    0  0.00000000000E+00  0.00000000000E+00  0.35740347158E-01  0.35744000000E-01  0.51099999109E-03 0.  1.
       11   -1    0    0    0    0 -0.00000000000E+00 -0.00000000000E+00 -0.35740347158E-01  0.35744000000E-01  0.51099999109E-03 0. -1.
       22    1    1    2    0    0  0.26455904427E-01  0.10251840487E-01  0.21728287379E-01  0.35737005818E-01  0.00000000000E+00 0.  1.
  9000001    1    1    2    0    0 -0.26455904427E-01 -0.10251840487E-01 -0.21728287379E-01  0.35750994182E-01  0.10000000475E-02 0. -1.
</event>
<event>
 4   0  0.2441219E-02  0.9118800E+02  0.7818609E-02  0.1379984E+01
      -11   -1    0    0    0    0  0.00000000000E+00  0.00000000000E+00  0.35740347158E-01  0.35744000000E-01  0.51099999109E-03 0. -1.
       11   -1    0    0    0    0 -0.00000000000E+00 -0.00000000000E+00 -0.35740347158E-01  0.35744000000E-01  0.51099999109E-03 0.  1.
       22    1    1    2    0    0 -0.34755666254E-03 -0.40668070929E-02  0.35503152949E-01  0.35737005818E-01  0.00000000000E+00 0. -1.
  9000001    1    1    2    0    0  0.34755666254E-03  0.40668070929E-02 -0.35503152949E-01  0.35750994182E-01  0.10000000475E-02 0.  1.
</event>
<event>
 4   0  0.2441219E-02  0.9118800E+02  0.7818609E-02  0.1379984E+01
      -11   -1    0    0    0    0  0.00000000000E+00  0.00000000000E+00  0.35740347158E-01  0.35744000000E-01  0.51099999109E-03 0.  1.
       11   -1    0    0    0    0 -0.00000000000E+00 -0.00000000000E+00 -0.35740347158E-01  0.35744000000E-01  0.51099999109E-03 0. -1.
       22    1    1    2    0    0 -0.77959665622E-02 -0.23580751126E-02  0.34796493674E-01  0.35737005818E-01  0.00000000000E+00 0.  1.
  9000001    1    1    2    0    0  0.77959665622E-02  0.23580751126E-02 -0.34796493674E-01  0.35750994182E-01  0.10000000475E-02 0. -1.
</event>
<event>
 4   0  0.2441219E-02  0.9118800E+02  0.7818609E-02  0.1379984E+01
      -11   -1    0    0    0    0  0.00000000000E+00  0.00000000000E+00  0.35740347158E-01  0.35744000000E-01  0.51099999109E-03 0. -1.
       11   -1    0    0    0    0 -0.00000000000E+00 -0.00000000000E+00 -0.35740347158E-01  0.35744000000E-01  0.51099999109E-03 0.  1.
       22    1    1    2    0    0  0.20260823941E-02  0.52456597117E-02 -0.35291806828E-01  0.35737005818E-01  0.00000000000E+00 0.  1.
  9000001    1    1    2    0    0 -0.20260823941E-02 -0.52456597117E-02  0.35291806828E-01  0.35750994182E-01  0.10000000475E-02 0. -1.
</event>
<event>
 4   0  0.2441219E-02  0.9118800E+02  0.7818609E-02  0.1379984E+01
      -11   -1    0    0    0    0  0.00000000000E+00  0.00000000000E+00  0.35740347158E-01  0.35744000000E-01  0.51099999109E-03 0. -1.
       11   -1    0    0    0    0 -0.00000000000E+00 -0.00000000000E+00 -0.35740347158E-01  0.35744000000E-01  0.51099999109E-03 0.  1.
       22    1    1    2    0    0 -0.64484005654E-03  0.14920642288E-01 -0.32466786103E-01  0.35737005818E-01  0.00000000000E+00 0.  1.
  9000001    1    1    2    0    0  0.64484005654E-03 -0.14920642288E-01  0.32466786103E-01  0.35750994182E-01  0.10000000475E-02 0. -1.
</event>
<event>
 4   0  0.2441219E-02  0.9118800E+02  0.7818609E-02  0.1379984E+01
      -11   -1    0    0    0    0  0.00000000000E+00  0.00000000000E+00  0.35740347158E-01  0.35744000000E-01  0.51099999109E-03 0. -1.
       11   -1    0    0    0    0 -0.00000000000E+00 -0.00000000000E+00 -0.35740347158E-01  0.35744000000E-01  0.51099999109E-03 0.  1.
       22    1    1    2    0    0  0.10265951316E-01 -0.28455845982E-02 -0.34112262850E-01  0.35737005818E-01  0.00000000000E+00 0.  1.
  9000001    1    1    2    0    0 -0.10265951316E-01  0.28455845982E-02  0.34112262850E-01  0.35750994182E-01  0.10000000475E-02 0. -1.
</event>
<event>
 4   0  0.2441219E-02  0.9118800E+02  0.7818609E-02  0.1379984E+01
      -11   -1    0    0    0    0  0.00000000000E+00  0.00000000000E+00  0.35740347158E-01  0.35744000000E-01  0.51099999109E-03 0.  1.
       11   -1    0    0    0    0 -0.00000000000E+00 -0.00000000000E+00 -0.35740347158E-01  0.35744000000E-01  0.51099999109E-03 0. -1.
       22    1    1    2    0    0  0.10625677411E-01 -0.15352229912E-01  0.30471914957E-01  0.35737005818E-01  0.00000000000E+00 0.  1.
  9000001    1    1    2    0    0 -0.10625677411E-01  0.15352229912E-01 -0.30471914957E-01  0.35750994182E-01  0.10000000475E-02 0. -1.
</event>
<event>
 4   0  0.2441219E-02  0.9118800E+02  0.7818609E-02  0.1379984E+01
      -11   -1    0    0    0    0  0.00000000000E+00  0.00000000000E+00  0.35740347158E-01  0.35744000000E-01  0.51099999109E-03 0. -1.
       11   -1    0    0    0    0 -0.00000000000E+00 -0.00000000000E+00 -0.35740347158E-01  0.35744000000E-01  0.51099999109E-03 0.  1.
       22    1    1    2    0    0  0.13542609321E-01 -0.18781900814E-01  0.27220792043E-01  0.35737005818E-01  0.00000000000E+00 0. -1.
  9000001    1    1    2    0    0 -0.13542609321E-01  0.18781900814E-01 -0.27220792043E-01  0.35750994182E-01  0.10000000475E-02 0.  1.
</event>
<event>
 4   0  0.2441219E-02  0.9118800E+02  0.7818609E-02  0.1379984E+01
      -11   -1    0    0    0    0  0.00000000000E+00  0.00000000000E+00  0.35740347158E-01  0.35744000000E-01  0.51099999109E-03 0.  1.
       11   -1    0    0    0    0 -0.00000000000E+00 -0.00000000000E+00 -0.35740347158E-01  0.35744000000E-01  0.51099999109E-03 0. -1.
       22    1    1    2    0    0 -0.10116125630E-02  0.75884641418E-02 -0.34907383701E-01  0.35737005818E-01  0.00000000000E+00 0. -1.
  9000001    1    1    2    0    0  0.10116125630E-02 -0.75884641418E-02  0.34907383701E-01  0.35750994182E-01  0.10000000475E-02 0.  1.
</event>
<event>
 4   0  0.2441219E-02  0.9118800E+02  0.7818609E-02  0.1379984E+01
      -11   -1    0    0    0    0  0.00000000000E+00  0.00000000000E+00  0.35740347158E-01  0.35744000000E-01  0.51099999109E-03 0.  1.
       11   -1    0    0    0    0 -0.00000000000E+00 -0.00000000000E+00 -0.35740347158E-01  0.35744000000E-01  0.51099999109E-03 0. -1.
       22    1    1    2    0    0  0.53779622895E-02  0.65666275788E-02 -0.34714413559E-01  0.35737005818E-01  0.00000000000E+00 0. -1.
  9000001    1    1    2    0    0 -0.53779622895E-02 -0.65666275788E-02  0.34714413559E-01  0.35750994182E-01  0.10000000475E-02 0.  1.
</event>
<event>
 4   0  0.2441219E-02  0.9118800E+02  0.7818609E-02  0.1379984E+01
      -11   -1    0    0    0    0  0.00000000000E+00  0.00000000000E+00  0.35740347158E-01  0.35744000000E-01  0.51099999109E-03 0.  1.
       11   -1    0    0    0    0 -0.00000000000E+00 -0.00000000000E+00 -0.35740347158E-01  0.35744000000E-01  0.51099999109E-03 0. -1.
       22    1    1    2    0    0 -0.26449750927E-01  0.44994010403E-02  0.23607194901E-01  0.35737005818E-01  0.00000000000E+00 0.  1.
  9000001    1    1    2    0    0  0.26449750927E-01 -0.44994010403E-02 -0.23607194901E-01  0.35750994182E-01  0.10000000475E-02 0. -1.
</event>
<event>
 4   0  0.2441219E-02  0.9118800E+02  0.7818609E-02  0.1379984E+01
      -11   -1    0    0    0    0  0.00000000000E+00  0.00000000000E+00  0.35740347158E-01  0.35744000000E-01  0.51099999109E-03 0. -1.
       11   -1    0    0    0    0 -0.00000000000E+00 -0.00000000000E+00 -0.35740347158E-01  0.35744000000E-01  0.51099999109E-03 0.  1.
       22    1    1    2    0    0  0.41901789180E-02  0.11081289884E-02 -0.35473201655E-01  0.35737005818E-01  0.00000000000E+00 0.  1.
  9000001    1    1    2    0    0 -0.41901789180E-02 -0.11081289884E-02  0.35473201655E-01  0.35750994182E-01  0.10000000475E-02 0. -1.
</event>
<event>
 4   0  0.2441219E-02  0.9118800E+02  0.7818609E-02  0.1379984E+01
      -11   -1    0    0    0    0  0.00000000000E+00  0.00000000000E+00  0.35740347158E-01  0.35744000000E-01  0.51099999109E-03 0. -1.
       11   -1    0    0    0    0 -0.00000000000E+00 -0.00000000000E+00 -0.35740347158E-01  0.35744000000E-01  0.51099999109E-03 0.  1.
       22    1    1    2    0    0  0.17740597474E-02 -0.59352425207E-02 -0.35196011040E-01  0.35737005818E-01  0.00000000000E+00 0.  1.
  9000001    1    1    2    0    0 -0.17740597474E-02  0.59352425207E-02  0.35196011040E-01  0.35750994182E-01  0.10000000475E-02 0. -1.
</event>
<event>
 4   0  0.2441219E-02  0.9118800E+02  0.7818609E-02  0.1379984E+01
      -11   -1    0    0    0    0  0.00000000000E+00  0.00000000000E+00  0.35740347158E-01  0.35744000000E-01  0.51099999109E-03 0.  1.
       11   -1    0    0    0    0 -0.00000000000E+00 -0.00000000000E+00 -0.35740347158E-01  0.35744000000E-01  0.51099999109E-03 0. -1.
       22    1    1    2    0    0  0.11838803986E-01  0.86853187423E-04 -0.33718967386E-01  0.35737005818E-01  0.00000000000E+00 0. -1.
  9000001    1    1    2    0    0 -0.11838803986E-01 -0.86853187423E-04  0.33718967386E-01  0.35750994182E-01  0.10000000475E-02 0.  1.
</event>
<event>
 4   0  0.2441219E-02  0.9118800E+02  0.7818609E-02  0.1379984E+01
      -11   -1    0    0    0    0  0.00000000000E+00  0.00000000000E+00  0.35740347158E-01  0.35744000000E-01  0.51099999109E-03 0. -1.
       11   -1    0    0    0    0 -0.00000000000E+00 -0.00000000000E+00 -0.35740347158E-01  0.35744000000E-01  0.51099999109E-03 0.  1.
       22    1    1    2    0    0 -0.42161743973E-02 -0.50806827523E-02  0.35121846778E-01  0.35737005818E-01  0.00000000000E+00 0. -1.
  9000001    1    1    2    0    0  0.42161743973E-02  0.50806827523E-02 -0.35121846778E-01  0.35750994182E-01  0.10000000475E-02 0.  1.
</event>
<event>
 4   0  0.2441219E-02  0.9118800E+02  0.7818609E-02  0.1379984E+01
      -11   -1    0    0    0    0  0.00000000000E+00  0.00000000000E+00  0.35740347158E-01  0.35744000000E-01  0.51099999109E-03 0.  1.
       11   -1    0    0    0    0 -0.00000000000E+00 -0.00000000000E+00 -0.35740347158E-01  0.35744000000E-01  0.51099999109E-03 0. -1.
       22    1    1    2    0    0 -0.21431186532E-02 -0.22062023583E-02 -0.35604399987E-01  0.35737005818E-01  0.00000000000E+00 0. -1.
  9000001    1    1    2    0    0  0.21431186532E-02  0.22062023583E-02  0.35604399987E-01  0.35750994182E-01  0.10000000475E-02 0.  1.
</event>
<event>
 4   0  0.2441219E-02  0.9118800E+02  0.7818609E-02  0.1379984E+01
      -11   -1    0    0    0    0  0.00000000000E+00  0.00000000000E+00  0.35740347158E-01  0.35744000000E-01  0.51099999109E-03 0.  1.
       11   -1    0    0    0    0 -0.00000000000E+00 -0.00000000000E+00 -0.35740347158E-01  0.35744000000E-01  0.51099999109E-03 0. -1.
       22    1    1    2    0    0  0.63607706442E-02  0.91483837463E-02  0.33955577694E-01  0.35737005818E-01  0.00000000000E+00 0.  1.
  9000001    1    1    2    0    0 -0.63607706442E-02 -0.91483837463E-02 -0.33955577694E-01  0.35750994182E-01  0.10000000475E-02 0. -1.
</event>
<event>
 4   0  0.2441219E-02  0.9118800E+02  0.7818609E-02  0.1379984E+01
      -11   -1    0    0    0    0  0.00000000000E+00  0.00000000000E+00  0.35740347158E-01  0.35744000000E-01  0.51099999109E-03 0.  1.
       11   -1    0    0    0    0 -0.00000000000E+00 -0.00000000000E+00 -0.35740347158E-01  0.35744000000E-01  0.51099999109E-03 0. -1.
       22    1    1    2    0    0 -0.19320403546E-02 -0.23987055941E-02  0.35604030901E-01  0.35737005818E-01  0.00000000000E+00 0.  1.
  9000001    1    1    2    0    0  0.19320403546E-02  0.23987055941E-02 -0.35604030901E-01  0.35750994182E-01  0.10000000475E-02 0. -1.
</event>
<event>
 4   0  0.2441219E-02  0.9118800E+02  0.7818609E-02  0.1379984E+01
      -11   -1    0    0    0    0  0.00000000000E+00  0.00000000000E+00  0.35740347158E-01  0.35744000000E-01  0.51099999109E-03 0.  1.
       11   -1    0    0    0    0 -0.00000000000E+00 -0.00000000000E+00 -0.35740347158E-01  0.35744000000E-01  0.51099999109E-03 0. -1.
       22    1    1    2    0    0 -0.20523266057E-01  0.11033296652E-01 -0.27096042150E-01  0.35737005818E-01  0.00000000000E+00 0. -1.
  9000001    1    1    2    0    0  0.20523266057E-01 -0.11033296652E-01  0.27096042150E-01  0.35750994182E-01  0.10000000475E-02 0.  1.
</event>
<event>
 4   0  0.2441219E-02  0.9118800E+02  0.7818609E-02  0.1379984E+01
      -11   -1    0    0    0    0  0.00000000000E+00  0.00000000000E+00  0.35740347158E-01  0.35744000000E-01  0.51099999109E-03 0. -1.
       11   -1    0    0    0    0 -0.00000000000E+00 -0.00000000000E+00 -0.35740347158E-01  0.35744000000E-01  0.51099999109E-03 0.  1.
       22    1    1    2    0    0 -0.56833959757E-02 -0.75998899159E-02  0.34453944162E-01  0.35737005818E-01  0.00000000000E+00 0. -1.
  9000001    1    1    2    0    0  0.56833959757E-02  0.75998899159E-02 -0.34453944162E-01  0.35750994182E-01  0.10000000475E-02 0.  1.
</event>
<event>
 4   0  0.2441219E-02  0.9118800E+02  0.7818609E-02  0.1379984E+01
      -11   -1    0    0    0    0  0.00000000000E+00  0.00000000000E+00  0.35740347158E-01  0.35744000000E-01  0.51099999109E-03 0. -1.
       11   -1    0    0    0    0 -0.00000000000E+00 -0.00000000000E+00 -0.35740347158E-01  0.35744000000E-01  0.51099999109E-03 0.  1.
       22    1    1    2    0    0  0.12876205862E-01 -0.18815547058E-01 -0.27519304068E-01  0.35737005818E-01  0.00000000000E+00 0.  1.
  9000001    1    1    2    0    0 -0.12876205862E-01  0.18815547058E-01  0.27519304068E-01  0.35750994182E-01  0.10000000475E-02 0. -1.
</event>
<event>
 4   0  0.2441219E-02  0.9118800E+02  0.7818609E-02  0.1379984E+01
      -11   -1    0    0    0    0  0.00000000000E+00  0.00000000000E+00  0.35740347158E-01  0.35744000000E-01  0.51099999109E-03 0. -1.
       11   -1    0    0    0    0 -0.00000000000E+00 -0.00000000000E+00 -0.35740347158E-01  0.35744000000E-01  0.51099999109E-03 0.  1.
       22    1    1    2    0    0 -0.71954327032E-03 -0.33749393725E-02 -0.35570010213E-01  0.35737005818E-01  0.00000000000E+00 0.  1.
  9000001    1    1    2    0    0  0.71954327032E-03  0.33749393725E-02  0.35570010213E-01  0.35750994182E-01  0.10000000475E-02 0. -1.
</event>
<event>
 4   0  0.2441219E-02  0.9118800E+02  0.7818609E-02  0.1379984E+01
      -11   -1    0    0    0    0  0.00000000000E+00  0.00000000000E+00  0.35740347158E-01  0.35744000000E-01  0.51099999109E-03 0. -1.
       11   -1    0    0    0    0 -0.00000000000E+00 -0.00000000000E+00 -0.35740347158E-01  0.35744000000E-01  0.51099999109E-03 0.  1.
       22    1    1    2    0    0  0.37242422330E-02  0.27292730660E-01  0.22767750389E-01  0.35737005818E-01  0.00000000000E+00 0. -1.
  9000001    1    1    2    0    0 -0.37242422330E-02 -0.27292730660E-01 -0.22767750389E-01  0.35750994182E-01  0.10000000475E-02 0.  1.
</event>
<event>
 4   0  0.2441219E-02  0.9118800E+02  0.7818609E-02  0.1379984E+01
      -11   -1    0    0    0    0  0.00000000000E+00  0.00000000000E+00  0.35740347158E-01  0.35744000000E-01  0.51099999109E-03 0. -1.
       11   -1    0    0    0    0 -0.00000000000E+00 -0.00000000000E+00 -0.35740347158E-01  0.35744000000E-01  0.51099999109E-03 0.  1.
       22    1    1    2    0    0  0.10533144471E-01 -0.36639672910E-02 -0.33952345959E-01  0.35737005818E-01  0.00000000000E+00 0.  1.
  9000001    1    1    2    0    0 -0.10533144471E-01  0.36639672910E-02  0.33952345959E-01  0.35750994182E-01  0.10000000475E-02 0. -1.
</event>
<event>
 4   0  0.2441219E-02  0.9118800E+02  0.7818609E-02  0.1379984E+01
      -11   -1    0    0    0    0  0.00000000000E+00  0.00000000000E+00  0.35740347158E-01  0.35744000000E-01  0.51099999109E-03 0. -1.
       11   -1    0    0    0    0 -0.00000000000E+00 -0.00000000000E+00 -0.35740347158E-01  0.35744000000E-01  0.51099999109E-03 0.  1.
       22    1    1    2    0    0  0.13868653222E-01  0.25934536565E-02  0.32833946470E-01  0.35737005818E-01  0.00000000000E+00 0. -1.
  9000001    1    1    2    0    0 -0.13868653222E-01 -0.25934536565E-02 -0.32833946470E-01  0.35750994182E-01  0.10000000475E-02 0.  1.
</event>
<event>
 4   0  0.2441219E-02  0.9118800E+02  0.7818609E-02  0.1379984E+01
      -11   -1    0    0    0    0  0.00000000000E+00  0.00000000000E+00  0.35740347158E-01  0.35744000000E-01  0.51099999109E-03 0.  1.
       11   -1    0    0    0    0 -0.00000000000E+00 -0.00000000000E+00 -0.35740347158E-01  0.35744000000E-01  0.51099999109E-03 0. -1.
       22    1    1    2    0    0 -0.23293172286E-01  0.24278828630E-02  0.26993834380E-01  0.35737005818E-01  0.00000000000E+00 0.  1.
  9000001    1    1    2    0    0  0.23293172286E-01 -0.24278828630E-02 -0.26993834380E-01  0.35750994182E-01  0.10000000475E-02 0. -1.
</event>
<event>
 4   0  0.2441219E-02  0.9118800E+02  0.7818609E-02  0.1379984E+01
      -11   -1    0    0    0    0  0.00000000000E+00  0.00000000000E+00  0.35740347158E-01  0.35744000000E-01  0.51099999109E-03 0. -1.
       11   -1    0    0    0    0 -0.00000000000E+00 -0.00000000000E+00 -0.35740347158E-01  0.35744000000E-01  0.51099999109E-03 0.  1.
       22    1    1    2    0    0  0.32872671146E-01 -0.51944568912E-02 -0.13020702524E-01  0.35737005818E-01  0.00000000000E+00 0.  1.
  9000001    1    1    2    0    0 -0.32872671146E-01  0.51944568912E-02  0.13020702524E-01  0.35750994182E-01  0.10000000475E-02 0. -1.
</event>
<event>
 4   0  0.2441219E-02  0.9118800E+02  0.7818609E-02  0.1379984E+01
      -11   -1    0    0    0    0  0.00000000000E+00  0.00000000000E+00  0.35740347158E-01  0.35744000000E-01  0.51099999109E-03 0. -1.
       11   -1    0    0    0    0 -0.00000000000E+00 -0.00000000000E+00 -0.35740347158E-01  0.35744000000E-01  0.51099999109E-03 0.  1.
       22    1    1    2    0    0 -0.99829858542E-02  0.30484458606E-01 -0.15753455552E-01  0.35737005818E-01  0.00000000000E+00 0.  1.
  9000001    1    1    2    0    0  0.99829858542E-02 -0.30484458606E-01  0.15753455552E-01  0.35750994182E-01  0.10000000475E-02 0. -1.
</event>
<event>
 4   0  0.2441219E-02  0.9118800E+02  0.7818609E-02  0.1379984E+01
      -11   -1    0    0    0    0  0.00000000000E+00  0.00000000000E+00  0.35740347158E-01  0.35744000000E-01  0.51099999109E-03 0. -1.
       11   -1    0    0    0    0 -0.00000000000E+00 -0.00000000000E+00 -0.35740347158E-01  0.35744000000E-01  0.51099999109E-03 0.  1.
       22    1    1    2    0    0  0.49515853899E-02 -0.20817790947E-02  0.35331028612E-01  0.35737005818E-01  0.00000000000E+00 0. -1.
  9000001    1    1    2    0    0 -0.49515853899E-02  0.20817790947E-02 -0.35331028612E-01  0.35750994182E-01  0.10000000475E-02 0.  1.
</event>
<event>
 4   0  0.2441219E-02  0.9118800E+02  0.7818609E-02  0.1379984E+01
      -11   -1    0    0    0    0  0.00000000000E+00  0.00000000000E+00  0.35740347158E-01  0.35744000000E-01  0.51099999109E-03 0.  1.
       11   -1    0    0    0    0 -0.00000000000E+00 -0.00000000000E+00 -0.35740347158E-01  0.35744000000E-01  0.51099999109E-03 0. -1.
       22    1    1    2    0    0  0.15111626733E-01  0.14934576143E-01  0.28735531277E-01  0.35737005818E-01  0.00000000000E+00 0.  1.
  9000001    1    1    2    0    0 -0.15111626733E-01 -0.14934576143E-01 -0.28735531277E-01  0.35750994182E-01  0.10000000475E-02 0. -1.
</event>
<event>
 4   0  0.2441219E-02  0.9118800E+02  0.7818609E-02  0.1379984E+01
      -11   -1    0    0    0    0  0.00000000000E+00  0.00000000000E+00  0.35740347158E-01  0.35744000000E-01  0.51099999109E-03 0.  1.
       11   -1    0    0    0    0 -0.00000000000E+00 -0.00000000000E+00 -0.35740347158E-01  0.35744000000E-01  0.51099999109E-03 0. -1.
       22    1    1    2    0    0 -0.15501053194E-01 -0.49467858066E-02 -0.31817923328E-01  0.35737005818E-01  0.00000000000E+00 0. -1.
  9000001    1    1    2    0    0  0.15501053194E-01  0.49467858066E-02  0.31817923328E-01  0.35750994182E-01  0.10000000475E-02 0.  1.
</event>
<event>
 4   0  0.2441219E-02  0.9118800E+02  0.7818609E-02  0.1379984E+01
      -11   -1    0    0    0    0  0.00000000000E+00  0.00000000000E+00  0.35740347158E-01  0.35744000000E-01  0.51099999109E-03 0. -1.
       11   -1    0    0    0    0 -0.00000000000E+00 -0.00000000000E+00 -0.35740347158E-01  0.35744000000E-01  0.51099999109E-03 0.  1.
       22    1    1    2    0    0 -0.61179491416E-02 -0.34861173427E-01 -0.49399261602E-02  0.35737005818E-01  0.00000000000E+00 0. -1.
  9000001    1    1    2    0    0  0.61179491416E-02  0.34861173427E-01  0.49399261602E-02  0.35750994182E-01  0.10000000475E-02 0.  1.
</event>
<event>
 4   0  0.2441219E-02  0.9118800E+02  0.7818609E-02  0.1379984E+01
      -11   -1    0    0    0    0  0.00000000000E+00  0.00000000000E+00  0.35740347158E-01  0.35744000000E-01  0.51099999109E-03 0.  1.
       11   -1    0    0    0    0 -0.00000000000E+00 -0.00000000000E+00 -0.35740347158E-01  0.35744000000E-01  0.51099999109E-03 0. -1.
       22    1    1    2    0    0  0.70629671337E-02  0.93360453891E-03 -0.35019658232E-01  0.35737005818E-01  0.00000000000E+00 0. -1.
  9000001    1    1    2    0    0 -0.70629671337E-02 -0.93360453891E-03  0.35019658232E-01  0.35750994182E-01  0.10000000475E-02 0.  1.
</event>
<event>
 4   0  0.2441219E-02  0.9118800E+02  0.7818609E-02  0.1379984E+01
      -11   -1    0    0    0    0  0.00000000000E+00  0.00000000000E+00  0.35740347158E-01  0.35744000000E-01  0.51099999109E-03 0. -1.
       11   -1    0    0    0    0 -0.00000000000E+00 -0.00000000000E+00 -0.35740347158E-01  0.35744000000E-01  0.51099999109E-03 0.  1.
       22    1    1    2    0    0  0.88768590316E-02 -0.12005680025E-01  0.32468424750E-01  0.35737005818E-01  0.00000000000E+00 0. -1.
  9000001    1    1    2    0    0 -0.88768590316E-02  0.12005680025E-01 -0.32468424750E-01  0.35750994182E-01  0.10000000475E-02 0.  1.
</event>
<event>
 4   0  0.2441219E-02  0.9118800E+02  0.7818609E-02  0.1379984E+01
      -11   -1    0    0    0    0  0.00000000000E+00  0.00000000000E+00  0.35740347158E-01  0.35744000000E-01  0.51099999109E-03 0.  1.
       11   -1    0    0    0    0 -0.00000000000E+00 -0.00000000000E+00 -0.35740347158E-01  0.35744000000E-01  0.51099999109E-03 0. -1.
       22    1    1    2    0    0  0.52966795579E-02  0.18660672055E-02 -0.35293010125E-01  0.35737005818E-01  0.00000000000E+00 0. -1.
  9000001    1    1    2    0    0 -0.52966795579E-02 -0.18660672055E-02  0.35293010125E-01  0.35750994182E-01  0.10000000475E-02 0.  1.
</event>
<event>
 4   0  0.2441219E-02  0.9118800E+02  0.7818609E-02  0.1379984E+01
      -11   -1    0    0    0    0  0.00000000000E+00  0.00000000000E+00  0.35740347158E-01  0.35744000000E-01  0.51099999109E-03 0.  1.
       11   -1    0    0    0    0 -0.00000000000E+00 -0.00000000000E+00 -0.35740347158E-01  0.35744000000E-01  0.51099999109E-03 0. -1.
       22    1    1    2    0    0 -0.74563612841E-02 -0.38005211772E-02 -0.34743233874E-01  0.35737005818E-01  0.00000000000E+00 0. -1.
  9000001    1    1    2    0    0  0.74563612841E-02  0.38005211772E-02  0.34743233874E-01  0.35750994182E-01  0.10000000475E-02 0.  1.
</event>
<event>
 4   0  0.2441219E-02  0.9118800E+02  0.7818609E-02  0.1379984E+01
      -11   -1    0    0    0    0  0.00000000000E+00  0.00000000000E+00  0.35740347158E-01  0.35744000000E-01  0.51099999109E-03 0.  1.
       11   -1    0    0    0    0 -0.00000000000E+00 -0.00000000000E+00 -0.35740347158E-01  0.35744000000E-01  0.51099999109E-03 0. -1.
       22    1    1    2    0    0  0.15346894434E-01 -0.53026952504E-02  0.31835323764E-01  0.35737005818E-01  0.00000000000E+00 0.  1.
  9000001    1    1    2    0    0 -0.15346894434E-01  0.53026952504E-02 -0.31835323764E-01  0.35750994182E-01  0.10000000475E-02 0. -1.
</event>
<event>
 4   0  0.2441219E-02  0.9118800E+02  0.7818609E-02  0.1379984E+01
      -11   -1    0    0    0    0  0.00000000000E+00  0.00000000000E+00  0.35740347158E-01  0.35744000000E-01  0.51099999109E-03 0. -1.
       11   -1    0    0    0    0 -0.00000000000E+00 -0.00000000000E+00 -0.35740347158E-01  0.35744000000E-01  0.51099999109E-03 0.  1.
       22    1    1    2    0    0  0.47038665006E-02 -0.36996539299E-02 -0.35232368436E-01  0.35737005818E-01  0.00000000000E+00 0.  1.
  9000001    1    1    2    0    0 -0.47038665006E-02  0.36996539299E-02  0.35232368436E-01  0.35750994182E-01  0.10000000475E-02 0. -1.
</event>
<event>
 4   0  0.2441219E-02  0.9118800E+02  0.7818609E-02  0.1379984E+01
      -11   -1    0    0    0    0  0.00000000000E+00  0.00000000000E+00  0.35740347158E-01  0.35744000000E-01  0.51099999109E-03 0.  1.
       11   -1    0    0    0    0 -0.00000000000E+00 -0.00000000000E+00 -0.35740347158E-01  0.35744000000E-01  0.51099999109E-03 0. -1.
       22    1    1    2    0    0 -0.12368218105E-01  0.81083076258E-02  0.32533307751E-01  0.35737005818E-01  0.00000000000E+00 0.  1.
  9000001    1    1    2    0    0  0.12368218105E-01 -0.81083076258E-02 -0.32533307751E-01  0.35750994182E-01  0.10000000475E-02 0. -1.
</event>
<event>
 4   0  0.2441219E-02  0.9118800E+02  0.7818609E-02  0.1379984E+01
      -11   -1    0    0    0    0  0.00000000000E+00  0.00000000000E+00  0.35740347158E-01  0.35744000000E-01  0.51099999109E-03 0.  1.
       11   -1    0    0    0    0 -0.00000000000E+00 -0.00000000000E+00 -0.35740347158E-01  0.35744000000E-01  0.51099999109E-03 0. -1.
       22    1    1    2    0    0 -0.64003311548E-03 -0.49111238373E-02 -0.35392157396E-01  0.35737005818E-01  0.00000000000E+00 0. -1.
  9000001    1    1    2    0    0  0.64003311548E-03  0.49111238373E-02  0.35392157396E-01  0.35750994182E-01  0.10000000475E-02 0.  1.
</event>
<event>
 4   0  0.2441219E-02  0.9118800E+02  0.7818609E-02  0.1379984E+01
      -11   -1    0    0    0    0  0.00000000000E+00  0.00000000000E+00  0.35740347158E-01  0.35744000000E-01  0.51099999109E-03 0. -1.
       11   -1    0    0    0    0 -0.00000000000E+00 -0.00000000000E+00 -0.35740347158E-01  0.35744000000E-01  0.51099999109E-03 0.  1.
       22    1    1    2    0    0 -0.16645935684E-01 -0.76990639218E-02 -0.30671987624E-01  0.35737005818E-01  0.00000000000E+00 0.  1.
  9000001    1    1    2    0    0  0.16645935684E-01  0.76990639218E-02  0.30671987624E-01  0.35750994182E-01  0.10000000475E-02 0. -1.
</event>
<event>
 4   0  0.2441219E-02  0.9118800E+02  0.7818609E-02  0.1379984E+01
      -11   -1    0    0    0    0  0.00000000000E+00  0.00000000000E+00  0.35740347158E-01  0.35744000000E-01  0.51099999109E-03 0. -1.
       11   -1    0    0    0    0 -0.00000000000E+00 -0.00000000000E+00 -0.35740347158E-01  0.35744000000E-01  0.51099999109E-03 0.  1.
       22    1    1    2    0    0  0.45084878847E-02 -0.79974467998E-03  0.35442453785E-01  0.35737005818E-01  0.00000000000E+00 0. -1.
  9000001    1    1    2    0    0 -0.45084878847E-02  0.79974467998E-03 -0.35442453785E-01  0.35750994182E-01  0.10000000475E-02 0.  1.
</event>
<event>
 4   0  0.2441219E-02  0.9118800E+02  0.7818609E-02  0.1379984E+01
      -11   -1    0    0    0    0  0.00000000000E+00  0.00000000000E+00  0.35740347158E-01  0.35744000000E-01  0.51099999109E-03 0.  1.
       11   -1    0    0    0    0 -0.00000000000E+00 -0.00000000000E+00 -0.35740347158E-01  0.35744000000E-01  0.51099999109E-03 0. -1.
       22    1    1    2    0    0 -0.75568480051E-02 -0.17182400405E-01 -0.30410405282E-01  0.35737005818E-01  0.00000000000E+00 0. -1.
  9000001    1    1    2    0    0  0.75568480051E-02  0.17182400405E-01  0.30410405282E-01  0.35750994182E-01  0.10000000475E-02 0.  1.
</event>
<event>
 4   0  0.2441219E-02  0.9118800E+02  0.7818609E-02  0.1379984E+01
      -11   -1    0    0    0    0  0.00000000000E+00  0.00000000000E+00  0.35740347158E-01  0.35744000000E-01  0.51099999109E-03 0. -1.
       11   -1    0    0    0    0 -0.00000000000E+00 -0.00000000000E+00 -0.35740347158E-01  0.35744000000E-01  0.51099999109E-03 0.  1.
       22    1    1    2    0    0  0.40809365734E-02  0.31404121332E-02  0.35364068674E-01  0.35737005818E-01  0.00000000000E+00 0. -1.
  9000001    1    1    2    0    0 -0.40809365734E-02 -0.31404121332E-02 -0.35364068674E-01  0.35750994182E-01  0.10000000475E-02 0.  1.
</event>
<event>
 4   0  0.2441219E-02  0.9118800E+02  0.7818609E-02  0.1379984E+01
      -11   -1    0    0    0    0  0.00000000000E+00  0.00000000000E+00  0.35740347158E-01  0.35744000000E-01  0.51099999109E-03 0.  1.
       11   -1    0    0    0    0 -0.00000000000E+00 -0.00000000000E+00 -0.35740347158E-01  0.35744000000E-01  0.51099999109E-03 0. -1.
       22    1    1    2    0    0  0.14820767210E-01 -0.74313382447E-03 -0.32510401356E-01  0.35737005818E-01  0.00000000000E+00 0. -1.
  9000001    1    1    2    0    0 -0.14820767210E-01  0.74313382447E-03  0.32510401356E-01  0.35750994182E-01  0.10000000475E-02 0.  1.
</event>
<event>
 4   0  0.2441219E-02  0.9118800E+02  0.7818609E-02  0.1379984E+01
      -11   -1    0    0    0    0  0.00000000000E+00  0.00000000000E+00  0.35740347158E-01  0.35744000000E-01  0.51099999109E-03 0. -1.
       11   -1    0    0    0    0 -0.00000000000E+00 -0.00000000000E+00 -0.35740347158E-01  0.35744000000E-01  0.51099999109E-03 0.  1.
       22    1    1    2    0    0  0.77089688276E-02 -0.27000764749E-02  0.34791018547E-01  0.35737005818E-01  0.00000000000E+00 0. -1.
  9000001    1    1    2    0    0 -0.77089688276E-02  0.27000764749E-02 -0.34791018547E-01  0.35750994182E-01  0.10000000475E-02 0.  1.
</event>
<event>
 4   0  0.2441219E-02  0.9118800E+02  0.7818609E-02  0.1379984E+01
      -11   -1    0    0    0    0  0.00000000000E+00  0.00000000000E+00  0.35740347158E-01  0.35744000000E-01  0.51099999109E-03 0. -1.
       11   -1    0    0    0    0 -0.00000000000E+00 -0.00000000000E+00 -0.35740347158E-01  0.35744000000E-01  0.51099999109E-03 0.  1.
       22    1    1    2    0    0 -0.32885823722E-01 -0.24137154058E-02  0.13777886664E-01  0.35737005818E-01  0.00000000000E+00 0. -1.
  9000001    1    1    2    0    0  0.32885823722E-01  0.24137154058E-02 -0.13777886664E-01  0.35750994182E-01  0.10000000475E-02 0.  1.
</event>
<event>
 4   0  0.2441219E-02  0.9118800E+02  0.7818609E-02  0.1379984E+01
      -11   -1    0    0    0    0  0.00000000000E+00  0.00000000000E+00  0.35740347158E-01  0.35744000000E-01  0.51099999109E-03 0. -1.
       11   -1    0    0    0    0 -0.00000000000E+00 -0.00000000000E+00 -0.35740347158E-01  0.35744000000E-01  0.51099999109E-03 0.  1.
       22    1    1    2    0    0 -0.15135709439E-02  0.51114809187E-02 -0.35337168119E-01  0.35737005818E-01  0.00000000000E+00 0.  1.
  9000001    1    1    2    0    0  0.15135709439E-02 -0.51114809187E-02  0.35337168119E-01  0.35750994182E-01  0.10000000475E-02 0. -1.
</event>
<event>
 4   0  0.2441219E-02  0.9118800E+02  0.7818609E-02  0.1379984E+01
      -11   -1    0    0    0    0  0.00000000000E+00  0.00000000000E+00  0.35740347158E-01  0.35744000000E-01  0.51099999109E-03 0.  1.
       11   -1    0    0    0    0 -0.00000000000E+00 -0.00000000000E+00 -0.35740347158E-01  0.35744000000E-01  0.51099999109E-03 0. -1.
       22    1    1    2    0    0  0.50647011501E-02 -0.16334992261E-01  0.31379139806E-01  0.35737005818E-01  0.00000000000E+00 0.  1.
  9000001    1    1    2    0    0 -0.50647011501E-02  0.16334992261E-01 -0.31379139806E-01  0.35750994182E-01  0.10000000475E-02 0. -1.
</event>
<event>
 4   0  0.2441219E-02  0.9118800E+02  0.7818609E-02  0.1379984E+01
      -11   -1    0    0    0    0  0.00000000000E+00  0.00000000000E+00  0.35740347158E-01  0.35744000000E-01  0.51099999109E-03 0.  1.
       11   -1    0    0    0    0 -0.00000000000E+00 -0.00000000000E+00 -0.35740347158E-01  0.35744000000E-01  0.51099999109E-03 0. -1.
       22    1    1    2    0    0 -0.13636528506E-01  0.52151422623E-02  0.32618721102E-01  0.35737005818E-01  0.00000000000E+00 0.  1.
  9000001    1    1    2    0    0  0.13636528506E-01 -0.52151422623E-02 -0.32618721102E-01  0.35750994182E-01  0.10000000475E-02 0. -1.
</event>
<event>
 4   0  0.2441219E-02  0.9118800E+02  0.7818609E-02  0.1379984E+01
      -11   -1    0    0    0    0  0.00000000000E+00  0.00000000000E+00  0.35740347158E-01  0.35744000000E-01  0.51099999109E-03 0.  1.
       11   -1    0    0    0    0 -0.00000000000E+00 -0.00000000000E+00 -0.35740347158E-01  0.35744000000E-01  0.51099999109E-03 0. -1.
       22    1    1    2    0    0 -0.13037696126E-01  0.10341627894E-01  0.31625982943E-01  0.35737005818E-01  0.00000000000E+00 0. -1.
  9000001    1    1    2    0    0  0.13037696126E-01 -0.10341627894E-01 -0.31625982943E-01  0.35750994182E-01  0.10000000475E-02 0.  1.
</event>
<event>
 4   0  0.2441219E-02  0.9118800E+02  0.7818609E-02  0.1379984E+01
      -11   -1    0    0    0    0  0.00000000000E+00  0.00000000000E+00  0.35740347158E-01  0.35744000000E-01  0.51099999109E-03 0. -1.
       11   -1    0    0    0    0 -0.00000000000E+00 -0.00000000000E+00 -0.35740347158E-01  0.35744000000E-01  0.51099999109E-03 0.  1.
       22    1    1    2    0    0  0.17324290585E-02  0.23508561551E-01  0.26860376175E-01  0.35737005818E-01  0.00000000000E+00 0. -1.
  9000001    1    1    2    0    0 -0.17324290585E-02 -0.23508561551E-01 -0.26860376175E-01  0.35750994182E-01  0.10000000475E-02 0.  1.
</event>
<event>
 4   0  0.2441219E-02  0.9118800E+02  0.7818609E-02  0.1379984E+01
      -11   -1    0    0    0    0  0.00000000000E+00  0.00000000000E+00  0.35740347158E-01  0.35744000000E-01  0.51099999109E-03 0.  1.
       11   -1    0    0    0    0 -0.00000000000E+00 -0.00000000000E+00 -0.35740347158E-01  0.35744000000E-01  0.51099999109E-03 0. -1.
       22    1    1    2    0    0 -0.17236507957E-02  0.45979959617E-02  0.35398037318E-01  0.35737005818E-01  0.00000000000E+00 0.  1.
  9000001    1    1    2    0    0  0.17236507957E-02 -0.45979959617E-02 -0.35398037318E-01  0.35750994182E-01  0.10000000475E-02 0. -1.
</event>
<event>
 4   0  0.2441219E-02  0.9118800E+02  0.7818609E-02  0.1379984E+01
      -11   -1    0    0    0    0  0.00000000000E+00  0.00000000000E+00  0.35740347158E-01  0.35744000000E-01  0.51099999109E-03 0.  1.
       11   -1    0    0    0    0 -0.00000000000E+00 -0.00000000000E+00 -0.35740347158E-01  0.35744000000E-01  0.51099999109E-03 0. -1.
       22    1    1    2    0    0 -0.19244950208E-02 -0.24110981231E-02  0.35603602481E-01  0.35737005818E-01  0.00000000000E+00 0.  1.
  9000001    1    1    2    0    0  0.19244950208E-02  0.24110981231E-02 -0.35603602481E-01  0.35750994182E-01  0.10000000475E-02 0. -1.
</event>
<event>
 4   0  0.2441219E-02  0.9118800E+02  0.7818609E-02  0.1379984E+01
      -11   -1    0    0    0    0  0.00000000000E+00  0.00000000000E+00  0.35740347158E-01  0.35744000000E-01  0.51099999109E-03 0. -1.
       11   -1    0    0    0    0 -0.00000000000E+00 -0.00000000000E+00 -0.35740347158E-01  0.35744000000E-01  0.51099999109E-03 0.  1.
       22    1    1    2    0    0  0.20164513982E-01  0.42970913460E-02  0.29190083362E-01  0.35737005818E-01  0.00000000000E+00 0. -1.
  9000001    1    1    2    0    0 -0.20164513982E-01 -0.42970913460E-02 -0.29190083362E-01  0.35750994182E-01  0.10000000475E-02 0.  1.
</event>
<event>
 4   0  0.2441219E-02  0.9118800E+02  0.7818609E-02  0.1379984E+01
      -11   -1    0    0    0    0  0.00000000000E+00  0.00000000000E+00  0.35740347158E-01  0.35744000000E-01  0.51099999109E-03 0.  1.
       11   -1    0    0    0    0 -0.00000000000E+00 -0.00000000000E+00 -0.35740347158E-01  0.35744000000E-01  0.51099999109E-03 0. -1.
       22    1    1    2    0    0  0.94536724501E-02 -0.55554316944E-02 -0.34013215678E-01  0.35737005818E-01  0.00000000000E+00 0. -1.
  9000001    1    1    2    0    0 -0.94536724501E-02  0.55554316944E-02  0.34013215678E-01  0.35750994182E-01  0.10000000475E-02 0.  1.
</event>
<event>
 4   0  0.2441219E-02  0.9118800E+02  0.7818609E-02  0.1379984E+01
      -11   -1    0    0    0    0  0.00000000000E+00  0.00000000000E+00  0.35740347158E-01  0.35744000000E-01  0.51099999109E-03 0.  1.
       11   -1    0    0    0    0 -0.00000000000E+00 -0.00000000000E+00 -0.35740347158E-01  0.35744000000E-01  0.51099999109E-03 0. -1.
       22    1    1    2    0    0  0.22253141956E-01  0.26366441192E-01  0.93135405083E-02  0.35737005818E-01  0.00000000000E+00 0.  1.
  9000001    1    1    2    0    0 -0.22253141956E-01 -0.26366441192E-01 -0.93135405083E-02  0.35750994182E-01  0.10000000475E-02 0. -1.
</event>
<event>
 4   0  0.2441219E-02  0.9118800E+02  0.7818609E-02  0.1379984E+01
      -11   -1    0    0    0    0  0.00000000000E+00  0.00000000000E+00  0.35740347158E-01  0.35744000000E-01  0.51099999109E-03 0. -1.
       11   -1    0    0    0    0 -0.00000000000E+00 -0.00000000000E+00 -0.35740347158E-01  0.35744000000E-01  0.51099999109E-03 0.  1.
       22    1    1    2    0    0 -0.49040500737E-02  0.12564264080E-01  0.33094155766E-01  0.35737005818E-01  0.00000000000E+00 0. -1.
  9000001    1    1    2    0    0  0.49040500737E-02 -0.12564264080E-01 -0.33094155766E-01  0.35750994182E-01  0.10000000475E-02 0.  1.
</event>
<event>
 4   0  0.2441219E-02  0.9118800E+02  0.7818609E-02  0.1379984E+01
      -11   -1    0    0    0    0  0.00000000000E+00  0.00000000000E+00  0.35740347158E-01  0.35744000000E-01  0.51099999109E-03 0. -1.
       11   -1    0    0    0    0 -0.00000000000E+00 -0.00000000000E+00 -0.35740347158E-01  0.35744000000E-01  0.51099999109E-03 0.  1.
       22    1    1    2    0    0  0.11208586600E-01  0.25598311384E-01 -0.22276167210E-01  0.35737005818E-01  0.00000000000E+00 0.  1.
  9000001    1    1    2    0    0 -0.11208586600E-01 -0.25598311384E-01  0.22276167210E-01  0.35750994182E-01  0.10000000475E-02 0. -1.
</event>
<event>
 4   0  0.2441219E-02  0.9118800E+02  0.7818609E-02  0.1379984E+01
      -11   -1    0    0    0    0  0.00000000000E+00  0.00000000000E+00  0.35740347158E-01  0.35744000000E-01  0.51099999109E-03 0. -1.
       11   -1    0    0    0    0 -0.00000000000E+00 -0.00000000000E+00 -0.35740347158E-01  0.35744000000E-01  0.51099999109E-03 0.  1.
       22    1    1    2    0    0 -0.41795385241E-02  0.43413966585E-02 -0.35225236942E-01  0.35737005818E-01  0.00000000000E+00 0.  1.
  9000001    1    1    2    0    0  0.41795385241E-02 -0.43413966585E-02  0.35225236942E-01  0.35750994182E-01  0.10000000475E-02 0. -1.
</event>
<event>
 4   0  0.2441219E-02  0.9118800E+02  0.7818609E-02  0.1379984E+01
      -11   -1    0    0    0    0  0.00000000000E+00  0.00000000000E+00  0.35740347158E-01  0.35744000000E-01  0.51099999109E-03 0.  1.
       11   -1    0    0    0    0 -0.00000000000E+00 -0.00000000000E+00 -0.35740347158E-01  0.35744000000E-01  0.51099999109E-03 0. -1.
       22    1    1    2    0    0  0.86490589478E-03 -0.84058009563E-02 -0.34723594758E-01  0.35737005818E-01  0.00000000000E+00 0. -1.
  9000001    1    1    2    0    0 -0.86490589478E-03  0.84058009563E-02  0.34723594758E-01  0.35750994182E-01  0.10000000475E-02 0.  1.
</event>
<event>
 4   0  0.2441219E-02  0.9118800E+02  0.7818609E-02  0.1379984E+01
      -11   -1    0    0    0    0  0.00000000000E+00  0.00000000000E+00  0.35740347158E-01  0.35744000000E-01  0.51099999109E-03 0. -1.
       11   -1    0    0    0    0 -0.00000000000E+00 -0.00000000000E+00 -0.35740347158E-01  0.35744000000E-01  0.51099999109E-03 0.  1.
       22    1    1    2    0    0  0.21535263076E-01  0.22980409420E-01  0.16889843456E-01  0.35737005818E-01  0.00000000000E+00 0. -1.
  9000001    1    1    2    0    0 -0.21535263076E-01 -0.22980409420E-01 -0.16889843456E-01  0.35750994182E-01  0.10000000475E-02 0.  1.
</event>
<event>
 4   0  0.2441219E-02  0.9118800E+02  0.7818609E-02  0.1379984E+01
      -11   -1    0    0    0    0  0.00000000000E+00  0.00000000000E+00  0.35740347158E-01  0.35744000000E-01  0.51099999109E-03 0.  1.
       11   -1    0    0    0    0 -0.00000000000E+00 -0.00000000000E+00 -0.35740347158E-01  0.35744000000E-01  0.51099999109E-03 0. -1.
       22    1    1    2    0    0 -0.24116813432E-01  0.24672386669E-01  0.93159127754E-02  0.35737005818E-01  0.00000000000E+00 0.  1.
  9000001    1    1    2    0    0  0.24116813432E-01 -0.24672386669E-01 -0.93159127754E-02  0.35750994182E-01  0.10000000475E-02 0. -1.
</event>
<event>
 4   0  0.2441219E-02  0.9118800E+02  0.7818609E-02  0.1379984E+01
      -11   -1    0    0    0    0  0.00000000000E+00  0.00000000000E+00  0.35740347158E-01  0.35744000000E-01  0.51099999109E-03 0.  1.
       11   -1    0    0    0    0 -0.00000000000E+00 -0.00000000000E+00 -0.35740347158E-01  0.35744000000E-01  0.51099999109E-03 0. -1.
       22    1    1    2    0    0  0.11722976119E-01  0.11042574252E-01 -0.31902460245E-01  0.35737005818E-01  0.00000000000E+00 0. -1.
  9000001    1    1    2    0    0 -0.11722976119E-01 -0.11042574252E-01  0.31902460245E-01  0.35750994182E-01  0.10000000475E-02 0.  1.
</event>
<event>
 4   0  0.2441219E-02  0.9118800E+02  0.7818609E-02  0.1379984E+01
      -11   -1    0    0    0    0  0.00000000000E+00  0.00000000000E+00  0.35740347158E-01  0.35744000000E-01  0.51099999109E-03 0.  1.
       11   -1    0    0    0    0 -0.00000000000E+00 -0.00000000000E+00 -0.35740347158E-01  0.35744000000E-01  0.51099999109E-03 0. -1.
       22    1    1    2    0    0  0.29307419484E-02 -0.15680057400E-02  0.35582097950E-01  0.35737005818E-01  0.00000000000E+00 0.  1.
  9000001    1    1    2    0    0 -0.29307419484E-02  0.15680057400E-02 -0.35582097950E-01  0.35750994182E-01  0.10000000475E-02 0. -1.
</event>
<event>
 4   0  0.2441219E-02  0.9118800E+02  0.7818609E-02  0.1379984E+01
      -11   -1    0    0    0    0  0.00000000000E+00  0.00000000000E+00  0.35740347158E-01  0.35744000000E-01  0.51099999109E-03 0.  1.
       11   -1    0    0    0    0 -0.00000000000E+00 -0.00000000000E+00 -0.35740347158E-01  0.35744000000E-01  0.51099999109E-03 0. -1.
       22    1    1    2    0    0  0.24656575157E-01  0.17989403933E-02 -0.25806020613E-01  0.35737005818E-01  0.00000000000E+00 0. -1.
  9000001    1    1    2    0    0 -0.24656575157E-01 -0.17989403933E-02  0.25806020613E-01  0.35750994182E-01  0.10000000475E-02 0.  1.
</event>
<event>
 4   0  0.2441219E-02  0.9118800E+02  0.7818609E-02  0.1379984E+01
      -11   -1    0    0    0    0  0.00000000000E+00  0.00000000000E+00  0.35740347158E-01  0.35744000000E-01  0.51099999109E-03 0.  1.
       11   -1    0    0    0    0 -0.00000000000E+00 -0.00000000000E+00 -0.35740347158E-01  0.35744000000E-01  0.51099999109E-03 0. -1.
       22    1    1    2    0    0  0.42696791556E-02  0.20614103432E-02  0.35421095581E-01  0.35737005818E-01  0.00000000000E+00 0.  1.
  9000001    1    1    2    0    0 -0.42696791556E-02 -0.20614103432E-02 -0.35421095581E-01  0.35750994182E-01  0.10000000475E-02 0. -1.
</event>
<event>
 4   0  0.2441219E-02  0.9118800E+02  0.7818609E-02  0.1379984E+01
      -11   -1    0    0    0    0  0.00000000000E+00  0.00000000000E+00  0.35740347158E-01  0.35744000000E-01  0.51099999109E-03 0.  1.
       11   -1    0    0    0    0 -0.00000000000E+00 -0.00000000000E+00 -0.35740347158E-01  0.35744000000E-01  0.51099999109E-03 0. -1.
       22    1    1    2    0    0 -0.36819533711E-02 -0.43704465359E-02 -0.35277131421E-01  0.35737005818E-01  0.00000000000E+00 0. -1.
  9000001    1    1    2    0    0  0.36819533711E-02  0.43704465359E-02  0.35277131421E-01  0.35750994182E-01  0.10000000475E-02 0.  1.
</event>
<event>
 4   0  0.2441219E-02  0.9118800E+02  0.7818609E-02  0.1379984E+01
      -11   -1    0    0    0    0  0.00000000000E+00  0.00000000000E+00  0.35740347158E-01  0.35744000000E-01  0.51099999109E-03 0. -1.
       11   -1    0    0    0    0 -0.00000000000E+00 -0.00000000000E+00 -0.35740347158E-01  0.35744000000E-01  0.51099999109E-03 0.  1.
       22    1    1    2    0    0  0.72277313983E-02 -0.80565654468E-02 -0.34058556002E-01  0.35737005818E-01  0.00000000000E+00 0.  1.
  9000001    1    1    2    0    0 -0.72277313983E-02  0.80565654468E-02  0.34058556002E-01  0.35750994182E-01  0.10000000475E-02 0. -1.
</event>
<event>
 4   0  0.2441219E-02  0.9118800E+02  0.7818609E-02  0.1379984E+01
      -11   -1    0    0    0    0  0.00000000000E+00  0.00000000000E+00  0.35740347158E-01  0.35744000000E-01  0.51099999109E-03 0.  1.
       11   -1    0    0    0    0 -0.00000000000E+00 -0.00000000000E+00 -0.35740347158E-01  0.35744000000E-01  0.51099999109E-03 0. -1.
       22    1    1    2    0    0 -0.16319666098E-01  0.12094187644E-01  0.29402937074E-01  0.35737005818E-01  0.00000000000E+00 0.  1.
  9000001    1    1    2    0    0  0.16319666098E-01 -0.12094187644E-01 -0.29402937074E-01  0.35750994182E-01  0.10000000475E-02 0. -1.
</event>
<event>
 4   0  0.2441219E-02  0.9118800E+02  0.7818609E-02  0.1379984E+01
      -11   -1    0    0    0    0  0.00000000000E+00  0.00000000000E+00  0.35740347158E-01  0.35744000000E-01  0.51099999109E-03 0. -1.
       11   -1    0    0    0    0 -0.00000000000E+00 -0.00000000000E+00 -0.35740347158E-01  0.35744000000E-01  0.51099999109E-03 0.  1.
       22    1    1    2    0    0 -0.16366508774E-02 -0.56690118863E-02  0.35246521289E-01  0.35737005818E-01  0.00000000000E+00 0. -1.
  9000001    1    1    2    0    0  0.16366508774E-02  0.56690118863E-02 -0.35246521289E-01  0.35750994182E-01  0.10000000475E-02 0.  1.
</event>
<event>
 4   0  0.2441219E-02  0.9118800E+02  0.7818609E-02  0.1379984E+01
      -11   -1    0    0    0    0  0.00000000000E+00  0.00000000000E+00  0.35740347158E-01  0.35744000000E-01  0.51099999109E-03 0.  1.
       11   -1    0    0    0    0 -0.00000000000E+00 -0.00000000000E+00 -0.35740347158E-01  0.35744000000E-01  0.51099999109E-03 0. -1.
       22    1    1    2    0    0 -0.16627262491E-01 -0.35882915810E-03  0.31631297295E-01  0.35737005818E-01  0.00000000000E+00 0.  1.
  9000001    1    1    2    0    0  0.16627262491E-01  0.35882915810E-03 -0.31631297295E-01  0.35750994182E-01  0.10000000475E-02 0. -1.
</event>
<event>
 4   0  0.2441219E-02  0.9118800E+02  0.7818609E-02  0.1379984E+01
      -11   -1    0    0    0    0  0.00000000000E+00  0.00000000000E+00  0.35740347158E-01  0.35744000000E-01  0.51099999109E-03 0. -1.
       11   -1    0    0    0    0 -0.00000000000E+00 -0.00000000000E+00 -0.35740347158E-01  0.35744000000E-01  0.51099999109E-03 0.  1.
       22    1    1    2    0    0 -0.85298190575E-02  0.99311951515E-03 -0.34689904660E-01  0.35737005818E-01  0.00000000000E+00 0.  1.
  9000001    1    1    2    0    0  0.85298190575E-02 -0.99311951515E-03  0.34689904660E-01  0.35750994182E-01  0.10000000475E-02 0. -1.
</event>
<event>
 4   0  0.2441219E-02  0.9118800E+02  0.7818609E-02  0.1379984E+01
      -11   -1    0    0    0    0  0.00000000000E+00  0.00000000000E+00  0.35740347158E-01  0.35744000000E-01  0.51099999109E-03 0.  1.
       11   -1    0    0    0    0 -0.00000000000E+00 -0.00000000000E+00 -0.35740347158E-01  0.35744000000E-01  0.51099999109E-03 0. -1.
       22    1    1    2    0    0 -0.48231224701E-02 -0.49175666576E-02 -0.35066916213E-01  0.35737005818E-01  0.00000000000E+00 0. -1.
  9000001    1    1    2    0    0  0.48231224701E-02  0.49175666576E-02  0.35066916213E-01  0.35750994182E-01  0.10000000475E-02 0.  1.
</event>
<event>
 4   0  0.2441219E-02  0.9118800E+02  0.7818609E-02  0.1379984E+01
      -11   -1    0    0    0    0  0.00000000000E+00  0.00000000000E+00  0.35740347158E-01  0.35744000000E-01  0.51099999109E-03 0.  1.
       11   -1    0    0    0    0 -0.00000000000E+00 -0.00000000000E+00 -0.35740347158E-01  0.35744000000E-01  0.51099999109E-03 0. -1.
       22    1    1    2    0    0 -0.12119351609E-01  0.40875091292E-02  0.33369854219E-01  0.35737005818E-01  0.00000000000E+00 0.  1.
  9000001    1    1    2    0    0  0.12119351609E-01 -0.40875091292E-02 -0.33369854219E-01  0.35750994182E-01  0.10000000475E-02 0. -1.
</event>
<event>
 4   0  0.2441219E-02  0.9118800E+02  0.7818609E-02  0.1379984E+01
      -11   -1    0    0    0    0  0.00000000000E+00  0.00000000000E+00  0.35740347158E-01  0.35744000000E-01  0.51099999109E-03 0. -1.
       11   -1    0    0    0    0 -0.00000000000E+00 -0.00000000000E+00 -0.35740347158E-01  0.35744000000E-01  0.51099999109E-03 0.  1.
       22    1    1    2    0    0  0.35438976299E-01 -0.13439142456E-02  0.44052739129E-02  0.35737005818E-01  0.00000000000E+00 0. -1.
  9000001    1    1    2    0    0 -0.35438976299E-01  0.13439142456E-02 -0.44052739129E-02  0.35750994182E-01  0.10000000475E-02 0.  1.
</event>
<event>
 4   0  0.2441219E-02  0.9118800E+02  0.7818609E-02  0.1379984E+01
      -11   -1    0    0    0    0  0.00000000000E+00  0.00000000000E+00  0.35740347158E-01  0.35744000000E-01  0.51099999109E-03 0. -1.
       11   -1    0    0    0    0 -0.00000000000E+00 -0.00000000000E+00 -0.35740347158E-01  0.35744000000E-01  0.51099999109E-03 0.  1.
       22    1    1    2    0    0 -0.18784664021E-01 -0.14259600434E-01 -0.26850210017E-01  0.35737005818E-01  0.00000000000E+00 0.  1.
  9000001    1    1    2    0    0  0.18784664021E-01  0.14259600434E-01  0.26850210017E-01  0.35750994182E-01  0.10000000475E-02 0. -1.
</event>
<event>
 4   0  0.2441219E-02  0.9118800E+02  0.7818609E-02  0.1379984E+01
      -11   -1    0    0    0    0  0.00000000000E+00  0.00000000000E+00  0.35740347158E-01  0.35744000000E-01  0.51099999109E-03 0. -1.
       11   -1    0    0    0    0 -0.00000000000E+00 -0.00000000000E+00 -0.35740347158E-01  0.35744000000E-01  0.51099999109E-03 0.  1.
       22    1    1    2    0    0  0.12817825740E-01  0.12013072859E-01 -0.31121102304E-01  0.35737005818E-01  0.00000000000E+00 0.  1.
  9000001    1    1    2    0    0 -0.12817825740E-01 -0.12013072859E-01  0.31121102304E-01  0.35750994182E-01  0.10000000475E-02 0. -1.
</event>
<event>
 4   0  0.2441219E-02  0.9118800E+02  0.7818609E-02  0.1379984E+01
      -11   -1    0    0    0    0  0.00000000000E+00  0.00000000000E+00  0.35740347158E-01  0.35744000000E-01  0.51099999109E-03 0. -1.
       11   -1    0    0    0    0 -0.00000000000E+00 -0.00000000000E+00 -0.35740347158E-01  0.35744000000E-01  0.51099999109E-03 0.  1.
       22    1    1    2    0    0 -0.35750218681E-02  0.41780851550E-03  0.35555284271E-01  0.35737005818E-01  0.00000000000E+00 0. -1.
  9000001    1    1    2    0    0  0.35750218681E-02 -0.41780851550E-03 -0.35555284271E-01  0.35750994182E-01  0.10000000475E-02 0.  1.
</event>
<event>
 4   0  0.2441219E-02  0.9118800E+02  0.7818609E-02  0.1379984E+01
      -11   -1    0    0    0    0  0.00000000000E+00  0.00000000000E+00  0.35740347158E-01  0.35744000000E-01  0.51099999109E-03 0.  1.
       11   -1    0    0    0    0 -0.00000000000E+00 -0.00000000000E+00 -0.35740347158E-01  0.35744000000E-01  0.51099999109E-03 0. -1.
       22    1    1    2    0    0  0.32922127573E-02  0.58454912771E-02  0.35101640300E-01  0.35737005818E-01  0.00000000000E+00 0.  1.
  9000001    1    1    2    0    0 -0.32922127573E-02 -0.58454912771E-02 -0.35101640300E-01  0.35750994182E-01  0.10000000475E-02 0. -1.
</event>
<event>
 4   0  0.2441219E-02  0.9118800E+02  0.7818609E-02  0.1379984E+01
      -11   -1    0    0    0    0  0.00000000000E+00  0.00000000000E+00  0.35740347158E-01  0.35744000000E-01  0.51099999109E-03 0.  1.
       11   -1    0    0    0    0 -0.00000000000E+00 -0.00000000000E+00 -0.35740347158E-01  0.35744000000E-01  0.51099999109E-03 0. -1.
       22    1    1    2    0    0  0.35874530115E-02 -0.33309243407E-02 -0.35400123005E-01  0.35737005818E-01  0.00000000000E+00 0. -1.
  9000001    1    1    2    0    0 -0.35874530115E-02  0.33309243407E-02  0.35400123005E-01  0.35750994182E-01  0.10000000475E-02 0.  1.
</event>
<event>
 4   0  0.2441219E-02  0.9118800E+02  0.7818609E-02  0.1379984E+01
      -11   -1    0    0    0    0  0.00000000000E+00  0.00000000000E+00  0.35740347158E-01  0.35744000000E-01  0.51099999109E-03 0. -1.
       11   -1    0    0    0    0 -0.00000000000E+00 -0.00000000000E+00 -0.35740347158E-01  0.35744000000E-01  0.51099999109E-03 0.  1.
       22    1    1    2    0    0  0.22402818391E-01 -0.24274225867E-01  0.13638521606E-01  0.35737005818E-01  0.00000000000E+00 0. -1.
  9000001    1    1    2    0    0 -0.22402818391E-01  0.24274225867E-01 -0.13638521606E-01  0.35750994182E-01  0.10000000475E-02 0.  1.
</event>
<event>
 4   0  0.2441219E-02  0.9118800E+02  0.7818609E-02  0.1379984E+01
      -11   -1    0    0    0    0  0.00000000000E+00  0.00000000000E+00  0.35740347158E-01  0.35744000000E-01  0.51099999109E-03 0.  1.
       11   -1    0    0    0    0 -0.00000000000E+00 -0.00000000000E+00 -0.35740347158E-01  0.35744000000E-01  0.51099999109E-03 0. -1.
       22    1    1    2    0    0 -0.29656081348E-01 -0.82725504508E-02  0.18144292022E-01  0.35737005818E-01  0.00000000000E+00 0. -1.
  9000001    1    1    2    0    0  0.29656081348E-01  0.82725504508E-02 -0.18144292022E-01  0.35750994182E-01  0.10000000475E-02 0.  1.
</event>
<event>
 4   0  0.2441219E-02  0.9118800E+02  0.7818609E-02  0.1379984E+01
      -11   -1    0    0    0    0  0.00000000000E+00  0.00000000000E+00  0.35740347158E-01  0.35744000000E-01  0.51099999109E-03 0.  1.
       11   -1    0    0    0    0 -0.00000000000E+00 -0.00000000000E+00 -0.35740347158E-01  0.35744000000E-01  0.51099999109E-03 0. -1.
       22    1    1    2    0    0 -0.20226564328E-02  0.31210599408E-02  0.35542951913E-01  0.35737005818E-01  0.00000000000E+00 0.  1.
  9000001    1    1    2    0    0  0.20226564328E-02 -0.31210599408E-02 -0.35542951913E-01  0.35750994182E-01  0.10000000475E-02 0. -1.
</event>
<event>
 4   0  0.2441219E-02  0.9118800E+02  0.7818609E-02  0.1379984E+01
      -11   -1    0    0    0    0  0.00000000000E+00  0.00000000000E+00  0.35740347158E-01  0.35744000000E-01  0.51099999109E-03 0.  1.
       11   -1    0    0    0    0 -0.00000000000E+00 -0.00000000000E+00 -0.35740347158E-01  0.35744000000E-01  0.51099999109E-03 0. -1.
       22    1    1    2    0    0 -0.21204794409E-02  0.35739594271E-02  0.35494562483E-01  0.35737005818E-01  0.00000000000E+00 0.  1.
  9000001    1    1    2    0    0  0.21204794409E-02 -0.35739594271E-02 -0.35494562483E-01  0.35750994182E-01  0.10000000475E-02 0. -1.
</event>
<event>
 4   0  0.2441219E-02  0.9118800E+02  0.7818609E-02  0.1379984E+01
      -11   -1    0    0    0    0  0.00000000000E+00  0.00000000000E+00  0.35740347158E-01  0.35744000000E-01  0.51099999109E-03 0. -1.
       11   -1    0    0    0    0 -0.00000000000E+00 -0.00000000000E+00 -0.35740347158E-01  0.35744000000E-01  0.51099999109E-03 0.  1.
       22    1    1    2    0    0  0.55882601263E-03  0.90491119622E-02  0.34567830002E-01  0.35737005818E-01  0.00000000000E+00 0. -1.
  9000001    1    1    2    0    0 -0.55882601263E-03 -0.90491119622E-02 -0.34567830002E-01  0.35750994182E-01  0.10000000475E-02 0.  1.
</event>
<event>
 4   0  0.2441219E-02  0.9118800E+02  0.7818609E-02  0.1379984E+01
      -11   -1    0    0    0    0  0.00000000000E+00  0.00000000000E+00  0.35740347158E-01  0.35744000000E-01  0.51099999109E-03 0. -1.
       11   -1    0    0    0    0 -0.00000000000E+00 -0.00000000000E+00 -0.35740347158E-01  0.35744000000E-01  0.51099999109E-03 0.  1.
       22    1    1    2    0    0 -0.48813294156E-02 -0.18121182860E-02 -0.35355656341E-01  0.35737005818E-01  0.00000000000E+00 0.  1.
  9000001    1    1    2    0    0  0.48813294156E-02  0.18121182860E-02  0.35355656341E-01  0.35750994182E-01  0.10000000475E-02 0. -1.
</event>
<event>
 4   0  0.2441219E-02  0.9118800E+02  0.7818609E-02  0.1379984E+01
      -11   -1    0    0    0    0  0.00000000000E+00  0.00000000000E+00  0.35740347158E-01  0.35744000000E-01  0.51099999109E-03 0.  1.
       11   -1    0    0    0    0 -0.00000000000E+00 -0.00000000000E+00 -0.35740347158E-01  0.35744000000E-01  0.51099999109E-03 0. -1.
       22    1    1    2    0    0 -0.34193376619E-01  0.75087438288E-02  0.71809015009E-02  0.35737005818E-01  0.00000000000E+00 0. -1.
  9000001    1    1    2    0    0  0.34193376619E-01 -0.75087438288E-02 -0.71809015009E-02  0.35750994182E-01  0.10000000475E-02 0.  1.
</event>
<event>
 4   0  0.2441219E-02  0.9118800E+02  0.7818609E-02  0.1379984E+01
      -11   -1    0    0    0    0  0.00000000000E+00  0.00000000000E+00  0.35740347158E-01  0.35744000000E-01  0.51099999109E-03 0.  1.
       11   -1    0    0    0    0 -0.00000000000E+00 -0.00000000000E+00 -0.35740347158E-01  0.35744000000E-01  0.51099999109E-03 0. -1.
       22    1    1    2    0    0 -0.30275758316E-01 -0.18949788647E-01  0.11906105378E-02  0.35737005818E-01  0.00000000000E+00 0. -1.
  9000001    1    1    2    0    0  0.30275758316E-01  0.18949788647E-01 -0.11906105378E-02  0.35750994182E-01  0.10000000475E-02 0.  1.
</event>
<event>
 4   0  0.2441219E-02  0.9118800E+02  0.7818609E-02  0.1379984E+01
      -11   -1    0    0    0    0  0.00000000000E+00  0.00000000000E+00  0.35740347158E-01  0.35744000000E-01  0.51099999109E-03 0. -1.
       11   -1    0    0    0    0 -0.00000000000E+00 -0.00000000000E+00 -0.35740347158E-01  0.35744000000E-01  0.51099999109E-03 0.  1.
       22    1    1    2    0    0  0.42968145725E-02  0.36959786478E-02 -0.35284709312E-01  0.35737005818E-01  0.00000000000E+00 0.  1.
  9000001    1    1    2    0    0 -0.42968145725E-02 -0.36959786478E-02  0.35284709312E-01  0.35750994182E-01  0.10000000475E-02 0. -1.
</event>
<event>
 4   0  0.2441219E-02  0.9118800E+02  0.7818609E-02  0.1379984E+01
      -11   -1    0    0    0    0  0.00000000000E+00  0.00000000000E+00  0.35740347158E-01  0.35744000000E-01  0.51099999109E-03 0.  1.
       11   -1    0    0    0    0 -0.00000000000E+00 -0.00000000000E+00 -0.35740347158E-01  0.35744000000E-01  0.51099999109E-03 0. -1.
       22    1    1    2    0    0 -0.13958990222E-01 -0.96338107471E-02 -0.31455839956E-01  0.35737005818E-01  0.00000000000E+00 0. -1.
  9000001    1    1    2    0    0  0.13958990222E-01  0.96338107471E-02  0.31455839956E-01  0.35750994182E-01  0.10000000475E-02 0.  1.
</event>
<event>
 4   0  0.2441219E-02  0.9118800E+02  0.7818609E-02  0.1379984E+01
      -11   -1    0    0    0    0  0.00000000000E+00  0.00000000000E+00  0.35740347158E-01  0.35744000000E-01  0.51099999109E-03 0. -1.
       11   -1    0    0    0    0 -0.00000000000E+00 -0.00000000000E+00 -0.35740347158E-01  0.35744000000E-01  0.51099999109E-03 0.  1.
       22    1    1    2    0    0 -0.27013730785E-02  0.18739366532E-01 -0.30309607558E-01  0.35737005818E-01  0.00000000000E+00 0.  1.
  9000001    1    1    2    0    0  0.27013730785E-02 -0.18739366532E-01  0.30309607558E-01  0.35750994182E-01  0.10000000475E-02 0. -1.
</event>
<event>
 4   0  0.2441219E-02  0.9118800E+02  0.7818609E-02  0.1379984E+01
      -11   -1    0    0    0    0  0.00000000000E+00  0.00000000000E+00  0.35740347158E-01  0.35744000000E-01  0.51099999109E-03 0.  1.
       11   -1    0    0    0    0 -0.00000000000E+00 -0.00000000000E+00 -0.35740347158E-01  0.35744000000E-01  0.51099999109E-03 0. -1.
       22    1    1    2    0    0 -0.95651195274E-02  0.19560428972E-01 -0.28337813814E-01  0.35737005818E-01  0.00000000000E+00 0. -1.
  9000001    1    1    2    0    0  0.95651195274E-02 -0.19560428972E-01  0.28337813814E-01  0.35750994182E-01  0.10000000475E-02 0.  1.
</event>
<event>
 4   0  0.2441219E-02  0.9118800E+02  0.7818609E-02  0.1379984E+01
      -11   -1    0    0    0    0  0.00000000000E+00  0.00000000000E+00  0.35740347158E-01  0.35744000000E-01  0.51099999109E-03 0.  1.
       11   -1    0    0    0    0 -0.00000000000E+00 -0.00000000000E+00 -0.35740347158E-01  0.35744000000E-01  0.51099999109E-03 0. -1.
       22    1    1    2    0    0 -0.53270778531E-02 -0.58404785707E-02 -0.34851752273E-01  0.35737005818E-01  0.00000000000E+00 0. -1.
  9000001    1    1    2    0    0  0.53270778531E-02  0.58404785707E-02  0.34851752273E-01  0.35750994182E-01  0.10000000475E-02 0.  1.
</event>
<event>
 4   0  0.2441219E-02  0.9118800E+02  0.7818609E-02  0.1379984E+01
      -11   -1    0    0    0    0  0.00000000000E+00  0.00000000000E+00  0.35740347158E-01  0.35744000000E-01  0.51099999109E-03 0. -1.
       11   -1    0    0    0    0 -0.00000000000E+00 -0.00000000000E+00 -0.35740347158E-01  0.35744000000E-01  0.51099999109E-03 0.  1.
       22    1    1    2    0    0 -0.12069961965E-01 -0.75897726549E-02 -0.32769573602E-01  0.35737005818E-01  0.00000000000E+00 0.  1.
  9000001    1    1    2    0    0  0.12069961965E-01  0.75897726549E-02  0.32769573602E-01  0.35750994182E-01  0.10000000475E-02 0. -1.
</event>
<event>
 4   0  0.2441219E-02  0.9118800E+02  0.7818609E-02  0.1379984E+01
      -11   -1    0    0    0    0  0.00000000000E+00  0.00000000000E+00  0.35740347158E-01  0.35744000000E-01  0.51099999109E-03 0. -1.
       11   -1    0    0    0    0 -0.00000000000E+00 -0.00000000000E+00 -0.35740347158E-01  0.35744000000E-01  0.51099999109E-03 0.  1.
       22    1    1    2    0    0  0.35612923564E-02 -0.43391013192E-02 -0.35293384385E-01  0.35737005818E-01  0.00000000000E+00 0.  1.
  9000001    1    1    2    0    0 -0.35612923564E-02  0.43391013192E-02  0.35293384385E-01  0.35750994182E-01  0.10000000475E-02 0. -1.
</event>
<event>
 4   0  0.2441219E-02  0.9118800E+02  0.7818609E-02  0.1379984E+01
      -11   -1    0    0    0    0  0.00000000000E+00  0.00000000000E+00  0.35740347158E-01  0.35744000000E-01  0.51099999109E-03 0. -1.
       11   -1    0    0    0    0 -0.00000000000E+00 -0.00000000000E+00 -0.35740347158E-01  0.35744000000E-01  0.51099999109E-03 0.  1.
       22    1    1    2    0    0  0.81690060208E-02 -0.45315333015E-03  0.34787865378E-01  0.35737005818E-01  0.00000000000E+00 0. -1.
  9000001    1    1    2    0    0 -0.81690060208E-02  0.45315333015E-03 -0.34787865378E-01  0.35750994182E-01  0.10000000475E-02 0.  1.
</event>
<event>
 4   0  0.2441219E-02  0.9118800E+02  0.7818609E-02  0.1379984E+01
      -11   -1    0    0    0    0  0.00000000000E+00  0.00000000000E+00  0.35740347158E-01  0.35744000000E-01  0.51099999109E-03 0.  1.
       11   -1    0    0    0    0 -0.00000000000E+00 -0.00000000000E+00 -0.35740347158E-01  0.35744000000E-01  0.51099999109E-03 0. -1.
       22    1    1    2    0    0  0.27581702080E-01 -0.12827580016E-01 -0.18757304876E-01  0.35737005818E-01  0.00000000000E+00 0. -1.
  9000001    1    1    2    0    0 -0.27581702080E-01  0.12827580016E-01  0.18757304876E-01  0.35750994182E-01  0.10000000475E-02 0.  1.
</event>
<event>
 4   0  0.2441219E-02  0.9118800E+02  0.7818609E-02  0.1379984E+01
      -11   -1    0    0    0    0  0.00000000000E+00  0.00000000000E+00  0.35740347158E-01  0.35744000000E-01  0.51099999109E-03 0. -1.
       11   -1    0    0    0    0 -0.00000000000E+00 -0.00000000000E+00 -0.35740347158E-01  0.35744000000E-01  0.51099999109E-03 0.  1.
       22    1    1    2    0    0 -0.68691635622E-03 -0.12941007543E-01 -0.33304535045E-01  0.35737005818E-01  0.00000000000E+00 0.  1.
  9000001    1    1    2    0    0  0.68691635622E-03  0.12941007543E-01  0.33304535045E-01  0.35750994182E-01  0.10000000475E-02 0. -1.
</event>
<event>
 4   0  0.2441219E-02  0.9118800E+02  0.7818609E-02  0.1379984E+01
      -11   -1    0    0    0    0  0.00000000000E+00  0.00000000000E+00  0.35740347158E-01  0.35744000000E-01  0.51099999109E-03 0. -1.
       11   -1    0    0    0    0 -0.00000000000E+00 -0.00000000000E+00 -0.35740347158E-01  0.35744000000E-01  0.51099999109E-03 0.  1.
       22    1    1    2    0    0  0.25127214613E-02  0.34130364068E-01  0.10292621840E-01  0.35737005818E-01  0.00000000000E+00 0.  1.
  9000001    1    1    2    0    0 -0.25127214613E-02 -0.34130364068E-01 -0.10292621840E-01  0.35750994182E-01  0.10000000475E-02 0. -1.
</event>
<event>
 4   0  0.2441219E-02  0.9118800E+02  0.7818609E-02  0.1379984E+01
      -11   -1    0    0    0    0  0.00000000000E+00  0.00000000000E+00  0.35740347158E-01  0.35744000000E-01  0.51099999109E-03 0. -1.
       11   -1    0    0    0    0 -0.00000000000E+00 -0.00000000000E+00 -0.35740347158E-01  0.35744000000E-01  0.51099999109E-03 0.  1.
       22    1    1    2    0    0 -0.86934435661E-02 -0.85568151829E-03  0.34652928202E-01  0.35737005818E-01  0.00000000000E+00 0. -1.
  9000001    1    1    2    0    0  0.86934435661E-02  0.85568151829E-03 -0.34652928202E-01  0.35750994182E-01  0.10000000475E-02 0.  1.
</event>
<event>
 4   0  0.2441219E-02  0.9118800E+02  0.7818609E-02  0.1379984E+01
      -11   -1    0    0    0    0  0.00000000000E+00  0.00000000000E+00  0.35740347158E-01  0.35744000000E-01  0.51099999109E-03 0. -1.
       11   -1    0    0    0    0 -0.00000000000E+00 -0.00000000000E+00 -0.35740347158E-01  0.35744000000E-01  0.51099999109E-03 0.  1.
       22    1    1    2    0    0  0.48253277881E-02 -0.10270318668E-01 -0.33887613535E-01  0.35737005818E-01  0.00000000000E+00 0.  1.
  9000001    1    1    2    0    0 -0.48253277881E-02  0.10270318668E-01  0.33887613535E-01  0.35750994182E-01  0.10000000475E-02 0. -1.
</event>
<event>
 4   0  0.2441219E-02  0.9118800E+02  0.7818609E-02  0.1379984E+01
      -11   -1    0    0    0    0  0.00000000000E+00  0.00000000000E+00  0.35740347158E-01  0.35744000000E-01  0.51099999109E-03 0.  1.
       11   -1    0    0    0    0 -0.00000000000E+00 -0.00000000000E+00 -0.35740347158E-01  0.35744000000E-01  0.51099999109E-03 0. -1.
       22    1    1    2    0    0 -0.98517681140E-02 -0.10380858724E-02  0.34336549443E-01  0.35737005818E-01  0.00000000000E+00 0.  1.
  9000001    1    1    2    0    0  0.98517681140E-02  0.10380858724E-02 -0.34336549443E-01  0.35750994182E-01  0.10000000475E-02 0. -1.
</event>
<event>
 4   0  0.2441219E-02  0.9118800E+02  0.7818609E-02  0.1379984E+01
      -11   -1    0    0    0    0  0.00000000000E+00  0.00000000000E+00  0.35740347158E-01  0.35744000000E-01  0.51099999109E-03 0. -1.
       11   -1    0    0    0    0 -0.00000000000E+00 -0.00000000000E+00 -0.35740347158E-01  0.35744000000E-01  0.51099999109E-03 0.  1.
       22    1    1    2    0    0 -0.93268186734E-02 -0.31398011594E-02  0.34355286158E-01  0.35737005818E-01  0.00000000000E+00 0. -1.
  9000001    1    1    2    0    0  0.93268186734E-02  0.31398011594E-02 -0.34355286158E-01  0.35750994182E-01  0.10000000475E-02 0.  1.
</event>
<event>
 4   0  0.2441219E-02  0.9118800E+02  0.7818609E-02  0.1379984E+01
      -11   -1    0    0    0    0  0.00000000000E+00  0.00000000000E+00  0.35740347158E-01  0.35744000000E-01  0.51099999109E-03 0.  1.
       11   -1    0    0    0    0 -0.00000000000E+00 -0.00000000000E+00 -0.35740347158E-01  0.35744000000E-01  0.51099999109E-03 0. -1.
       22    1    1    2    0    0  0.21218191287E-01 -0.23340634998E-01  0.16796925351E-01  0.35737005818E-01  0.00000000000E+00 0.  1.
  9000001    1    1    2    0    0 -0.21218191287E-01  0.23340634998E-01 -0.16796925351E-01  0.35750994182E-01  0.10000000475E-02 0. -1.
</event>
<event>
 4   0  0.2441219E-02  0.9118800E+02  0.7818609E-02  0.1379984E+01
      -11   -1    0    0    0    0  0.00000000000E+00  0.00000000000E+00  0.35740347158E-01  0.35744000000E-01  0.51099999109E-03 0. -1.
       11   -1    0    0    0    0 -0.00000000000E+00 -0.00000000000E+00 -0.35740347158E-01  0.35744000000E-01  0.51099999109E-03 0.  1.
       22    1    1    2    0    0 -0.15930483230E-01  0.19936521132E-02 -0.31927709598E-01  0.35737005818E-01  0.00000000000E+00 0.  1.
  9000001    1    1    2    0    0  0.15930483230E-01 -0.19936521132E-02  0.31927709598E-01  0.35750994182E-01  0.10000000475E-02 0. -1.
</event>
<event>
 4   0  0.2441219E-02  0.9118800E+02  0.7818609E-02  0.1379984E+01
      -11   -1    0    0    0    0  0.00000000000E+00  0.00000000000E+00  0.35740347158E-01  0.35744000000E-01  0.51099999109E-03 0.  1.
       11   -1    0    0    0    0 -0.00000000000E+00 -0.00000000000E+00 -0.35740347158E-01  0.35744000000E-01  0.51099999109E-03 0. -1.
       22    1    1    2    0    0 -0.22979769556E-01  0.27339216476E-01 -0.12771133636E-02  0.35737005818E-01  0.00000000000E+00 0.  1.
  9000001    1    1    2    0    0  0.22979769556E-01 -0.27339216476E-01  0.12771133636E-02  0.35750994182E-01  0.10000000475E-02 0. -1.
</event>
<event>
 4   0  0.2441219E-02  0.9118800E+02  0.7818609E-02  0.1379984E+01
      -11   -1    0    0    0    0  0.00000000000E+00  0.00000000000E+00  0.35740347158E-01  0.35744000000E-01  0.51099999109E-03 0. -1.
       11   -1    0    0    0    0 -0.00000000000E+00 -0.00000000000E+00 -0.35740347158E-01  0.35744000000E-01  0.51099999109E-03 0.  1.
       22    1    1    2    0    0  0.29607658424E-02 -0.17737591701E-02  0.35569948396E-01  0.35737005818E-01  0.00000000000E+00 0. -1.
  9000001    1    1    2    0    0 -0.29607658424E-02  0.17737591701E-02 -0.35569948396E-01  0.35750994182E-01  0.10000000475E-02 0.  1.
</event>
<event>
 4   0  0.2441219E-02  0.9118800E+02  0.7818609E-02  0.1379984E+01
      -11   -1    0    0    0    0  0.00000000000E+00  0.00000000000E+00  0.35740347158E-01  0.35744000000E-01  0.51099999109E-03 0. -1.
       11   -1    0    0    0    0 -0.00000000000E+00 -0.00000000000E+00 -0.35740347158E-01  0.35744000000E-01  0.51099999109E-03 0.  1.
       22    1    1    2    0    0 -0.45285926304E-02 -0.44060745080E-02  0.35174023669E-01  0.35737005818E-01  0.00000000000E+00 0. -1.
  9000001    1    1    2    0    0  0.45285926304E-02  0.44060745080E-02 -0.35174023669E-01  0.35750994182E-01  0.10000000475E-02 0.  1.
</event>
<event>
 4   0  0.2441219E-02  0.9118800E+02  0.7818609E-02  0.1379984E+01
      -11   -1    0    0    0    0  0.00000000000E+00  0.00000000000E+00  0.35740347158E-01  0.35744000000E-01  0.51099999109E-03 0. -1.
       11   -1    0    0    0    0 -0.00000000000E+00 -0.00000000000E+00 -0.35740347158E-01  0.35744000000E-01  0.51099999109E-03 0.  1.
       22    1    1    2    0    0 -0.10948757343E-01 -0.21190784762E-01  0.26612195300E-01  0.35737005818E-01  0.00000000000E+00 0. -1.
  9000001    1    1    2    0    0  0.10948757343E-01  0.21190784762E-01 -0.26612195300E-01  0.35750994182E-01  0.10000000475E-02 0.  1.
</event>
<event>
 4   0  0.2441219E-02  0.9118800E+02  0.7818609E-02  0.1379984E+01
      -11   -1    0    0    0    0  0.00000000000E+00  0.00000000000E+00  0.35740347158E-01  0.35744000000E-01  0.51099999109E-03 0. -1.
       11   -1    0    0    0    0 -0.00000000000E+00 -0.00000000000E+00 -0.35740347158E-01  0.35744000000E-01  0.51099999109E-03 0.  1.
       22    1    1    2    0    0  0.93527556536E-03 -0.47840025032E-02  0.35402996547E-01  0.35737005818E-01  0.00000000000E+00 0. -1.
  9000001    1    1    2    0    0 -0.93527556536E-03  0.47840025032E-02 -0.35402996547E-01  0.35750994182E-01  0.10000000475E-02 0.  1.
</event>
<event>
 4   0  0.2441219E-02  0.9118800E+02  0.7818609E-02  0.1379984E+01
      -11   -1    0    0    0    0  0.00000000000E+00  0.00000000000E+00  0.35740347158E-01  0.35744000000E-01  0.51099999109E-03 0. -1.
       11   -1    0    0    0    0 -0.00000000000E+00 -0.00000000000E+00 -0.35740347158E-01  0.35744000000E-01  0.51099999109E-03 0.  1.
       22    1    1    2    0    0 -0.12640655574E-01  0.18805888096E-02  0.33373804057E-01  0.35737005818E-01  0.00000000000E+00 0. -1.
  9000001    1    1    2    0    0  0.12640655574E-01 -0.18805888096E-02 -0.33373804057E-01  0.35750994182E-01  0.10000000475E-02 0.  1.
</event>
<event>
 4   0  0.2441219E-02  0.9118800E+02  0.7818609E-02  0.1379984E+01
      -11   -1    0    0    0    0  0.00000000000E+00  0.00000000000E+00  0.35740347158E-01  0.35744000000E-01  0.51099999109E-03 0.  1.
       11   -1    0    0    0    0 -0.00000000000E+00 -0.00000000000E+00 -0.35740347158E-01  0.35744000000E-01  0.51099999109E-03 0. -1.
       22    1    1    2    0    0  0.29495245110E-02 -0.27938446740E-02 -0.35505328079E-01  0.35737005818E-01  0.00000000000E+00 0. -1.
  9000001    1    1    2    0    0 -0.29495245110E-02  0.27938446740E-02  0.35505328079E-01  0.35750994182E-01  0.10000000475E-02 0.  1.
</event>
<event>
 4   0  0.2441219E-02  0.9118800E+02  0.7818609E-02  0.1379984E+01
      -11   -1    0    0    0    0  0.00000000000E+00  0.00000000000E+00  0.35740347158E-01  0.35744000000E-01  0.51099999109E-03 0.  1.
       11   -1    0    0    0    0 -0.00000000000E+00 -0.00000000000E+00 -0.35740347158E-01  0.35744000000E-01  0.51099999109E-03 0. -1.
       22    1    1    2    0    0 -0.11193190085E-01  0.14416562141E-01  0.30724726469E-01  0.35737005818E-01  0.00000000000E+00 0.  1.
  9000001    1    1    2    0    0  0.11193190085E-01 -0.14416562141E-01 -0.30724726469E-01  0.35750994182E-01  0.10000000475E-02 0. -1.
</event>
<event>
 4   0  0.2441219E-02  0.9118800E+02  0.7818609E-02  0.1379984E+01
      -11   -1    0    0    0    0  0.00000000000E+00  0.00000000000E+00  0.35740347158E-01  0.35744000000E-01  0.51099999109E-03 0. -1.
       11   -1    0    0    0    0 -0.00000000000E+00 -0.00000000000E+00 -0.35740347158E-01  0.35744000000E-01  0.51099999109E-03 0.  1.
       22    1    1    2    0    0 -0.55220766115E-02 -0.83435295547E-02 -0.34307809160E-01  0.35737005818E-01  0.00000000000E+00 0.  1.
  9000001    1    1    2    0    0  0.55220766115E-02  0.83435295547E-02  0.34307809160E-01  0.35750994182E-01  0.10000000475E-02 0. -1.
</event>
<event>
 4   0  0.2441219E-02  0.9118800E+02  0.7818609E-02  0.1379984E+01
      -11   -1    0    0    0    0  0.00000000000E+00  0.00000000000E+00  0.35740347158E-01  0.35744000000E-01  0.51099999109E-03 0. -1.
       11   -1    0    0    0    0 -0.00000000000E+00 -0.00000000000E+00 -0.35740347158E-01  0.35744000000E-01  0.51099999109E-03 0.  1.
       22    1    1    2    0    0 -0.57751149056E-03  0.52926877255E-02 -0.35338187871E-01  0.35737005818E-01  0.00000000000E+00 0.  1.
  9000001    1    1    2    0    0  0.57751149056E-03 -0.52926877255E-02  0.35338187871E-01  0.35750994182E-01  0.10000000475E-02 0. -1.
</event>
<event>
 4   0  0.2441219E-02  0.9118800E+02  0.7818609E-02  0.1379984E+01
      -11   -1    0    0    0    0  0.00000000000E+00  0.00000000000E+00  0.35740347158E-01  0.35744000000E-01  0.51099999109E-03 0.  1.
       11   -1    0    0    0    0 -0.00000000000E+00 -0.00000000000E+00 -0.35740347158E-01  0.35744000000E-01  0.51099999109E-03 0. -1.
       22    1    1    2    0    0  0.11138135125E-01  0.76972098446E-03  0.33948240903E-01  0.35737005818E-01  0.00000000000E+00 0.  1.
  9000001    1    1    2    0    0 -0.11138135125E-01 -0.76972098446E-03 -0.33948240903E-01  0.35750994182E-01  0.10000000475E-02 0. -1.
</event>
<event>
 4   0  0.2441219E-02  0.9118800E+02  0.7818609E-02  0.1379984E+01
      -11   -1    0    0    0    0  0.00000000000E+00  0.00000000000E+00  0.35740347158E-01  0.35744000000E-01  0.51099999109E-03 0.  1.
       11   -1    0    0    0    0 -0.00000000000E+00 -0.00000000000E+00 -0.35740347158E-01  0.35744000000E-01  0.51099999109E-03 0. -1.
       22    1    1    2    0    0  0.57673446694E-02  0.41318404930E-02 -0.35025693633E-01  0.35737005818E-01  0.00000000000E+00 0. -1.
  9000001    1    1    2    0    0 -0.57673446694E-02 -0.41318404930E-02  0.35025693633E-01  0.35750994182E-01  0.10000000475E-02 0.  1.
</event>
<event>
 4   0  0.2441219E-02  0.9118800E+02  0.7818609E-02  0.1379984E+01
      -11   -1    0    0    0    0  0.00000000000E+00  0.00000000000E+00  0.35740347158E-01  0.35744000000E-01  0.51099999109E-03 0.  1.
       11   -1    0    0    0    0 -0.00000000000E+00 -0.00000000000E+00 -0.35740347158E-01  0.35744000000E-01  0.51099999109E-03 0. -1.
       22    1    1    2    0    0  0.22388973380E-02 -0.26603759708E-02 -0.35567447523E-01  0.35737005818E-01  0.00000000000E+00 0. -1.
  9000001    1    1    2    0    0 -0.22388973380E-02  0.26603759708E-02  0.35567447523E-01  0.35750994182E-01  0.10000000475E-02 0.  1.
</event>
<event>
 4   0  0.2441219E-02  0.9118800E+02  0.7818609E-02  0.1379984E+01
      -11   -1    0    0    0    0  0.00000000000E+00  0.00000000000E+00  0.35740347158E-01  0.35744000000E-01  0.51099999109E-03 0.  1.
       11   -1    0    0    0    0 -0.00000000000E+00 -0.00000000000E+00 -0.35740347158E-01  0.35744000000E-01  0.51099999109E-03 0. -1.
       22    1    1    2    0    0  0.86866584698E-03  0.47495185520E-02  0.35409336029E-01  0.35737005818E-01  0.00000000000E+00 0.  1.
  9000001    1    1    2    0    0 -0.86866584698E-03 -0.47495185520E-02 -0.35409336029E-01  0.35750994182E-01  0.10000000475E-02 0. -1.
</event>
<event>
 4   0  0.2441219E-02  0.9118800E+02  0.7818609E-02  0.1379984E+01
      -11   -1    0    0    0    0  0.00000000000E+00  0.00000000000E+00  0.35740347158E-01  0.35744000000E-01  0.51099999109E-03 0.  1.
       11   -1    0    0    0    0 -0.00000000000E+00 -0.00000000000E+00 -0.35740347158E-01  0.35744000000E-01  0.51099999109E-03 0. -1.
       22    1    1    2    0    0  0.15306239525E-02 -0.10101444815E-01  0.34245460836E-01  0.35737005818E-01  0.00000000000E+00 0.  1.
  9000001    1    1    2    0    0 -0.15306239525E-02  0.10101444815E-01 -0.34245460836E-01  0.35750994182E-01  0.10000000475E-02 0. -1.
</event>
<event>
 4   0  0.2441219E-02  0.9118800E+02  0.7818609E-02  0.1379984E+01
      -11   -1    0    0    0    0  0.00000000000E+00  0.00000000000E+00  0.35740347158E-01  0.35744000000E-01  0.51099999109E-03 0.  1.
       11   -1    0    0    0    0 -0.00000000000E+00 -0.00000000000E+00 -0.35740347158E-01  0.35744000000E-01  0.51099999109E-03 0. -1.
       22    1    1    2    0    0 -0.14972639120E-02  0.87541936317E-02  0.34615832787E-01  0.35737005818E-01  0.00000000000E+00 0.  1.
  9000001    1    1    2    0    0  0.14972639120E-02 -0.87541936317E-02 -0.34615832787E-01  0.35750994182E-01  0.10000000475E-02 0. -1.
</event>
<event>
 4   0  0.2441219E-02  0.9118800E+02  0.7818609E-02  0.1379984E+01
      -11   -1    0    0    0    0  0.00000000000E+00  0.00000000000E+00  0.35740347158E-01  0.35744000000E-01  0.51099999109E-03 0.  1.
       11   -1    0    0    0    0 -0.00000000000E+00 -0.00000000000E+00 -0.35740347158E-01  0.35744000000E-01  0.51099999109E-03 0. -1.
       22    1    1    2    0    0  0.17980293745E-01  0.14539587708E-01  0.27247807453E-01  0.35737005818E-01  0.00000000000E+00 0.  1.
  9000001    1    1    2    0    0 -0.17980293745E-01 -0.14539587708E-01 -0.27247807453E-01  0.35750994182E-01  0.10000000475E-02 0. -1.
</event>
<event>
 4   0  0.2441219E-02  0.9118800E+02  0.7818609E-02  0.1379984E+01
      -11   -1    0    0    0    0  0.00000000000E+00  0.00000000000E+00  0.35740347158E-01  0.35744000000E-01  0.51099999109E-03 0. -1.
       11   -1    0    0    0    0 -0.00000000000E+00 -0.00000000000E+00 -0.35740347158E-01  0.35744000000E-01  0.51099999109E-03 0.  1.
       22    1    1    2    0    0 -0.41970163803E-02  0.61523129183E-02  0.34952363069E-01  0.35737005818E-01  0.00000000000E+00 0. -1.
  9000001    1    1    2    0    0  0.41970163803E-02 -0.61523129183E-02 -0.34952363069E-01  0.35750994182E-01  0.10000000475E-02 0.  1.
</event>
<event>
 4   0  0.2441219E-02  0.9118800E+02  0.7818609E-02  0.1379984E+01
      -11   -1    0    0    0    0  0.00000000000E+00  0.00000000000E+00  0.35740347158E-01  0.35744000000E-01  0.51099999109E-03 0.  1.
       11   -1    0    0    0    0 -0.00000000000E+00 -0.00000000000E+00 -0.35740347158E-01  0.35744000000E-01  0.51099999109E-03 0. -1.
       22    1    1    2    0    0 -0.15604078393E-02 -0.43677090139E-02  0.35434754553E-01  0.35737005818E-01  0.00000000000E+00 0.  1.
  9000001    1    1    2    0    0  0.15604078393E-02  0.43677090139E-02 -0.35434754553E-01  0.35750994182E-01  0.10000000475E-02 0. -1.
</event>
<event>
 4   0  0.2441219E-02  0.9118800E+02  0.7818609E-02  0.1379984E+01
      -11   -1    0    0    0    0  0.00000000000E+00  0.00000000000E+00  0.35740347158E-01  0.35744000000E-01  0.51099999109E-03 0.  1.
       11   -1    0    0    0    0 -0.00000000000E+00 -0.00000000000E+00 -0.35740347158E-01  0.35744000000E-01  0.51099999109E-03 0. -1.
       22    1    1    2    0    0  0.89035596796E-02 -0.45978362229E-02 -0.34303354238E-01  0.35737005818E-01  0.00000000000E+00 0. -1.
  9000001    1    1    2    0    0 -0.89035596796E-02  0.45978362229E-02  0.34303354238E-01  0.35750994182E-01  0.10000000475E-02 0.  1.
</event>
<event>
 4   0  0.2441219E-02  0.9118800E+02  0.7818609E-02  0.1379984E+01
      -11   -1    0    0    0    0  0.00000000000E+00  0.00000000000E+00  0.35740347158E-01  0.35744000000E-01  0.51099999109E-03 0. -1.
       11   -1    0    0    0    0 -0.00000000000E+00 -0.00000000000E+00 -0.35740347158E-01  0.35744000000E-01  0.51099999109E-03 0.  1.
       22    1    1    2    0    0 -0.22736189271E-02 -0.11665693787E-01  0.33702757014E-01  0.35737005818E-01  0.00000000000E+00 0. -1.
  9000001    1    1    2    0    0  0.22736189271E-02  0.11665693787E-01 -0.33702757014E-01  0.35750994182E-01  0.10000000475E-02 0.  1.
</event>
<event>
 4   0  0.2441219E-02  0.9118800E+02  0.7818609E-02  0.1379984E+01
      -11   -1    0    0    0    0  0.00000000000E+00  0.00000000000E+00  0.35740347158E-01  0.35744000000E-01  0.51099999109E-03 0. -1.
       11   -1    0    0    0    0 -0.00000000000E+00 -0.00000000000E+00 -0.35740347158E-01  0.35744000000E-01  0.51099999109E-03 0.  1.
       22    1    1    2    0    0 -0.35452375018E-02  0.22983243193E-02  0.35486371768E-01  0.35737005818E-01  0.00000000000E+00 0. -1.
  9000001    1    1    2    0    0  0.35452375018E-02 -0.22983243193E-02 -0.35486371768E-01  0.35750994182E-01  0.10000000475E-02 0.  1.
</event>
<event>
 4   0  0.2441219E-02  0.9118800E+02  0.7818609E-02  0.1379984E+01
      -11   -1    0    0    0    0  0.00000000000E+00  0.00000000000E+00  0.35740347158E-01  0.35744000000E-01  0.51099999109E-03 0.  1.
       11   -1    0    0    0    0 -0.00000000000E+00 -0.00000000000E+00 -0.35740347158E-01  0.35744000000E-01  0.51099999109E-03 0. -1.
       22    1    1    2    0    0  0.85101417272E-02 -0.13681683702E-01 -0.31898630123E-01  0.35737005818E-01  0.00000000000E+00 0. -1.
  9000001    1    1    2    0    0 -0.85101417272E-02  0.13681683702E-01  0.31898630123E-01  0.35750994182E-01  0.10000000475E-02 0.  1.
</event>
<event>
 4   0  0.2441219E-02  0.9118800E+02  0.7818609E-02  0.1379984E+01
      -11   -1    0    0    0    0  0.00000000000E+00  0.00000000000E+00  0.35740347158E-01  0.35744000000E-01  0.51099999109E-03 0.  1.
       11   -1    0    0    0    0 -0.00000000000E+00 -0.00000000000E+00 -0.35740347158E-01  0.35744000000E-01  0.51099999109E-03 0. -1.
       22    1    1    2    0    0 -0.64346071897E-02 -0.27173171487E-03 -0.35151892937E-01  0.35737005818E-01  0.00000000000E+00 0. -1.
  9000001    1    1    2    0    0  0.64346071897E-02  0.27173171487E-03  0.35151892937E-01  0.35750994182E-01  0.10000000475E-02 0.  1.
</event>
<event>
 4   0  0.2441219E-02  0.9118800E+02  0.7818609E-02  0.1379984E+01
      -11   -1    0    0    0    0  0.00000000000E+00  0.00000000000E+00  0.35740347158E-01  0.35744000000E-01  0.51099999109E-03 0.  1.
       11   -1    0    0    0    0 -0.00000000000E+00 -0.00000000000E+00 -0.35740347158E-01  0.35744000000E-01  0.51099999109E-03 0. -1.
       22    1    1    2    0    0  0.18004988455E-02 -0.47136649177E-02 -0.35378993087E-01  0.35737005818E-01  0.00000000000E+00 0. -1.
  9000001    1    1    2    0    0 -0.18004988455E-02  0.47136649177E-02  0.35378993087E-01  0.35750994182E-01  0.10000000475E-02 0.  1.
</event>
<event>
 4   0  0.2441219E-02  0.9118800E+02  0.7818609E-02  0.1379984E+01
      -11   -1    0    0    0    0  0.00000000000E+00  0.00000000000E+00  0.35740347158E-01  0.35744000000E-01  0.51099999109E-03 0. -1.
       11   -1    0    0    0    0 -0.00000000000E+00 -0.00000000000E+00 -0.35740347158E-01  0.35744000000E-01  0.51099999109E-03 0.  1.
       22    1    1    2    0    0 -0.30932178583E-01 -0.17868354154E-01 -0.10275372312E-02  0.35737005818E-01  0.00000000000E+00 0. -1.
  9000001    1    1    2    0    0  0.30932178583E-01  0.17868354154E-01  0.10275372312E-02  0.35750994182E-01  0.10000000475E-02 0.  1.
</event>
<event>
 4   0  0.2441219E-02  0.9118800E+02  0.7818609E-02  0.1379984E+01
      -11   -1    0    0    0    0  0.00000000000E+00  0.00000000000E+00  0.35740347158E-01  0.35744000000E-01  0.51099999109E-03 0. -1.
       11   -1    0    0    0    0 -0.00000000000E+00 -0.00000000000E+00 -0.35740347158E-01  0.35744000000E-01  0.51099999109E-03 0.  1.
       22    1    1    2    0    0  0.24411867713E-02  0.72800100235E-02 -0.34902373072E-01  0.35737005818E-01  0.00000000000E+00 0.  1.
  9000001    1    1    2    0    0 -0.24411867713E-02 -0.72800100235E-02  0.34902373072E-01  0.35750994182E-01  0.10000000475E-02 0. -1.
</event>
<event>
 4   0  0.2441219E-02  0.9118800E+02  0.7818609E-02  0.1379984E+01
      -11   -1    0    0    0    0  0.00000000000E+00  0.00000000000E+00  0.35740347158E-01  0.35744000000E-01  0.51099999109E-03 0.  1.
       11   -1    0    0    0    0 -0.00000000000E+00 -0.00000000000E+00 -0.35740347158E-01  0.35744000000E-01  0.51099999109E-03 0. -1.
       22    1    1    2    0    0 -0.21755294410E-02 -0.95416847571E-02 -0.34370872967E-01  0.35737005818E-01  0.00000000000E+00 0. -1.
  9000001    1    1    2    0    0  0.21755294410E-02  0.95416847571E-02  0.34370872967E-01  0.35750994182E-01  0.10000000475E-02 0.  1.
</event>
<event>
 4   0  0.2441219E-02  0.9118800E+02  0.7818609E-02  0.1379984E+01
      -11   -1    0    0    0    0  0.00000000000E+00  0.00000000000E+00  0.35740347158E-01  0.35744000000E-01  0.51099999109E-03 0.  1.
       11   -1    0    0    0    0 -0.00000000000E+00 -0.00000000000E+00 -0.35740347158E-01  0.35744000000E-01  0.51099999109E-03 0. -1.
       22    1    1    2    0    0 -0.78907727062E-02 -0.22155170970E-02 -0.34784490437E-01  0.35737005818E-01  0.00000000000E+00 0. -1.
  9000001    1    1    2    0    0  0.78907727062E-02  0.22155170970E-02  0.34784490437E-01  0.35750994182E-01  0.10000000475E-02 0.  1.
</event>
<event>
 4   0  0.2441219E-02  0.9118800E+02  0.7818609E-02  0.1379984E+01
      -11   -1    0    0    0    0  0.00000000000E+00  0.00000000000E+00  0.35740347158E-01  0.35744000000E-01  0.51099999109E-03 0. -1.
       11   -1    0    0    0    0 -0.00000000000E+00 -0.00000000000E+00 -0.35740347158E-01  0.35744000000E-01  0.51099999109E-03 0.  1.
       22    1    1    2    0    0  0.43213636914E-02 -0.12962237717E-02 -0.35451081854E-01  0.35737005818E-01  0.00000000000E+00 0.  1.
  9000001    1    1    2    0    0 -0.43213636914E-02  0.12962237717E-02  0.35451081854E-01  0.35750994182E-01  0.10000000475E-02 0. -1.
</event>
<event>
 4   0  0.2441219E-02  0.9118800E+02  0.7818609E-02  0.1379984E+01
      -11   -1    0    0    0    0  0.00000000000E+00  0.00000000000E+00  0.35740347158E-01  0.35744000000E-01  0.51099999109E-03 0.  1.
       11   -1    0    0    0    0 -0.00000000000E+00 -0.00000000000E+00 -0.35740347158E-01  0.35744000000E-01  0.51099999109E-03 0. -1.
       22    1    1    2    0    0  0.44478022587E-03 -0.32051154882E-02 -0.35590209189E-01  0.35737005818E-01  0.00000000000E+00 0. -1.
  9000001    1    1    2    0    0 -0.44478022587E-03  0.32051154882E-02  0.35590209189E-01  0.35750994182E-01  0.10000000475E-02 0.  1.
</event>
<event>
 4   0  0.2441219E-02  0.9118800E+02  0.7818609E-02  0.1379984E+01
      -11   -1    0    0    0    0  0.00000000000E+00  0.00000000000E+00  0.35740347158E-01  0.35744000000E-01  0.51099999109E-03 0.  1.
       11   -1    0    0    0    0 -0.00000000000E+00 -0.00000000000E+00 -0.35740347158E-01  0.35744000000E-01  0.51099999109E-03 0. -1.
       22    1    1    2    0    0 -0.31083565437E-03 -0.15379412642E-01 -0.32256947048E-01  0.35737005818E-01  0.00000000000E+00 0. -1.
  9000001    1    1    2    0    0  0.31083565437E-03  0.15379412642E-01  0.32256947048E-01  0.35750994182E-01  0.10000000475E-02 0.  1.
</event>
<event>
 4   0  0.2441219E-02  0.9118800E+02  0.7818609E-02  0.1379984E+01
      -11   -1    0    0    0    0  0.00000000000E+00  0.00000000000E+00  0.35740347158E-01  0.35744000000E-01  0.51099999109E-03 0.  1.
       11   -1    0    0    0    0 -0.00000000000E+00 -0.00000000000E+00 -0.35740347158E-01  0.35744000000E-01  0.51099999109E-03 0. -1.
       22    1    1    2    0    0 -0.18025859854E-02  0.70675611393E-02 -0.34984765944E-01  0.35737005818E-01  0.00000000000E+00 0. -1.
  9000001    1    1    2    0    0  0.18025859854E-02 -0.70675611393E-02  0.34984765944E-01  0.35750994182E-01  0.10000000475E-02 0.  1.
</event>
<event>
 4   0  0.2441219E-02  0.9118800E+02  0.7818609E-02  0.1379984E+01
      -11   -1    0    0    0    0  0.00000000000E+00  0.00000000000E+00  0.35740347158E-01  0.35744000000E-01  0.51099999109E-03 0. -1.
       11   -1    0    0    0    0 -0.00000000000E+00 -0.00000000000E+00 -0.35740347158E-01  0.35744000000E-01  0.51099999109E-03 0.  1.
       22    1    1    2    0    0  0.31098264868E-01 -0.86530610786E-02  0.15334798371E-01  0.35737005818E-01  0.00000000000E+00 0. -1.
  9000001    1    1    2    0    0 -0.31098264868E-01  0.86530610786E-02 -0.15334798371E-01  0.35750994182E-01  0.10000000475E-02 0.  1.
</event>
<event>
 4   0  0.2441219E-02  0.9118800E+02  0.7818609E-02  0.1379984E+01
      -11   -1    0    0    0    0  0.00000000000E+00  0.00000000000E+00  0.35740347158E-01  0.35744000000E-01  0.51099999109E-03 0. -1.
       11   -1    0    0    0    0 -0.00000000000E+00 -0.00000000000E+00 -0.35740347158E-01  0.35744000000E-01  0.51099999109E-03 0.  1.
       22    1    1    2    0    0 -0.70238161364E-02 -0.23615795151E-02 -0.34960299397E-01  0.35737005818E-01  0.00000000000E+00 0.  1.
  9000001    1    1    2    0    0  0.70238161364E-02  0.23615795151E-02  0.34960299397E-01  0.35750994182E-01  0.10000000475E-02 0. -1.
</event>
<event>
 4   0  0.2441219E-02  0.9118800E+02  0.7818609E-02  0.1379984E+01
      -11   -1    0    0    0    0  0.00000000000E+00  0.00000000000E+00  0.35740347158E-01  0.35744000000E-01  0.51099999109E-03 0. -1.
       11   -1    0    0    0    0 -0.00000000000E+00 -0.00000000000E+00 -0.35740347158E-01  0.35744000000E-01  0.51099999109E-03 0.  1.
       22    1    1    2    0    0  0.58459048813E-02 -0.11117808687E-01  0.33456737901E-01  0.35737005818E-01  0.00000000000E+00 0. -1.
  9000001    1    1    2    0    0 -0.58459048813E-02  0.11117808687E-01 -0.33456737901E-01  0.35750994182E-01  0.10000000475E-02 0.  1.
</event>
<event>
 4   0  0.2441219E-02  0.9118800E+02  0.7818609E-02  0.1379984E+01
      -11   -1    0    0    0    0  0.00000000000E+00  0.00000000000E+00  0.35740347158E-01  0.35744000000E-01  0.51099999109E-03 0. -1.
       11   -1    0    0    0    0 -0.00000000000E+00 -0.00000000000E+00 -0.35740347158E-01  0.35744000000E-01  0.51099999109E-03 0.  1.
       22    1    1    2    0    0  0.65535157545E-02  0.87339817821E-02 -0.34027967591E-01  0.35737005818E-01  0.00000000000E+00 0.  1.
  9000001    1    1    2    0    0 -0.65535157545E-02 -0.87339817821E-02  0.34027967591E-01  0.35750994182E-01  0.10000000475E-02 0. -1.
</event>
<event>
 4   0  0.2441219E-02  0.9118800E+02  0.7818609E-02  0.1379984E+01
      -11   -1    0    0    0    0  0.00000000000E+00  0.00000000000E+00  0.35740347158E-01  0.35744000000E-01  0.51099999109E-03 0. -1.
       11   -1    0    0    0    0 -0.00000000000E+00 -0.00000000000E+00 -0.35740347158E-01  0.35744000000E-01  0.51099999109E-03 0.  1.
       22    1    1    2    0    0 -0.11158877874E-01  0.32063018317E-01  0.11161356810E-01  0.35737005818E-01  0.00000000000E+00 0. -1.
  9000001    1    1    2    0    0  0.11158877874E-01 -0.32063018317E-01 -0.11161356810E-01  0.35750994182E-01  0.10000000475E-02 0.  1.
</event>
<event>
 4   0  0.2441219E-02  0.9118800E+02  0.7818609E-02  0.1379984E+01
      -11   -1    0    0    0    0  0.00000000000E+00  0.00000000000E+00  0.35740347158E-01  0.35744000000E-01  0.51099999109E-03 0.  1.
       11   -1    0    0    0    0 -0.00000000000E+00 -0.00000000000E+00 -0.35740347158E-01  0.35744000000E-01  0.51099999109E-03 0. -1.
       22    1    1    2    0    0  0.51516124332E-02  0.35332833998E-01  0.14782814038E-02  0.35737005818E-01  0.00000000000E+00 0.  1.
  9000001    1    1    2    0    0 -0.51516124332E-02 -0.35332833998E-01 -0.14782814038E-02  0.35750994182E-01  0.10000000475E-02 0. -1.
</event>
<event>
 4   0  0.2441219E-02  0.9118800E+02  0.7818609E-02  0.1379984E+01
      -11   -1    0    0    0    0  0.00000000000E+00  0.00000000000E+00  0.35740347158E-01  0.35744000000E-01  0.51099999109E-03 0. -1.
       11   -1    0    0    0    0 -0.00000000000E+00 -0.00000000000E+00 -0.35740347158E-01  0.35744000000E-01  0.51099999109E-03 0.  1.
       22    1    1    2    0    0 -0.47593256003E-02 -0.21883354752E-01 -0.27849617403E-01  0.35737005818E-01  0.00000000000E+00 0.  1.
  9000001    1    1    2    0    0  0.47593256003E-02  0.21883354752E-01  0.27849617403E-01  0.35750994182E-01  0.10000000475E-02 0. -1.
</event>
<event>
 4   0  0.2441219E-02  0.9118800E+02  0.7818609E-02  0.1379984E+01
      -11   -1    0    0    0    0  0.00000000000E+00  0.00000000000E+00  0.35740347158E-01  0.35744000000E-01  0.51099999109E-03 0.  1.
       11   -1    0    0    0    0 -0.00000000000E+00 -0.00000000000E+00 -0.35740347158E-01  0.35744000000E-01  0.51099999109E-03 0. -1.
       22    1    1    2    0    0  0.31879840143E-01  0.66211284512E-02  0.14729902760E-01  0.35737005818E-01  0.00000000000E+00 0.  1.
  9000001    1    1    2    0    0 -0.31879840143E-01 -0.66211284512E-02 -0.14729902760E-01  0.35750994182E-01  0.10000000475E-02 0. -1.
</event>
<event>
 4   0  0.2441219E-02  0.9118800E+02  0.7818609E-02  0.1379984E+01
      -11   -1    0    0    0    0  0.00000000000E+00  0.00000000000E+00  0.35740347158E-01  0.35744000000E-01  0.51099999109E-03 0.  1.
       11   -1    0    0    0    0 -0.00000000000E+00 -0.00000000000E+00 -0.35740347158E-01  0.35744000000E-01  0.51099999109E-03 0. -1.
       22    1    1    2    0    0 -0.36631343250E-02 -0.93716918190E-02 -0.34291200391E-01  0.35737005818E-01  0.00000000000E+00 0. -1.
  9000001    1    1    2    0    0  0.36631343250E-02  0.93716918190E-02  0.34291200391E-01  0.35750994182E-01  0.10000000475E-02 0.  1.
</event>
<event>
 4   0  0.2441219E-02  0.9118800E+02  0.7818609E-02  0.1379984E+01
      -11   -1    0    0    0    0  0.00000000000E+00  0.00000000000E+00  0.35740347158E-01  0.35744000000E-01  0.51099999109E-03 0.  1.
       11   -1    0    0    0    0 -0.00000000000E+00 -0.00000000000E+00 -0.35740347158E-01  0.35744000000E-01  0.51099999109E-03 0. -1.
       22    1    1    2    0    0 -0.10296353666E-01  0.27687676302E-02  0.34109421160E-01  0.35737005818E-01  0.00000000000E+00 0.  1.
  9000001    1    1    2    0    0  0.10296353666E-01 -0.27687676302E-02 -0.34109421160E-01  0.35750994182E-01  0.10000000475E-02 0. -1.
</event>
<event>
 4   0  0.2441219E-02  0.9118800E+02  0.7818609E-02  0.1379984E+01
      -11   -1    0    0    0    0  0.00000000000E+00  0.00000000000E+00  0.35740347158E-01  0.35744000000E-01  0.51099999109E-03 0.  1.
       11   -1    0    0    0    0 -0.00000000000E+00 -0.00000000000E+00 -0.35740347158E-01  0.35744000000E-01  0.51099999109E-03 0. -1.
       22    1    1    2    0    0 -0.59352500745E-02 -0.11097493080E-01  0.33447750878E-01  0.35737005818E-01  0.00000000000E+00 0.  1.
  9000001    1    1    2    0    0  0.59352500745E-02  0.11097493080E-01 -0.33447750878E-01  0.35750994182E-01  0.10000000475E-02 0. -1.
</event>
<event>
 4   0  0.2441219E-02  0.9118800E+02  0.7818609E-02  0.1379984E+01
      -11   -1    0    0    0    0  0.00000000000E+00  0.00000000000E+00  0.35740347158E-01  0.35744000000E-01  0.51099999109E-03 0. -1.
       11   -1    0    0    0    0 -0.00000000000E+00 -0.00000000000E+00 -0.35740347158E-01  0.35744000000E-01  0.51099999109E-03 0.  1.
       22    1    1    2    0    0  0.36185878291E-02  0.22916728963E-02 -0.35479397435E-01  0.35737005818E-01  0.00000000000E+00 0.  1.
  9000001    1    1    2    0    0 -0.36185878291E-02 -0.22916728963E-02  0.35479397435E-01  0.35750994182E-01  0.10000000475E-02 0. -1.
</event>
<event>
 4   0  0.2441219E-02  0.9118800E+02  0.7818609E-02  0.1379984E+01
      -11   -1    0    0    0    0  0.00000000000E+00  0.00000000000E+00  0.35740347158E-01  0.35744000000E-01  0.51099999109E-03 0. -1.
       11   -1    0    0    0    0 -0.00000000000E+00 -0.00000000000E+00 -0.35740347158E-01  0.35744000000E-01  0.51099999109E-03 0.  1.
       22    1    1    2    0    0  0.20489781815E-02  0.81576739611E-02  0.34733091265E-01  0.35737005818E-01  0.00000000000E+00 0. -1.
  9000001    1    1    2    0    0 -0.20489781815E-02 -0.81576739611E-02 -0.34733091265E-01  0.35750994182E-01  0.10000000475E-02 0.  1.
</event>
<event>
 4   0  0.2441219E-02  0.9118800E+02  0.7818609E-02  0.1379984E+01
      -11   -1    0    0    0    0  0.00000000000E+00  0.00000000000E+00  0.35740347158E-01  0.35744000000E-01  0.51099999109E-03 0. -1.
       11   -1    0    0    0    0 -0.00000000000E+00 -0.00000000000E+00 -0.35740347158E-01  0.35744000000E-01  0.51099999109E-03 0.  1.
       22    1    1    2    0    0 -0.54327548699E-02 -0.48349903491E-02 -0.34989164433E-01  0.35737005818E-01  0.00000000000E+00 0.  1.
  9000001    1    1    2    0    0  0.54327548699E-02  0.48349903491E-02  0.34989164433E-01  0.35750994182E-01  0.10000000475E-02 0. -1.
</event>
<event>
 4   0  0.2441219E-02  0.9118800E+02  0.7818609E-02  0.1379984E+01
      -11   -1    0    0    0    0  0.00000000000E+00  0.00000000000E+00  0.35740347158E-01  0.35744000000E-01  0.51099999109E-03 0.  1.
       11   -1    0    0    0    0 -0.00000000000E+00 -0.00000000000E+00 -0.35740347158E-01  0.35744000000E-01  0.51099999109E-03 0. -1.
       22    1    1    2    0    0  0.23550456650E-02 -0.22782675727E-02  0.35586469924E-01  0.35737005818E-01  0.00000000000E+00 0.  1.
  9000001    1    1    2    0    0 -0.23550456650E-02  0.22782675727E-02 -0.35586469924E-01  0.35750994182E-01  0.10000000475E-02 0. -1.
</event>
<event>
 4   0  0.2441219E-02  0.9118800E+02  0.7818609E-02  0.1379984E+01
      -11   -1    0    0    0    0  0.00000000000E+00  0.00000000000E+00  0.35740347158E-01  0.35744000000E-01  0.51099999109E-03 0.  1.
       11   -1    0    0    0    0 -0.00000000000E+00 -0.00000000000E+00 -0.35740347158E-01  0.35744000000E-01  0.51099999109E-03 0. -1.
       22    1    1    2    0    0  0.36091583829E-02 -0.20191703495E-01  0.29264358366E-01  0.35737005818E-01  0.00000000000E+00 0.  1.
  9000001    1    1    2    0    0 -0.36091583829E-02  0.20191703495E-01 -0.29264358366E-01  0.35750994182E-01  0.10000000475E-02 0. -1.
</event>
<event>
 4   0  0.2441219E-02  0.9118800E+02  0.7818609E-02  0.1379984E+01
      -11   -1    0    0    0    0  0.00000000000E+00  0.00000000000E+00  0.35740347158E-01  0.35744000000E-01  0.51099999109E-03 0. -1.
       11   -1    0    0    0    0 -0.00000000000E+00 -0.00000000000E+00 -0.35740347158E-01  0.35744000000E-01  0.51099999109E-03 0.  1.
       22    1    1    2    0    0  0.23738054633E-02 -0.26010790882E-02 -0.35563085075E-01  0.35737005818E-01  0.00000000000E+00 0.  1.
  9000001    1    1    2    0    0 -0.23738054633E-02  0.26010790882E-02  0.35563085075E-01  0.35750994182E-01  0.10000000475E-02 0. -1.
</event>
<event>
 4   0  0.2441219E-02  0.9118800E+02  0.7818609E-02  0.1379984E+01
      -11   -1    0    0    0    0  0.00000000000E+00  0.00000000000E+00  0.35740347158E-01  0.35744000000E-01  0.51099999109E-03 0.  1.
       11   -1    0    0    0    0 -0.00000000000E+00 -0.00000000000E+00 -0.35740347158E-01  0.35744000000E-01  0.51099999109E-03 0. -1.
       22    1    1    2    0    0 -0.13544832961E-02 -0.68278055337E-02  0.35052532454E-01  0.35737005818E-01  0.00000000000E+00 0.  1.
  9000001    1    1    2    0    0  0.13544832961E-02  0.68278055337E-02 -0.35052532454E-01  0.35750994182E-01  0.10000000475E-02 0. -1.
</event>
<event>
 4   0  0.2441219E-02  0.9118800E+02  0.7818609E-02  0.1379984E+01
      -11   -1    0    0    0    0  0.00000000000E+00  0.00000000000E+00  0.35740347158E-01  0.35744000000E-01  0.51099999109E-03 0. -1.
       11   -1    0    0    0    0 -0.00000000000E+00 -0.00000000000E+00 -0.35740347158E-01  0.35744000000E-01  0.51099999109E-03 0.  1.
       22    1    1    2    0    0 -0.21373941432E-02 -0.30662071764E-02  0.35541011588E-01  0.35737005818E-01  0.00000000000E+00 0. -1.
  9000001    1    1    2    0    0  0.21373941432E-02  0.30662071764E-02 -0.35541011588E-01  0.35750994182E-01  0.10000000475E-02 0.  1.
</event>
<event>
 4   0  0.2441219E-02  0.9118800E+02  0.7818609E-02  0.1379984E+01
      -11   -1    0    0    0    0  0.00000000000E+00  0.00000000000E+00  0.35740347158E-01  0.35744000000E-01  0.51099999109E-03 0.  1.
       11   -1    0    0    0    0 -0.00000000000E+00 -0.00000000000E+00 -0.35740347158E-01  0.35744000000E-01  0.51099999109E-03 0. -1.
       22    1    1    2    0    0  0.25452151192E-01  0.39992548888E-02 -0.24765450630E-01  0.35737005818E-01  0.00000000000E+00 0. -1.
  9000001    1    1    2    0    0 -0.25452151192E-01 -0.39992548888E-02  0.24765450630E-01  0.35750994182E-01  0.10000000475E-02 0.  1.
</event>
<event>
 4   0  0.2441219E-02  0.9118800E+02  0.7818609E-02  0.1379984E+01
      -11   -1    0    0    0    0  0.00000000000E+00  0.00000000000E+00  0.35740347158E-01  0.35744000000E-01  0.51099999109E-03 0.  1.
       11   -1    0    0    0    0 -0.00000000000E+00 -0.00000000000E+00 -0.35740347158E-01  0.35744000000E-01  0.51099999109E-03 0. -1.
       22    1    1    2    0    0  0.22977464257E-01  0.54593838059E-02 -0.26820977791E-01  0.35737005818E-01  0.00000000000E+00 0. -1.
  9000001    1    1    2    0    0 -0.22977464257E-01 -0.54593838059E-02  0.26820977791E-01  0.35750994182E-01  0.10000000475E-02 0.  1.
</event>
<event>
 4   0  0.2441219E-02  0.9118800E+02  0.7818609E-02  0.1379984E+01
      -11   -1    0    0    0    0  0.00000000000E+00  0.00000000000E+00  0.35740347158E-01  0.35744000000E-01  0.51099999109E-03 0. -1.
       11   -1    0    0    0    0 -0.00000000000E+00 -0.00000000000E+00 -0.35740347158E-01  0.35744000000E-01  0.51099999109E-03 0.  1.
       22    1    1    2    0    0  0.76107564543E-02 -0.31834552180E-02  0.34771764176E-01  0.35737005818E-01  0.00000000000E+00 0. -1.
  9000001    1    1    2    0    0 -0.76107564543E-02  0.31834552180E-02 -0.34771764176E-01  0.35750994182E-01  0.10000000475E-02 0.  1.
</event>
<event>
 4   0  0.2441219E-02  0.9118800E+02  0.7818609E-02  0.1379984E+01
      -11   -1    0    0    0    0  0.00000000000E+00  0.00000000000E+00  0.35740347158E-01  0.35744000000E-01  0.51099999109E-03 0.  1.
       11   -1    0    0    0    0 -0.00000000000E+00 -0.00000000000E+00 -0.35740347158E-01  0.35744000000E-01  0.51099999109E-03 0. -1.
       22    1    1    2    0    0  0.81488944952E-02 -0.21515745214E-02 -0.34728948018E-01  0.35737005818E-01  0.00000000000E+00 0. -1.
  9000001    1    1    2    0    0 -0.81488944952E-02  0.21515745214E-02  0.34728948018E-01  0.35750994182E-01  0.10000000475E-02 0.  1.
</event>
<event>
 4   0  0.2441219E-02  0.9118800E+02  0.7818609E-02  0.1379984E+01
      -11   -1    0    0    0    0  0.00000000000E+00  0.00000000000E+00  0.35740347158E-01  0.35744000000E-01  0.51099999109E-03 0. -1.
       11   -1    0    0    0    0 -0.00000000000E+00 -0.00000000000E+00 -0.35740347158E-01  0.35744000000E-01  0.51099999109E-03 0.  1.
       22    1    1    2    0    0  0.47564626170E-02  0.67241234049E-02 -0.34774930808E-01  0.35737005818E-01  0.00000000000E+00 0.  1.
  9000001    1    1    2    0    0 -0.47564626170E-02 -0.67241234049E-02  0.34774930808E-01  0.35750994182E-01  0.10000000475E-02 0. -1.
</event>
<event>
 4   0  0.2441219E-02  0.9118800E+02  0.7818609E-02  0.1379984E+01
      -11   -1    0    0    0    0  0.00000000000E+00  0.00000000000E+00  0.35740347158E-01  0.35744000000E-01  0.51099999109E-03 0. -1.
       11   -1    0    0    0    0 -0.00000000000E+00 -0.00000000000E+00 -0.35740347158E-01  0.35744000000E-01  0.51099999109E-03 0.  1.
       22    1    1    2    0    0  0.14128573940E-01  0.31795926656E-01 -0.81569621410E-02  0.35737005818E-01  0.00000000000E+00 0.  1.
  9000001    1    1    2    0    0 -0.14128573940E-01 -0.31795926656E-01  0.81569621410E-02  0.35750994182E-01  0.10000000475E-02 0. -1.
</event>
<event>
 4   0  0.2441219E-02  0.9118800E+02  0.7818609E-02  0.1379984E+01
      -11   -1    0    0    0    0  0.00000000000E+00  0.00000000000E+00  0.35740347158E-01  0.35744000000E-01  0.51099999109E-03 0. -1.
       11   -1    0    0    0    0 -0.00000000000E+00 -0.00000000000E+00 -0.35740347158E-01  0.35744000000E-01  0.51099999109E-03 0.  1.
       22    1    1    2    0    0  0.61497962924E-02  0.68252542704E-02 -0.34535916009E-01  0.35737005818E-01  0.00000000000E+00 0.  1.
  9000001    1    1    2    0    0 -0.61497962924E-02 -0.68252542704E-02  0.34535916009E-01  0.35750994182E-01  0.10000000475E-02 0. -1.
</event>
<event>
 4   0  0.2441219E-02  0.9118800E+02  0.7818609E-02  0.1379984E+01
      -11   -1    0    0    0    0  0.00000000000E+00  0.00000000000E+00  0.35740347158E-01  0.35744000000E-01  0.51099999109E-03 0.  1.
       11   -1    0    0    0    0 -0.00000000000E+00 -0.00000000000E+00 -0.35740347158E-01  0.35744000000E-01  0.51099999109E-03 0. -1.
       22    1    1    2    0    0  0.59217160846E-03 -0.90352248689E-02 -0.34570907266E-01  0.35737005818E-01  0.00000000000E+00 0. -1.
  9000001    1    1    2    0    0 -0.59217160846E-03  0.90352248689E-02  0.34570907266E-01  0.35750994182E-01  0.10000000475E-02 0.  1.
</event>
<event>
 4   0  0.2441219E-02  0.9118800E+02  0.7818609E-02  0.1379984E+01
      -11   -1    0    0    0    0  0.00000000000E+00  0.00000000000E+00  0.35740347158E-01  0.35744000000E-01  0.51099999109E-03 0. -1.
       11   -1    0    0    0    0 -0.00000000000E+00 -0.00000000000E+00 -0.35740347158E-01  0.35744000000E-01  0.51099999109E-03 0.  1.
       22    1    1    2    0    0  0.19698994164E-01 -0.36313443843E-03 -0.29815287139E-01  0.35737005818E-01  0.00000000000E+00 0.  1.
  9000001    1    1    2    0    0 -0.19698994164E-01  0.36313443843E-03  0.29815287139E-01  0.35750994182E-01  0.10000000475E-02 0. -1.
</event>
<event>
 4   0  0.2441219E-02  0.9118800E+02  0.7818609E-02  0.1379984E+01
      -11   -1    0    0    0    0  0.00000000000E+00  0.00000000000E+00  0.35740347158E-01  0.35744000000E-01  0.51099999109E-03 0.  1.
       11   -1    0    0    0    0 -0.00000000000E+00 -0.00000000000E+00 -0.35740347158E-01  0.35744000000E-01  0.51099999109E-03 0. -1.
       22    1    1    2    0    0 -0.34042598587E-02  0.12260058508E-01 -0.33395142837E-01  0.35737005818E-01  0.00000000000E+00 0. -1.
  9000001    1    1    2    0    0  0.34042598587E-02 -0.12260058508E-01  0.33395142837E-01  0.35750994182E-01  0.10000000475E-02 0.  1.
</event>
<event>
 4   0  0.2441219E-02  0.9118800E+02  0.7818609E-02  0.1379984E+01
      -11   -1    0    0    0    0  0.00000000000E+00  0.00000000000E+00  0.35740347158E-01  0.35744000000E-01  0.51099999109E-03 0. -1.
       11   -1    0    0    0    0 -0.00000000000E+00 -0.00000000000E+00 -0.35740347158E-01  0.35744000000E-01  0.51099999109E-03 0.  1.
       22    1    1    2    0    0  0.81992795726E-02 -0.15048940663E-01 -0.31359763779E-01  0.35737005818E-01  0.00000000000E+00 0.  1.
  9000001    1    1    2    0    0 -0.81992795726E-02  0.15048940663E-01  0.31359763779E-01  0.35750994182E-01  0.10000000475E-02 0. -1.
</event>
<event>
 4   0  0.2441219E-02  0.9118800E+02  0.7818609E-02  0.1379984E+01
      -11   -1    0    0    0    0  0.00000000000E+00  0.00000000000E+00  0.35740347158E-01  0.35744000000E-01  0.51099999109E-03 0.  1.
       11   -1    0    0    0    0 -0.00000000000E+00 -0.00000000000E+00 -0.35740347158E-01  0.35744000000E-01  0.51099999109E-03 0. -1.
       22    1    1    2    0    0  0.99759302817E-02  0.13554611614E-01  0.31525971894E-01  0.35737005818E-01  0.00000000000E+00 0.  1.
  9000001    1    1    2    0    0 -0.99759302817E-02 -0.13554611614E-01 -0.31525971894E-01  0.35750994182E-01  0.10000000475E-02 0. -1.
</event>
<event>
 4   0  0.2441219E-02  0.9118800E+02  0.7818609E-02  0.1379984E+01
      -11   -1    0    0    0    0  0.00000000000E+00  0.00000000000E+00  0.35740347158E-01  0.35744000000E-01  0.51099999109E-03 0. -1.
       11   -1    0    0    0    0 -0.00000000000E+00 -0.00000000000E+00 -0.35740347158E-01  0.35744000000E-01  0.51099999109E-03 0.  1.
       22    1    1    2    0    0 -0.86413428627E-02 -0.66657969158E-02 -0.34029809431E-01  0.35737005818E-01  0.00000000000E+00 0.  1.
  9000001    1    1    2    0    0  0.86413428627E-02  0.66657969158E-02  0.34029809431E-01  0.35750994182E-01  0.10000000475E-02 0. -1.
</event>
<event>
 4   0  0.2441219E-02  0.9118800E+02  0.7818609E-02  0.1379984E+01
      -11   -1    0    0    0    0  0.00000000000E+00  0.00000000000E+00  0.35740347158E-01  0.35744000000E-01  0.51099999109E-03 0. -1.
       11   -1    0    0    0    0 -0.00000000000E+00 -0.00000000000E+00 -0.35740347158E-01  0.35744000000E-01  0.51099999109E-03 0.  1.
       22    1    1    2    0    0 -0.55622602577E-02 -0.11332649891E-01  0.33433006029E-01  0.35737005818E-01  0.00000000000E+00 0. -1.
  9000001    1    1    2    0    0  0.55622602577E-02  0.11332649891E-01 -0.33433006029E-01  0.35750994182E-01  0.10000000475E-02 0.  1.
</event>
<event>
 4   0  0.2441219E-02  0.9118800E+02  0.7818609E-02  0.1379984E+01
      -11   -1    0    0    0    0  0.00000000000E+00  0.00000000000E+00  0.35740347158E-01  0.35744000000E-01  0.51099999109E-03 0.  1.
       11   -1    0    0    0    0 -0.00000000000E+00 -0.00000000000E+00 -0.35740347158E-01  0.35744000000E-01  0.51099999109E-03 0. -1.
       22    1    1    2    0    0 -0.43971081390E-02 -0.45880447495E-02 -0.35167440485E-01  0.35737005818E-01  0.00000000000E+00 0. -1.
  9000001    1    1    2    0    0  0.43971081390E-02  0.45880447495E-02  0.35167440485E-01  0.35750994182E-01  0.10000000475E-02 0.  1.
</event>
<event>
 4   0  0.2441219E-02  0.9118800E+02  0.7818609E-02  0.1379984E+01
      -11   -1    0    0    0    0  0.00000000000E+00  0.00000000000E+00  0.35740347158E-01  0.35744000000E-01  0.51099999109E-03 0.  1.
       11   -1    0    0    0    0 -0.00000000000E+00 -0.00000000000E+00 -0.35740347158E-01  0.35744000000E-01  0.51099999109E-03 0. -1.
       22    1    1    2    0    0  0.23905261869E-02 -0.77945166416E-02 -0.34794604176E-01  0.35737005818E-01  0.00000000000E+00 0. -1.
  9000001    1    1    2    0    0 -0.23905261869E-02  0.77945166416E-02  0.34794604176E-01  0.35750994182E-01  0.10000000475E-02 0.  1.
</event>
<event>
 4   0  0.2441219E-02  0.9118800E+02  0.7818609E-02  0.1379984E+01
      -11   -1    0    0    0    0  0.00000000000E+00  0.00000000000E+00  0.35740347158E-01  0.35744000000E-01  0.51099999109E-03 0.  1.
       11   -1    0    0    0    0 -0.00000000000E+00 -0.00000000000E+00 -0.35740347158E-01  0.35744000000E-01  0.51099999109E-03 0. -1.
       22    1    1    2    0    0  0.27141316280E-03  0.12352356380E-01  0.33533255309E-01  0.35737005818E-01  0.00000000000E+00 0.  1.
  9000001    1    1    2    0    0 -0.27141316280E-03 -0.12352356380E-01 -0.33533255309E-01  0.35750994182E-01  0.10000000475E-02 0. -1.
</event>
<event>
 4   0  0.2441219E-02  0.9118800E+02  0.7818609E-02  0.1379984E+01
      -11   -1    0    0    0    0  0.00000000000E+00  0.00000000000E+00  0.35740347158E-01  0.35744000000E-01  0.51099999109E-03 0. -1.
       11   -1    0    0    0    0 -0.00000000000E+00 -0.00000000000E+00 -0.35740347158E-01  0.35744000000E-01  0.51099999109E-03 0.  1.
       22    1    1    2    0    0  0.33773350165E-02 -0.53118877018E-02 -0.35178275144E-01  0.35737005818E-01  0.00000000000E+00 0.  1.
  9000001    1    1    2    0    0 -0.33773350165E-02  0.53118877018E-02  0.35178275144E-01  0.35750994182E-01  0.10000000475E-02 0. -1.
</event>
<event>
 4   0  0.2441219E-02  0.9118800E+02  0.7818609E-02  0.1379984E+01
      -11   -1    0    0    0    0  0.00000000000E+00  0.00000000000E+00  0.35740347158E-01  0.35744000000E-01  0.51099999109E-03 0. -1.
       11   -1    0    0    0    0 -0.00000000000E+00 -0.00000000000E+00 -0.35740347158E-01  0.35744000000E-01  0.51099999109E-03 0.  1.
       22    1    1    2    0    0 -0.59295302750E-02 -0.60149335902E-02 -0.34724556577E-01  0.35737005818E-01  0.00000000000E+00 0.  1.
  9000001    1    1    2    0    0  0.59295302750E-02  0.60149335902E-02  0.34724556577E-01  0.35750994182E-01  0.10000000475E-02 0. -1.
</event>
<event>
 4   0  0.2441219E-02  0.9118800E+02  0.7818609E-02  0.1379984E+01
      -11   -1    0    0    0    0  0.00000000000E+00  0.00000000000E+00  0.35740347158E-01  0.35744000000E-01  0.51099999109E-03 0. -1.
       11   -1    0    0    0    0 -0.00000000000E+00 -0.00000000000E+00 -0.35740347158E-01  0.35744000000E-01  0.51099999109E-03 0.  1.
       22    1    1    2    0    0  0.19172831388E-02 -0.28571397453E-02  0.35570976409E-01  0.35737005818E-01  0.00000000000E+00 0. -1.
  9000001    1    1    2    0    0 -0.19172831388E-02  0.28571397453E-02 -0.35570976409E-01  0.35750994182E-01  0.10000000475E-02 0.  1.
</event>
<event>
 4   0  0.2441219E-02  0.9118800E+02  0.7818609E-02  0.1379984E+01
      -11   -1    0    0    0    0  0.00000000000E+00  0.00000000000E+00  0.35740347158E-01  0.35744000000E-01  0.51099999109E-03 0. -1.
       11   -1    0    0    0    0 -0.00000000000E+00 -0.00000000000E+00 -0.35740347158E-01  0.35744000000E-01  0.51099999109E-03 0.  1.
       22    1    1    2    0    0  0.83801456039E-02 -0.79164602137E-02 -0.33826563559E-01  0.35737005818E-01  0.00000000000E+00 0.  1.
  9000001    1    1    2    0    0 -0.83801456039E-02  0.79164602137E-02  0.33826563559E-01  0.35750994182E-01  0.10000000475E-02 0. -1.
</event>
<event>
 4   0  0.2441219E-02  0.9118800E+02  0.7818609E-02  0.1379984E+01
      -11   -1    0    0    0    0  0.00000000000E+00  0.00000000000E+00  0.35740347158E-01  0.35744000000E-01  0.51099999109E-03 0. -1.
       11   -1    0    0    0    0 -0.00000000000E+00 -0.00000000000E+00 -0.35740347158E-01  0.35744000000E-01  0.51099999109E-03 0.  1.
       22    1    1    2    0    0 -0.19013852390E-01  0.22191618101E-01 -0.20570344874E-01  0.35737005818E-01  0.00000000000E+00 0.  1.
  9000001    1    1    2    0    0  0.19013852390E-01 -0.22191618101E-01  0.20570344874E-01  0.35750994182E-01  0.10000000475E-02 0. -1.
</event>
<event>
 4   0  0.2441219E-02  0.9118800E+02  0.7818609E-02  0.1379984E+01
      -11   -1    0    0    0    0  0.00000000000E+00  0.00000000000E+00  0.35740347158E-01  0.35744000000E-01  0.51099999109E-03 0.  1.
       11   -1    0    0    0    0 -0.00000000000E+00 -0.00000000000E+00 -0.35740347158E-01  0.35744000000E-01  0.51099999109E-03 0. -1.
       22    1    1    2    0    0  0.31883155988E-01 -0.32370285394E-02 -0.15815169787E-01  0.35737005818E-01  0.00000000000E+00 0. -1.
  9000001    1    1    2    0    0 -0.31883155988E-01  0.32370285394E-02  0.15815169787E-01  0.35750994182E-01  0.10000000475E-02 0.  1.
</event>
<event>
 4   0  0.2441219E-02  0.9118800E+02  0.7818609E-02  0.1379984E+01
      -11   -1    0    0    0    0  0.00000000000E+00  0.00000000000E+00  0.35740347158E-01  0.35744000000E-01  0.51099999109E-03 0. -1.
       11   -1    0    0    0    0 -0.00000000000E+00 -0.00000000000E+00 -0.35740347158E-01  0.35744000000E-01  0.51099999109E-03 0.  1.
       22    1    1    2    0    0  0.12542390854E-01  0.17576316958E-02  0.33417551487E-01  0.35737005818E-01  0.00000000000E+00 0. -1.
  9000001    1    1    2    0    0 -0.12542390854E-01 -0.17576316958E-02 -0.33417551487E-01  0.35750994182E-01  0.10000000475E-02 0.  1.
</event>
<event>
 4   0  0.2441219E-02  0.9118800E+02  0.7818609E-02  0.1379984E+01
      -11   -1    0    0    0    0  0.00000000000E+00  0.00000000000E+00  0.35740347158E-01  0.35744000000E-01  0.51099999109E-03 0.  1.
       11   -1    0    0    0    0 -0.00000000000E+00 -0.00000000000E+00 -0.35740347158E-01  0.35744000000E-01  0.51099999109E-03 0. -1.
       22    1    1    2    0    0  0.24754281241E-01  0.87763914747E-02  0.24234976745E-01  0.35737005818E-01  0.00000000000E+00 0. -1.
  9000001    1    1    2    0    0 -0.24754281241E-01 -0.87763914747E-02 -0.24234976745E-01  0.35750994182E-01  0.10000000475E-02 0.  1.
</event>
<event>
 4   0  0.2441219E-02  0.9118800E+02  0.7818609E-02  0.1379984E+01
      -11   -1    0    0    0    0  0.00000000000E+00  0.00000000000E+00  0.35740347158E-01  0.35744000000E-01  0.51099999109E-03 0. -1.
       11   -1    0    0    0    0 -0.00000000000E+00 -0.00000000000E+00 -0.35740347158E-01  0.35744000000E-01  0.51099999109E-03 0.  1.
       22    1    1    2    0    0  0.58705370397E-02  0.32382461821E-01 -0.13930059086E-01  0.35737005818E-01  0.00000000000E+00 0.  1.
  9000001    1    1    2    0    0 -0.58705370397E-02 -0.32382461821E-01  0.13930059086E-01  0.35750994182E-01  0.10000000475E-02 0. -1.
</event>
<event>
 4   0  0.2441219E-02  0.9118800E+02  0.7818609E-02  0.1379984E+01
      -11   -1    0    0    0    0  0.00000000000E+00  0.00000000000E+00  0.35740347158E-01  0.35744000000E-01  0.51099999109E-03 0. -1.
       11   -1    0    0    0    0 -0.00000000000E+00 -0.00000000000E+00 -0.35740347158E-01  0.35744000000E-01  0.51099999109E-03 0.  1.
       22    1    1    2    0    0  0.12016483779E-01  0.23093296453E-02  0.33576847664E-01  0.35737005818E-01  0.00000000000E+00 0. -1.
  9000001    1    1    2    0    0 -0.12016483779E-01 -0.23093296453E-02 -0.33576847664E-01  0.35750994182E-01  0.10000000475E-02 0.  1.
</event>
<event>
 4   0  0.2441219E-02  0.9118800E+02  0.7818609E-02  0.1379984E+01
      -11   -1    0    0    0    0  0.00000000000E+00  0.00000000000E+00  0.35740347158E-01  0.35744000000E-01  0.51099999109E-03 0. -1.
       11   -1    0    0    0    0 -0.00000000000E+00 -0.00000000000E+00 -0.35740347158E-01  0.35744000000E-01  0.51099999109E-03 0.  1.
       22    1    1    2    0    0 -0.19181385702E-01 -0.63729285438E-02  0.29471915601E-01  0.35737005818E-01  0.00000000000E+00 0. -1.
  9000001    1    1    2    0    0  0.19181385702E-01  0.63729285438E-02 -0.29471915601E-01  0.35750994182E-01  0.10000000475E-02 0.  1.
</event>
<event>
 4   0  0.2441219E-02  0.9118800E+02  0.7818609E-02  0.1379984E+01
      -11   -1    0    0    0    0  0.00000000000E+00  0.00000000000E+00  0.35740347158E-01  0.35744000000E-01  0.51099999109E-03 0.  1.
       11   -1    0    0    0    0 -0.00000000000E+00 -0.00000000000E+00 -0.35740347158E-01  0.35744000000E-01  0.51099999109E-03 0. -1.
       22    1    1    2    0    0  0.27462873960E-02  0.53247672591E-02  0.35231212639E-01  0.35737005818E-01  0.00000000000E+00 0.  1.
  9000001    1    1    2    0    0 -0.27462873960E-02 -0.53247672591E-02 -0.35231212639E-01  0.35750994182E-01  0.10000000475E-02 0. -1.
</event>
<event>
 4   0  0.2441219E-02  0.9118800E+02  0.7818609E-02  0.1379984E+01
      -11   -1    0    0    0    0  0.00000000000E+00  0.00000000000E+00  0.35740347158E-01  0.35744000000E-01  0.51099999109E-03 0.  1.
       11   -1    0    0    0    0 -0.00000000000E+00 -0.00000000000E+00 -0.35740347158E-01  0.35744000000E-01  0.51099999109E-03 0. -1.
       22    1    1    2    0    0  0.15140671095E-01  0.32558652247E-02  0.32207033476E-01  0.35737005818E-01  0.00000000000E+00 0.  1.
  9000001    1    1    2    0    0 -0.15140671095E-01 -0.32558652247E-02 -0.32207033476E-01  0.35750994182E-01  0.10000000475E-02 0. -1.
</event>
<event>
 4   0  0.2441219E-02  0.9118800E+02  0.7818609E-02  0.1379984E+01
      -11   -1    0    0    0    0  0.00000000000E+00  0.00000000000E+00  0.35740347158E-01  0.35744000000E-01  0.51099999109E-03 0. -1.
       11   -1    0    0    0    0 -0.00000000000E+00 -0.00000000000E+00 -0.35740347158E-01  0.35744000000E-01  0.51099999109E-03 0.  1.
       22    1    1    2    0    0  0.33727114891E-01  0.69241433550E-02  0.95745258255E-02  0.35737005818E-01  0.00000000000E+00 0. -1.
  9000001    1    1    2    0    0 -0.33727114891E-01 -0.69241433550E-02 -0.95745258255E-02  0.35750994182E-01  0.10000000475E-02 0.  1.
</event>
<event>
 4   0  0.2441219E-02  0.9118800E+02  0.7818609E-02  0.1379984E+01
      -11   -1    0    0    0    0  0.00000000000E+00  0.00000000000E+00  0.35740347158E-01  0.35744000000E-01  0.51099999109E-03 0.  1.
       11   -1    0    0    0    0 -0.00000000000E+00 -0.00000000000E+00 -0.35740347158E-01  0.35744000000E-01  0.51099999109E-03 0. -1.
       22    1    1    2    0    0  0.18121416490E-01 -0.15248959705E-03 -0.30801373284E-01  0.35737005818E-01  0.00000000000E+00 0. -1.
  9000001    1    1    2    0    0 -0.18121416490E-01  0.15248959705E-03  0.30801373284E-01  0.35750994182E-01  0.10000000475E-02 0.  1.
</event>
<event>
 4   0  0.2441219E-02  0.9118800E+02  0.7818609E-02  0.1379984E+01
      -11   -1    0    0    0    0  0.00000000000E+00  0.00000000000E+00  0.35740347158E-01  0.35744000000E-01  0.51099999109E-03 0. -1.
       11   -1    0    0    0    0 -0.00000000000E+00 -0.00000000000E+00 -0.35740347158E-01  0.35744000000E-01  0.51099999109E-03 0.  1.
       22    1    1    2    0    0 -0.33627202056E-02  0.11086386187E-01  0.33807066406E-01  0.35737005818E-01  0.00000000000E+00 0. -1.
  9000001    1    1    2    0    0  0.33627202056E-02 -0.11086386187E-01 -0.33807066406E-01  0.35750994182E-01  0.10000000475E-02 0.  1.
</event>
<event>
 4   0  0.2441219E-02  0.9118800E+02  0.7818609E-02  0.1379984E+01
      -11   -1    0    0    0    0  0.00000000000E+00  0.00000000000E+00  0.35740347158E-01  0.35744000000E-01  0.51099999109E-03 0.  1.
       11   -1    0    0    0    0 -0.00000000000E+00 -0.00000000000E+00 -0.35740347158E-01  0.35744000000E-01  0.51099999109E-03 0. -1.
       22    1    1    2    0    0 -0.71486531294E-02  0.26500805100E-02 -0.34914286712E-01  0.35737005818E-01  0.00000000000E+00 0. -1.
  9000001    1    1    2    0    0  0.71486531294E-02 -0.26500805100E-02  0.34914286712E-01  0.35750994182E-01  0.10000000475E-02 0.  1.
</event>
<event>
 4   0  0.2441219E-02  0.9118800E+02  0.7818609E-02  0.1379984E+01
      -11   -1    0    0    0    0  0.00000000000E+00  0.00000000000E+00  0.35740347158E-01  0.35744000000E-01  0.51099999109E-03 0. -1.
       11   -1    0    0    0    0 -0.00000000000E+00 -0.00000000000E+00 -0.35740347158E-01  0.35744000000E-01  0.51099999109E-03 0.  1.
       22    1    1    2    0    0 -0.80600018913E-02 -0.65611173505E-02  0.34192421580E-01  0.35737005818E-01  0.00000000000E+00 0. -1.
  9000001    1    1    2    0    0  0.80600018913E-02  0.65611173505E-02 -0.34192421580E-01  0.35750994182E-01  0.10000000475E-02 0.  1.
</event>
<event>
 4   0  0.2441219E-02  0.9118800E+02  0.7818609E-02  0.1379984E+01
      -11   -1    0    0    0    0  0.00000000000E+00  0.00000000000E+00  0.35740347158E-01  0.35744000000E-01  0.51099999109E-03 0. -1.
       11   -1    0    0    0    0 -0.00000000000E+00 -0.00000000000E+00 -0.35740347158E-01  0.35744000000E-01  0.51099999109E-03 0.  1.
       22    1    1    2    0    0  0.32780216167E-03 -0.52686938308E-02  0.35344971296E-01  0.35737005818E-01  0.00000000000E+00 0. -1.
  9000001    1    1    2    0    0 -0.32780216167E-03  0.52686938308E-02 -0.35344971296E-01  0.35750994182E-01  0.10000000475E-02 0.  1.
</event>
<event>
 4   0  0.2441219E-02  0.9118800E+02  0.7818609E-02  0.1379984E+01
      -11   -1    0    0    0    0  0.00000000000E+00  0.00000000000E+00  0.35740347158E-01  0.35744000000E-01  0.51099999109E-03 0.  1.
       11   -1    0    0    0    0 -0.00000000000E+00 -0.00000000000E+00 -0.35740347158E-01  0.35744000000E-01  0.51099999109E-03 0. -1.
       22    1    1    2    0    0  0.22650990556E-02 -0.24714233455E-02  0.35579417896E-01  0.35737005818E-01  0.00000000000E+00 0.  1.
  9000001    1    1    2    0    0 -0.22650990556E-02  0.24714233455E-02 -0.35579417896E-01  0.35750994182E-01  0.10000000475E-02 0. -1.
</event>
<event>
 4   0  0.2441219E-02  0.9118800E+02  0.7818609E-02  0.1379984E+01
      -11   -1    0    0    0    0  0.00000000000E+00  0.00000000000E+00  0.35740347158E-01  0.35744000000E-01  0.51099999109E-03 0. -1.
       11   -1    0    0    0    0 -0.00000000000E+00 -0.00000000000E+00 -0.35740347158E-01  0.35744000000E-01  0.51099999109E-03 0.  1.
       22    1    1    2    0    0  0.34445645670E-02 -0.77701256794E-03  0.35562126079E-01  0.35737005818E-01  0.00000000000E+00 0. -1.
  9000001    1    1    2    0    0 -0.34445645670E-02  0.77701256794E-03 -0.35562126079E-01  0.35750994182E-01  0.10000000475E-02 0.  1.
</event>
<event>
 4   0  0.2441219E-02  0.9118800E+02  0.7818609E-02  0.1379984E+01
      -11   -1    0    0    0    0  0.00000000000E+00  0.00000000000E+00  0.35740347158E-01  0.35744000000E-01  0.51099999109E-03 0. -1.
       11   -1    0    0    0    0 -0.00000000000E+00 -0.00000000000E+00 -0.35740347158E-01  0.35744000000E-01  0.51099999109E-03 0.  1.
       22    1    1    2    0    0 -0.69221952386E-03 -0.30687197575E-01  0.18301648067E-01  0.35737005818E-01  0.00000000000E+00 0. -1.
  9000001    1    1    2    0    0  0.69221952386E-03  0.30687197575E-01 -0.18301648067E-01  0.35750994182E-01  0.10000000475E-02 0.  1.
</event>
<event>
 4   0  0.2441219E-02  0.9118800E+02  0.7818609E-02  0.1379984E+01
      -11   -1    0    0    0    0  0.00000000000E+00  0.00000000000E+00  0.35740347158E-01  0.35744000000E-01  0.51099999109E-03 0.  1.
       11   -1    0    0    0    0 -0.00000000000E+00 -0.00000000000E+00 -0.35740347158E-01  0.35744000000E-01  0.51099999109E-03 0. -1.
       22    1    1    2    0    0 -0.77343191691E-02 -0.31406489849E-02  0.34748384363E-01  0.35737005818E-01  0.00000000000E+00 0.  1.
  9000001    1    1    2    0    0  0.77343191691E-02  0.31406489849E-02 -0.34748384363E-01  0.35750994182E-01  0.10000000475E-02 0. -1.
</event>
<event>
 4   0  0.2441219E-02  0.9118800E+02  0.7818609E-02  0.1379984E+01
      -11   -1    0    0    0    0  0.00000000000E+00  0.00000000000E+00  0.35740347158E-01  0.35744000000E-01  0.51099999109E-03 0.  1.
       11   -1    0    0    0    0 -0.00000000000E+00 -0.00000000000E+00 -0.35740347158E-01  0.35744000000E-01  0.51099999109E-03 0. -1.
       22    1    1    2    0    0 -0.10339452078E-01 -0.52605540916E-02  0.33801714250E-01  0.35737005818E-01  0.00000000000E+00 0.  1.
  9000001    1    1    2    0    0  0.10339452078E-01  0.52605540916E-02 -0.33801714250E-01  0.35750994182E-01  0.10000000475E-02 0. -1.
</event>
<event>
 4   0  0.2441219E-02  0.9118800E+02  0.7818609E-02  0.1379984E+01
      -11   -1    0    0    0    0  0.00000000000E+00  0.00000000000E+00  0.35740347158E-01  0.35744000000E-01  0.51099999109E-03 0. -1.
       11   -1    0    0    0    0 -0.00000000000E+00 -0.00000000000E+00 -0.35740347158E-01  0.35744000000E-01  0.51099999109E-03 0.  1.
       22    1    1    2    0    0  0.42201346227E-02  0.23614205193E-02 -0.35408300464E-01  0.35737005818E-01  0.00000000000E+00 0.  1.
  9000001    1    1    2    0    0 -0.42201346227E-02 -0.23614205193E-02  0.35408300464E-01  0.35750994182E-01  0.10000000475E-02 0. -1.
</event>
<event>
 4   0  0.2441219E-02  0.9118800E+02  0.7818609E-02  0.1379984E+01
      -11   -1    0    0    0    0  0.00000000000E+00  0.00000000000E+00  0.35740347158E-01  0.35744000000E-01  0.51099999109E-03 0. -1.
       11   -1    0    0    0    0 -0.00000000000E+00 -0.00000000000E+00 -0.35740347158E-01  0.35744000000E-01  0.51099999109E-03 0.  1.
       22    1    1    2    0    0 -0.54055985732E-03 -0.37075927515E-02 -0.35540049745E-01  0.35737005818E-01  0.00000000000E+00 0.  1.
  9000001    1    1    2    0    0  0.54055985732E-03  0.37075927515E-02  0.35540049745E-01  0.35750994182E-01  0.10000000475E-02 0. -1.
</event>
<event>
 4   0  0.2441219E-02  0.9118800E+02  0.7818609E-02  0.1379984E+01
      -11   -1    0    0    0    0  0.00000000000E+00  0.00000000000E+00  0.35740347158E-01  0.35744000000E-01  0.51099999109E-03 0. -1.
       11   -1    0    0    0    0 -0.00000000000E+00 -0.00000000000E+00 -0.35740347158E-01  0.35744000000E-01  0.51099999109E-03 0. -1.
       22    1    1    2    0    0  0.54576884210E-02  0.64033035318E-02 -0.34732476529E-01  0.35737005818E-01  0.00000000000E+00 0. -1.
  9000001    1    1    2    0    0 -0.54576884210E-02 -0.64033035318E-02  0.34732476529E-01  0.35750994182E-01  0.10000000475E-02 0. -1.
</event>
<event>
 4   0  0.2441219E-02  0.9118800E+02  0.7818609E-02  0.1379984E+01
      -11   -1    0    0    0    0  0.00000000000E+00  0.00000000000E+00  0.35740347158E-01  0.35744000000E-01  0.51099999109E-03 0.  1.
       11   -1    0    0    0    0 -0.00000000000E+00 -0.00000000000E+00 -0.35740347158E-01  0.35744000000E-01  0.51099999109E-03 0. -1.
       22    1    1    2    0    0  0.31069911155E-01 -0.59391790308E-02  0.16628901290E-01  0.35737005818E-01  0.00000000000E+00 0.  1.
  9000001    1    1    2    0    0 -0.31069911155E-01  0.59391790308E-02 -0.16628901290E-01  0.35750994182E-01  0.10000000475E-02 0. -1.
</event>
<event>
 4   0  0.2441219E-02  0.9118800E+02  0.7818609E-02  0.1379984E+01
      -11   -1    0    0    0    0  0.00000000000E+00  0.00000000000E+00  0.35740347158E-01  0.35744000000E-01  0.51099999109E-03 0.  1.
       11   -1    0    0    0    0 -0.00000000000E+00 -0.00000000000E+00 -0.35740347158E-01  0.35744000000E-01  0.51099999109E-03 0. -1.
       22    1    1    2    0    0 -0.87029878305E-02 -0.60067476381E-05  0.34661095649E-01  0.35737005818E-01  0.00000000000E+00 0.  1.
  9000001    1    1    2    0    0  0.87029878305E-02  0.60067476381E-05 -0.34661095649E-01  0.35750994182E-01  0.10000000475E-02 0. -1.
</event>
<event>
 4   0  0.2441219E-02  0.9118800E+02  0.7818609E-02  0.1379984E+01
      -11   -1    0    0    0    0  0.00000000000E+00  0.00000000000E+00  0.35740347158E-01  0.35744000000E-01  0.51099999109E-03 0. -1.
       11   -1    0    0    0    0 -0.00000000000E+00 -0.00000000000E+00 -0.35740347158E-01  0.35744000000E-01  0.51099999109E-03 0.  1.
       22    1    1    2    0    0  0.22242052060E-01 -0.16604433596E-01 -0.22510386269E-01  0.35737005818E-01  0.00000000000E+00 0.  1.
  9000001    1    1    2    0    0 -0.22242052060E-01  0.16604433596E-01  0.22510386269E-01  0.35750994182E-01  0.10000000475E-02 0. -1.
</event>
<event>
 4   0  0.2441219E-02  0.9118800E+02  0.7818609E-02  0.1379984E+01
      -11   -1    0    0    0    0  0.00000000000E+00  0.00000000000E+00  0.35740347158E-01  0.35744000000E-01  0.51099999109E-03 0.  1.
       11   -1    0    0    0    0 -0.00000000000E+00 -0.00000000000E+00 -0.35740347158E-01  0.35744000000E-01  0.51099999109E-03 0. -1.
       22    1    1    2    0    0 -0.43115131453E-02  0.32939166450E-02  0.35322720060E-01  0.35737005818E-01  0.00000000000E+00 0.  1.
  9000001    1    1    2    0    0  0.43115131453E-02 -0.32939166450E-02 -0.35322720060E-01  0.35750994182E-01  0.10000000475E-02 0. -1.
</event>
<event>
 4   0  0.2441219E-02  0.9118800E+02  0.7818609E-02  0.1379984E+01
      -11   -1    0    0    0    0  0.00000000000E+00  0.00000000000E+00  0.35740347158E-01  0.35744000000E-01  0.51099999109E-03 0. -1.
       11   -1    0    0    0    0 -0.00000000000E+00 -0.00000000000E+00 -0.35740347158E-01  0.35744000000E-01  0.51099999109E-03 0.  1.
       22    1    1    2    0    0  0.10641595136E-01 -0.17874887451E-03  0.34115364378E-01  0.35737005818E-01  0.00000000000E+00 0. -1.
  9000001    1    1    2    0    0 -0.10641595136E-01  0.17874887451E-03 -0.34115364378E-01  0.35750994182E-01  0.10000000475E-02 0.  1.
</event>
<event>
 4   0  0.2441219E-02  0.9118800E+02  0.7818609E-02  0.1379984E+01
      -11   -1    0    0    0    0  0.00000000000E+00  0.00000000000E+00  0.35740347158E-01  0.35744000000E-01  0.51099999109E-03 0.  1.
       11   -1    0    0    0    0 -0.00000000000E+00 -0.00000000000E+00 -0.35740347158E-01  0.35744000000E-01  0.51099999109E-03 0. -1.
       22    1    1    2    0    0  0.31172149631E-02  0.10250506030E-01 -0.34093161805E-01  0.35737005818E-01  0.00000000000E+00 0. -1.
  9000001    1    1    2    0    0 -0.31172149631E-02 -0.10250506030E-01  0.34093161805E-01  0.35750994182E-01  0.10000000475E-02 0.  1.
</event>
<event>
 4   0  0.2441219E-02  0.9118800E+02  0.7818609E-02  0.1379984E+01
      -11   -1    0    0    0    0  0.00000000000E+00  0.00000000000E+00  0.35740347158E-01  0.35744000000E-01  0.51099999109E-03 0. -1.
       11   -1    0    0    0    0 -0.00000000000E+00 -0.00000000000E+00 -0.35740347158E-01  0.35744000000E-01  0.51099999109E-03 0.  1.
       22    1    1    2    0    0 -0.22354878169E-02 -0.39536416343E-02 -0.35447212823E-01  0.35737005818E-01  0.00000000000E+00 0.  1.
  9000001    1    1    2    0    0  0.22354878169E-02  0.39536416343E-02  0.35447212823E-01  0.35750994182E-01  0.10000000475E-02 0. -1.
</event>
<event>
 4   0  0.2441219E-02  0.9118800E+02  0.7818609E-02  0.1379984E+01
      -11   -1    0    0    0    0  0.00000000000E+00  0.00000000000E+00  0.35740347158E-01  0.35744000000E-01  0.51099999109E-03 0. -1.
       11   -1    0    0    0    0 -0.00000000000E+00 -0.00000000000E+00 -0.35740347158E-01  0.35744000000E-01  0.51099999109E-03 0.  1.
       22    1    1    2    0    0  0.17999788909E-01 -0.24330291816E-01  0.19004685850E-01  0.35737005818E-01  0.00000000000E+00 0. -1.
  9000001    1    1    2    0    0 -0.17999788909E-01  0.24330291816E-01 -0.19004685850E-01  0.35750994182E-01  0.10000000475E-02 0.  1.
</event>
<event>
 4   0  0.2441219E-02  0.9118800E+02  0.7818609E-02  0.1379984E+01
      -11   -1    0    0    0    0  0.00000000000E+00  0.00000000000E+00  0.35740347158E-01  0.35744000000E-01  0.51099999109E-03 0. -1.
       11   -1    0    0    0    0 -0.00000000000E+00 -0.00000000000E+00 -0.35740347158E-01  0.35744000000E-01  0.51099999109E-03 0.  1.
       22    1    1    2    0    0 -0.41091412697E-02  0.86420934706E-03  0.35489458789E-01  0.35737005818E-01  0.00000000000E+00 0. -1.
  9000001    1    1    2    0    0  0.41091412697E-02 -0.86420934706E-03 -0.35489458789E-01  0.35750994182E-01  0.10000000475E-02 0.  1.
</event>
<event>
 4   0  0.2441219E-02  0.9118800E+02  0.7818609E-02  0.1379984E+01
      -11   -1    0    0    0    0  0.00000000000E+00  0.00000000000E+00  0.35740347158E-01  0.35744000000E-01  0.51099999109E-03 0. -1.
       11   -1    0    0    0    0 -0.00000000000E+00 -0.00000000000E+00 -0.35740347158E-01  0.35744000000E-01  0.51099999109E-03 0.  1.
       22    1    1    2    0    0  0.16754523941E-01  0.14056390884E-01  0.28263711499E-01  0.35737005818E-01  0.00000000000E+00 0. -1.
  9000001    1    1    2    0    0 -0.16754523941E-01 -0.14056390884E-01 -0.28263711499E-01  0.35750994182E-01  0.10000000475E-02 0.  1.
</event>
<event>
 4   0  0.2441219E-02  0.9118800E+02  0.7818609E-02  0.1379984E+01
      -11   -1    0    0    0    0  0.00000000000E+00  0.00000000000E+00  0.35740347158E-01  0.35744000000E-01  0.51099999109E-03 0.  1.
       11   -1    0    0    0    0 -0.00000000000E+00 -0.00000000000E+00 -0.35740347158E-01  0.35744000000E-01  0.51099999109E-03 0. -1.
       22    1    1    2    0    0 -0.16273556663E-01  0.56194319769E-02  0.31316559879E-01  0.35737005818E-01  0.00000000000E+00 0.  1.
  9000001    1    1    2    0    0  0.16273556663E-01 -0.56194319769E-02 -0.31316559879E-01  0.35750994182E-01  0.10000000475E-02 0. -1.
</event>
<event>
 4   0  0.2441219E-02  0.9118800E+02  0.7818609E-02  0.1379984E+01
      -11   -1    0    0    0    0  0.00000000000E+00  0.00000000000E+00  0.35740347158E-01  0.35744000000E-01  0.51099999109E-03 0.  1.
       11   -1    0    0    0    0 -0.00000000000E+00 -0.00000000000E+00 -0.35740347158E-01  0.35744000000E-01  0.51099999109E-03 0. -1.
       22    1    1    2    0    0  0.12173181377E-01 -0.28969913245E-01  0.17020322164E-01  0.35737005818E-01  0.00000000000E+00 0.  1.
  9000001    1    1    2    0    0 -0.12173181377E-01  0.28969913245E-01 -0.17020322164E-01  0.35750994182E-01  0.10000000475E-02 0. -1.
</event>
<event>
 4   0  0.2441219E-02  0.9118800E+02  0.7818609E-02  0.1379984E+01
      -11   -1    0    0    0    0  0.00000000000E+00  0.00000000000E+00  0.35740347158E-01  0.35744000000E-01  0.51099999109E-03 0. -1.
       11   -1    0    0    0    0 -0.00000000000E+00 -0.00000000000E+00 -0.35740347158E-01  0.35744000000E-01  0.51099999109E-03 0.  1.
       22    1    1    2    0    0 -0.33879355101E-02 -0.60794877436E-03  0.35570857118E-01  0.35737005818E-01  0.00000000000E+00 0. -1.
  9000001    1    1    2    0    0  0.33879355101E-02  0.60794877436E-03 -0.35570857118E-01  0.35750994182E-01  0.10000000475E-02 0.  1.
</event>
<event>
 4   0  0.2441219E-02  0.9118800E+02  0.7818609E-02  0.1379984E+01
      -11   -1    0    0    0    0  0.00000000000E+00  0.00000000000E+00  0.35740347158E-01  0.35744000000E-01  0.51099999109E-03 0. -1.
       11   -1    0    0    0    0 -0.00000000000E+00 -0.00000000000E+00 -0.35740347158E-01  0.35744000000E-01  0.51099999109E-03 0.  1.
       22    1    1    2    0    0 -0.20356138149E-01 -0.19987990726E-01 -0.21523044656E-01  0.35737005818E-01  0.00000000000E+00 0.  1.
  9000001    1    1    2    0    0  0.20356138149E-01  0.19987990726E-01  0.21523044656E-01  0.35750994182E-01  0.10000000475E-02 0. -1.
</event>
<event>
 4   0  0.2441219E-02  0.9118800E+02  0.7818609E-02  0.1379984E+01
      -11   -1    0    0    0    0  0.00000000000E+00  0.00000000000E+00  0.35740347158E-01  0.35744000000E-01  0.51099999109E-03 0.  1.
       11   -1    0    0    0    0 -0.00000000000E+00 -0.00000000000E+00 -0.35740347158E-01  0.35744000000E-01  0.51099999109E-03 0. -1.
       22    1    1    2    0    0  0.47882201017E-02 -0.82839887240E-03 -0.35405088454E-01  0.35737005818E-01  0.00000000000E+00 0. -1.
  9000001    1    1    2    0    0 -0.47882201017E-02  0.82839887240E-03  0.35405088454E-01  0.35750994182E-01  0.10000000475E-02 0.  1.
</event>
<event>
 4   0  0.2441219E-02  0.9118800E+02  0.7818609E-02  0.1379984E+01
      -11   -1    0    0    0    0  0.00000000000E+00  0.00000000000E+00  0.35740347158E-01  0.35744000000E-01  0.51099999109E-03 0. -1.
       11   -1    0    0    0    0 -0.00000000000E+00 -0.00000000000E+00 -0.35740347158E-01  0.35744000000E-01  0.51099999109E-03 0.  1.
       22    1    1    2    0    0  0.15623310336E-01 -0.12788311989E-01  0.29487367388E-01  0.35737005818E-01  0.00000000000E+00 0. -1.
  9000001    1    1    2    0    0 -0.15623310336E-01  0.12788311989E-01 -0.29487367388E-01  0.35750994182E-01  0.10000000475E-02 0.  1.
</event>
<event>
 4   0  0.2441219E-02  0.9118800E+02  0.7818609E-02  0.1379984E+01
      -11   -1    0    0    0    0  0.00000000000E+00  0.00000000000E+00  0.35740347158E-01  0.35744000000E-01  0.51099999109E-03 0.  1.
       11   -1    0    0    0    0 -0.00000000000E+00 -0.00000000000E+00 -0.35740347158E-01  0.35744000000E-01  0.51099999109E-03 0. -1.
       22    1    1    2    0    0 -0.23839701103E-01 -0.19937891110E-01  0.17643206461E-01  0.35737005818E-01  0.00000000000E+00 0.  1.
  9000001    1    1    2    0    0  0.23839701103E-01  0.19937891110E-01 -0.17643206461E-01  0.35750994182E-01  0.10000000475E-02 0. -1.
</event>
<event>
 4   0  0.2441219E-02  0.9118800E+02  0.7818609E-02  0.1379984E+01
      -11   -1    0    0    0    0  0.00000000000E+00  0.00000000000E+00  0.35740347158E-01  0.35744000000E-01  0.51099999109E-03 0.  1.
       11   -1    0    0    0    0 -0.00000000000E+00 -0.00000000000E+00 -0.35740347158E-01  0.35744000000E-01  0.51099999109E-03 0. -1.
       22    1    1    2    0    0 -0.53458889806E-02  0.36648761871E-02  0.35144327258E-01  0.35737005818E-01  0.00000000000E+00 0.  1.
  9000001    1    1    2    0    0  0.53458889806E-02 -0.36648761871E-02 -0.35144327258E-01  0.35750994182E-01  0.10000000475E-02 0. -1.
</event>
<event>
 4   0  0.2441219E-02  0.9118800E+02  0.7818609E-02  0.1379984E+01
      -11   -1    0    0    0    0  0.00000000000E+00  0.00000000000E+00  0.35740347158E-01  0.35744000000E-01  0.51099999109E-03 0.  1.
       11   -1    0    0    0    0 -0.00000000000E+00 -0.00000000000E+00 -0.35740347158E-01  0.35744000000E-01  0.51099999109E-03 0. -1.
       22    1    1    2    0    0  0.37509499650E-02  0.36856784425E-02 -0.35347980616E-01  0.35737005818E-01  0.00000000000E+00 0. -1.
  9000001    1    1    2    0    0 -0.37509499650E-02 -0.36856784425E-02  0.35347980616E-01  0.35750994182E-01  0.10000000475E-02 0.  1.
</event>
<event>
 4   0  0.2441219E-02  0.9118800E+02  0.7818609E-02  0.1379984E+01
      -11   -1    0    0    0    0  0.00000000000E+00  0.00000000000E+00  0.35740347158E-01  0.35744000000E-01  0.51099999109E-03 0.  1.
       11   -1    0    0    0    0 -0.00000000000E+00 -0.00000000000E+00 -0.35740347158E-01  0.35744000000E-01  0.51099999109E-03 0. -1.
       22    1    1    2    0    0  0.32295719371E-03 -0.54683252972E-02  0.35314681111E-01  0.35737005818E-01  0.00000000000E+00 0.  1.
  9000001    1    1    2    0    0 -0.32295719371E-03  0.54683252972E-02 -0.35314681111E-01  0.35750994182E-01  0.10000000475E-02 0. -1.
</event>
<event>
 4   0  0.2441219E-02  0.9118800E+02  0.7818609E-02  0.1379984E+01
      -11   -1    0    0    0    0  0.00000000000E+00  0.00000000000E+00  0.35740347158E-01  0.35744000000E-01  0.51099999109E-03 0. -1.
       11   -1    0    0    0    0 -0.00000000000E+00 -0.00000000000E+00 -0.35740347158E-01  0.35744000000E-01  0.51099999109E-03 0.  1.
       22    1    1    2    0    0 -0.41260008570E-02  0.18527102696E-02 -0.35449642684E-01  0.35737005818E-01  0.00000000000E+00 0.  1.
  9000001    1    1    2    0    0  0.41260008570E-02 -0.18527102696E-02  0.35449642684E-01  0.35750994182E-01  0.10000000475E-02 0. -1.
</event>
<event>
 4   0  0.2441219E-02  0.9118800E+02  0.7818609E-02  0.1379984E+01
      -11   -1    0    0    0    0  0.00000000000E+00  0.00000000000E+00  0.35740347158E-01  0.35744000000E-01  0.51099999109E-03 0.  1.
       11   -1    0    0    0    0 -0.00000000000E+00 -0.00000000000E+00 -0.35740347158E-01  0.35744000000E-01  0.51099999109E-03 0. -1.
       22    1    1    2    0    0 -0.83792135250E-02 -0.15320944564E-01 -0.31179977922E-01  0.35737005818E-01  0.00000000000E+00 0. -1.
  9000001    1    1    2    0    0  0.83792135250E-02  0.15320944564E-01  0.31179977922E-01  0.35750994182E-01  0.10000000475E-02 0.  1.
</event>
<event>
 4   0  0.2441219E-02  0.9118800E+02  0.7818609E-02  0.1379984E+01
      -11   -1    0    0    0    0  0.00000000000E+00  0.00000000000E+00  0.35740347158E-01  0.35744000000E-01  0.51099999109E-03 0. -1.
       11   -1    0    0    0    0 -0.00000000000E+00 -0.00000000000E+00 -0.35740347158E-01  0.35744000000E-01  0.51099999109E-03 0.  1.
       22    1    1    2    0    0 -0.86448382106E-02  0.34590770424E-01 -0.24246564029E-02  0.35737005818E-01  0.00000000000E+00 0. -1.
  9000001    1    1    2    0    0  0.86448382106E-02 -0.34590770424E-01  0.24246564029E-02  0.35750994182E-01  0.10000000475E-02 0.  1.
</event>
<event>
 4   0  0.2441219E-02  0.9118800E+02  0.7818609E-02  0.1379984E+01
      -11   -1    0    0    0    0  0.00000000000E+00  0.00000000000E+00  0.35740347158E-01  0.35744000000E-01  0.51099999109E-03 0.  1.
       11   -1    0    0    0    0 -0.00000000000E+00 -0.00000000000E+00 -0.35740347158E-01  0.35744000000E-01  0.51099999109E-03 0. -1.
       22    1    1    2    0    0  0.69261877362E-02 -0.14538939016E-01 -0.31902676386E-01  0.35737005818E-01  0.00000000000E+00 0. -1.
  9000001    1    1    2    0    0 -0.69261877362E-02  0.14538939016E-01  0.31902676386E-01  0.35750994182E-01  0.10000000475E-02 0.  1.
</event>
<event>
 4   0  0.2441219E-02  0.9118800E+02  0.7818609E-02  0.1379984E+01
      -11   -1    0    0    0    0  0.00000000000E+00  0.00000000000E+00  0.35740347158E-01  0.35744000000E-01  0.51099999109E-03 0. -1.
       11   -1    0    0    0    0 -0.00000000000E+00 -0.00000000000E+00 -0.35740347158E-01  0.35744000000E-01  0.51099999109E-03 0.  1.
       22    1    1    2    0    0  0.30476040819E-02  0.27476087753E-02  0.35500652674E-01  0.35737005818E-01  0.00000000000E+00 0. -1.
  9000001    1    1    2    0    0 -0.30476040819E-02 -0.27476087753E-02 -0.35500652674E-01  0.35750994182E-01  0.10000000475E-02 0.  1.
</event>
<event>
 4   0  0.2441219E-02  0.9118800E+02  0.7818609E-02  0.1379984E+01
      -11   -1    0    0    0    0  0.00000000000E+00  0.00000000000E+00  0.35740347158E-01  0.35744000000E-01  0.51099999109E-03 0. -1.
       11   -1    0    0    0    0 -0.00000000000E+00 -0.00000000000E+00 -0.35740347158E-01  0.35744000000E-01  0.51099999109E-03 0.  1.
       22    1    1    2    0    0 -0.22654012768E-01  0.55857101582E-04  0.27639214359E-01  0.35737005818E-01  0.00000000000E+00 0. -1.
  9000001    1    1    2    0    0  0.22654012768E-01 -0.55857101582E-04 -0.27639214359E-01  0.35750994182E-01  0.10000000475E-02 0.  1.
</event>
<event>
 4   0  0.2441219E-02  0.9118800E+02  0.7818609E-02  0.1379984E+01
      -11   -1    0    0    0    0  0.00000000000E+00  0.00000000000E+00  0.35740347158E-01  0.35744000000E-01  0.51099999109E-03 0. -1.
       11   -1    0    0    0    0 -0.00000000000E+00 -0.00000000000E+00 -0.35740347158E-01  0.35744000000E-01  0.51099999109E-03 0.  1.
       22    1    1    2    0    0 -0.33875118526E-02  0.33844176034E-03 -0.35574482505E-01  0.35737005818E-01  0.00000000000E+00 0.  1.
  9000001    1    1    2    0    0  0.33875118526E-02 -0.33844176034E-03  0.35574482505E-01  0.35750994182E-01  0.10000000475E-02 0. -1.
</event>
<event>
 4   0  0.2441219E-02  0.9118800E+02  0.7818609E-02  0.1379984E+01
      -11   -1    0    0    0    0  0.00000000000E+00  0.00000000000E+00  0.35740347158E-01  0.35744000000E-01  0.51099999109E-03 0.  1.
       11   -1    0    0    0    0 -0.00000000000E+00 -0.00000000000E+00 -0.35740347158E-01  0.35744000000E-01  0.51099999109E-03 0. -1.
       22    1    1    2    0    0 -0.21015723104E-01  0.24952903994E-01 -0.14588541723E-01  0.35737005818E-01  0.00000000000E+00 0. -1.
  9000001    1    1    2    0    0  0.21015723104E-01 -0.24952903994E-01  0.14588541723E-01  0.35750994182E-01  0.10000000475E-02 0.  1.
</event>
<event>
 4   0  0.2441219E-02  0.9118800E+02  0.7818609E-02  0.1379984E+01
      -11   -1    0    0    0    0  0.00000000000E+00  0.00000000000E+00  0.35740347158E-01  0.35744000000E-01  0.51099999109E-03 0. -1.
       11   -1    0    0    0    0 -0.00000000000E+00 -0.00000000000E+00 -0.35740347158E-01  0.35744000000E-01  0.51099999109E-03 0.  1.
       22    1    1    2    0    0  0.45329672577E-02 -0.24413202433E-02  0.35364187368E-01  0.35737005818E-01  0.00000000000E+00 0. -1.
  9000001    1    1    2    0    0 -0.45329672577E-02  0.24413202433E-02 -0.35364187368E-01  0.35750994182E-01  0.10000000475E-02 0.  1.
</event>
<event>
 4   0  0.2441219E-02  0.9118800E+02  0.7818609E-02  0.1379984E+01
      -11   -1    0    0    0    0  0.00000000000E+00  0.00000000000E+00  0.35740347158E-01  0.35744000000E-01  0.51099999109E-03 0.  1.
       11   -1    0    0    0    0 -0.00000000000E+00 -0.00000000000E+00 -0.35740347158E-01  0.35744000000E-01  0.51099999109E-03 0. -1.
       22    1    1    2    0    0 -0.67319323013E-02  0.29586107555E-02 -0.34972293244E-01  0.35737005818E-01  0.00000000000E+00 0. -1.
  9000001    1    1    2    0    0  0.67319323013E-02 -0.29586107555E-02  0.34972293244E-01  0.35750994182E-01  0.10000000475E-02 0.  1.
</event>
<event>
 4   0  0.2441219E-02  0.9118800E+02  0.7818609E-02  0.1379984E+01
      -11   -1    0    0    0    0  0.00000000000E+00  0.00000000000E+00  0.35740347158E-01  0.35744000000E-01  0.51099999109E-03 0. -1.
       11   -1    0    0    0    0 -0.00000000000E+00 -0.00000000000E+00 -0.35740347158E-01  0.35744000000E-01  0.51099999109E-03 0.  1.
       22    1    1    2    0    0  0.64592258400E-02 -0.13605177510E-01  0.32408503997E-01  0.35737005818E-01  0.00000000000E+00 0. -1.
  9000001    1    1    2    0    0 -0.64592258400E-02  0.13605177510E-01 -0.32408503997E-01  0.35750994182E-01  0.10000000475E-02 0.  1.
</event>
<event>
 4   0  0.2441219E-02  0.9118800E+02  0.7818609E-02  0.1379984E+01
      -11   -1    0    0    0    0  0.00000000000E+00  0.00000000000E+00  0.35740347158E-01  0.35744000000E-01  0.51099999109E-03 0.  1.
       11   -1    0    0    0    0 -0.00000000000E+00 -0.00000000000E+00 -0.35740347158E-01  0.35744000000E-01  0.51099999109E-03 0. -1.
       22    1    1    2    0    0 -0.17215331086E-01 -0.92422411532E-02  0.29922348486E-01  0.35737005818E-01  0.00000000000E+00 0.  1.
  9000001    1    1    2    0    0  0.17215331086E-01  0.92422411532E-02 -0.29922348486E-01  0.35750994182E-01  0.10000000475E-02 0. -1.
</event>
<event>
 4   0  0.2441219E-02  0.9118800E+02  0.7818609E-02  0.1379984E+01
      -11   -1    0    0    0    0  0.00000000000E+00  0.00000000000E+00  0.35740347158E-01  0.35744000000E-01  0.51099999109E-03 0. -1.
       11   -1    0    0    0    0 -0.00000000000E+00 -0.00000000000E+00 -0.35740347158E-01  0.35744000000E-01  0.51099999109E-03 0.  1.
       22    1    1    2    0    0  0.14486650040E-01  0.11926073590E-02 -0.32647331333E-01  0.35737005818E-01  0.00000000000E+00 0.  1.
  9000001    1    1    2    0    0 -0.14486650040E-01 -0.11926073590E-02  0.32647331333E-01  0.35750994182E-01  0.10000000475E-02 0. -1.
</event>
<event>
 4   0  0.2441219E-02  0.9118800E+02  0.7818609E-02  0.1379984E+01
      -11   -1    0    0    0    0  0.00000000000E+00  0.00000000000E+00  0.35740347158E-01  0.35744000000E-01  0.51099999109E-03 0. -1.
       11   -1    0    0    0    0 -0.00000000000E+00 -0.00000000000E+00 -0.35740347158E-01  0.35744000000E-01  0.51099999109E-03 0.  1.
       22    1    1    2    0    0  0.18912033390E-01  0.36734446261E-03 -0.30320515101E-01  0.35737005818E-01  0.00000000000E+00 0.  1.
  9000001    1    1    2    0    0 -0.18912033390E-01 -0.36734446261E-03  0.30320515101E-01  0.35750994182E-01  0.10000000475E-02 0. -1.
</event>
<event>
 4   0  0.2441219E-02  0.9118800E+02  0.7818609E-02  0.1379984E+01
      -11   -1    0    0    0    0  0.00000000000E+00  0.00000000000E+00  0.35740347158E-01  0.35744000000E-01  0.51099999109E-03 0. -1.
       11   -1    0    0    0    0 -0.00000000000E+00 -0.00000000000E+00 -0.35740347158E-01  0.35744000000E-01  0.51099999109E-03 0.  1.
       22    1    1    2    0    0 -0.12532263557E-04 -0.37804396542E-02 -0.35536484123E-01  0.35737005818E-01  0.00000000000E+00 0.  1.
  9000001    1    1    2    0    0  0.12532263557E-04  0.37804396542E-02  0.35536484123E-01  0.35750994182E-01  0.10000000475E-02 0. -1.
</event>
<event>
 4   0  0.2441219E-02  0.9118800E+02  0.7818609E-02  0.1379984E+01
      -11   -1    0    0    0    0  0.00000000000E+00  0.00000000000E+00  0.35740347158E-01  0.35744000000E-01  0.51099999109E-03 0. -1.
       11   -1    0    0    0    0 -0.00000000000E+00 -0.00000000000E+00 -0.35740347158E-01  0.35744000000E-01  0.51099999109E-03 0.  1.
       22    1    1    2    0    0 -0.13417027236E-01  0.18884951975E-01  0.27211680469E-01  0.35737005818E-01  0.00000000000E+00 0. -1.
  9000001    1    1    2    0    0  0.13417027236E-01 -0.18884951975E-01 -0.27211680469E-01  0.35750994182E-01  0.10000000475E-02 0.  1.
</event>
<event>
 4   0  0.2441219E-02  0.9118800E+02  0.7818609E-02  0.1379984E+01
      -11   -1    0    0    0    0  0.00000000000E+00  0.00000000000E+00  0.35740347158E-01  0.35744000000E-01  0.51099999109E-03 0.  1.
       11   -1    0    0    0    0 -0.00000000000E+00 -0.00000000000E+00 -0.35740347158E-01  0.35744000000E-01  0.51099999109E-03 0. -1.
       22    1    1    2    0    0  0.31242462320E-02 -0.19150571798E-02  0.35548631849E-01  0.35737005818E-01  0.00000000000E+00 0.  1.
  9000001    1    1    2    0    0 -0.31242462320E-02  0.19150571798E-02 -0.35548631849E-01  0.35750994182E-01  0.10000000475E-02 0. -1.
</event>
<event>
 4   0  0.2441219E-02  0.9118800E+02  0.7818609E-02  0.1379984E+01
      -11   -1    0    0    0    0  0.00000000000E+00  0.00000000000E+00  0.35740347158E-01  0.35744000000E-01  0.51099999109E-03 0.  1.
       11   -1    0    0    0    0 -0.00000000000E+00 -0.00000000000E+00 -0.35740347158E-01  0.35744000000E-01  0.51099999109E-03 0. -1.
       22    1    1    2    0    0 -0.58761989471E-02 -0.88242728753E-03 -0.35239540191E-01  0.35737005818E-01  0.00000000000E+00 0. -1.
  9000001    1    1    2    0    0  0.58761989471E-02  0.88242728753E-03  0.35239540191E-01  0.35750994182E-01  0.10000000475E-02 0.  1.
</event>
<event>
 4   0  0.2441219E-02  0.9118800E+02  0.7818609E-02  0.1379984E+01
      -11   -1    0    0    0    0  0.00000000000E+00  0.00000000000E+00  0.35740347158E-01  0.35744000000E-01  0.51099999109E-03 0.  1.
       11   -1    0    0    0    0 -0.00000000000E+00 -0.00000000000E+00 -0.35740347158E-01  0.35744000000E-01  0.51099999109E-03 0. -1.
       22    1    1    2    0    0  0.99815461468E-02 -0.52623544251E-02  0.33908847626E-01  0.35737005818E-01  0.00000000000E+00 0.  1.
  9000001    1    1    2    0    0 -0.99815461468E-02  0.52623544251E-02 -0.33908847626E-01  0.35750994182E-01  0.10000000475E-02 0. -1.
</event>
<event>
 4   0  0.2441219E-02  0.9118800E+02  0.7818609E-02  0.1379984E+01
      -11   -1    0    0    0    0  0.00000000000E+00  0.00000000000E+00  0.35740347158E-01  0.35744000000E-01  0.51099999109E-03 0. -1.
       11   -1    0    0    0    0 -0.00000000000E+00 -0.00000000000E+00 -0.35740347158E-01  0.35744000000E-01  0.51099999109E-03 0.  1.
       22    1    1    2    0    0  0.30429939449E-01  0.18624492506E-01  0.20689729108E-02  0.35737005818E-01  0.00000000000E+00 0. -1.
  9000001    1    1    2    0    0 -0.30429939449E-01 -0.18624492506E-01 -0.20689729108E-02  0.35750994182E-01  0.10000000475E-02 0.  1.
</event>
<event>
 4   0  0.2441219E-02  0.9118800E+02  0.7818609E-02  0.1379984E+01
      -11   -1    0    0    0    0  0.00000000000E+00  0.00000000000E+00  0.35740347158E-01  0.35744000000E-01  0.51099999109E-03 0.  1.
       11   -1    0    0    0    0 -0.00000000000E+00 -0.00000000000E+00 -0.35740347158E-01  0.35744000000E-01  0.51099999109E-03 0. -1.
       22    1    1    2    0    0  0.69889648832E-02 -0.13707598204E-01  0.32255072566E-01  0.35737005818E-01  0.00000000000E+00 0.  1.
  9000001    1    1    2    0    0 -0.69889648832E-02  0.13707598204E-01 -0.32255072566E-01  0.35750994182E-01  0.10000000475E-02 0. -1.
</event>
<event>
 4   0  0.2441219E-02  0.9118800E+02  0.7818609E-02  0.1379984E+01
      -11   -1    0    0    0    0  0.00000000000E+00  0.00000000000E+00  0.35740347158E-01  0.35744000000E-01  0.51099999109E-03 0.  1.
       11   -1    0    0    0    0 -0.00000000000E+00 -0.00000000000E+00 -0.35740347158E-01  0.35744000000E-01  0.51099999109E-03 0. -1.
       22    1    1    2    0    0 -0.41257900723E-02  0.11546829886E-01  0.33567576033E-01  0.35737005818E-01  0.00000000000E+00 0.  1.
  9000001    1    1    2    0    0  0.41257900723E-02 -0.11546829886E-01 -0.33567576033E-01  0.35750994182E-01  0.10000000475E-02 0. -1.
</event>
<event>
 4   0  0.2441219E-02  0.9118800E+02  0.7818609E-02  0.1379984E+01
      -11   -1    0    0    0    0  0.00000000000E+00  0.00000000000E+00  0.35740347158E-01  0.35744000000E-01  0.51099999109E-03 0.  1.
       11   -1    0    0    0    0 -0.00000000000E+00 -0.00000000000E+00 -0.35740347158E-01  0.35744000000E-01  0.51099999109E-03 0. -1.
       22    1    1    2    0    0 -0.18632601130E-01  0.21819476800E-02 -0.30417081785E-01  0.35737005818E-01  0.00000000000E+00 0. -1.
  9000001    1    1    2    0    0  0.18632601130E-01 -0.21819476800E-02  0.30417081785E-01  0.35750994182E-01  0.10000000475E-02 0.  1.
</event>
<event>
 4   0  0.2441219E-02  0.9118800E+02  0.7818609E-02  0.1379984E+01
      -11   -1    0    0    0    0  0.00000000000E+00  0.00000000000E+00  0.35740347158E-01  0.35744000000E-01  0.51099999109E-03 0. -1.
       11   -1    0    0    0    0 -0.00000000000E+00 -0.00000000000E+00 -0.35740347158E-01  0.35744000000E-01  0.51099999109E-03 0.  1.
       22    1    1    2    0    0 -0.12756582428E-01  0.13552782638E-01 -0.30507790356E-01  0.35737005818E-01  0.00000000000E+00 0.  1.
  9000001    1    1    2    0    0  0.12756582428E-01 -0.13552782638E-01  0.30507790356E-01  0.35750994182E-01  0.10000000475E-02 0. -1.
</event>
<event>
 4   0  0.2441219E-02  0.9118800E+02  0.7818609E-02  0.1379984E+01
      -11   -1    0    0    0    0  0.00000000000E+00  0.00000000000E+00  0.35740347158E-01  0.35744000000E-01  0.51099999109E-03 0. -1.
       11   -1    0    0    0    0 -0.00000000000E+00 -0.00000000000E+00 -0.35740347158E-01  0.35744000000E-01  0.51099999109E-03 0.  1.
       22    1    1    2    0    0 -0.13114767186E-01 -0.71678535721E-02 -0.32461644162E-01  0.35737005818E-01  0.00000000000E+00 0.  1.
  9000001    1    1    2    0    0  0.13114767186E-01  0.71678535721E-02  0.32461644162E-01  0.35750994182E-01  0.10000000475E-02 0. -1.
</event>
<event>
 4   0  0.2441219E-02  0.9118800E+02  0.7818609E-02  0.1379984E+01
      -11   -1    0    0    0    0  0.00000000000E+00  0.00000000000E+00  0.35740347158E-01  0.35744000000E-01  0.51099999109E-03 0. -1.
       11   -1    0    0    0    0 -0.00000000000E+00 -0.00000000000E+00 -0.35740347158E-01  0.35744000000E-01  0.51099999109E-03 0.  1.
       22    1    1    2    0    0  0.62421073547E-02 -0.65231808466E-02 -0.34577706579E-01  0.35737005818E-01  0.00000000000E+00 0.  1.
  9000001    1    1    2    0    0 -0.62421073547E-02  0.65231808466E-02  0.34577706579E-01  0.35750994182E-01  0.10000000475E-02 0. -1.
</event>
<event>
 4   0  0.2441219E-02  0.9118800E+02  0.7818609E-02  0.1379984E+01
      -11   -1    0    0    0    0  0.00000000000E+00  0.00000000000E+00  0.35740347158E-01  0.35744000000E-01  0.51099999109E-03 0. -1.
       11   -1    0    0    0    0 -0.00000000000E+00 -0.00000000000E+00 -0.35740347158E-01  0.35744000000E-01  0.51099999109E-03 0.  1.
       22    1    1    2    0    0 -0.43567753934E-02 -0.26270746819E-01 -0.23832749624E-01  0.35737005818E-01  0.00000000000E+00 0.  1.
  9000001    1    1    2    0    0  0.43567753934E-02  0.26270746819E-01  0.23832749624E-01  0.35750994182E-01  0.10000000475E-02 0. -1.
</event>
<event>
 4   0  0.2441219E-02  0.9118800E+02  0.7818609E-02  0.1379984E+01
      -11   -1    0    0    0    0  0.00000000000E+00  0.00000000000E+00  0.35740347158E-01  0.35744000000E-01  0.51099999109E-03 0. -1.
       11   -1    0    0    0    0 -0.00000000000E+00 -0.00000000000E+00 -0.35740347158E-01  0.35744000000E-01  0.51099999109E-03 0.  1.
       22    1    1    2    0    0 -0.22271069210E-01 -0.18660251425E-01  0.20806923796E-01  0.35737005818E-01  0.00000000000E+00 0. -1.
  9000001    1    1    2    0    0  0.22271069210E-01  0.18660251425E-01 -0.20806923796E-01  0.35750994182E-01  0.10000000475E-02 0.  1.
</event>
<event>
 4   0  0.2441219E-02  0.9118800E+02  0.7818609E-02  0.1379984E+01
      -11   -1    0    0    0    0  0.00000000000E+00  0.00000000000E+00  0.35740347158E-01  0.35744000000E-01  0.51099999109E-03 0.  1.
       11   -1    0    0    0    0 -0.00000000000E+00 -0.00000000000E+00 -0.35740347158E-01  0.35744000000E-01  0.51099999109E-03 0. -1.
       22    1    1    2    0    0 -0.41703976979E-02  0.11103682650E-01 -0.33711268139E-01  0.35737005818E-01  0.00000000000E+00 0. -1.
  9000001    1    1    2    0    0  0.41703976979E-02 -0.11103682650E-01  0.33711268139E-01  0.35750994182E-01  0.10000000475E-02 0.  1.
</event>
<event>
 4   0  0.2441219E-02  0.9118800E+02  0.7818609E-02  0.1379984E+01
      -11   -1    0    0    0    0  0.00000000000E+00  0.00000000000E+00  0.35740347158E-01  0.35744000000E-01  0.51099999109E-03 0.  1.
       11   -1    0    0    0    0 -0.00000000000E+00 -0.00000000000E+00 -0.35740347158E-01  0.35744000000E-01  0.51099999109E-03 0. -1.
       22    1    1    2    0    0  0.17028853058E-01 -0.21995749297E-01  0.22435212530E-01  0.35737005818E-01  0.00000000000E+00 0.  1.
  9000001    1    1    2    0    0 -0.17028853058E-01  0.21995749297E-01 -0.22435212530E-01  0.35750994182E-01  0.10000000475E-02 0. -1.
</event>
<event>
 4   0  0.2441219E-02  0.9118800E+02  0.7818609E-02  0.1379984E+01
      -11   -1    0    0    0    0  0.00000000000E+00  0.00000000000E+00  0.35740347158E-01  0.35744000000E-01  0.51099999109E-03 0.  1.
       11   -1    0    0    0    0 -0.00000000000E+00 -0.00000000000E+00 -0.35740347158E-01  0.35744000000E-01  0.51099999109E-03 0. -1.
       22    1    1    2    0    0 -0.72874871848E-02  0.63581659825E-02 -0.34403485881E-01  0.35737005818E-01  0.00000000000E+00 0. -1.
  9000001    1    1    2    0    0  0.72874871848E-02 -0.63581659825E-02  0.34403485881E-01  0.35750994182E-01  0.10000000475E-02 0.  1.
</event>
<event>
 4   0  0.2441219E-02  0.9118800E+02  0.7818609E-02  0.1379984E+01
      -11   -1    0    0    0    0  0.00000000000E+00  0.00000000000E+00  0.35740347158E-01  0.35744000000E-01  0.51099999109E-03 0.  1.
       11   -1    0    0    0    0 -0.00000000000E+00 -0.00000000000E+00 -0.35740347158E-01  0.35744000000E-01  0.51099999109E-03 0. -1.
       22    1    1    2    0    0  0.40030598351E-02 -0.21801485626E-03  0.35511428672E-01  0.35737005818E-01  0.00000000000E+00 0.  1.
  9000001    1    1    2    0    0 -0.40030598351E-02  0.21801485626E-03 -0.35511428672E-01  0.35750994182E-01  0.10000000475E-02 0. -1.
</event>
<event>
 4   0  0.2441219E-02  0.9118800E+02  0.7818609E-02  0.1379984E+01
      -11   -1    0    0    0    0  0.00000000000E+00  0.00000000000E+00  0.35740347158E-01  0.35744000000E-01  0.51099999109E-03 0. -1.
       11   -1    0    0    0    0 -0.00000000000E+00 -0.00000000000E+00 -0.35740347158E-01  0.35744000000E-01  0.51099999109E-03 0.  1.
       22    1    1    2    0    0 -0.20972301810E-02 -0.13828015890E-01 -0.32886489429E-01  0.35737005818E-01  0.00000000000E+00 0.  1.
  9000001    1    1    2    0    0  0.20972301810E-02  0.13828015890E-01  0.32886489429E-01  0.35750994182E-01  0.10000000475E-02 0. -1.
</event>
<event>
 4   0  0.2441219E-02  0.9118800E+02  0.7818609E-02  0.1379984E+01
      -11   -1    0    0    0    0  0.00000000000E+00  0.00000000000E+00  0.35740347158E-01  0.35744000000E-01  0.51099999109E-03 0.  1.
       11   -1    0    0    0    0 -0.00000000000E+00 -0.00000000000E+00 -0.35740347158E-01  0.35744000000E-01  0.51099999109E-03 0. -1.
       22    1    1    2    0    0 -0.11035058862E-01  0.33328075921E-01 -0.66783543005E-02  0.35737005818E-01  0.00000000000E+00 0. -1.
  9000001    1    1    2    0    0  0.11035058862E-01 -0.33328075921E-01  0.66783543005E-02  0.35750994182E-01  0.10000000475E-02 0.  1.
</event>
<event>
 4   0  0.2441219E-02  0.9118800E+02  0.7818609E-02  0.1379984E+01
      -11   -1    0    0    0    0  0.00000000000E+00  0.00000000000E+00  0.35740347158E-01  0.35744000000E-01  0.51099999109E-03 0.  1.
       11   -1    0    0    0    0 -0.00000000000E+00 -0.00000000000E+00 -0.35740347158E-01  0.35744000000E-01  0.51099999109E-03 0. -1.
       22    1    1    2    0    0  0.49303552746E-02  0.34891957349E-01 -0.59478142275E-02  0.35737005818E-01  0.00000000000E+00 0. -1.
  9000001    1    1    2    0    0 -0.49303552746E-02 -0.34891957349E-01  0.59478142275E-02  0.35750994182E-01  0.10000000475E-02 0.  1.
</event>
<event>
 4   0  0.2441219E-02  0.9118800E+02  0.7818609E-02  0.1379984E+01
      -11   -1    0    0    0    0  0.00000000000E+00  0.00000000000E+00  0.35740347158E-01  0.35744000000E-01  0.51099999109E-03 0.  1.
       11   -1    0    0    0    0 -0.00000000000E+00 -0.00000000000E+00 -0.35740347158E-01  0.35744000000E-01  0.51099999109E-03 0. -1.
       22    1    1    2    0    0 -0.93001672644E-03  0.35896607950E-02  0.35544099217E-01  0.35737005818E-01  0.00000000000E+00 0.  1.
  9000001    1    1    2    0    0  0.93001672644E-03 -0.35896607950E-02 -0.35544099217E-01  0.35750994182E-01  0.10000000475E-02 0. -1.
</event>
<event>
 4   0  0.2441219E-02  0.9118800E+02  0.7818609E-02  0.1379984E+01
      -11   -1    0    0    0    0  0.00000000000E+00  0.00000000000E+00  0.35740347158E-01  0.35744000000E-01  0.51099999109E-03 0.  1.
       11   -1    0    0    0    0 -0.00000000000E+00 -0.00000000000E+00 -0.35740347158E-01  0.35744000000E-01  0.51099999109E-03 0. -1.
       22    1    1    2    0    0 -0.48162169862E-02  0.11607974747E-01 -0.33454335460E-01  0.35737005818E-01  0.00000000000E+00 0. -1.
  9000001    1    1    2    0    0  0.48162169862E-02 -0.11607974747E-01  0.33454335460E-01  0.35750994182E-01  0.10000000475E-02 0.  1.
</event>
<event>
 4   0  0.2441219E-02  0.9118800E+02  0.7818609E-02  0.1379984E+01
      -11   -1    0    0    0    0  0.00000000000E+00  0.00000000000E+00  0.35740347158E-01  0.35744000000E-01  0.51099999109E-03 0. -1.
       11   -1    0    0    0    0 -0.00000000000E+00 -0.00000000000E+00 -0.35740347158E-01  0.35744000000E-01  0.51099999109E-03 0.  1.
       22    1    1    2    0    0 -0.55226722216E-02  0.10912843942E-01  0.33578914716E-01  0.35737005818E-01  0.00000000000E+00 0. -1.
  9000001    1    1    2    0    0  0.55226722216E-02 -0.10912843942E-01 -0.33578914716E-01  0.35750994182E-01  0.10000000475E-02 0.  1.
</event>
<event>
 4   0  0.2441219E-02  0.9118800E+02  0.7818609E-02  0.1379984E+01
      -11   -1    0    0    0    0  0.00000000000E+00  0.00000000000E+00  0.35740347158E-01  0.35744000000E-01  0.51099999109E-03 0. -1.
       11   -1    0    0    0    0 -0.00000000000E+00 -0.00000000000E+00 -0.35740347158E-01  0.35744000000E-01  0.51099999109E-03 0.  1.
       22    1    1    2    0    0 -0.87352975364E-02  0.37475180662E-02 -0.34449735415E-01  0.35737005818E-01  0.00000000000E+00 0.  1.
  9000001    1    1    2    0    0  0.87352975364E-02 -0.37475180662E-02  0.34449735415E-01  0.35750994182E-01  0.10000000475E-02 0. -1.
</event>
<event>
 4   0  0.2441219E-02  0.9118800E+02  0.7818609E-02  0.1379984E+01
      -11   -1    0    0    0    0  0.00000000000E+00  0.00000000000E+00  0.35740347158E-01  0.35744000000E-01  0.51099999109E-03 0.  1.
       11   -1    0    0    0    0 -0.00000000000E+00 -0.00000000000E+00 -0.35740347158E-01  0.35744000000E-01  0.51099999109E-03 0.  1.
       22    1    1    2    0    0  0.17132557501E-02  0.53025552349E-02 -0.35299876028E-01  0.35737005818E-01  0.00000000000E+00 0.  1.
  9000001    1    1    2    0    0 -0.17132557501E-02 -0.53025552349E-02  0.35299876028E-01  0.35750994182E-01  0.10000000475E-02 0.  1.
</event>
<event>
 4   0  0.2441219E-02  0.9118800E+02  0.7818609E-02  0.1379984E+01
      -11   -1    0    0    0    0  0.00000000000E+00  0.00000000000E+00  0.35740347158E-01  0.35744000000E-01  0.51099999109E-03 0. -1.
       11   -1    0    0    0    0 -0.00000000000E+00 -0.00000000000E+00 -0.35740347158E-01  0.35744000000E-01  0.51099999109E-03 0.  1.
       22    1    1    2    0    0  0.28476176475E-02  0.65342972967E-02  0.35018960828E-01  0.35737005818E-01  0.00000000000E+00 0. -1.
  9000001    1    1    2    0    0 -0.28476176475E-02 -0.65342972967E-02 -0.35018960828E-01  0.35750994182E-01  0.10000000475E-02 0.  1.
</event>
<event>
 4   0  0.2441219E-02  0.9118800E+02  0.7818609E-02  0.1379984E+01
      -11   -1    0    0    0    0  0.00000000000E+00  0.00000000000E+00  0.35740347158E-01  0.35744000000E-01  0.51099999109E-03 0. -1.
       11   -1    0    0    0    0 -0.00000000000E+00 -0.00000000000E+00 -0.35740347158E-01  0.35744000000E-01  0.51099999109E-03 0.  1.
       22    1    1    2    0    0  0.17715218177E-01  0.18402743773E-01  0.24992872013E-01  0.35737005818E-01  0.00000000000E+00 0. -1.
  9000001    1    1    2    0    0 -0.17715218177E-01 -0.18402743773E-01 -0.24992872013E-01  0.35750994182E-01  0.10000000475E-02 0.  1.
</event>
<event>
 4   0  0.2441219E-02  0.9118800E+02  0.7818609E-02  0.1379984E+01
      -11   -1    0    0    0    0  0.00000000000E+00  0.00000000000E+00  0.35740347158E-01  0.35744000000E-01  0.51099999109E-03 0. -1.
       11   -1    0    0    0    0 -0.00000000000E+00 -0.00000000000E+00 -0.35740347158E-01  0.35744000000E-01  0.51099999109E-03 0.  1.
       22    1    1    2    0    0  0.55664519126E-02 -0.17036965561E-01  0.30917470829E-01  0.35737005818E-01  0.00000000000E+00 0. -1.
  9000001    1    1    2    0    0 -0.55664519126E-02  0.17036965561E-01 -0.30917470829E-01  0.35750994182E-01  0.10000000475E-02 0.  1.
</event>
<event>
 4   0  0.2441219E-02  0.9118800E+02  0.7818609E-02  0.1379984E+01
      -11   -1    0    0    0    0  0.00000000000E+00  0.00000000000E+00  0.35740347158E-01  0.35744000000E-01  0.51099999109E-03 0.  1.
       11   -1    0    0    0    0 -0.00000000000E+00 -0.00000000000E+00 -0.35740347158E-01  0.35744000000E-01  0.51099999109E-03 0. -1.
       22    1    1    2    0    0 -0.39763986136E-03  0.67936692993E-02 -0.35083066070E-01  0.35737005818E-01  0.00000000000E+00 0. -1.
  9000001    1    1    2    0    0  0.39763986136E-03 -0.67936692993E-02  0.35083066070E-01  0.35750994182E-01  0.10000000475E-02 0.  1.
</event>
<event>
 4   0  0.2441219E-02  0.9118800E+02  0.7818609E-02  0.1379984E+01
      -11   -1    0    0    0    0  0.00000000000E+00  0.00000000000E+00  0.35740347158E-01  0.35744000000E-01  0.51099999109E-03 0. -1.
       11   -1    0    0    0    0 -0.00000000000E+00 -0.00000000000E+00 -0.35740347158E-01  0.35744000000E-01  0.51099999109E-03 0.  1.
       22    1    1    2    0    0  0.53027068451E-02  0.43730868338E-02 -0.35069801775E-01  0.35737005818E-01  0.00000000000E+00 0.  1.
  9000001    1    1    2    0    0 -0.53027068451E-02 -0.43730868338E-02  0.35069801775E-01  0.35750994182E-01  0.10000000475E-02 0. -1.
</event>
<event>
 4   0  0.2441219E-02  0.9118800E+02  0.7818609E-02  0.1379984E+01
      -11   -1    0    0    0    0  0.00000000000E+00  0.00000000000E+00  0.35740347158E-01  0.35744000000E-01  0.51099999109E-03 0. -1.
       11   -1    0    0    0    0 -0.00000000000E+00 -0.00000000000E+00 -0.35740347158E-01  0.35744000000E-01  0.51099999109E-03 0.  1.
       22    1    1    2    0    0 -0.27375439810E-01  0.22967868755E-01 -0.44258888800E-03  0.35737005818E-01  0.00000000000E+00 0. -1.
  9000001    1    1    2    0    0  0.27375439810E-01 -0.22967868755E-01  0.44258888800E-03  0.35750994182E-01  0.10000000475E-02 0.  1.
</event>
<event>
 4   0  0.2441219E-02  0.9118800E+02  0.7818609E-02  0.1379984E+01
      -11   -1    0    0    0    0  0.00000000000E+00  0.00000000000E+00  0.35740347158E-01  0.35744000000E-01  0.51099999109E-03 0.  1.
       11   -1    0    0    0    0 -0.00000000000E+00 -0.00000000000E+00 -0.35740347158E-01  0.35744000000E-01  0.51099999109E-03 0. -1.
       22    1    1    2    0    0  0.40877877142E-02  0.93121837836E-02 -0.34259404689E-01  0.35737005818E-01  0.00000000000E+00 0. -1.
  9000001    1    1    2    0    0 -0.40877877142E-02 -0.93121837836E-02  0.34259404689E-01  0.35750994182E-01  0.10000000475E-02 0.  1.
</event>
<event>
 4   0  0.2441219E-02  0.9118800E+02  0.7818609E-02  0.1379984E+01
      -11   -1    0    0    0    0  0.00000000000E+00  0.00000000000E+00  0.35740347158E-01  0.35744000000E-01  0.51099999109E-03 0. -1.
       11   -1    0    0    0    0 -0.00000000000E+00 -0.00000000000E+00 -0.35740347158E-01  0.35744000000E-01  0.51099999109E-03 0.  1.
       22    1    1    2    0    0  0.64321957297E-02 -0.35109859396E-01  0.17487756126E-02  0.35737005818E-01  0.00000000000E+00 0. -1.
  9000001    1    1    2    0    0 -0.64321957297E-02  0.35109859396E-01 -0.17487756126E-02  0.35750994182E-01  0.10000000475E-02 0.  1.
</event>
<event>
 4   0  0.2441219E-02  0.9118800E+02  0.7818609E-02  0.1379984E+01
      -11   -1    0    0    0    0  0.00000000000E+00  0.00000000000E+00  0.35740347158E-01  0.35744000000E-01  0.51099999109E-03 0.  1.
       11   -1    0    0    0    0 -0.00000000000E+00 -0.00000000000E+00 -0.35740347158E-01  0.35744000000E-01  0.51099999109E-03 0. -1.
       22    1    1    2    0    0 -0.29823167463E-02  0.35664921011E-02  0.35433310681E-01  0.35737005818E-01  0.00000000000E+00 0.  1.
  9000001    1    1    2    0    0  0.29823167463E-02 -0.35664921011E-02 -0.35433310681E-01  0.35750994182E-01  0.10000000475E-02 0. -1.
</event>
<event>
 4   0  0.2441219E-02  0.9118800E+02  0.7818609E-02  0.1379984E+01
      -11   -1    0    0    0    0  0.00000000000E+00  0.00000000000E+00  0.35740347158E-01  0.35744000000E-01  0.51099999109E-03 0.  1.
       11   -1    0    0    0    0 -0.00000000000E+00 -0.00000000000E+00 -0.35740347158E-01  0.35744000000E-01  0.51099999109E-03 0. -1.
       22    1    1    2    0    0 -0.15469349479E-01  0.22050327075E-01 -0.23486504368E-01  0.35737005818E-01  0.00000000000E+00 0. -1.
  9000001    1    1    2    0    0  0.15469349479E-01 -0.22050327075E-01  0.23486504368E-01  0.35750994182E-01  0.10000000475E-02 0.  1.
</event>
<event>
 4   0  0.2441219E-02  0.9118800E+02  0.7818609E-02  0.1379984E+01
      -11   -1    0    0    0    0  0.00000000000E+00  0.00000000000E+00  0.35740347158E-01  0.35744000000E-01  0.51099999109E-03 0.  1.
       11   -1    0    0    0    0 -0.00000000000E+00 -0.00000000000E+00 -0.35740347158E-01  0.35744000000E-01  0.51099999109E-03 0. -1.
       22    1    1    2    0    0 -0.12958244535E-01 -0.32008857301E-02 -0.33150743792E-01  0.35737005818E-01  0.00000000000E+00 0. -1.
  9000001    1    1    2    0    0  0.12958244535E-01  0.32008857301E-02  0.33150743792E-01  0.35750994182E-01  0.10000000475E-02 0.  1.
</event>
<event>
 4   0  0.2441219E-02  0.9118800E+02  0.7818609E-02  0.1379984E+01
      -11   -1    0    0    0    0  0.00000000000E+00  0.00000000000E+00  0.35740347158E-01  0.35744000000E-01  0.51099999109E-03 0.  1.
       11   -1    0    0    0    0 -0.00000000000E+00 -0.00000000000E+00 -0.35740347158E-01  0.35744000000E-01  0.51099999109E-03 0. -1.
       22    1    1    2    0    0  0.18353201291E-01  0.27806158317E-01  0.12927147670E-01  0.35737005818E-01  0.00000000000E+00 0.  1.
  9000001    1    1    2    0    0 -0.18353201291E-01 -0.27806158317E-01 -0.12927147670E-01  0.35750994182E-01  0.10000000475E-02 0. -1.
</event>
<event>
 4   0  0.2441219E-02  0.9118800E+02  0.7818609E-02  0.1379984E+01
      -11   -1    0    0    0    0  0.00000000000E+00  0.00000000000E+00  0.35740347158E-01  0.35744000000E-01  0.51099999109E-03 0.  1.
       11   -1    0    0    0    0 -0.00000000000E+00 -0.00000000000E+00 -0.35740347158E-01  0.35744000000E-01  0.51099999109E-03 0. -1.
       22    1    1    2    0    0  0.18684226390E-01  0.12168945426E-02 -0.30439323855E-01  0.35737005818E-01  0.00000000000E+00 0. -1.
  9000001    1    1    2    0    0 -0.18684226390E-01 -0.12168945426E-02  0.30439323855E-01  0.35750994182E-01  0.10000000475E-02 0.  1.
</event>
<event>
 4   0  0.2441219E-02  0.9118800E+02  0.7818609E-02  0.1379984E+01
      -11   -1    0    0    0    0  0.00000000000E+00  0.00000000000E+00  0.35740347158E-01  0.35744000000E-01  0.51099999109E-03 0.  1.
       11   -1    0    0    0    0 -0.00000000000E+00 -0.00000000000E+00 -0.35740347158E-01  0.35744000000E-01  0.51099999109E-03 0. -1.
       22    1    1    2    0    0  0.42171985631E-02  0.30504424085E-02  0.35355955966E-01  0.35737005818E-01  0.00000000000E+00 0.  1.
  9000001    1    1    2    0    0 -0.42171985631E-02 -0.30504424085E-02 -0.35355955966E-01  0.35750994182E-01  0.10000000475E-02 0. -1.
</event>
<event>
 4   0  0.2441219E-02  0.9118800E+02  0.7818609E-02  0.1379984E+01
      -11   -1    0    0    0    0  0.00000000000E+00  0.00000000000E+00  0.35740347158E-01  0.35744000000E-01  0.51099999109E-03 0.  1.
       11   -1    0    0    0    0 -0.00000000000E+00 -0.00000000000E+00 -0.35740347158E-01  0.35744000000E-01  0.51099999109E-03 0. -1.
       22    1    1    2    0    0 -0.23342135983E-01 -0.18198722365E-01  0.20027101061E-01  0.35737005818E-01  0.00000000000E+00 0.  1.
  9000001    1    1    2    0    0  0.23342135983E-01  0.18198722365E-01 -0.20027101061E-01  0.35750994182E-01  0.10000000475E-02 0. -1.
</event>
<event>
 4   0  0.2441219E-02  0.9118800E+02  0.7818609E-02  0.1379984E+01
      -11   -1    0    0    0    0  0.00000000000E+00  0.00000000000E+00  0.35740347158E-01  0.35744000000E-01  0.51099999109E-03 0.  1.
       11   -1    0    0    0    0 -0.00000000000E+00 -0.00000000000E+00 -0.35740347158E-01  0.35744000000E-01  0.51099999109E-03 0. -1.
       22    1    1    2    0    0  0.58578793331E-03 -0.32172565557E-01  0.15547233286E-01  0.35737005818E-01  0.00000000000E+00 0.  1.
  9000001    1    1    2    0    0 -0.58578793331E-03  0.32172565557E-01 -0.15547233286E-01  0.35750994182E-01  0.10000000475E-02 0. -1.
</event>
<event>
 4   0  0.2441219E-02  0.9118800E+02  0.7818609E-02  0.1379984E+01
      -11   -1    0    0    0    0  0.00000000000E+00  0.00000000000E+00  0.35740347158E-01  0.35744000000E-01  0.51099999109E-03 0. -1.
       11   -1    0    0    0    0 -0.00000000000E+00 -0.00000000000E+00 -0.35740347158E-01  0.35744000000E-01  0.51099999109E-03 0.  1.
       22    1    1    2    0    0 -0.14088969070E-01  0.88246813058E-02  0.31634783629E-01  0.35737005818E-01  0.00000000000E+00 0. -1.
  9000001    1    1    2    0    0  0.14088969070E-01 -0.88246813058E-02 -0.31634783629E-01  0.35750994182E-01  0.10000000475E-02 0.  1.
</event>
<event>
 4   0  0.2441219E-02  0.9118800E+02  0.7818609E-02  0.1379984E+01
      -11   -1    0    0    0    0  0.00000000000E+00  0.00000000000E+00  0.35740347158E-01  0.35744000000E-01  0.51099999109E-03 0. -1.
       11   -1    0    0    0    0 -0.00000000000E+00 -0.00000000000E+00 -0.35740347158E-01  0.35744000000E-01  0.51099999109E-03 0.  1.
       22    1    1    2    0    0  0.42985483859E-02  0.13399361598E-01 -0.32849858073E-01  0.35737005818E-01  0.00000000000E+00 0.  1.
  9000001    1    1    2    0    0 -0.42985483859E-02 -0.13399361598E-01  0.32849858073E-01  0.35750994182E-01  0.10000000475E-02 0. -1.
</event>
<event>
 4   0  0.2441219E-02  0.9118800E+02  0.7818609E-02  0.1379984E+01
      -11   -1    0    0    0    0  0.00000000000E+00  0.00000000000E+00  0.35740347158E-01  0.35744000000E-01  0.51099999109E-03 0. -1.
       11   -1    0    0    0    0 -0.00000000000E+00 -0.00000000000E+00 -0.35740347158E-01  0.35744000000E-01  0.51099999109E-03 0.  1.
       22    1    1    2    0    0 -0.33028719177E-02  0.76886010106E-02  0.34743489123E-01  0.35737005818E-01  0.00000000000E+00 0. -1.
  9000001    1    1    2    0    0  0.33028719177E-02 -0.76886010106E-02 -0.34743489123E-01  0.35750994182E-01  0.10000000475E-02 0.  1.
</event>
<event>
 4   0  0.2441219E-02  0.9118800E+02  0.7818609E-02  0.1379984E+01
      -11   -1    0    0    0    0  0.00000000000E+00  0.00000000000E+00  0.35740347158E-01  0.35744000000E-01  0.51099999109E-03 0.  1.
       11   -1    0    0    0    0 -0.00000000000E+00 -0.00000000000E+00 -0.35740347158E-01  0.35744000000E-01  0.51099999109E-03 0. -1.
       22    1    1    2    0    0 -0.70173018119E-02 -0.56263520460E-03  0.35036759293E-01  0.35737005818E-01  0.00000000000E+00 0.  1.
  9000001    1    1    2    0    0  0.70173018119E-02  0.56263520460E-03 -0.35036759293E-01  0.35750994182E-01  0.10000000475E-02 0. -1.
</event>
<event>
 4   0  0.2441219E-02  0.9118800E+02  0.7818609E-02  0.1379984E+01
      -11   -1    0    0    0    0  0.00000000000E+00  0.00000000000E+00  0.35740347158E-01  0.35744000000E-01  0.51099999109E-03 0. -1.
       11   -1    0    0    0    0 -0.00000000000E+00 -0.00000000000E+00 -0.35740347158E-01  0.35744000000E-01  0.51099999109E-03 0.  1.
       22    1    1    2    0    0 -0.54303717790E-02 -0.18252582609E-01 -0.30240500579E-01  0.35737005818E-01  0.00000000000E+00 0.  1.
  9000001    1    1    2    0    0  0.54303717790E-02  0.18252582609E-01  0.30240500579E-01  0.35750994182E-01  0.10000000475E-02 0. -1.
</event>
<event>
 4   0  0.2441219E-02  0.9118800E+02  0.7818609E-02  0.1379984E+01
      -11   -1    0    0    0    0  0.00000000000E+00  0.00000000000E+00  0.35740347158E-01  0.35744000000E-01  0.51099999109E-03 0.  1.
       11   -1    0    0    0    0 -0.00000000000E+00 -0.00000000000E+00 -0.35740347158E-01  0.35744000000E-01  0.51099999109E-03 0. -1.
       22    1    1    2    0    0  0.45923517026E-02  0.53734853618E-02 -0.35030979800E-01  0.35737005818E-01  0.00000000000E+00 0. -1.
  9000001    1    1    2    0    0 -0.45923517026E-02 -0.53734853618E-02  0.35030979800E-01  0.35750994182E-01  0.10000000475E-02 0.  1.
</event>
<event>
 4   0  0.2441219E-02  0.9118800E+02  0.7818609E-02  0.1379984E+01
      -11   -1    0    0    0    0  0.00000000000E+00  0.00000000000E+00  0.35740347158E-01  0.35744000000E-01  0.51099999109E-03 0. -1.
       11   -1    0    0    0    0 -0.00000000000E+00 -0.00000000000E+00 -0.35740347158E-01  0.35744000000E-01  0.51099999109E-03 0.  1.
       22    1    1    2    0    0  0.38811662666E-02 -0.34728148541E-03  0.35523928961E-01  0.35737005818E-01  0.00000000000E+00 0. -1.
  9000001    1    1    2    0    0 -0.38811662666E-02  0.34728148541E-03 -0.35523928961E-01  0.35750994182E-01  0.10000000475E-02 0.  1.
</event>
<event>
 4   0  0.2441219E-02  0.9118800E+02  0.7818609E-02  0.1379984E+01
      -11   -1    0    0    0    0  0.00000000000E+00  0.00000000000E+00  0.35740347158E-01  0.35744000000E-01  0.51099999109E-03 0.  1.
       11   -1    0    0    0    0 -0.00000000000E+00 -0.00000000000E+00 -0.35740347158E-01  0.35744000000E-01  0.51099999109E-03 0. -1.
       22    1    1    2    0    0  0.67450122234E-03  0.28782391560E-01  0.21171976031E-01  0.35737005818E-01  0.00000000000E+00 0.  1.
  9000001    1    1    2    0    0 -0.67450122234E-03 -0.28782391560E-01 -0.21171976031E-01  0.35750994182E-01  0.10000000475E-02 0. -1.
</event>
<event>
 4   0  0.2441219E-02  0.9118800E+02  0.7818609E-02  0.1379984E+01
      -11   -1    0    0    0    0  0.00000000000E+00  0.00000000000E+00  0.35740347158E-01  0.35744000000E-01  0.51099999109E-03 0. -1.
       11   -1    0    0    0    0 -0.00000000000E+00 -0.00000000000E+00 -0.35740347158E-01  0.35744000000E-01  0.51099999109E-03 0.  1.
       22    1    1    2    0    0 -0.18156026912E-01 -0.10769012338E-01  0.28836099683E-01  0.35737005818E-01  0.00000000000E+00 0. -1.
  9000001    1    1    2    0    0  0.18156026912E-01  0.10769012338E-01 -0.28836099683E-01  0.35750994182E-01  0.10000000475E-02 0.  1.
</event>
<event>
 4   0  0.2441219E-02  0.9118800E+02  0.7818609E-02  0.1379984E+01
      -11   -1    0    0    0    0  0.00000000000E+00  0.00000000000E+00  0.35740347158E-01  0.35744000000E-01  0.51099999109E-03 0.  1.
       11   -1    0    0    0    0 -0.00000000000E+00 -0.00000000000E+00 -0.35740347158E-01  0.35744000000E-01  0.51099999109E-03 0. -1.
       22    1    1    2    0    0 -0.19457568668E-01  0.36026966340E-02  0.29758312845E-01  0.35737005818E-01  0.00000000000E+00 0.  1.
  9000001    1    1    2    0    0  0.19457568668E-01 -0.36026966340E-02 -0.29758312845E-01  0.35750994182E-01  0.10000000475E-02 0. -1.
</event>
<event>
 4   0  0.2441219E-02  0.9118800E+02  0.7818609E-02  0.1379984E+01
      -11   -1    0    0    0    0  0.00000000000E+00  0.00000000000E+00  0.35740347158E-01  0.35744000000E-01  0.51099999109E-03 0.  1.
       11   -1    0    0    0    0 -0.00000000000E+00 -0.00000000000E+00 -0.35740347158E-01  0.35744000000E-01  0.51099999109E-03 0. -1.
       22    1    1    2    0    0  0.19673890091E-01 -0.14779465969E-01  0.25915999290E-01  0.35737005818E-01  0.00000000000E+00 0.  1.
  9000001    1    1    2    0    0 -0.19673890091E-01  0.14779465969E-01 -0.25915999290E-01  0.35750994182E-01  0.10000000475E-02 0. -1.
</event>
<event>
 4   0  0.2441219E-02  0.9118800E+02  0.7818609E-02  0.1379984E+01
      -11   -1    0    0    0    0  0.00000000000E+00  0.00000000000E+00  0.35740347158E-01  0.35744000000E-01  0.51099999109E-03 0.  1.
       11   -1    0    0    0    0 -0.00000000000E+00 -0.00000000000E+00 -0.35740347158E-01  0.35744000000E-01  0.51099999109E-03 0. -1.
       22    1    1    2    0    0 -0.28605670534E-01  0.16330653998E-01 -0.13862140461E-01  0.35737005818E-01  0.00000000000E+00 0.  1.
  9000001    1    1    2    0    0  0.28605670534E-01 -0.16330653998E-01  0.13862140461E-01  0.35750994182E-01  0.10000000475E-02 0. -1.
</event>
<event>
 4   0  0.2441219E-02  0.9118800E+02  0.7818609E-02  0.1379984E+01
      -11   -1    0    0    0    0  0.00000000000E+00  0.00000000000E+00  0.35740347158E-01  0.35744000000E-01  0.51099999109E-03 0.  1.
       11   -1    0    0    0    0 -0.00000000000E+00 -0.00000000000E+00 -0.35740347158E-01  0.35744000000E-01  0.51099999109E-03 0. -1.
       22    1    1    2    0    0  0.20694001729E-02  0.77068918666E-02 -0.34834680787E-01  0.35737005818E-01  0.00000000000E+00 0. -1.
  9000001    1    1    2    0    0 -0.20694001729E-02 -0.77068918666E-02  0.34834680787E-01  0.35750994182E-01  0.10000000475E-02 0.  1.
</event>
<event>
 4   0  0.2441219E-02  0.9118800E+02  0.7818609E-02  0.1379984E+01
      -11   -1    0    0    0    0  0.00000000000E+00  0.00000000000E+00  0.35740347158E-01  0.35744000000E-01  0.51099999109E-03 0. -1.
       11   -1    0    0    0    0 -0.00000000000E+00 -0.00000000000E+00 -0.35740347158E-01  0.35744000000E-01  0.51099999109E-03 0.  1.
       22    1    1    2    0    0  0.13930804833E-01  0.12356398411E-02 -0.32886767183E-01  0.35737005818E-01  0.00000000000E+00 0.  1.
  9000001    1    1    2    0    0 -0.13930804833E-01 -0.12356398411E-02  0.32886767183E-01  0.35750994182E-01  0.10000000475E-02 0. -1.
</event>
<event>
 4   0  0.2441219E-02  0.9118800E+02  0.7818609E-02  0.1379984E+01
      -11   -1    0    0    0    0  0.00000000000E+00  0.00000000000E+00  0.35740347158E-01  0.35744000000E-01  0.51099999109E-03 0. -1.
       11   -1    0    0    0    0 -0.00000000000E+00 -0.00000000000E+00 -0.35740347158E-01  0.35744000000E-01  0.51099999109E-03 0.  1.
       22    1    1    2    0    0  0.35818455715E-02 -0.27054295109E-03  0.35556023030E-01  0.35737005818E-01  0.00000000000E+00 0. -1.
  9000001    1    1    2    0    0 -0.35818455715E-02  0.27054295109E-03 -0.35556023030E-01  0.35750994182E-01  0.10000000475E-02 0.  1.
</event>
<event>
 4   0  0.2441219E-02  0.9118800E+02  0.7818609E-02  0.1379984E+01
      -11   -1    0    0    0    0  0.00000000000E+00  0.00000000000E+00  0.35740347158E-01  0.35744000000E-01  0.51099999109E-03 0. -1.
       11   -1    0    0    0    0 -0.00000000000E+00 -0.00000000000E+00 -0.35740347158E-01  0.35744000000E-01  0.51099999109E-03 0.  1.
       22    1    1    2    0    0 -0.36825081815E-02 -0.35467361913E-01  0.23746488789E-02  0.35737005818E-01  0.00000000000E+00 0. -1.
  9000001    1    1    2    0    0  0.36825081815E-02  0.35467361913E-01 -0.23746488789E-02  0.35750994182E-01  0.10000000475E-02 0.  1.
</event>
<event>
 4   0  0.2441219E-02  0.9118800E+02  0.7818609E-02  0.1379984E+01
      -11   -1    0    0    0    0  0.00000000000E+00  0.00000000000E+00  0.35740347158E-01  0.35744000000E-01  0.51099999109E-03 0.  1.
       11   -1    0    0    0    0 -0.00000000000E+00 -0.00000000000E+00 -0.35740347158E-01  0.35744000000E-01  0.51099999109E-03 0. -1.
       22    1    1    2    0    0  0.71289553006E-02  0.18440340308E-02 -0.34970146120E-01  0.35737005818E-01  0.00000000000E+00 0. -1.
  9000001    1    1    2    0    0 -0.71289553006E-02 -0.18440340308E-02  0.34970146120E-01  0.35750994182E-01  0.10000000475E-02 0.  1.
</event>
<event>
 4   0  0.2441219E-02  0.9118800E+02  0.7818609E-02  0.1379984E+01
      -11   -1    0    0    0    0  0.00000000000E+00  0.00000000000E+00  0.35740347158E-01  0.35744000000E-01  0.51099999109E-03 0.  1.
       11   -1    0    0    0    0 -0.00000000000E+00 -0.00000000000E+00 -0.35740347158E-01  0.35744000000E-01  0.51099999109E-03 0. -1.
       22    1    1    2    0    0  0.28729504294E-01  0.74223570912E-03 -0.21241427778E-01  0.35737005818E-01  0.00000000000E+00 0. -1.
  9000001    1    1    2    0    0 -0.28729504294E-01 -0.74223570912E-03  0.21241427778E-01  0.35750994182E-01  0.10000000475E-02 0.  1.
</event>
<event>
 4   0  0.2441219E-02  0.9118800E+02  0.7818609E-02  0.1379984E+01
      -11   -1    0    0    0    0  0.00000000000E+00  0.00000000000E+00  0.35740347158E-01  0.35744000000E-01  0.51099999109E-03 0.  1.
       11   -1    0    0    0    0 -0.00000000000E+00 -0.00000000000E+00 -0.35740347158E-01  0.35744000000E-01  0.51099999109E-03 0. -1.
       22    1    1    2    0    0 -0.27713507684E-02  0.99345900093E-02  0.34216328283E-01  0.35737005818E-01  0.00000000000E+00 0.  1.
  9000001    1    1    2    0    0  0.27713507684E-02 -0.99345900093E-02 -0.34216328283E-01  0.35750994182E-01  0.10000000475E-02 0. -1.
</event>
<event>
 4   0  0.2441219E-02  0.9118800E+02  0.7818609E-02  0.1379984E+01
      -11   -1    0    0    0    0  0.00000000000E+00  0.00000000000E+00  0.35740347158E-01  0.35744000000E-01  0.51099999109E-03 0. -1.
       11   -1    0    0    0    0 -0.00000000000E+00 -0.00000000000E+00 -0.35740347158E-01  0.35744000000E-01  0.51099999109E-03 0.  1.
       22    1    1    2    0    0  0.24590241014E-01 -0.47169791542E-03  0.25927420481E-01  0.35737005818E-01  0.00000000000E+00 0. -1.
  9000001    1    1    2    0    0 -0.24590241014E-01  0.47169791542E-03 -0.25927420481E-01  0.35750994182E-01  0.10000000475E-02 0.  1.
</event>
<event>
 4   0  0.2441219E-02  0.9118800E+02  0.7818609E-02  0.1379984E+01
      -11   -1    0    0    0    0  0.00000000000E+00  0.00000000000E+00  0.35740347158E-01  0.35744000000E-01  0.51099999109E-03 0.  1.
       11   -1    0    0    0    0 -0.00000000000E+00 -0.00000000000E+00 -0.35740347158E-01  0.35744000000E-01  0.51099999109E-03 0. -1.
       22    1    1    2    0    0  0.21808387084E-01  0.68572082223E-02  0.27468282310E-01  0.35737005818E-01  0.00000000000E+00 0.  1.
  9000001    1    1    2    0    0 -0.21808387084E-01 -0.68572082223E-02 -0.27468282310E-01  0.35750994182E-01  0.10000000475E-02 0. -1.
</event>
<event>
 4   0  0.2441219E-02  0.9118800E+02  0.7818609E-02  0.1379984E+01
      -11   -1    0    0    0    0  0.00000000000E+00  0.00000000000E+00  0.35740347158E-01  0.35744000000E-01  0.51099999109E-03 0.  1.
       11   -1    0    0    0    0 -0.00000000000E+00 -0.00000000000E+00 -0.35740347158E-01  0.35744000000E-01  0.51099999109E-03 0. -1.
       22    1    1    2    0    0  0.25863592424E-01 -0.24368598125E-01 -0.37920439381E-02  0.35737005818E-01  0.00000000000E+00 0. -1.
  9000001    1    1    2    0    0 -0.25863592424E-01  0.24368598125E-01  0.37920439381E-02  0.35750994182E-01  0.10000000475E-02 0.  1.
</event>
<event>
 4   0  0.2441219E-02  0.9118800E+02  0.7818609E-02  0.1379984E+01
      -11   -1    0    0    0    0  0.00000000000E+00  0.00000000000E+00  0.35740347158E-01  0.35744000000E-01  0.51099999109E-03 0.  1.
       11   -1    0    0    0    0 -0.00000000000E+00 -0.00000000000E+00 -0.35740347158E-01  0.35744000000E-01  0.51099999109E-03 0. -1.
       22    1    1    2    0    0 -0.10111217977E-01  0.61640452793E-02 -0.33717968529E-01  0.35737005818E-01  0.00000000000E+00 0. -1.
  9000001    1    1    2    0    0  0.10111217977E-01 -0.61640452793E-02  0.33717968529E-01  0.35750994182E-01  0.10000000475E-02 0.  1.
</event>
<event>
 4   0  0.2441219E-02  0.9118800E+02  0.7818609E-02  0.1379984E+01
      -11   -1    0    0    0    0  0.00000000000E+00  0.00000000000E+00  0.35740347158E-01  0.35744000000E-01  0.51099999109E-03 0. -1.
       11   -1    0    0    0    0 -0.00000000000E+00 -0.00000000000E+00 -0.35740347158E-01  0.35744000000E-01  0.51099999109E-03 0.  1.
       22    1    1    2    0    0 -0.27509396135E-01 -0.10825984065E-01  0.20078963574E-01  0.35737005818E-01  0.00000000000E+00 0. -1.
  9000001    1    1    2    0    0  0.27509396135E-01  0.10825984065E-01 -0.20078963574E-01  0.35750994182E-01  0.10000000475E-02 0.  1.
</event>
<event>
 4   0  0.2441219E-02  0.9118800E+02  0.7818609E-02  0.1379984E+01
      -11   -1    0    0    0    0  0.00000000000E+00  0.00000000000E+00  0.35740347158E-01  0.35744000000E-01  0.51099999109E-03 0. -1.
       11   -1    0    0    0    0 -0.00000000000E+00 -0.00000000000E+00 -0.35740347158E-01  0.35744000000E-01  0.51099999109E-03 0.  1.
       22    1    1    2    0    0 -0.32572192422E-02 -0.20724293964E-02  0.35527864333E-01  0.35737005818E-01  0.00000000000E+00 0. -1.
  9000001    1    1    2    0    0  0.32572192422E-02  0.20724293964E-02 -0.35527864333E-01  0.35750994182E-01  0.10000000475E-02 0.  1.
</event>
<event>
 4   0  0.2441219E-02  0.9118800E+02  0.7818609E-02  0.1379984E+01
      -11   -1    0    0    0    0  0.00000000000E+00  0.00000000000E+00  0.35740347158E-01  0.35744000000E-01  0.51099999109E-03 0.  1.
       11   -1    0    0    0    0 -0.00000000000E+00 -0.00000000000E+00 -0.35740347158E-01  0.35744000000E-01  0.51099999109E-03 0. -1.
       22    1    1    2    0    0  0.11462941952E-01 -0.34635649737E-02 -0.33671030046E-01  0.35737005818E-01  0.00000000000E+00 0. -1.
  9000001    1    1    2    0    0 -0.11462941952E-01  0.34635649737E-02  0.33671030046E-01  0.35750994182E-01  0.10000000475E-02 0.  1.
</event>
<event>
 4   0  0.2441219E-02  0.9118800E+02  0.7818609E-02  0.1379984E+01
      -11   -1    0    0    0    0  0.00000000000E+00  0.00000000000E+00  0.35740347158E-01  0.35744000000E-01  0.51099999109E-03 0.  1.
       11   -1    0    0    0    0 -0.00000000000E+00 -0.00000000000E+00 -0.35740347158E-01  0.35744000000E-01  0.51099999109E-03 0. -1.
       22    1    1    2    0    0  0.31065653708E-03 -0.31674067611E-02  0.35595008243E-01  0.35737005818E-01  0.00000000000E+00 0.  1.
  9000001    1    1    2    0    0 -0.31065653708E-03  0.31674067611E-02 -0.35595008243E-01  0.35750994182E-01  0.10000000475E-02 0. -1.
</event>
<event>
 4   0  0.2441219E-02  0.9118800E+02  0.7818609E-02  0.1379984E+01
      -11   -1    0    0    0    0  0.00000000000E+00  0.00000000000E+00  0.35740347158E-01  0.35744000000E-01  0.51099999109E-03 0. -1.
       11   -1    0    0    0    0 -0.00000000000E+00 -0.00000000000E+00 -0.35740347158E-01  0.35744000000E-01  0.51099999109E-03 0.  1.
       22    1    1    2    0    0 -0.37641577978E-02 -0.73903848059E-02 -0.34761284691E-01  0.35737005818E-01  0.00000000000E+00 0.  1.
  9000001    1    1    2    0    0  0.37641577978E-02  0.73903848059E-02  0.34761284691E-01  0.35750994182E-01  0.10000000475E-02 0. -1.
</event>
<event>
 4   0  0.2441219E-02  0.9118800E+02  0.7818609E-02  0.1379984E+01
      -11   -1    0    0    0    0  0.00000000000E+00  0.00000000000E+00  0.35740347158E-01  0.35744000000E-01  0.51099999109E-03 0. -1.
       11   -1    0    0    0    0 -0.00000000000E+00 -0.00000000000E+00 -0.35740347158E-01  0.35744000000E-01  0.51099999109E-03 0.  1.
       22    1    1    2    0    0 -0.10504803439E-02 -0.12358836260E-01  0.33515507489E-01  0.35737005818E-01  0.00000000000E+00 0. -1.
  9000001    1    1    2    0    0  0.10504803439E-02  0.12358836260E-01 -0.33515507489E-01  0.35750994182E-01  0.10000000475E-02 0.  1.
</event>
<event>
 4   0  0.2441219E-02  0.9118800E+02  0.7818609E-02  0.1379984E+01
      -11   -1    0    0    0    0  0.00000000000E+00  0.00000000000E+00  0.35740347158E-01  0.35744000000E-01  0.51099999109E-03 0.  1.
       11   -1    0    0    0    0 -0.00000000000E+00 -0.00000000000E+00 -0.35740347158E-01  0.35744000000E-01  0.51099999109E-03 0. -1.
       22    1    1    2    0    0  0.89891529802E-02  0.25772104001E-03 -0.34587024929E-01  0.35737005818E-01  0.00000000000E+00 0. -1.
  9000001    1    1    2    0    0 -0.89891529802E-02 -0.25772104001E-03  0.34587024929E-01  0.35750994182E-01  0.10000000475E-02 0.  1.
</event>
<event>
 4   0  0.2441219E-02  0.9118800E+02  0.7818609E-02  0.1379984E+01
      -11   -1    0    0    0    0  0.00000000000E+00  0.00000000000E+00  0.35740347158E-01  0.35744000000E-01  0.51099999109E-03 0.  1.
       11   -1    0    0    0    0 -0.00000000000E+00 -0.00000000000E+00 -0.35740347158E-01  0.35744000000E-01  0.51099999109E-03 0.  1.
       22    1    1    2    0    0 -0.32329095922E-02 -0.98512808868E-03 -0.35576838014E-01  0.35737005818E-01  0.00000000000E+00 0.  1.
  9000001    1    1    2    0    0  0.32329095922E-02  0.98512808868E-03  0.35576838014E-01  0.35750994182E-01  0.10000000475E-02 0.  1.
</event>
<event>
 4   0  0.2441219E-02  0.9118800E+02  0.7818609E-02  0.1379984E+01
      -11   -1    0    0    0    0  0.00000000000E+00  0.00000000000E+00  0.35740347158E-01  0.35744000000E-01  0.51099999109E-03 0.  1.
       11   -1    0    0    0    0 -0.00000000000E+00 -0.00000000000E+00 -0.35740347158E-01  0.35744000000E-01  0.51099999109E-03 0. -1.
       22    1    1    2    0    0 -0.11065311367E-01 -0.13774083465E-02  0.33952838106E-01  0.35737005818E-01  0.00000000000E+00 0.  1.
  9000001    1    1    2    0    0  0.11065311367E-01  0.13774083465E-02 -0.33952838106E-01  0.35750994182E-01  0.10000000475E-02 0. -1.
</event>
<event>
 4   0  0.2441219E-02  0.9118800E+02  0.7818609E-02  0.1379984E+01
      -11   -1    0    0    0    0  0.00000000000E+00  0.00000000000E+00  0.35740347158E-01  0.35744000000E-01  0.51099999109E-03 0. -1.
       11   -1    0    0    0    0 -0.00000000000E+00 -0.00000000000E+00 -0.35740347158E-01  0.35744000000E-01  0.51099999109E-03 0.  1.
       22    1    1    2    0    0  0.22025282692E-02  0.30049134500E-02 -0.35542269894E-01  0.35737005818E-01  0.00000000000E+00 0.  1.
  9000001    1    1    2    0    0 -0.22025282692E-02 -0.30049134500E-02  0.35542269894E-01  0.35750994182E-01  0.10000000475E-02 0. -1.
</event>
<event>
 4   0  0.2441219E-02  0.9118800E+02  0.7818609E-02  0.1379984E+01
      -11   -1    0    0    0    0  0.00000000000E+00  0.00000000000E+00  0.35740347158E-01  0.35744000000E-01  0.51099999109E-03 0. -1.
       11   -1    0    0    0    0 -0.00000000000E+00 -0.00000000000E+00 -0.35740347158E-01  0.35744000000E-01  0.51099999109E-03 0.  1.
       22    1    1    2    0    0 -0.92763770500E-02 -0.15723177044E-01 -0.30722371610E-01  0.35737005818E-01  0.00000000000E+00 0.  1.
  9000001    1    1    2    0    0  0.92763770500E-02  0.15723177044E-01  0.30722371610E-01  0.35750994182E-01  0.10000000475E-02 0. -1.
</event>
<event>
 4   0  0.2441219E-02  0.9118800E+02  0.7818609E-02  0.1379984E+01
      -11   -1    0    0    0    0  0.00000000000E+00  0.00000000000E+00  0.35740347158E-01  0.35744000000E-01  0.51099999109E-03 0. -1.
       11   -1    0    0    0    0 -0.00000000000E+00 -0.00000000000E+00 -0.35740347158E-01  0.35744000000E-01  0.51099999109E-03 0.  1.
       22    1    1    2    0    0  0.17123723452E-02 -0.13132213693E-01  0.33192564368E-01  0.35737005818E-01  0.00000000000E+00 0. -1.
  9000001    1    1    2    0    0 -0.17123723452E-02  0.13132213693E-01 -0.33192564368E-01  0.35750994182E-01  0.10000000475E-02 0.  1.
</event>
<event>
 4   0  0.2441219E-02  0.9118800E+02  0.7818609E-02  0.1379984E+01
      -11   -1    0    0    0    0  0.00000000000E+00  0.00000000000E+00  0.35740347158E-01  0.35744000000E-01  0.51099999109E-03 0. -1.
       11   -1    0    0    0    0 -0.00000000000E+00 -0.00000000000E+00 -0.35740347158E-01  0.35744000000E-01  0.51099999109E-03 0.  1.
       22    1    1    2    0    0  0.34954783290E-02  0.15830349313E-01  0.31848316388E-01  0.35737005818E-01  0.00000000000E+00 0. -1.
  9000001    1    1    2    0    0 -0.34954783290E-02 -0.15830349313E-01 -0.31848316388E-01  0.35750994182E-01  0.10000000475E-02 0.  1.
</event>
<event>
 4   0  0.2441219E-02  0.9118800E+02  0.7818609E-02  0.1379984E+01
      -11   -1    0    0    0    0  0.00000000000E+00  0.00000000000E+00  0.35740347158E-01  0.35744000000E-01  0.51099999109E-03 0.  1.
       11   -1    0    0    0    0 -0.00000000000E+00 -0.00000000000E+00 -0.35740347158E-01  0.35744000000E-01  0.51099999109E-03 0. -1.
       22    1    1    2    0    0 -0.57152631251E-03  0.42543394133E-02  0.35478268541E-01  0.35737005818E-01  0.00000000000E+00 0.  1.
  9000001    1    1    2    0    0  0.57152631251E-03 -0.42543394133E-02 -0.35478268541E-01  0.35750994182E-01  0.10000000475E-02 0. -1.
</event>
<event>
 4   0  0.2441219E-02  0.9118800E+02  0.7818609E-02  0.1379984E+01
      -11   -1    0    0    0    0  0.00000000000E+00  0.00000000000E+00  0.35740347158E-01  0.35744000000E-01  0.51099999109E-03 0. -1.
       11   -1    0    0    0    0 -0.00000000000E+00 -0.00000000000E+00 -0.35740347158E-01  0.35744000000E-01  0.51099999109E-03 0.  1.
       22    1    1    2    0    0  0.80529209869E-02  0.58444936040E-02  0.34323839281E-01  0.35737005818E-01  0.00000000000E+00 0. -1.
  9000001    1    1    2    0    0 -0.80529209869E-02 -0.58444936040E-02 -0.34323839281E-01  0.35750994182E-01  0.10000000475E-02 0.  1.
</event>
<event>
 4   0  0.2441219E-02  0.9118800E+02  0.7818609E-02  0.1379984E+01
      -11   -1    0    0    0    0  0.00000000000E+00  0.00000000000E+00  0.35740347158E-01  0.35744000000E-01  0.51099999109E-03 0. -1.
       11   -1    0    0    0    0 -0.00000000000E+00 -0.00000000000E+00 -0.35740347158E-01  0.35744000000E-01  0.51099999109E-03 0.  1.
       22    1    1    2    0    0 -0.59239053001E-02 -0.33294653004E-02  0.35084976723E-01  0.35737005818E-01  0.00000000000E+00 0. -1.
  9000001    1    1    2    0    0  0.59239053001E-02  0.33294653004E-02 -0.35084976723E-01  0.35750994182E-01  0.10000000475E-02 0.  1.
</event>
<event>
 4   0  0.2441219E-02  0.9118800E+02  0.7818609E-02  0.1379984E+01
      -11   -1    0    0    0    0  0.00000000000E+00  0.00000000000E+00  0.35740347158E-01  0.35744000000E-01  0.51099999109E-03 0.  1.
       11   -1    0    0    0    0 -0.00000000000E+00 -0.00000000000E+00 -0.35740347158E-01  0.35744000000E-01  0.51099999109E-03 0. -1.
       22    1    1    2    0    0 -0.10287208448E-01 -0.53508826884E-02  0.33803475882E-01  0.35737005818E-01  0.00000000000E+00 0.  1.
  9000001    1    1    2    0    0  0.10287208448E-01  0.53508826884E-02 -0.33803475882E-01  0.35750994182E-01  0.10000000475E-02 0. -1.
</event>
<event>
 4   0  0.2441219E-02  0.9118800E+02  0.7818609E-02  0.1379984E+01
      -11   -1    0    0    0    0  0.00000000000E+00  0.00000000000E+00  0.35740347158E-01  0.35744000000E-01  0.51099999109E-03 0. -1.
       11   -1    0    0    0    0 -0.00000000000E+00 -0.00000000000E+00 -0.35740347158E-01  0.35744000000E-01  0.51099999109E-03 0.  1.
       22    1    1    2    0    0 -0.25789310078E-01 -0.70604183655E-02 -0.23710663488E-01  0.35737005818E-01  0.00000000000E+00 0.  1.
  9000001    1    1    2    0    0  0.25789310078E-01  0.70604183655E-02  0.23710663488E-01  0.35750994182E-01  0.10000000475E-02 0. -1.
</event>
<event>
 4   0  0.2441219E-02  0.9118800E+02  0.7818609E-02  0.1379984E+01
      -11   -1    0    0    0    0  0.00000000000E+00  0.00000000000E+00  0.35740347158E-01  0.35744000000E-01  0.51099999109E-03 0.  1.
       11   -1    0    0    0    0 -0.00000000000E+00 -0.00000000000E+00 -0.35740347158E-01  0.35744000000E-01  0.51099999109E-03 0. -1.
       22    1    1    2    0    0  0.69141837103E-02 -0.97579398227E-02  0.33676553549E-01  0.35737005818E-01  0.00000000000E+00 0.  1.
  9000001    1    1    2    0    0 -0.69141837103E-02  0.97579398227E-02 -0.33676553549E-01  0.35750994182E-01  0.10000000475E-02 0. -1.
</event>
<event>
 4   0  0.2441219E-02  0.9118800E+02  0.7818609E-02  0.1379984E+01
      -11   -1    0    0    0    0  0.00000000000E+00  0.00000000000E+00  0.35740347158E-01  0.35744000000E-01  0.51099999109E-03 0.  1.
       11   -1    0    0    0    0 -0.00000000000E+00 -0.00000000000E+00 -0.35740347158E-01  0.35744000000E-01  0.51099999109E-03 0. -1.
       22    1    1    2    0    0  0.54439638418E-02  0.41797325611E-02 -0.35071736174E-01  0.35737005818E-01  0.00000000000E+00 0. -1.
  9000001    1    1    2    0    0 -0.54439638418E-02 -0.41797325611E-02  0.35071736174E-01  0.35750994182E-01  0.10000000475E-02 0.  1.
</event>
<event>
 4   0  0.2441219E-02  0.9118800E+02  0.7818609E-02  0.1379984E+01
      -11   -1    0    0    0    0  0.00000000000E+00  0.00000000000E+00  0.35740347158E-01  0.35744000000E-01  0.51099999109E-03 0.  1.
       11   -1    0    0    0    0 -0.00000000000E+00 -0.00000000000E+00 -0.35740347158E-01  0.35744000000E-01  0.51099999109E-03 0. -1.
       22    1    1    2    0    0 -0.14263428342E-01  0.74586663548E-02  0.31906997555E-01  0.35737005818E-01  0.00000000000E+00 0.  1.
  9000001    1    1    2    0    0  0.14263428342E-01 -0.74586663548E-02 -0.31906997555E-01  0.35750994182E-01  0.10000000475E-02 0. -1.
</event>
<event>
 4   0  0.2441219E-02  0.9118800E+02  0.7818609E-02  0.1379984E+01
      -11   -1    0    0    0    0  0.00000000000E+00  0.00000000000E+00  0.35740347158E-01  0.35744000000E-01  0.51099999109E-03 0. -1.
       11   -1    0    0    0    0 -0.00000000000E+00 -0.00000000000E+00 -0.35740347158E-01  0.35744000000E-01  0.51099999109E-03 0.  1.
       22    1    1    2    0    0  0.79637236028E-02  0.28296347477E-01  0.20323125023E-01  0.35737005818E-01  0.00000000000E+00 0. -1.
  9000001    1    1    2    0    0 -0.79637236028E-02 -0.28296347477E-01 -0.20323125023E-01  0.35750994182E-01  0.10000000475E-02 0.  1.
</event>
<event>
 4   0  0.2441219E-02  0.9118800E+02  0.7818609E-02  0.1379984E+01
      -11   -1    0    0    0    0  0.00000000000E+00  0.00000000000E+00  0.35740347158E-01  0.35744000000E-01  0.51099999109E-03 0.  1.
       11   -1    0    0    0    0 -0.00000000000E+00 -0.00000000000E+00 -0.35740347158E-01  0.35744000000E-01  0.51099999109E-03 0. -1.
       22    1    1    2    0    0  0.52676336267E-02 -0.11834413275E-02 -0.35326832401E-01  0.35737005818E-01  0.00000000000E+00 0. -1.
  9000001    1    1    2    0    0 -0.52676336267E-02  0.11834413275E-02  0.35326832401E-01  0.35750994182E-01  0.10000000475E-02 0.  1.
</event>
<event>
 4   0  0.2441219E-02  0.9118800E+02  0.7818609E-02  0.1379984E+01
      -11   -1    0    0    0    0  0.00000000000E+00  0.00000000000E+00  0.35740347158E-01  0.35744000000E-01  0.51099999109E-03 0. -1.
       11   -1    0    0    0    0 -0.00000000000E+00 -0.00000000000E+00 -0.35740347158E-01  0.35744000000E-01  0.51099999109E-03 0.  1.
       22    1    1    2    0    0  0.68411920775E-02  0.24402185206E-02 -0.34991099002E-01  0.35737005818E-01  0.00000000000E+00 0.  1.
  9000001    1    1    2    0    0 -0.68411920775E-02 -0.24402185206E-02  0.34991099002E-01  0.35750994182E-01  0.10000000475E-02 0. -1.
</event>
<event>
 4   0  0.2441219E-02  0.9118800E+02  0.7818609E-02  0.1379984E+01
      -11   -1    0    0    0    0  0.00000000000E+00  0.00000000000E+00  0.35740347158E-01  0.35744000000E-01  0.51099999109E-03 0.  1.
       11   -1    0    0    0    0 -0.00000000000E+00 -0.00000000000E+00 -0.35740347158E-01  0.35744000000E-01  0.51099999109E-03 0. -1.
       22    1    1    2    0    0  0.91612892145E-02  0.13107533669E-02 -0.34517912602E-01  0.35737005818E-01  0.00000000000E+00 0. -1.
  9000001    1    1    2    0    0 -0.91612892145E-02 -0.13107533669E-02  0.34517912602E-01  0.35750994182E-01  0.10000000475E-02 0.  1.
</event>
<event>
 4   0  0.2441219E-02  0.9118800E+02  0.7818609E-02  0.1379984E+01
      -11   -1    0    0    0    0  0.00000000000E+00  0.00000000000E+00  0.35740347158E-01  0.35744000000E-01  0.51099999109E-03 0.  1.
       11   -1    0    0    0    0 -0.00000000000E+00 -0.00000000000E+00 -0.35740347158E-01  0.35744000000E-01  0.51099999109E-03 0. -1.
       22    1    1    2    0    0 -0.16837095279E-02 -0.48694019988E-02 -0.35363648444E-01  0.35737005818E-01  0.00000000000E+00 0. -1.
  9000001    1    1    2    0    0  0.16837095279E-02  0.48694019988E-02  0.35363648444E-01  0.35750994182E-01  0.10000000475E-02 0.  1.
</event>
<event>
 4   0  0.2441219E-02  0.9118800E+02  0.7818609E-02  0.1379984E+01
      -11   -1    0    0    0    0  0.00000000000E+00  0.00000000000E+00  0.35740347158E-01  0.35744000000E-01  0.51099999109E-03 0.  1.
       11   -1    0    0    0    0 -0.00000000000E+00 -0.00000000000E+00 -0.35740347158E-01  0.35744000000E-01  0.51099999109E-03 0. -1.
       22    1    1    2    0    0 -0.47003840462E-02  0.11241188743E-01  0.33595768340E-01  0.35737005818E-01  0.00000000000E+00 0.  1.
  9000001    1    1    2    0    0  0.47003840462E-02 -0.11241188743E-01 -0.33595768340E-01  0.35750994182E-01  0.10000000475E-02 0. -1.
</event>
<event>
 4   0  0.2441219E-02  0.9118800E+02  0.7818609E-02  0.1379984E+01
      -11   -1    0    0    0    0  0.00000000000E+00  0.00000000000E+00  0.35740347158E-01  0.35744000000E-01  0.51099999109E-03 0.  1.
       11   -1    0    0    0    0 -0.00000000000E+00 -0.00000000000E+00 -0.35740347158E-01  0.35744000000E-01  0.51099999109E-03 0. -1.
       22    1    1    2    0    0  0.24519123105E-01 -0.19549167813E-01 -0.17139901541E-01  0.35737005818E-01  0.00000000000E+00 0. -1.
  9000001    1    1    2    0    0 -0.24519123105E-01  0.19549167813E-01  0.17139901541E-01  0.35750994182E-01  0.10000000475E-02 0.  1.
</event>
<event>
 4   0  0.2441219E-02  0.9118800E+02  0.7818609E-02  0.1379984E+01
      -11   -1    0    0    0    0  0.00000000000E+00  0.00000000000E+00  0.35740347158E-01  0.35744000000E-01  0.51099999109E-03 0. -1.
       11   -1    0    0    0    0 -0.00000000000E+00 -0.00000000000E+00 -0.35740347158E-01  0.35744000000E-01  0.51099999109E-03 0.  1.
       22    1    1    2    0    0 -0.60633457937E-02  0.35205149175E-01 -0.98330780599E-03  0.35737005818E-01  0.00000000000E+00 0.  1.
  9000001    1    1    2    0    0  0.60633457937E-02 -0.35205149175E-01  0.98330780599E-03  0.35750994182E-01  0.10000000475E-02 0. -1.
</event>
<event>
 4   0  0.2441219E-02  0.9118800E+02  0.7818609E-02  0.1379984E+01
      -11   -1    0    0    0    0  0.00000000000E+00  0.00000000000E+00  0.35740347158E-01  0.35744000000E-01  0.51099999109E-03 0. -1.
       11   -1    0    0    0    0 -0.00000000000E+00 -0.00000000000E+00 -0.35740347158E-01  0.35744000000E-01  0.51099999109E-03 0.  1.
       22    1    1    2    0    0  0.57175701214E-02  0.23064867990E-02  0.35201180313E-01  0.35737005818E-01  0.00000000000E+00 0. -1.
  9000001    1    1    2    0    0 -0.57175701214E-02 -0.23064867990E-02 -0.35201180313E-01  0.35750994182E-01  0.10000000475E-02 0.  1.
</event>
<event>
 4   0  0.2441219E-02  0.9118800E+02  0.7818609E-02  0.1379984E+01
      -11   -1    0    0    0    0  0.00000000000E+00  0.00000000000E+00  0.35740347158E-01  0.35744000000E-01  0.51099999109E-03 0.  1.
       11   -1    0    0    0    0 -0.00000000000E+00 -0.00000000000E+00 -0.35740347158E-01  0.35744000000E-01  0.51099999109E-03 0. -1.
       22    1    1    2    0    0 -0.16820098202E-01 -0.93459598454E-02  0.30114297533E-01  0.35737005818E-01  0.00000000000E+00 0.  1.
  9000001    1    1    2    0    0  0.16820098202E-01  0.93459598454E-02 -0.30114297533E-01  0.35750994182E-01  0.10000000475E-02 0. -1.
</event>
<event>
 4   0  0.2441219E-02  0.9118800E+02  0.7818609E-02  0.1379984E+01
      -11   -1    0    0    0    0  0.00000000000E+00  0.00000000000E+00  0.35740347158E-01  0.35744000000E-01  0.51099999109E-03 0. -1.
       11   -1    0    0    0    0 -0.00000000000E+00 -0.00000000000E+00 -0.35740347158E-01  0.35744000000E-01  0.51099999109E-03 0.  1.
       22    1    1    2    0    0  0.29111341331E-02  0.24082201412E-01  0.26243217373E-01  0.35737005818E-01  0.00000000000E+00 0. -1.
  9000001    1    1    2    0    0 -0.29111341331E-02 -0.24082201412E-01 -0.26243217373E-01  0.35750994182E-01  0.10000000475E-02 0.  1.
</event>
<event>
 4   0  0.2441219E-02  0.9118800E+02  0.7818609E-02  0.1379984E+01
      -11   -1    0    0    0    0  0.00000000000E+00  0.00000000000E+00  0.35740347158E-01  0.35744000000E-01  0.51099999109E-03 0. -1.
       11   -1    0    0    0    0 -0.00000000000E+00 -0.00000000000E+00 -0.35740347158E-01  0.35744000000E-01  0.51099999109E-03 0.  1.
       22    1    1    2    0    0  0.15449488628E-01  0.51680467247E-02  0.31807832040E-01  0.35737005818E-01  0.00000000000E+00 0. -1.
  9000001    1    1    2    0    0 -0.15449488628E-01 -0.51680467247E-02 -0.31807832040E-01  0.35750994182E-01  0.10000000475E-02 0.  1.
</event>
<event>
 4   0  0.2441219E-02  0.9118800E+02  0.7818609E-02  0.1379984E+01
      -11   -1    0    0    0    0  0.00000000000E+00  0.00000000000E+00  0.35740347158E-01  0.35744000000E-01  0.51099999109E-03 0. -1.
       11   -1    0    0    0    0 -0.00000000000E+00 -0.00000000000E+00 -0.35740347158E-01  0.35744000000E-01  0.51099999109E-03 0.  1.
       22    1    1    2    0    0 -0.35740757849E-02 -0.11877958864E-02  0.35537989646E-01  0.35737005818E-01  0.00000000000E+00 0. -1.
  9000001    1    1    2    0    0  0.35740757849E-02  0.11877958864E-02 -0.35537989646E-01  0.35750994182E-01  0.10000000475E-02 0.  1.
</event>
<event>
 4   0  0.2441219E-02  0.9118800E+02  0.7818609E-02  0.1379984E+01
      -11   -1    0    0    0    0  0.00000000000E+00  0.00000000000E+00  0.35740347158E-01  0.35744000000E-01  0.51099999109E-03 0. -1.
       11   -1    0    0    0    0 -0.00000000000E+00 -0.00000000000E+00 -0.35740347158E-01  0.35744000000E-01  0.51099999109E-03 0.  1.
       22    1    1    2    0    0 -0.28345792155E-02 -0.21737369320E-02 -0.35558031628E-01  0.35737005818E-01  0.00000000000E+00 0.  1.
  9000001    1    1    2    0    0  0.28345792155E-02  0.21737369320E-02  0.35558031628E-01  0.35750994182E-01  0.10000000475E-02 0. -1.
</event>
<event>
 4   0  0.2441219E-02  0.9118800E+02  0.7818609E-02  0.1379984E+01
      -11   -1    0    0    0    0  0.00000000000E+00  0.00000000000E+00  0.35740347158E-01  0.35744000000E-01  0.51099999109E-03 0. -1.
       11   -1    0    0    0    0 -0.00000000000E+00 -0.00000000000E+00 -0.35740347158E-01  0.35744000000E-01  0.51099999109E-03 0.  1.
       22    1    1    2    0    0 -0.17260305645E-01 -0.22842308423E-01 -0.21387949406E-01  0.35737005818E-01  0.00000000000E+00 0. -1.
  9000001    1    1    2    0    0  0.17260305645E-01  0.22842308423E-01  0.21387949406E-01  0.35750994182E-01  0.10000000475E-02 0.  1.
</event>
<event>
 4   0  0.2441219E-02  0.9118800E+02  0.7818609E-02  0.1379984E+01
      -11   -1    0    0    0    0  0.00000000000E+00  0.00000000000E+00  0.35740347158E-01  0.35744000000E-01  0.51099999109E-03 0.  1.
       11   -1    0    0    0    0 -0.00000000000E+00 -0.00000000000E+00 -0.35740347158E-01  0.35744000000E-01  0.51099999109E-03 0. -1.
       22    1    1    2    0    0  0.30500393451E-02  0.21514231646E-02 -0.35541556286E-01  0.35737005818E-01  0.00000000000E+00 0. -1.
  9000001    1    1    2    0    0 -0.30500393451E-02 -0.21514231646E-02  0.35541556286E-01  0.35750994182E-01  0.10000000475E-02 0.  1.
</event>
<event>
 4   0  0.2441219E-02  0.9118800E+02  0.7818609E-02  0.1379984E+01
      -11   -1    0    0    0    0  0.00000000000E+00  0.00000000000E+00  0.35740347158E-01  0.35744000000E-01  0.51099999109E-03 0. -1.
       11   -1    0    0    0    0 -0.00000000000E+00 -0.00000000000E+00 -0.35740347158E-01  0.35744000000E-01  0.51099999109E-03 0.  1.
       22    1    1    2    0    0  0.10689191514E-02  0.39712764967E-02  0.35499576895E-01  0.35737005818E-01  0.00000000000E+00 0. -1.
  9000001    1    1    2    0    0 -0.10689191514E-02 -0.39712764967E-02 -0.35499576895E-01  0.35750994182E-01  0.10000000475E-02 0.  1.
</event>
<event>
 4   0  0.2441219E-02  0.9118800E+02  0.7818609E-02  0.1379984E+01
      -11   -1    0    0    0    0  0.00000000000E+00  0.00000000000E+00  0.35740347158E-01  0.35744000000E-01  0.51099999109E-03 0. -1.
       11   -1    0    0    0    0 -0.00000000000E+00 -0.00000000000E+00 -0.35740347158E-01  0.35744000000E-01  0.51099999109E-03 0.  1.
       22    1    1    2    0    0  0.24112316213E-02  0.36262931890E-02  0.35470685709E-01  0.35737005818E-01  0.00000000000E+00 0. -1.
  9000001    1    1    2    0    0 -0.24112316213E-02 -0.36262931890E-02 -0.35470685709E-01  0.35750994182E-01  0.10000000475E-02 0.  1.
</event>
<event>
 4   0  0.2441219E-02  0.9118800E+02  0.7818609E-02  0.1379984E+01
      -11   -1    0    0    0    0  0.00000000000E+00  0.00000000000E+00  0.35740347158E-01  0.35744000000E-01  0.51099999109E-03 0.  1.
       11   -1    0    0    0    0 -0.00000000000E+00 -0.00000000000E+00 -0.35740347158E-01  0.35744000000E-01  0.51099999109E-03 0. -1.
       22    1    1    2    0    0  0.16392609177E-01  0.27955876548E-01  0.15062699481E-01  0.35737005818E-01  0.00000000000E+00 0.  1.
  9000001    1    1    2    0    0 -0.16392609177E-01 -0.27955876548E-01 -0.15062699481E-01  0.35750994182E-01  0.10000000475E-02 0. -1.
</event>
<event>
 4   0  0.2441219E-02  0.9118800E+02  0.7818609E-02  0.1379984E+01
      -11   -1    0    0    0    0  0.00000000000E+00  0.00000000000E+00  0.35740347158E-01  0.35744000000E-01  0.51099999109E-03 0.  1.
       11   -1    0    0    0    0 -0.00000000000E+00 -0.00000000000E+00 -0.35740347158E-01  0.35744000000E-01  0.51099999109E-03 0. -1.
       22    1    1    2    0    0 -0.72411339669E-02 -0.16008252197E-01 -0.31119695136E-01  0.35737005818E-01  0.00000000000E+00 0. -1.
  9000001    1    1    2    0    0  0.72411339669E-02  0.16008252197E-01  0.31119695136E-01  0.35750994182E-01  0.10000000475E-02 0.  1.
</event>
<event>
 4   0  0.2441219E-02  0.9118800E+02  0.7818609E-02  0.1379984E+01
      -11   -1    0    0    0    0  0.00000000000E+00  0.00000000000E+00  0.35740347158E-01  0.35744000000E-01  0.51099999109E-03 0. -1.
       11   -1    0    0    0    0 -0.00000000000E+00 -0.00000000000E+00 -0.35740347158E-01  0.35744000000E-01  0.51099999109E-03 0.  1.
       22    1    1    2    0    0  0.10700752808E-01 -0.11868941585E-01  0.31964913575E-01  0.35737005818E-01  0.00000000000E+00 0. -1.
  9000001    1    1    2    0    0 -0.10700752808E-01  0.11868941585E-01 -0.31964913575E-01  0.35750994182E-01  0.10000000475E-02 0.  1.
</event>
<event>
 4   0  0.2441219E-02  0.9118800E+02  0.7818609E-02  0.1379984E+01
      -11   -1    0    0    0    0  0.00000000000E+00  0.00000000000E+00  0.35740347158E-01  0.35744000000E-01  0.51099999109E-03 0.  1.
       11   -1    0    0    0    0 -0.00000000000E+00 -0.00000000000E+00 -0.35740347158E-01  0.35744000000E-01  0.51099999109E-03 0. -1.
       22    1    1    2    0    0  0.71272898370E-02 -0.73951668535E-02  0.34229327070E-01  0.35737005818E-01  0.00000000000E+00 0.  1.
  9000001    1    1    2    0    0 -0.71272898370E-02  0.73951668535E-02 -0.34229327070E-01  0.35750994182E-01  0.10000000475E-02 0. -1.
</event>
<event>
 4   0  0.2441219E-02  0.9118800E+02  0.7818609E-02  0.1379984E+01
      -11   -1    0    0    0    0  0.00000000000E+00  0.00000000000E+00  0.35740347158E-01  0.35744000000E-01  0.51099999109E-03 0.  1.
       11   -1    0    0    0    0 -0.00000000000E+00 -0.00000000000E+00 -0.35740347158E-01  0.35744000000E-01  0.51099999109E-03 0. -1.
       22    1    1    2    0    0 -0.44714284098E-02  0.28324656477E-02  0.35342850072E-01  0.35737005818E-01  0.00000000000E+00 0.  1.
  9000001    1    1    2    0    0  0.44714284098E-02 -0.28324656477E-02 -0.35342850072E-01  0.35750994182E-01  0.10000000475E-02 0. -1.
</event>
<event>
 4   0  0.2441219E-02  0.9118800E+02  0.7818609E-02  0.1379984E+01
      -11   -1    0    0    0    0  0.00000000000E+00  0.00000000000E+00  0.35740347158E-01  0.35744000000E-01  0.51099999109E-03 0.  1.
       11   -1    0    0    0    0 -0.00000000000E+00 -0.00000000000E+00 -0.35740347158E-01  0.35744000000E-01  0.51099999109E-03 0. -1.
       22    1    1    2    0    0 -0.19110377377E-02 -0.48190306063E-02  0.35358994098E-01  0.35737005818E-01  0.00000000000E+00 0.  1.
  9000001    1    1    2    0    0  0.19110377377E-02  0.48190306063E-02 -0.35358994098E-01  0.35750994182E-01  0.10000000475E-02 0. -1.
</event>
<event>
 4   0  0.2441219E-02  0.9118800E+02  0.7818609E-02  0.1379984E+01
      -11   -1    0    0    0    0  0.00000000000E+00  0.00000000000E+00  0.35740347158E-01  0.35744000000E-01  0.51099999109E-03 0. -1.
       11   -1    0    0    0    0 -0.00000000000E+00 -0.00000000000E+00 -0.35740347158E-01  0.35744000000E-01  0.51099999109E-03 0.  1.
       22    1    1    2    0    0 -0.11369088597E-01 -0.31803881686E-01  0.11678635152E-01  0.35737005818E-01  0.00000000000E+00 0. -1.
  9000001    1    1    2    0    0  0.11369088597E-01  0.31803881686E-01 -0.11678635152E-01  0.35750994182E-01  0.10000000475E-02 0.  1.
</event>
<event>
 4   0  0.2441219E-02  0.9118800E+02  0.7818609E-02  0.1379984E+01
      -11   -1    0    0    0    0  0.00000000000E+00  0.00000000000E+00  0.35740347158E-01  0.35744000000E-01  0.51099999109E-03 0.  1.
       11   -1    0    0    0    0 -0.00000000000E+00 -0.00000000000E+00 -0.35740347158E-01  0.35744000000E-01  0.51099999109E-03 0. -1.
       22    1    1    2    0    0 -0.89755177573E-02 -0.82518290351E-02 -0.33592871021E-01  0.35737005818E-01  0.00000000000E+00 0. -1.
  9000001    1    1    2    0    0  0.89755177573E-02  0.82518290351E-02  0.33592871021E-01  0.35750994182E-01  0.10000000475E-02 0.  1.
</event>
<event>
 4   0  0.2441219E-02  0.9118800E+02  0.7818609E-02  0.1379984E+01
      -11   -1    0    0    0    0  0.00000000000E+00  0.00000000000E+00  0.35740347158E-01  0.35744000000E-01  0.51099999109E-03 0.  1.
       11   -1    0    0    0    0 -0.00000000000E+00 -0.00000000000E+00 -0.35740347158E-01  0.35744000000E-01  0.51099999109E-03 0. -1.
       22    1    1    2    0    0 -0.25476056786E-02  0.20830908582E-02 -0.35585165767E-01  0.35737005818E-01  0.00000000000E+00 0. -1.
  9000001    1    1    2    0    0  0.25476056786E-02 -0.20830908582E-02  0.35585165767E-01  0.35750994182E-01  0.10000000475E-02 0.  1.
</event>
<event>
 4   0  0.2441219E-02  0.9118800E+02  0.7818609E-02  0.1379984E+01
      -11   -1    0    0    0    0  0.00000000000E+00  0.00000000000E+00  0.35740347158E-01  0.35744000000E-01  0.51099999109E-03 0. -1.
       11   -1    0    0    0    0 -0.00000000000E+00 -0.00000000000E+00 -0.35740347158E-01  0.35744000000E-01  0.51099999109E-03 0.  1.
       22    1    1    2    0    0  0.12957470816E-02  0.33091793012E-02  0.35559864408E-01  0.35737005818E-01  0.00000000000E+00 0. -1.
  9000001    1    1    2    0    0 -0.12957470816E-02 -0.33091793012E-02 -0.35559864408E-01  0.35750994182E-01  0.10000000475E-02 0.  1.
</event>
<event>
 4   0  0.2441219E-02  0.9118800E+02  0.7818609E-02  0.1379984E+01
      -11   -1    0    0    0    0  0.00000000000E+00  0.00000000000E+00  0.35740347158E-01  0.35744000000E-01  0.51099999109E-03 0. -1.
       11   -1    0    0    0    0 -0.00000000000E+00 -0.00000000000E+00 -0.35740347158E-01  0.35744000000E-01  0.51099999109E-03 0.  1.
       22    1    1    2    0    0 -0.29281622056E-02  0.10519445382E-01 -0.34027940282E-01  0.35737005818E-01  0.00000000000E+00 0.  1.
  9000001    1    1    2    0    0  0.29281622056E-02 -0.10519445382E-01  0.34027940282E-01  0.35750994182E-01  0.10000000475E-02 0. -1.
</event>
<event>
 4   0  0.2441219E-02  0.9118800E+02  0.7818609E-02  0.1379984E+01
      -11   -1    0    0    0    0  0.00000000000E+00  0.00000000000E+00  0.35740347158E-01  0.35744000000E-01  0.51099999109E-03 0.  1.
       11   -1    0    0    0    0 -0.00000000000E+00 -0.00000000000E+00 -0.35740347158E-01  0.35744000000E-01  0.51099999109E-03 0. -1.
       22    1    1    2    0    0  0.12573045997E-01  0.25725574508E-01  0.21383332655E-01  0.35737005818E-01  0.00000000000E+00 0. -1.
  9000001    1    1    2    0    0 -0.12573045997E-01 -0.25725574508E-01 -0.21383332655E-01  0.35750994182E-01  0.10000000475E-02 0.  1.
</event>
<event>
 4   0  0.2441219E-02  0.9118800E+02  0.7818609E-02  0.1379984E+01
      -11   -1    0    0    0    0  0.00000000000E+00  0.00000000000E+00  0.35740347158E-01  0.35744000000E-01  0.51099999109E-03 0.  1.
       11   -1    0    0    0    0 -0.00000000000E+00 -0.00000000000E+00 -0.35740347158E-01  0.35744000000E-01  0.51099999109E-03 0. -1.
       22    1    1    2    0    0 -0.46884507418E-02  0.77094821015E-03  0.35419735366E-01  0.35737005818E-01  0.00000000000E+00 0.  1.
  9000001    1    1    2    0    0  0.46884507418E-02 -0.77094821015E-03 -0.35419735366E-01  0.35750994182E-01  0.10000000475E-02 0. -1.
</event>
<event>
 4   0  0.2441219E-02  0.9118800E+02  0.7818609E-02  0.1379984E+01
      -11   -1    0    0    0    0  0.00000000000E+00  0.00000000000E+00  0.35740347158E-01  0.35744000000E-01  0.51099999109E-03 0. -1.
       11   -1    0    0    0    0 -0.00000000000E+00 -0.00000000000E+00 -0.35740347158E-01  0.35744000000E-01  0.51099999109E-03 0.  1.
       22    1    1    2    0    0 -0.16107655258E-01  0.16560573559E-01 -0.27265810650E-01  0.35737005818E-01  0.00000000000E+00 0.  1.
  9000001    1    1    2    0    0  0.16107655258E-01 -0.16560573559E-01  0.27265810650E-01  0.35750994182E-01  0.10000000475E-02 0. -1.
</event>
<event>
 4   0  0.2441219E-02  0.9118800E+02  0.7818609E-02  0.1379984E+01
      -11   -1    0    0    0    0  0.00000000000E+00  0.00000000000E+00  0.35740347158E-01  0.35744000000E-01  0.51099999109E-03 0. -1.
       11   -1    0    0    0    0 -0.00000000000E+00 -0.00000000000E+00 -0.35740347158E-01  0.35744000000E-01  0.51099999109E-03 0.  1.
       22    1    1    2    0    0 -0.19771744581E-01 -0.12444617569E-01  0.27043357681E-01  0.35737005818E-01  0.00000000000E+00 0. -1.
  9000001    1    1    2    0    0  0.19771744581E-01  0.12444617569E-01 -0.27043357681E-01  0.35750994182E-01  0.10000000475E-02 0.  1.
</event>
<event>
 4   0  0.2441219E-02  0.9118800E+02  0.7818609E-02  0.1379984E+01
      -11   -1    0    0    0    0  0.00000000000E+00  0.00000000000E+00  0.35740347158E-01  0.35744000000E-01  0.51099999109E-03 0. -1.
       11   -1    0    0    0    0 -0.00000000000E+00 -0.00000000000E+00 -0.35740347158E-01  0.35744000000E-01  0.51099999109E-03 0.  1.
       22    1    1    2    0    0 -0.13722150055E-01  0.10021347406E-01  0.31438969113E-01  0.35737005818E-01  0.00000000000E+00 0. -1.
  9000001    1    1    2    0    0  0.13722150055E-01 -0.10021347406E-01 -0.31438969113E-01  0.35750994182E-01  0.10000000475E-02 0.  1.
</event>
<event>
 4   0  0.2441219E-02  0.9118800E+02  0.7818609E-02  0.1379984E+01
      -11   -1    0    0    0    0  0.00000000000E+00  0.00000000000E+00  0.35740347158E-01  0.35744000000E-01  0.51099999109E-03 0.  1.
       11   -1    0    0    0    0 -0.00000000000E+00 -0.00000000000E+00 -0.35740347158E-01  0.35744000000E-01  0.51099999109E-03 0. -1.
       22    1    1    2    0    0  0.27881257977E-01  0.66246195683E-02 -0.21351427448E-01  0.35737005818E-01  0.00000000000E+00 0. -1.
  9000001    1    1    2    0    0 -0.27881257977E-01 -0.66246195683E-02  0.21351427448E-01  0.35750994182E-01  0.10000000475E-02 0.  1.
</event>
<event>
 4   0  0.2441219E-02  0.9118800E+02  0.7818609E-02  0.1379984E+01
      -11   -1    0    0    0    0  0.00000000000E+00  0.00000000000E+00  0.35740347158E-01  0.35744000000E-01  0.51099999109E-03 0.  1.
       11   -1    0    0    0    0 -0.00000000000E+00 -0.00000000000E+00 -0.35740347158E-01  0.35744000000E-01  0.51099999109E-03 0. -1.
       22    1    1    2    0    0 -0.59700714144E-02 -0.27596570638E-01 -0.21907102072E-01  0.35737005818E-01  0.00000000000E+00 0. -1.
  9000001    1    1    2    0    0  0.59700714144E-02  0.27596570638E-01  0.21907102072E-01  0.35750994182E-01  0.10000000475E-02 0.  1.
</event>
<event>
 4   0  0.2441219E-02  0.9118800E+02  0.7818609E-02  0.1379984E+01
      -11   -1    0    0    0    0  0.00000000000E+00  0.00000000000E+00  0.35740347158E-01  0.35744000000E-01  0.51099999109E-03 0.  1.
       11   -1    0    0    0    0 -0.00000000000E+00 -0.00000000000E+00 -0.35740347158E-01  0.35744000000E-01  0.51099999109E-03 0. -1.
       22    1    1    2    0    0 -0.74479955381E-02 -0.17292987756E-02  0.34909461083E-01  0.35737005818E-01  0.00000000000E+00 0.  1.
  9000001    1    1    2    0    0  0.74479955381E-02  0.17292987756E-02 -0.34909461083E-01  0.35750994182E-01  0.10000000475E-02 0. -1.
</event>
<event>
 4   0  0.2441219E-02  0.9118800E+02  0.7818609E-02  0.1379984E+01
      -11   -1    0    0    0    0  0.00000000000E+00  0.00000000000E+00  0.35740347158E-01  0.35744000000E-01  0.51099999109E-03 0.  1.
       11   -1    0    0    0    0 -0.00000000000E+00 -0.00000000000E+00 -0.35740347158E-01  0.35744000000E-01  0.51099999109E-03 0. -1.
       22    1    1    2    0    0  0.10865876628E-02  0.42331604969E-02  0.35468764629E-01  0.35737005818E-01  0.00000000000E+00 0.  1.
  9000001    1    1    2    0    0 -0.10865876628E-02 -0.42331604969E-02 -0.35468764629E-01  0.35750994182E-01  0.10000000475E-02 0. -1.
</event>
<event>
 4   0  0.2441219E-02  0.9118800E+02  0.7818609E-02  0.1379984E+01
      -11   -1    0    0    0    0  0.00000000000E+00  0.00000000000E+00  0.35740347158E-01  0.35744000000E-01  0.51099999109E-03 0.  1.
       11   -1    0    0    0    0 -0.00000000000E+00 -0.00000000000E+00 -0.35740347158E-01  0.35744000000E-01  0.51099999109E-03 0. -1.
       22    1    1    2    0    0 -0.23156845334E-01 -0.10232611270E-01  0.25222762847E-01  0.35737005818E-01  0.00000000000E+00 0.  1.
  9000001    1    1    2    0    0  0.23156845334E-01  0.10232611270E-01 -0.25222762847E-01  0.35750994182E-01  0.10000000475E-02 0. -1.
</event>
